Membrane in water
40347
    1TMC1    C1    1   2.979   3.920  11.325 -0.2751 -0.0712  0.5117
    1TMC1    C2    2   2.850   3.953  11.274  0.2224  0.3698 -0.7783
    1TMC1    C3    3   2.850   3.988  11.143 -0.3626 -0.0041  0.3266
    1TMC1    C4    4   3.100   3.933  11.257 -1.0222  0.2509  0.1595
    1TMC1    C5    5   3.085   3.969  11.129 -0.0433 -0.3679  0.2270
    1TMC1    C6    6   2.961   4.005  11.066 -0.3945 -0.0694  0.0212
    1TMC1     C    7   2.991   3.905  11.470 -0.2374 -0.3055  0.0104
    1TMC1     O    8   2.887   3.937  11.533  0.2019 -0.4012  0.3870
    1TMC1     H    9   2.763   3.972  11.336  1.1472 -0.0034  0.6438
    1TMC1    H1   10   3.198   3.910  11.295 -1.7985  1.0140  2.5652
    1TMC1    H2   11   2.963   4.029  10.960 -0.2920  0.3125  0.1078
    1TMC1    C7   12   3.211   3.969  11.062 -0.1292  0.1711 -0.0089
    1TMC1    C8   13   2.723   4.050  11.096 -0.2675  0.2958 -0.2227
    1TMC1    O1   14   3.274   3.866  11.057  0.7882  0.2226 -0.0050
    1TMC1    O2   15   2.665   4.021  10.995 -0.4243  0.4419  0.0659
    1TMC1    O3   16   3.202   4.051  10.956  0.7137  0.1122 -0.2269
    1TMC1    H3   17   3.148   4.129  10.978 -1.9545 -2.0554  0.8419
    1TMC1    O5   18   2.759   4.178  11.134  0.2186 -0.6733  0.1308
    1TMC1    H5   19   2.823   4.173  11.208  0.7522 -3.5692 -0.5352
    2MPD2     C   20   3.250   3.780  11.899  0.1500  0.0658  0.5896
    2MPD2    C1   21   3.119   3.825  11.886 -0.4259  0.1518 -0.0373
    2MPD2    C2   22   3.078   3.868  11.762  0.0194  0.6219  0.0844
    2MPD2    C3   23   3.162   3.848  11.653  0.2997 -0.0081  0.1187
    2MPD2    C4   24   3.287   3.796  11.664 -0.3563 -0.0687 -0.2157
    2MPD2    C5   25   3.325   3.758  11.786 -1.2540 -0.5792 -0.0754
    2MPD2     H   26   2.974   3.897  11.752 -0.1517  1.0126  3.2241
    2MPD2    H1   27   3.357   3.772  11.585 -0.5150  0.4247 -0.5003
    2MPD2    H2   28   3.296   3.743  11.991  0.9949 -0.9567 -0.2425
    2MPD2    H3   29   3.418   3.704  11.802 -0.4444  1.1845  1.1636
    2MPD2     N   30   3.117   3.870  11.520  0.0099  0.0688  0.2259
    2MPD2    H5   31   3.190   3.853  11.451  0.5993 -0.1790  0.9084
    2MPD2    N1   32   3.034   3.843  11.995  0.5761 -0.1983 -0.3497
    2MPD2    H7   33   2.957   3.904  11.973  0.8413  0.4407  0.4700
    3TMC1    C1   34   1.835   4.496  10.493 -0.0249  0.4573 -0.8825
    3TMC1    C2   35   1.964   4.537  10.522 -0.0703  0.3145 -0.5636
    3TMC1    C3   36   2.059   4.541  10.429  0.5826  0.2789 -0.1880
    3TMC1    C4   37   1.806   4.459  10.368 -0.0798 -1.1861 -0.1762
    3TMC1    C5   38   1.900   4.476  10.269  1.1519 -0.4387  0.3453
    3TMC1    C6   39   2.032   4.509  10.299  1.0397 -0.2227  0.1160
    3TMC1     C   40   1.746   4.460  10.598 -0.6079 -0.1753 -0.0916
    3TMC1     O   41   1.677   4.359  10.583 -0.1583  0.4432  0.0413
    3TMC1     H   42   1.992   4.535  10.627  0.4738  1.4960 -0.6854
    3TMC1    H1   43   1.702   4.435  10.351  0.0935 -1.6907 -0.5305
    3TMC1    H2   44   2.098   4.508  10.213  1.4367 -0.0331  0.4196
    3TMC1    C7   45   1.858   4.461  10.129  0.0360 -0.5142 -0.1821
    3TMC1    C8   46   2.184   4.587  10.462 -0.5545  0.7524 -0.5992
    3TMC1    O1   47   1.757   4.407  10.090 -0.5221  0.7918  0.4335
    3TMC1    O2   48   2.278   4.571  10.385 -0.3609  0.3870 -0.4838
    3TMC1    O3   49   1.924   4.549  10.049  0.0383  0.1067  0.5258
    3TMC1    H3   50   1.997   4.606  10.082  1.2920 -1.2761  0.1331
    3TMC1    O5   51   2.157   4.699  10.538  0.2125  0.2995  0.3607
    3TMC1    H5   52   2.063   4.709  10.564  0.2754  2.1272 -0.1188
    4MPD2     C   53   1.520   4.576  11.056  0.4197 -0.3882 -0.1729
    4MPD2    C1   54   1.584   4.684  11.006 -0.1312  0.2322 -0.6859
    4MPD2    C2   55   1.654   4.673  10.892  0.0839  0.4329 -0.0780
    4MPD2    C3   56   1.666   4.558  10.821 -0.3133  0.3551 -0.0843
    4MPD2    C4   57   1.589   4.451  10.860  0.0361  0.2885 -0.1671
    4MPD2    C5   58   1.524   4.461  10.979 -0.0007 -0.0838 -0.0190
    4MPD2     H   59   1.707   0.027  10.859 -0.7159  1.3039  0.9626
    4MPD2    H1   60   1.583   4.363  10.798 -2.3450  0.8131 -0.6989
    4MPD2    H2   61   1.459   4.576  11.146  0.2963 -0.3486 -0.2573
    4MPD2    H3   62   1.471   4.373  11.014 -0.6682 -0.2612 -1.5078
    4MPD2     N   63   1.744   4.557  10.703  0.3480 -0.1349  0.4686
    4MPD2    H5   64   1.800   4.641  10.693 -0.2743  0.2636  0.3497
    4MPD2    N1   65   1.587   0.074  11.081 -0.4797 -0.0684  0.3121
    4MPD2    H7   66   1.595   0.158  11.024  0.9124 -1.4017 -1.4511
    5TCq1    O1   67   3.332   1.849  11.742 -0.0895  0.2758 -0.3456
    5TCq1    C1   68   3.224   1.837  11.820  0.6478 -0.4286  0.0353
    5TCq1    O2   69   3.236   1.820  11.939  0.2327  0.0550  0.5737
    5TCq1    C2   70   3.110   1.862  11.735 -0.6895 -0.3067 -0.6174
    5TCq1    C3   71   3.011   1.913  11.801 -0.6153  0.4269  0.5024
    5TCq1    C4   72   2.891   1.939  11.746 -0.0213 -0.3851 -0.0697
    5TCq1    C5   73   2.873   1.906  11.612 -0.6348 -0.4031 -0.3126
    5TCq1    C6   74   2.987   1.862  11.549 -0.2716 -0.0354 -0.0695
    5TCq1    C7   75   3.104   1.836  11.602  0.6190 -0.2591 -0.1138
    5TCq1    C8   76   2.966   1.833  11.406  0.5612  0.3377  0.3194
    5TCq1    O4   77   3.016   1.736  11.359  0.3869  0.1048  0.6745
    5TCq1    C9   78   2.786   1.979  11.825 -0.3812 -1.0421  0.4402
    5TCq1    O5   79   2.672   1.956  11.786  0.2213  0.7981  0.0692
    5TCq1    O6   80   2.807   2.029  11.936 -0.1906  0.2824  0.2273
    5TCq1    H1   81   3.315   1.881  11.651  0.8175 -0.0396 -0.6171
    5TCq1    H2   82   3.026   1.936  11.906 -1.3317 -0.5840  0.8244
    5TCq1    H3   83   2.772   1.893  11.577 -1.9097  1.6255  2.6290
    5TCq1    H4   84   3.184   1.790  11.543  0.5896  0.6711 -0.8769
    6MPD2     C   85   2.749   2.038  11.207 -0.1498 -0.5482  0.1707
    6MPD2    C1   86   2.818   1.924  11.233  0.2131 -0.6868  0.3301
    6MPD2    C2   87   2.815   1.814  11.146  0.6672  0.0812  0.5021
    6MPD2    C3   88   2.750   1.821  11.025  0.4049 -0.3140  0.7866
    6MPD2    C4   89   2.695   1.945  10.987  0.4233 -0.1398 -0.6183
    6MPD2    C5   90   2.688   2.045  11.084 -0.1609  0.7066 -0.0166
    6MPD2     H   91   2.860   1.717  11.165 -2.3586 -1.3183  0.4863
    6MPD2    H1   92   2.648   1.960  10.891 -0.9212 -2.7796 -0.3853
    6MPD2    H2   93   2.757   2.127  11.268 -0.1229 -0.9072  0.6863
    6MPD2    H3   94   2.637   2.139  11.068 -1.0402 -0.1614 -2.4203
    6MPD2     N   95   2.738   1.703  10.944  0.0602 -0.0944 -0.1154
    6MPD2    H5   96   2.773   1.613  10.974  2.3476  1.0576  0.6146
    6MPD2    N1   97   2.876   1.922  11.360  0.8152  0.2600  0.1370
    6MPD2    H7   98   2.876   2.002  11.423 -2.2466 -0.6015  1.2223
    7TCq1    O1   99   0.397   1.819  13.101 -1.2132  0.6961  0.0599
    7TCq1    C1  100   0.326   1.841  12.982  0.0746  0.9055  0.6483
    7TCq1    O2  101   0.256   1.934  12.959  0.4669  0.0816 -0.9737
    7TCq1    C2  102   0.372   1.744  12.888 -0.7233  0.0720  0.4279
    7TCq1    C3  103   0.408   1.798  12.770  0.0333 -0.1891  0.2415
    7TCq1    C4  104   0.444   1.707  12.671 -0.6453  0.2113 -0.1004
    7TCq1    C5  105   0.444   1.574  12.691  0.4120  0.3097 -0.7561
    7TCq1    C6  106   0.416   1.527  12.816  0.0806  0.0198  0.2026
    7TCq1    C7  107   0.384   1.609  12.919 -0.2365  0.6884  0.4813
    7TCq1    C8  108   0.372   1.389  12.832 -0.1630  0.5423 -0.1289
    7TCq1    O4  109   0.341   1.357  12.944  0.4874  0.6179 -0.4204
    7TCq1    C9  110   0.459   1.756  12.533 -0.2388 -0.8065  0.2780
    7TCq1    O5  111   0.411   1.870  12.506 -0.6550 -0.3979 -0.0669
    7TCq1    O6  112   0.506   1.673  12.449  0.2252  0.2104  0.1564
    7TCq1    H1  113   0.451   1.738  13.098 -1.9559  0.1377  1.4215
    7TCq1    H2  114   0.397   1.902  12.741 -1.3925  0.2502  2.3762
    7TCq1    H3  115   0.481   1.505  12.616  1.2962  0.7972 -0.7658
    7TCq1    H4  116   0.348   1.569  13.013  0.8075  0.5190  0.8152
    8MPD2     C  117   0.149   0.988  12.632  0.2411 -0.1745 -0.2818
    8MPD2    C1  118   0.153   1.027  12.764  0.0998  0.2505  0.5026
    8MPD2    C2  119   0.219   1.142  12.792  0.2970 -0.2459 -0.2811
    8MPD2    C3  120   0.268   1.218  12.690 -0.6317  0.1667 -0.7358
    8MPD2    C4  121   0.248   1.185  12.565  0.0188 -0.4484  0.3830
    8MPD2    C5  122   0.188   1.072  12.531  0.0434 -0.3167  0.0246
    8MPD2     H  123   0.216   1.183  12.892  0.1425  0.2432 -0.4878
    8MPD2    H1  124   0.277   1.252  12.485  0.8648  0.7111  1.6545
    8MPD2    H2  125   0.097   0.897  12.606 -1.5053  0.8523 -0.3937
    8MPD2    H3  126   0.167   1.032  12.432  1.3581  3.1024 -1.6441
    8MPD2     N  127   0.327   1.342  12.715  0.3409  0.0323 -0.3841
    8MPD2    H5  128   0.339   1.406  12.638 -0.6308  0.4961 -0.1546
    8MPD2    N1  129   0.105   0.935  12.859  0.3002  0.0625  0.3437
    8MPD2    H7  130   0.081   0.843  12.826 -2.3739  1.4707 -1.5734
    9TMC1    C1  131   2.078   0.490  11.675  0.2481  0.4008  0.5762
    9TMC1    C2  132   2.133   0.362  11.665 -0.7240 -0.3107  0.1972
    9TMC1    C3  133   2.179   0.323  11.544  0.4201  0.6229  0.1602
    9TMC1    C4  134   2.092   0.583  11.572  0.6410  0.5118  0.0418
    9TMC1    C5  135   2.136   0.534  11.449  0.3085  0.2204 -0.6754
    9TMC1    C6  136   2.172   0.403  11.433 -0.0297  0.0339 -0.2076
    9TMC1     C  137   2.094   0.565  11.804  0.3750  0.0887 -0.2356
    9TMC1     O  138   2.028   0.667  11.811  0.2469 -0.0151  0.3003
    9TMC1     H  139   2.135   0.286  11.742  0.8170  0.5673  1.0287
    9TMC1    H1  140   2.059   0.684  11.592  1.3052  1.1514 -2.1151
    9TMC1    H2  141   2.195   0.373  11.331  2.2953  0.3231  0.2307
    9TMC1    C7  142   2.138   0.624  11.334  0.4969 -0.4154 -0.4125
    9TMC1    C8  143   2.270   0.205  11.550 -0.3007 -0.5731  0.0127
    9TMC1    O1  144   2.058   0.711  11.307  0.0288 -0.3588 -0.1380
    9TMC1    O2  145   2.256   0.110  11.627  0.2272 -0.3996 -0.0551
    9TMC1    O3  146   2.256   0.596  11.274 -0.5091 -0.0658 -0.0334
    9TMC1    H3  147   2.308   0.540  11.335 -0.6125  1.1076  1.1220
    9TMC1    O5  148   2.386   0.239  11.488  0.7578  0.1862 -0.0565
    9TMC1    H5  149   2.397   0.327  11.445  2.8620 -0.2120 -0.3496
   10MPD2     C  150   2.214   0.668  12.068  0.6060 -0.1800  0.3531
   10MPD2    C1  151   2.209   0.539  12.023  0.9389 -0.5231  0.2986
   10MPD2    C2  152   2.261   0.438  12.105  0.3848 -0.7374  0.6988
   10MPD2    C3  153   2.336   0.478  12.219 -0.1143  0.7304 -0.7443
   10MPD2    C4  154   2.352   0.613  12.253 -0.3310  0.0067  0.6420
   10MPD2    C5  155   2.283   0.708  12.179  0.2866  0.4927 -0.0988
   10MPD2     H  156   2.250   0.333  12.079  0.8992 -0.5965 -0.0715
   10MPD2    H1  157   2.411   0.641  12.339  0.1506  1.0733 -0.0335
   10MPD2    H2  158   2.163   0.746  12.012 -1.4030 -0.8629  1.1998
   10MPD2    H3  159   2.289   0.813  12.205  1.0599  0.2512  0.6873
   10MPD2     N  160   2.412   0.394  12.296  0.5745 -0.6204  0.0795
   10MPD2    H5  161   2.464   0.431  12.374 -1.1096 -2.0571  1.8943
   10MPD2    N1  162   2.166   0.496  11.899 -0.3478 -0.0548 -0.0810
   10MPD2    H7  163   2.193   0.401  11.875 -1.7019 -0.5578  0.3945
   11TCq1    O1  164   3.386   4.636  14.676  0.2848  0.0953  0.2296
   11TCq1    C1  165   3.265   4.579  14.670  0.3541 -0.2653  0.3044
   11TCq1    O2  166   3.158   4.627  14.711 -0.0644 -0.1759 -0.0755
   11TCq1    C2  167   3.288   4.457  14.593 -0.4123  0.2740  0.2576
   11TCq1    C3  168   3.381   4.368  14.644  0.4203 -0.1563 -0.1389
   11TCq1    C4  169   3.372   4.236  14.614 -0.9071  0.1713 -0.0406
   11TCq1    C5  170   3.269   4.191  14.536  0.1010 -0.7582 -0.6148
   11TCq1    C6  171   3.160   4.274  14.508 -0.1780  0.2967  0.2405
   11TCq1    C7  172   3.171   4.409  14.534  0.4710 -0.4891 -0.2933
   11TCq1    C8  173   3.057   4.239  14.411  0.3015 -0.4266 -0.4713
   11TCq1    O4  174   2.965   4.317  14.385  0.6765  0.5131  0.2910
   11TCq1    C9  175   3.475   4.151  14.663 -0.4584 -0.1452 -0.3512
   11TCq1    O5  176   3.511   4.069  14.577  0.3772 -0.5242  0.6392
   11TCq1    O6  177   3.552   4.183  14.760 -0.0823 -0.3257  0.2345
   11TCq1    H1  178   3.448   4.593  14.613  1.2703  0.1819  1.1483
   11TCq1    H2  179   3.467   4.399  14.703  0.5325 -1.8781  0.5997
   11TCq1    H3  180   3.258   4.083  14.536 -0.6157 -0.6859 -0.1951
   11TCq1    H4  181   3.089   4.477  14.516  0.1327 -0.0773  2.8861
   12MPD2     C  182   2.940   4.166  14.144 -0.7608  0.4543  0.0217
   12MPD2    C1  183   3.039   4.093  14.207 -0.7373  0.1057  0.4395
   12MPD2    C2  184   3.099   3.986  14.140  0.4520 -0.2994 -1.4722
   12MPD2    C3  185   3.066   3.961  14.004  0.2522 -0.8096 -0.1813
   12MPD2    C4  186   2.972   4.047  13.947  0.0866 -0.0998 -0.6628
   12MPD2    C5  187   2.907   4.138  14.014 -0.3029  0.5949 -0.1679
   12MPD2     H  188   3.172   3.930  14.197 -1.3331 -2.1652 -1.0242
   12MPD2    H1  189   2.955   4.029  13.842 -1.1323 -0.7693 -0.3469
   12MPD2    H2  190   2.876   4.228  14.205 -3.1105  0.8410 -2.8543
   12MPD2    H3  191   2.820   4.187  13.972 -0.7190 -1.9094 -2.1718
   12MPD2     N  192   3.130   3.867  13.925  0.1776 -0.0913 -0.1577
   12MPD2    H5  193   3.113   3.870  13.825  2.0765 -1.1422 -0.5179
   12MPD2    N1  194   3.090   4.131  14.339  0.6791 -0.1886  0.0960
   12MPD2    H7  195   3.164   4.066  14.366  0.2671 -0.3045  0.9589
   13TCq1    O1  196   2.729   0.779  11.595 -0.3799  0.1642  0.0602
   13TCq1    C1  197   2.863   0.784  11.589 -0.1350 -0.1191 -0.3991
   13TCq1    O2  198   2.937   0.874  11.627  0.2312 -0.4599  0.4022
   13TCq1    C2  199   2.914   0.654  11.542  0.0491 -0.1250  0.6989
   13TCq1    C3  200   3.033   0.661  11.487  0.2717 -0.0631  0.4306
   13TCq1    C4  201   3.107   0.544  11.480  0.2787  0.1591 -0.2156
   13TCq1    C5  202   3.057   0.430  11.519 -0.1759  0.9296  0.5268
   13TCq1    C6  203   2.934   0.427  11.578  0.2476 -0.1404  0.1601
   13TCq1    C7  204   2.860   0.539  11.595  0.5653  0.5798  0.0152
   13TCq1    C8  205   2.868   0.303  11.598 -0.4740 -0.4438  0.1252
   13TCq1    O4  206   2.775   0.306  11.676  0.1439 -0.2665 -0.5664
   13TCq1    C9  207   3.226   0.542  11.398  0.3214  0.9274 -0.0186
   13TCq1    O5  208   3.271   0.430  11.349 -0.0319  0.1904 -0.4229
   13TCq1    O6  209   3.277   0.652  11.377 -0.1638  0.4107 -0.3061
   13TCq1    H1  210   2.703   0.715  11.525  0.8953  0.6211 -0.8112
   13TCq1    H2  211   3.079   0.755  11.458 -0.0873  0.3186  1.1107
   13TCq1    H3  212   3.116   0.340  11.505  0.4905  1.2596  1.2534
   13TCq1    H4  213   2.767   0.538  11.650  1.7080 -3.2854  1.9112
   14MPD2     C  214   2.943   4.711  11.498 -0.5626  0.1404 -0.7699
   14MPD2    C1  215   2.864   0.074  11.539  0.2316  0.0488  0.0701
   14MPD2    C2  216   2.723   0.056  11.560 -0.3188  0.5934  0.0054
   14MPD2    C3  217   2.667   4.659  11.565 -0.5163 -0.0890 -0.8051
   14MPD2    C4  218   2.759   4.563  11.523  0.3062  0.1723 -0.5023
   14MPD2    C5  219   2.892   4.588  11.492  0.0430 -0.0603  0.5640
   14MPD2     H  220   2.662   0.137  11.599 -3.9423 -1.9699 -0.2763
   14MPD2    H1  221   2.731   4.459  11.505 -0.1984  0.2871 -0.3814
   14MPD2    H2  222   3.050   4.723  11.484 -0.6510  1.4323 -0.3476
   14MPD2    H3  223   2.951   4.505  11.456 -0.0530  0.0122  0.2383
   14MPD2     N  224   2.533   4.636  11.580  0.4223  0.1157  0.0758
   14MPD2    H5  225   2.466   4.710  11.564 -0.4004 -0.6101  0.1828
   14MPD2    N1  226   2.928   0.197  11.537  0.0917  0.1439 -0.2033
   14MPD2    H7  227   3.021   0.207  11.500  0.1274 -1.7664 -0.6064
   15TCq1    O1  228   0.955   3.687   2.194 -0.0315  0.6478 -0.3011
   15TCq1    C1  229   0.846   3.762   2.156 -0.8720 -0.3465  0.9036
   15TCq1    O2  230   0.835   3.882   2.178 -0.3868 -0.5574  0.2547
   15TCq1    C2  231   0.742   3.666   2.107  0.1084  0.5961  0.0700
   15TCq1    C3  232   0.616   3.699   2.146 -0.4237  0.3187 -0.7225
   15TCq1    C4  233   0.527   3.592   2.149  0.5969 -0.0242 -0.3325
   15TCq1    C5  234   0.557   3.471   2.106  0.4536 -0.1957 -0.3612
   15TCq1    C6  235   0.684   3.444   2.062 -1.1212 -0.1064  0.5228
   15TCq1    C7  236   0.783   3.535   2.074  0.2738  0.4420 -0.3651
   15TCq1    C8  237   0.709   3.349   1.957 -0.2288 -0.4824 -0.3796
   15TCq1    O4  238   0.828   3.315   1.944 -0.8893 -0.1019  0.3302
   15TCq1    C9  239   0.398   3.614   2.202  0.1036 -0.1870  0.1680
   15TCq1    O5  240   0.354   3.518   2.274  0.8082 -0.1770  0.0240
   15TCq1    O6  241   0.362   3.733   2.212 -0.0094 -0.2249 -0.1324
   15TCq1    H1  242   0.955   3.589   2.188  0.5153  0.8983 -4.4786
   15TCq1    H2  243   0.599   3.801   2.177 -0.2072  0.0717  0.1947
   15TCq1    H3  244   0.482   3.392   2.107  2.7062 -2.3580 -0.4693
   15TCq1    H4  245   0.886   3.514   2.048 -0.0243  1.3209 -2.3032
   16MPD2     C  246   0.465   3.288   1.684  0.2464 -0.2331  0.8829
   16MPD2    C1  247   0.582   3.272   1.752 -0.6280  0.2975 -0.2174
   16MPD2    C2  248   0.685   3.198   1.694  0.9718  0.5375  0.0870
   16MPD2    C3  249   0.673   3.142   1.569  0.2325 -0.1745 -0.2352
   16MPD2    C4  250   0.558   3.149   1.504  0.2821 -0.0461  0.1295
   16MPD2    C5  251   0.458   3.232   1.560  0.3390 -0.4970 -0.0601
   16MPD2     H  252   0.776   3.187   1.753  1.6155  0.5618 -0.8935
   16MPD2    H1  253   0.537   3.113   1.403 -2.0605  0.4480  0.4364
   16MPD2    H2  254   0.385   3.349   1.724  1.4764  1.0455  1.4042
   16MPD2    H3  255   0.362   3.235   1.511 -1.4977 -0.3205  3.5496
   16MPD2     N  256   0.782   3.088   1.506  0.3991  0.1951  0.2598
   16MPD2    H5  257   0.862   3.072   1.565  0.5858 -0.3140 -0.1358
   16MPD2    N1  258   0.602   3.340   1.878 -0.2319  0.0299  0.2814
   16MPD2    H7  259   0.522   3.394   1.910  1.8597  2.2097  1.8817
   17TMC1    C1  260   1.922   3.011  10.444 -0.8128 -0.1924 -1.3054
   17TMC1    C2  261   1.963   2.960  10.565 -0.4913  0.0102 -0.0082
   17TMC1    C3  262   1.881   2.874  10.629 -0.5392  0.1417 -0.0000
   17TMC1    C4  263   1.803   2.978  10.389 -0.0554  0.2114  0.5870
   17TMC1    C5  264   1.725   2.883  10.455 -1.0188 -0.3882 -0.3493
   17TMC1    C6  265   1.765   2.824  10.570 -0.2844  0.5483  0.1929
   17TMC1     C  266   1.998   3.120  10.383 -0.3133 -0.4458  0.6984
   17TMC1     O  267   1.941   3.176  10.290 -0.1740 -0.5233  0.3285
   17TMC1     H  268   2.053   2.993  10.614 -0.6919  1.4804 -0.6303
   17TMC1    H1  269   1.766   3.016  10.295  0.0151 -0.0442  0.4566
   17TMC1    H2  270   1.703   2.752  10.623  0.1439  0.9470  1.2368
   17TMC1    C7  271   1.586   2.877  10.417 -0.2061 -0.0621 -0.2938
   17TMC1    C8  272   1.921   2.849  10.767  0.6037  0.3202  0.4079
   17TMC1    O1  273   1.497   2.851  10.492 -0.2065 -0.2511 -0.1153
   17TMC1    O2  274   2.009   2.907  10.822 -0.2837  0.2414 -0.6319
   17TMC1    O3  275   1.572   2.872  10.284 -0.2157 -0.1347  0.8060
   17TMC1    H3  276   1.658   2.877  10.237  0.1863 -2.8983  1.2323
   17TMC1    O5  277   1.863   2.738  10.817 -0.4996 -0.5088  0.0337
   17TMC1    H5  278   1.814   2.682  10.752  0.8434 -2.2925  0.5369
   18MPD2     C  279   2.190   3.305  10.276  0.3650  0.1742 -0.0874
   18MPD2    C1  280   2.197   3.258  10.407 -0.2074  0.3256 -0.1251
   18MPD2    C2  281   2.296   3.323  10.484  0.5289  0.2970  0.1025
   18MPD2    C3  282   2.383   3.419  10.440 -0.5047 -0.5005 -0.2514
   18MPD2    C4  283   2.381   3.451  10.304 -0.3253 -0.2470  0.4656
   18MPD2    C5  284   2.279   3.392  10.224  0.0313 -0.0389 -0.2158
   18MPD2     H  285   2.294   3.304  10.591  1.9593  2.0156  0.4342
   18MPD2    H1  286   2.434   3.539  10.269 -0.4707 -0.0135  0.8323
   18MPD2    H2  287   2.120   3.259  10.207 -1.1493 -0.1167  1.6686
   18MPD2    H3  288   2.268   3.429  10.123  2.1561  1.4570  0.1162
   18MPD2     N  289   2.482   3.491  10.521  0.4211  0.2465 -0.1799
   18MPD2    H5  290   2.534   3.562  10.471 -1.8967  1.9871 -0.1235
   18MPD2    N1  291   2.110   3.160  10.447 -0.6469  0.5048  0.4542
   18MPD2    H7  292   2.122   3.122  10.540 -1.0905 -1.6425 -0.3448
   19TMC2    C1  293   0.046   4.407  13.689 -0.7866  1.0391 -1.0990
   19TMC2    C2  294   0.001   4.428  13.560 -0.1681  0.3164 -0.7836
   19TMC2    C3  295   4.608   4.443  13.528  0.5462  0.0467 -0.0602
   19TMC2    C4  296   4.687   4.397  13.789  0.1426 -0.5336  0.9076
   19TMC2    C5  297   4.557   4.396  13.751 -0.4473 -0.2098 -0.2243
   19TMC2    C6  298   4.512   4.412  13.619 -0.2817 -0.2253 -0.1660
   19TMC2     C  299   0.168   4.329  13.702 -0.6700  0.4997  0.5137
   19TMC2     O  300   0.229   4.295  13.601 -0.4696 -0.5569 -0.4310
   19TMC2     H  301   0.081   4.454  13.492  0.6628 -1.4333 -0.4518
   19TMC2    H1  302   4.712   4.387  13.894  3.7758 -2.4616 -0.1347
   19TMC2    H2  303   4.406   4.416  13.596 -0.6614 -0.4142  1.5165
   19TMC2    C7  304   4.466   4.322  13.835 -0.4242  0.1062 -0.1630
   19TMC2    C8  305   4.590   4.447  13.383  0.3777  0.0383  0.0937
   19TMC2    O1  306   4.522   4.269  13.931  0.2742 -0.2906  0.2727
   19TMC2    O2  307   4.687   4.443  13.304  0.1007  0.2953 -0.6545
   19TMC2    O5  308   4.473   4.495  13.353 -0.4352  0.0748  0.1527
   19TMC2    H5  309   4.409   4.500  13.427  0.0093 -1.8379  0.6583
   20MPD2     C  310   0.357   4.122  13.801 -0.6268 -0.4258  0.1205
   20MPD2    C1  311   0.301   4.214  13.887 -0.4203  0.7340 -0.0295
   20MPD2    C2  312   0.344   4.233  14.018  0.6339 -0.3220 -0.3776
   20MPD2    C3  313   0.443   4.153  14.069  0.4226 -0.0558  0.5555
   20MPD2    C4  314   0.498   4.064  13.985 -0.3940 -0.1886  0.9743
   20MPD2    C5  315   0.458   4.048  13.854 -0.2864  0.5284 -0.1363
   20MPD2     H  316   0.289   4.301  14.082  0.1162  0.3669 -1.5486
   20MPD2    H1  317   0.577   4.002  14.025  0.1348 -1.7233 -2.4532
   20MPD2    H2  318   0.324   4.101  13.700 -0.0124 -0.6286 -0.0428
   20MPD2    H3  319   0.511   3.971  13.798  0.3752  0.2102  0.9212
   20MPD2     N  320   0.485   4.152  14.202 -0.4418  0.1136 -0.0553
   20MPD2    H5  321   0.554   4.081  14.224 -0.6912 -0.1438 -0.0936
   20MPD2    N1  322   0.201   4.305  13.833  0.2368  0.5462 -0.1334
   20MPD2    H7  323   0.156   4.362  13.904 -0.9188  1.1746 -1.3713
   21TMC2    C1  324   1.990   4.586  14.535  0.3767 -0.9577 -0.1134
   21TMC2    C2  325   1.993   4.451  14.573 -0.3854  0.0242  0.6496
   21TMC2    C3  326   1.970   4.421  14.702 -0.0875 -0.8876 -0.2458
   21TMC2    C4  327   1.925   4.679  14.608 -0.0857  0.1484 -0.5314
   21TMC2    C5  328   1.892   4.645  14.739  0.1660 -0.6626 -0.1896
   21TMC2    C6  329   1.907   4.517  14.787  0.3247  0.2430  0.2272
   21TMC2     C  330   2.087   4.627  14.431 -0.5511 -0.1161 -0.5906
   21TMC2     O  331   2.176   4.547  14.407  0.2510 -0.4121  1.0229
   21TMC2     H  332   2.036   4.375  14.509  2.5870  2.6019 -0.4121
   21TMC2    H1  333   1.897   0.044  14.578  0.4615  0.8566  1.3212
   21TMC2    H2  334   1.878   4.496  14.890  0.7990  0.2402  0.3610
   21TMC2    C7  335   1.853   0.011  14.838 -0.3594 -0.3947  0.3016
   21TMC2    C8  336   1.998   4.283  14.744 -0.5759 -0.2917 -0.7080
   21TMC2    O1  337   1.865   4.726  14.957  0.1262  0.3609 -0.1786
   21TMC2    O2  338   1.984   4.186  14.668 -0.3056  0.1279 -0.0472
   21TMC2    O5  339   2.055   4.292  14.862 -0.9238 -0.2751 -0.4090
   21TMC2    H5  340   2.057   4.379  14.906  1.5228 -1.2582  1.4027
   22MPD2     C  341   2.410   0.281  14.381 -0.1730 -0.2516 -0.1289
   22MPD2    C1  342   2.429   0.151  14.415  0.4407  0.5444  0.8122
   22MPD2    C2  343   2.328   0.056  14.406  0.5446 -0.4200  0.3237
   22MPD2    C3  344   2.202   0.108  14.383 -0.2565  0.1100 -0.0502
   22MPD2    C4  345   2.184   0.240  14.343 -0.2938 -0.5441 -0.7471
   22MPD2    C5  346   2.295   0.333  14.343  0.2192 -0.7462 -0.2067
   22MPD2     H  347   2.348   4.689  14.439 -2.4326 -1.5136 -1.2510
   22MPD2    H1  348   2.085   0.273  14.315  0.0147  1.5897  0.6358
   22MPD2    H2  349   2.491   0.353  14.373 -0.1451 -0.0086  2.1497
   22MPD2    H3  350   2.275   0.437  14.318 -1.2821 -0.7599  0.9026
   22MPD2     N  351   2.089   0.027  14.397  0.0167 -0.6227 -1.3034
   22MPD2    H5  352   2.003   0.079  14.389 -0.6026 -1.6698 -1.3816
   22MPD2    N1  353   2.553   0.106  14.454 -0.3201 -0.6315  0.4891
   22MPD2    H7  354   2.572   0.006  14.459  0.4550 -0.6915 -3.2783
   23TMC2    C1  355   3.645   1.111  14.303  0.2888  0.5712 -0.0033
   23TMC2    C2  356   3.761   1.104  14.228 -0.6619  0.3078 -0.6001
   23TMC2    C3  357   3.758   1.026  14.117 -0.0182 -0.0846  0.6401
   23TMC2    C4  358   3.528   1.036  14.282 -0.9601 -0.1272  0.4275
   23TMC2    C5  359   3.532   0.964  14.161  0.9521 -0.2797  0.1741
   23TMC2    C6  360   3.644   0.957  14.083 -1.2050 -0.4356  0.2480
   23TMC2     C  361   3.651   1.183  14.429  0.1236 -0.1960  0.2578
   23TMC2     O  362   3.578   1.133  14.518 -0.5258 -0.2817 -0.0732
   23TMC2     H  363   3.858   1.135  14.264 -0.6835 -0.5059  0.1476
   23TMC2    H1  364   3.435   1.055  14.336 -0.7532  1.8518  0.0577
   23TMC2    H2  365   3.647   0.887  14.000  2.1495 -0.8911  0.7372
   23TMC2    C7  366   3.414   0.913  14.099  1.2408 -0.4710 -0.4243
   23TMC2    C8  367   3.871   0.937  14.111  0.5213  0.4916 -1.2377
   23TMC2    O1  368   3.411   0.896  13.977 -0.1644  0.1095  0.3749
   23TMC2    O2  369   3.860   0.818  14.136 -0.1535 -0.6560  0.0432
   23TMC2    O5  370   3.981   1.015  14.114  0.2268  0.5787  0.0242
   23TMC2    H5  371   3.973   1.083  14.043 -0.7743  2.4901  1.9574
   24MPD2     C  372   3.905   1.491  14.766  0.6090 -0.0870 -0.1043
   24MPD2    C1  373   3.811   1.386  14.789 -0.3357  0.2492 -1.0415
   24MPD2    C2  374   3.751   1.320  14.680  0.3041  0.2520 -0.4923
   24MPD2    C3  375   3.785   1.361  14.545 -0.3761  0.4713  1.3741
   24MPD2    C4  376   3.870   1.466  14.523  0.9865  0.2431 -0.1784
   24MPD2    C5  377   3.933   1.522  14.635 -0.1840  0.5191 -1.1989
   24MPD2     H  378   3.679   1.241  14.693 -0.5585  0.9991 -0.7319
   24MPD2    H1  379   3.886   1.506  14.424  0.0737 -0.0999 -0.4583
   24MPD2    H2  380   3.952   1.546  14.846  1.4708 -0.4343 -0.3680
   24MPD2    H3  381   4.005   1.602  14.629  0.3605  0.3523  2.8295
   24MPD2     N  382   3.750   1.288  14.437  0.4642  0.0139  1.1100
   24MPD2    H5  383   3.781   1.309  14.343  0.9879 -4.2178  0.3258
   24MPD2    N1  384   3.793   1.343  14.921  0.3047  0.1763 -0.1802
   24MPD2    H7  385   3.840   1.395  14.994  1.8964  0.9021 -1.7385
   25TMC2    C1  386   2.592   2.602  11.464  0.1421 -0.7892  0.6968
   25TMC2    C2  387   2.730   2.630  11.467 -0.7166  0.1013  0.3836
   25TMC2    C3  388   2.778   2.727  11.561  0.4745 -0.8669 -0.6553
   25TMC2    C4  389   2.508   2.679  11.542  0.0246  0.4891 -0.2741
   25TMC2    C5  390   2.559   2.780  11.628 -0.0996  0.4297 -0.3410
   25TMC2    C6  391   2.691   2.806  11.629 -0.0888  0.6603 -0.8780
   25TMC2     C  392   2.553   2.473  11.417  0.6535  0.0459 -0.1380
   25TMC2     O  393   2.645   2.395  11.391  0.0024 -0.0192  0.1551
   25TMC2     H  394   2.806   2.569  11.419 -1.3308  0.1874 -0.7125
   25TMC2    H1  395   2.402   2.661  11.532 -0.2095  0.9345  1.4555
   25TMC2    H2  396   2.728   2.894  11.681 -1.4704  1.6837 -1.6448
   25TMC2    C7  397   2.469   2.887  11.679 -0.3747  0.3610 -0.1903
   25TMC2    C8  398   2.920   2.748  11.560  0.0515  0.1957 -0.0157
   25TMC2    O1  399   2.502   2.961  11.773 -0.1669 -0.1138  0.1686
   25TMC2    O2  400   2.994   2.731  11.464  0.2684  0.0456 -0.5957
   25TMC2    O5  401   2.947   2.736  11.690 -0.4876  0.3030  0.7400
   25TMC2    H5  402   2.873   2.728  11.754 -1.6065  0.0687 -0.5916
   26MPD2     C  403   2.257   2.115  11.237  0.0506  0.0544 -0.0787
   26MPD2    C1  404   2.180   2.238  11.230 -0.3673  0.1754 -0.4609
   26MPD2    C2  405   2.233   2.348  11.288 -0.1092 -0.2286 -0.2618
   26MPD2    C3  406   2.358   2.344  11.350  0.3369 -0.3893 -0.0854
   26MPD2    C4  407   2.415   2.226  11.377 -0.6405 -0.6344 -0.6433
   26MPD2    C5  408   2.372   2.107  11.315 -0.3712 -0.5753  0.1708
   26MPD2     H  409   2.176   2.440  11.285  1.1152  0.5964  1.4931
   26MPD2    H1  410   2.505   2.221  11.436 -0.1343 -1.0926 -1.4485
   26MPD2    H2  411   2.226   2.023  11.189  1.5903 -0.7300  0.4265
   26MPD2    H3  412   2.429   2.019  11.341 -0.8093 -0.7645  0.4763
   26MPD2     N  413   2.418   2.463  11.401  0.0885 -0.1981 -0.3568
   26MPD2    H5  414   2.366   2.550  11.397 -1.7685 -1.3498 -1.3780
   26MPD2    N1  415   2.067   2.229  11.150 -0.8202  0.7073 -0.0381
   26MPD2    H7  416   2.049   2.140  11.104 -0.8696 -1.1356  3.5506
   27TMC2    C1  417   1.220   0.587  12.062 -0.0863  0.1417  0.6543
   27TMC2    C2  418   1.190   0.638  11.941 -0.1222  0.3584  0.9019
   27TMC2    C3  419   1.259   0.754  11.910  0.1423 -0.4886  0.1540
   27TMC2    C4  420   1.313   0.633  12.147  0.3327  0.1482  0.7769
   27TMC2    C5  421   1.378   0.752  12.113 -0.5628  0.1069 -0.3474
   27TMC2    C6  422   1.357   0.813  11.990  0.1111 -0.1186 -0.8061
   27TMC2     C  423   1.150   0.465  12.091 -0.4179  0.3411  0.1090
   27TMC2     O  424   1.109   0.396  12.000  0.5038  0.2484 -0.0367
   27TMC2     H  425   1.135   0.581  11.867 -1.9456  1.7381  1.2160
   27TMC2    H1  426   1.343   0.577  12.235 -2.0838 -0.0780  1.4528
   27TMC2    H2  427   1.406   0.906  11.964  0.6447 -1.0225 -3.0384
   27TMC2    C7  428   1.457   0.805  12.226  0.7028  0.4621 -0.0087
   27TMC2    C8  429   1.237   0.818  11.779  0.1855 -0.4023  0.6513
   27TMC2    O1  430   1.512   0.728  12.306  0.1158  0.9037  0.2474
   27TMC2    O2  431   1.311   0.908  11.732  0.1696 -0.2701  0.3766
   27TMC2    O5  432   1.105   0.807  11.747  0.0090 -0.1200 -0.6978
   27TMC2    H5  433   1.049   0.747  11.801 -1.2970  1.0237 -0.7741
   28MPD2     C  434   0.876   0.201  12.424 -0.0757 -0.8667 -0.1655
   28MPD2    C1  435   0.920   0.308  12.488 -0.1457  0.0869 -0.3262
   28MPD2    C2  436   1.002   0.389  12.419 -0.1664 -0.3253  0.9565
   28MPD2    C3  437   1.044   0.367  12.290  0.5593  0.0499 -0.4881
   28MPD2    C4  438   1.006   0.247  12.231 -0.3726 -0.9573 -0.8002
   28MPD2    C5  439   0.917   0.170  12.300  0.3927 -0.2751 -1.3823
   28MPD2     H  440   1.036   0.477  12.473  3.6034  0.0490 -2.0393
   28MPD2    H1  441   1.039   0.215  12.133 -0.9087  1.4128 -1.7581
   28MPD2    H2  442   0.802   0.135  12.467 -1.0034 -0.2187 -0.7653
   28MPD2    H3  443   0.866   0.086  12.255 -1.9330 -0.0194  0.8077
   28MPD2     N  444   1.126   0.460  12.225  0.0725  0.0821 -0.2554
   28MPD2    H5  445   1.160   0.535  12.285 -0.4012 -2.3387  3.0118
   28MPD2    N1  446   0.900   0.316  12.631  0.1709 -0.0114 -0.6434
   28MPD2    H7  447   0.827   0.254  12.664 -1.6238  2.5083  0.0229
   29TMC2    C1  448   1.683   3.102  14.019 -0.1641  1.0075 -0.1823
   29TMC2    C2  449   1.760   3.164  13.923  0.2182  0.4334 -0.5564
   29TMC2    C3  450   1.802   3.292  13.953 -0.8712 -0.1458 -0.6147
   29TMC2    C4  451   1.635   3.165  14.130 -0.2539  0.0554  0.2015
   29TMC2    C5  452   1.661   3.294  14.143 -0.2496  0.5784 -0.4535
   29TMC2    C6  453   1.739   3.364  14.053  0.3772 -0.2452  0.5660
   29TMC2     C  454   1.591   2.998  13.987  0.6481  0.3044 -0.4384
   29TMC2     O  455   1.632   2.893  13.935 -0.3926 -0.7535 -0.5577
   29TMC2     H  456   1.796   3.117  13.832 -3.0457 -0.3710 -1.4335
   29TMC2    H1  457   1.566   3.114  14.197  0.2027 -0.4615  0.2850
   29TMC2    H2  458   1.750   3.471  14.060 -0.7806  0.1678 -3.9995
   29TMC2    C7  459   1.536   3.364  14.167  0.5094 -0.1077 -0.2797
   29TMC2    C8  460   1.885   3.363  13.853 -0.1457  0.0052 -0.5145
   29TMC2    O1  461   1.433   3.301  14.139  0.2458 -0.2096 -0.4082
   29TMC2    O2  462   1.846   3.373  13.737 -0.1547  0.7653 -0.5418
   29TMC2    O5  463   1.939   3.459  13.925  0.8258  0.1931 -0.5493
   29TMC2    H5  464   1.956   3.423  14.014  1.3337  1.1130 -0.2730
   30MPD2     C  465   1.117   2.844  14.043  0.1474 -0.2101 -0.1470
   30MPD2    C1  466   1.227   2.770  14.016  0.5212  0.6291  0.0217
   30MPD2    C2  467   1.332   2.841  13.966 -0.1575  0.4081  0.1740
   30MPD2    C3  468   1.344   2.973  13.986 -0.5846 -1.0055  0.1926
   30MPD2    C4  469   1.239   3.041  14.033  0.6286  0.3167  0.6355
   30MPD2    C5  470   1.121   2.978  14.051 -0.1907 -0.2547 -0.3541
   30MPD2     H  471   1.423   2.795  13.929 -2.4182 -3.2221 -0.8917
   30MPD2    H1  472   1.248   3.145  14.063  1.3996  0.3765  0.1788
   30MPD2    H2  473   1.029   2.800  14.088  0.1451 -1.2007 -1.1118
   30MPD2    H3  474   1.032   3.031  14.083 -1.3840 -1.5453 -1.5136
   30MPD2     N  475   1.464   3.049  13.987  0.6129 -0.2350 -0.2730
   30MPD2    H5  476   1.463   3.147  14.012  1.4868 -0.6240  1.3265
   30MPD2    N1  477   1.232   2.633  14.033 -0.5501 -0.0474  0.1553
   30MPD2    H7  478   1.314   2.590  13.991 -0.7707 -0.4457  0.1332
   31TMC2    C1  479   3.933   1.963  15.220 -0.1590  0.2149 -0.9509
   31TMC2    C2  480   3.885   1.846  15.158 -0.1127 -1.0866 -0.4124
   31TMC2    C3  481   3.882   1.733  15.240  0.2494 -0.2596  0.2952
   31TMC2    C4  482   3.967   1.967  15.356 -0.0945  0.2482  0.9177
   31TMC2    C5  483   3.974   1.850  15.424 -0.0528  0.5671  0.2632
   31TMC2    C6  484   3.929   1.729  15.369 -0.3557 -0.5740 -0.7229
   31TMC2     C  485   3.943   2.077  15.128 -0.0658  0.7234 -0.2104
   31TMC2     O  486   3.905   2.051  15.012 -0.5823 -0.0004  0.3755
   31TMC2     H  487   3.837   1.840  15.061  0.1193  1.0641 -0.6651
   31TMC2    H1  488   4.020   2.050  15.402 -1.8906  0.8941  1.8483
   31TMC2    H2  489   3.929   1.635  15.423  1.5202  0.0542  0.3706
   31TMC2    C7  490   3.956   1.860  15.568 -0.3263 -0.3203 -0.3521
   31TMC2    C8  491   3.827   1.620  15.180  0.2219 -0.4034  0.0847
   31TMC2    O1  492   3.989   1.764  15.636 -0.3205  0.2131 -0.3193
   31TMC2    O2  493   3.865   1.563  15.079  0.1804  0.2434 -0.4652
   31TMC2    O5  494   3.709   1.589  15.241  0.1843  0.1138 -0.0434
   31TMC2    H5  495   3.697   1.657  15.310  0.2465  0.7586 -0.6636
   32MPD2     C  496   4.120   2.513  14.938 -0.0633  0.7337 -0.7539
   32MPD2    C1  497   4.080   2.401  14.872  0.6869  0.5552  0.3771
   32MPD2    C2  498   4.044   2.291  14.942  0.1162  0.0352 -0.1262
   32MPD2    C3  499   4.036   2.303  15.084  0.6604  0.1674 -1.1421
   32MPD2    C4  500   4.066   2.425  15.148  0.2483  0.4163  0.3446
   32MPD2    C5  501   4.110   2.527  15.074  0.3726  0.0488  0.3273
   32MPD2     H  502   4.020   2.197  14.893 -0.2398  0.5054 -0.8445
   32MPD2    H1  503   4.057   2.437  15.255 -2.5742 -1.4515  0.3083
   32MPD2    H2  504   4.144   2.604  14.883 -0.1708 -0.4376 -2.7179
   32MPD2    H3  505   4.141   2.622  15.118 -1.3420  0.9467 -0.4288
   32MPD2     N  506   4.002   2.191  15.174  0.3379 -0.8869  0.1453
   32MPD2    H5  507   4.014   2.197  15.274  2.3984  0.2386 -0.1761
   32MPD2    N1  508   4.073   2.406  14.729  0.0533 -0.5671  0.0971
   32MPD2    H7  509   4.106   2.492  14.685  1.1414 -1.0661 -0.0458
   33TMC2    C1  510   3.247   4.171  10.299  0.8490 -0.1225 -0.5339
   33TMC2    C2  511   3.325   4.081  10.235  0.9341 -0.3592  0.4090
   33TMC2    C3  512   3.417   4.123  10.149 -0.1334 -0.8514  0.5808
   33TMC2    C4  513   3.250   4.302  10.261 -0.1070 -0.1675 -0.7688
   33TMC2    C5  514   3.334   4.343  10.163  0.7961 -0.2556  0.7068
   33TMC2    C6  515   3.412   4.251  10.092 -0.0580  0.0187  0.4413
   33TMC2     C  516   3.159   4.134  10.409 -0.4478 -0.0039  0.9297
   33TMC2     O  517   3.137   4.012  10.425 -0.5503  0.9859  0.0429
   33TMC2     H  518   3.345   3.980  10.270  0.0483 -0.6857 -0.0052
   33TMC2    H1  519   3.175   4.374  10.293 -0.9701 -1.1582 -0.5862
   33TMC2    H2  520   3.476   4.288  10.012  0.6305  0.3524  1.1473
   33TMC2    C7  521   3.344   4.482  10.122 -0.0001  1.3082  0.1503
   33TMC2    C8  522   3.458   4.005  10.072  0.1762 -0.2207 -0.4708
   33TMC2    O1  523   3.420   4.513  10.032 -0.0145  0.0578 -0.6113
   33TMC2    O2  524   3.381   3.910  10.044 -0.2263 -0.4921 -0.0557
   33TMC2    O5  525   3.538   4.050   9.975  0.9559  0.3036 -0.0329
   33TMC2    H5  526   3.584   4.133  10.000  2.1546 -0.6970  1.0560
   34MPD2     C  527   2.825   4.242  10.791  1.0013  0.1064 -0.3410
   34MPD2    C1  528   2.844   4.128  10.713 -0.2800  0.5534 -0.1158
   34MPD2    C2  529   2.938   4.117  10.609  0.1861  0.0254  0.1968
   34MPD2    C3  530   3.023   4.228  10.587 -0.5799  0.3135  0.4003
   34MPD2    C4  531   2.998   4.339  10.661 -0.1730 -0.2469  0.0202
   34MPD2    C5  532   2.895   4.348  10.749  0.6958  0.4449  0.3112
   34MPD2     H  533   2.947   4.026  10.551  0.3616 -0.3574  0.8262
   34MPD2    H1  534   3.051   4.432  10.643 -0.5546 -0.1340 -0.5458
   34MPD2    H2  535   2.766   4.233  10.881  1.9047 -1.7985  0.0685
   34MPD2    H3  536   2.878   4.443  10.797 -0.1505  0.0889  0.7271
   34MPD2     N  537   3.118   4.244  10.487  0.1751  0.6596  0.1482
   34MPD2    H5  538   3.163   4.334  10.477  0.9096  0.3312  0.4983
   34MPD2    N1  539   2.769   4.010  10.741 -0.1123  0.0771  0.7233
   34MPD2    H7  540   2.728   4.002  10.833 -0.5716  0.6476  0.5670
   35TMC2    C1  541   3.713   0.802  11.559  0.1305 -0.1438 -0.6106
   35TMC2    C2  542   3.637   0.892  11.489 -0.2794  0.0514 -0.0948
   35TMC2    C3  543   3.500   0.890  11.499  0.3957  0.6777 -0.2772
   35TMC2    C4  544   3.657   0.705  11.644 -0.0000 -0.0131 -0.1350
   35TMC2    C5  545   3.519   0.719  11.661  0.1327 -0.2104  0.5168
   35TMC2    C6  546   3.434   0.808  11.589  0.0522 -0.2574 -0.4434
   35TMC2     C  547   3.840   0.764  11.495 -0.0966 -0.0491  0.2865
   35TMC2     O  548   3.877   0.817  11.391  0.0552  0.4629  0.2216
   35TMC2     H  549   3.682   0.959  11.417 -0.0564 -0.8343 -0.7684
   35TMC2    H1  550   3.702   0.622  11.697  0.8630 -0.5415 -1.7051
   35TMC2    H2  551   3.326   0.812  11.599  0.1938  2.1756  0.1098
   35TMC2    C7  552   3.448   0.597  11.703  0.3276  0.1241 -0.4240
   35TMC2    C8  553   3.435   0.945  11.381 -0.5205 -0.8442  0.5738
   35TMC2    O1  554   3.507   0.492  11.680  0.2500  0.3782 -0.4272
   35TMC2    O2  555   3.473   1.037  11.307  0.4016 -0.0856  0.5712
   35TMC2    O5  556   3.304   0.903  11.393  0.1287  0.1062 -0.3215
   35TMC2    H5  557   3.296   0.805  11.401  1.1881  0.3699  4.1400
   36MPD2     C  558   4.225   0.441  11.453  0.0574  0.2300  0.6012
   36MPD2    C1  559   4.200   0.462  11.591 -0.2865  0.1584  0.2001
   36MPD2    C2  560   4.086   0.525  11.624 -0.0435 -0.0928 -0.1614
   36MPD2    C3  561   3.998   0.579  11.533  0.5558 -0.3682 -0.3077
   36MPD2    C4  562   4.023   0.557  11.396  0.0287 -0.0641 -0.4146
   36MPD2    C5  563   4.139   0.491  11.357  0.6421  0.2268  0.0716
   36MPD2     H  564   4.074   0.538  11.731 -1.0738 -0.0806 -0.2709
   36MPD2    H1  565   3.950   0.597  11.327  1.0649  0.1889 -1.3571
   36MPD2    H2  566   4.307   0.375  11.426  0.3275  0.0125  1.9367
   36MPD2    H3  567   4.160   0.469  11.253  0.3104 -0.3684  0.1307
   36MPD2     N  568   3.897   0.674  11.577 -0.9900  0.0866 -0.4749
   36MPD2    H5  569   3.871   0.677  11.675 -2.4623 -3.2302 -0.7842
   36MPD2    N1  570   4.305   0.417  11.671  0.4496  0.5115  0.2845
   36MPD2    H7  571   4.395   0.398  11.627  0.7122 -0.2467  1.1450
   37TMC2    C1  572   1.796   0.904  11.684 -0.6343 -0.0852 -0.0448
   37TMC2    C2  573   1.700   0.910  11.583  0.2520 -1.2406 -0.3767
   37TMC2    C3  574   1.757   0.935  11.458  0.1187 -0.1142 -0.2475
   37TMC2    C4  575   1.932   0.913  11.667  0.2255  0.1337  0.2925
   37TMC2    C5  576   1.974   0.939  11.539  0.1215  1.2456 -0.1934
   37TMC2    C6  577   1.892   0.939  11.430  1.1442 -0.3310 -0.1750
   37TMC2     C  578   1.746   0.902  11.821 -0.5008 -0.2992  0.1618
   37TMC2     O  579   1.638   0.947  11.855  0.2428  0.2559  1.2349
   37TMC2     H  580   1.596   0.893  11.606  0.5500 -2.8102 -0.1654
   37TMC2    H1  581   2.000   0.893  11.749  2.2296  1.8784 -0.9427
   37TMC2    H2  582   1.919   0.942  11.325  1.8598  0.8324  0.0412
   37TMC2    C7  583   2.113   0.969  11.527 -0.5132  0.4136 -0.1423
   37TMC2    C8  584   1.667   0.905  11.351  0.7380 -0.2752  0.0617
   37TMC2    O1  585   2.180   0.985  11.629  0.1048 -0.0018 -0.2227
   37TMC2    O2  586   1.675   0.808  11.280 -0.1457 -0.2841 -0.1781
   37TMC2    O5  587   1.548   0.964  11.393 -0.6547 -0.6621  0.6617
   37TMC2    H5  588   1.566   1.052  11.432 -0.5020 -0.9938  1.3244
   38MPD2     C  589   1.825   0.840  12.319  0.4283  0.5042  0.0113
   38MPD2    C1  590   1.882   0.735  12.251  0.3434 -0.1591  1.5561
   38MPD2    C2  591   1.892   0.741  12.113 -0.2915 -0.3170  0.0507
   38MPD2    C3  592   1.829   0.837  12.040 -0.0850 -0.0405  0.4657
   38MPD2    C4  593   1.776   0.945  12.109 -0.3986 -0.2123 -0.1390
   38MPD2    C5  594   1.773   0.948  12.248 -0.5800 -0.9477 -0.4247
   38MPD2     H  595   1.945   0.659  12.067 -0.2889 -0.5644  0.4959
   38MPD2    H1  596   1.726   1.032  12.067 -0.8561 -1.4959 -2.2741
   38MPD2    H2  597   1.814   0.836  12.427 -1.4968 -0.5783 -0.2268
   38MPD2    H3  598   1.728   1.031  12.301 -2.4312 -1.4007 -1.2659
   38MPD2     N  599   1.838   0.841  11.899  0.2438  0.4511 -0.0320
   38MPD2    H5  600   1.904   0.776  11.856  0.5806  0.4510  0.4759
   38MPD2    N1  601   1.928   0.624  12.320 -0.4683 -0.3720  0.1426
   38MPD2    H7  602   1.957   0.552  12.254  1.6578  0.5227  0.0796
   39TMC2    C1  603   1.469   2.815   1.691  0.1531  0.2623  0.0403
   39TMC2    C2  604   1.471   2.900   1.798  0.9016 -1.2587 -0.7686
   39TMC2    C3  605   1.586   2.968   1.820 -0.4222 -0.0322 -0.1145
   39TMC2    C4  606   1.579   2.796   1.609  0.1399 -0.1893  0.3400
   39TMC2    C5  607   1.698   2.847   1.658 -1.2839  0.0618  0.3016
   39TMC2    C6  608   1.706   2.937   1.762 -0.1440  0.1373 -0.8391
   39TMC2     C  609   1.342   2.784   1.645 -0.2721  0.2886  0.2806
   39TMC2     O  610   1.243   2.847   1.683  0.3230  0.6180 -0.2352
   39TMC2     H  611   1.391   2.909   1.871  0.1719  0.6594 -1.8203
   39TMC2    H1  612   1.579   2.737   1.518 -4.8370  1.3220 -0.6740
   39TMC2    H2  613   1.796   2.984   1.801  0.9277 -2.4183 -0.2351
   39TMC2    C7  614   1.810   2.806   1.576  0.3886 -0.2923  0.5790
   39TMC2    C8  615   1.587   3.055   1.934  0.5601  0.4325 -1.0488
   39TMC2    O1  616   1.797   2.702   1.515  0.1581  0.2643  0.2452
   39TMC2    O2  617   1.683   3.076   2.007 -0.0819  0.8716  0.5566
   39TMC2    O5  618   1.503   3.157   1.904 -0.0081 -0.0649  0.6526
   39TMC2    H5  619   1.422   3.133   1.854  0.0838 -0.8520  0.8720
   40MPD2     C  620   1.271   2.521   1.411 -0.2057 -0.0676  0.1429
   40MPD2    C1  621   1.235   2.619   1.498  0.3354 -0.8650 -0.1562
   40MPD2    C2  622   1.105   2.642   1.518  0.3922 -0.0433  0.1031
   40MPD2    C3  623   1.003   2.585   1.441 -0.7707 -0.4427 -0.1811
   40MPD2    C4  624   1.040   2.491   1.345 -0.4457 -0.3111  0.4718
   40MPD2    C5  625   1.174   2.455   1.335  0.0786  0.5670 -0.3030
   40MPD2     H  626   1.078   2.715   1.593 -1.9552 -0.6290 -0.1855
   40MPD2    H1  627   0.976   2.428   1.283  0.6205 -0.3314 -0.6091
   40MPD2    H2  628   1.373   2.491   1.393 -0.6355 -1.2759 -0.2804
   40MPD2    H3  629   1.208   2.373   1.273 -0.2297 -0.9897  1.5869
   40MPD2     N  630   0.865   2.613   1.447 -0.0100  0.1211 -0.5649
   40MPD2    H5  631   0.808   2.566   1.378 -1.3847  0.2755  0.4457
   40MPD2    N1  632   1.342   2.675   1.569 -0.0399 -0.0153 -0.6073
   40MPD2    H7  633   1.426   2.618   1.558 -0.4640 -0.8958  0.7370
   41TMC2    C1  634   3.771   0.838  14.555 -0.3653 -0.7495  0.7461
   41TMC2    C2  635   3.679   0.875  14.648 -0.0366 -0.1105  0.0644
   41TMC2    C3  636   3.545   0.845  14.621  0.3952  0.1841  0.3091
   41TMC2    C4  637   3.731   0.758  14.440 -0.4879 -0.4878 -0.2600
   41TMC2    C5  638   3.599   0.732  14.424  1.1108  0.0859  0.3270
   41TMC2    C6  639   3.506   0.765  14.516  0.1760 -0.3267  0.2981
   41TMC2     C  640   3.902   0.893  14.549  0.0350 -0.0228  0.1234
   41TMC2     O  641   3.974   0.848  14.460 -0.2209  0.4865  0.0952
   41TMC2     H  642   3.713   0.929  14.736 -0.7698  1.4963 -0.6361
   41TMC2    H1  643   3.806   0.718  14.372  2.1731 -0.3210  2.5857
   41TMC2    H2  644   3.402   0.736  14.505 -0.2358  1.0249  0.5355
   41TMC2    C7  645   3.565   0.632  14.324 -0.1277 -0.5488  0.4386
   41TMC2    C8  646   3.443   0.886  14.712 -0.2912 -0.2005  0.2080
   41TMC2    O1  647   3.466   0.564  14.349 -0.2418 -0.3622  0.2108
   41TMC2    O2  648   3.341   0.822  14.715  0.2306  0.0770  0.2615
   41TMC2    O5  649   3.490   0.967  14.810  0.1083 -0.0068 -0.1957
   41TMC2    H5  650   3.569   1.018  14.781 -0.3803  0.5785 -0.4974
   42MPD2     C  651   4.127   1.094  14.526 -0.3075 -0.5346  0.5111
   42MPD2    C1  652   4.042   1.082  14.632  0.4043  0.2337 -0.2581
   42MPD2    C2  653   4.073   1.161  14.738 -1.1068  0.0603 -0.3900
   42MPD2    C3  654   4.176   1.256  14.743  0.4625 -0.3381 -0.5007
   42MPD2    C4  655   4.253   1.269  14.628 -0.6183  0.6264 -0.3619
   42MPD2    C5  656   4.226   1.191  14.523 -0.4214  0.4857  0.7819
   42MPD2     H  657   4.008   1.161  14.825 -2.3858 -0.8290 -1.3606
   42MPD2    H1  658   4.338   1.335  14.616 -0.0856 -0.1371 -0.8002
   42MPD2    H2  659   4.111   1.042  14.432  0.3925  1.1896 -0.5655
   42MPD2    H3  660   4.287   1.182  14.434  2.1234 -1.6783  2.7389
   42MPD2     N  661   4.203   1.343  14.853  0.4902  0.2715  0.3728
   42MPD2    H5  662   4.270   1.419  14.842  2.1377 -1.3568 -0.7922
   42MPD2    N1  663   3.929   0.991  14.639 -0.0551  0.0574  0.3993
   42MPD2    H7  664   3.862   1.016  14.711  0.3558  0.7618  0.5354
   43TMC2    C1  665   1.237   3.528   0.796  0.6747 -0.4243 -0.4682
   43TMC2    C2  666   1.181   3.650   0.824 -0.3965 -0.0014 -0.4534
   43TMC2    C3  667   1.193   3.693   0.955 -0.3713 -0.0162  0.2375
   43TMC2    C4  668   1.319   3.463   0.884  0.2098  0.1360 -0.2173
   43TMC2    C5  669   1.331   3.516   1.010  0.8281  0.4241  0.5674
   43TMC2    C6  670   1.271   3.632   1.048 -0.1609  0.0763  0.2502
   43TMC2     C  671   1.295   3.532   0.666 -0.2367  0.1657 -0.0432
   43TMC2     O  672   1.414   3.494   0.661 -0.4714  0.4606 -0.1795
   43TMC2     H  673   1.118   3.703   0.754 -0.3591  0.8030  0.1263
   43TMC2    H1  674   1.370   3.371   0.859 -0.6385 -0.2771 -0.4542
   43TMC2    H2  675   1.270   3.666   1.151 -0.8573  0.3651  0.1505
   43TMC2    C7  676   1.453   3.470   1.072  0.5703  0.2761  0.4771
   43TMC2    C8  677   1.128   3.815   0.999  0.8422  0.7791 -0.0051
   43TMC2    O1  678   1.529   3.403   1.006 -0.6011  0.3694  0.3449
   43TMC2    O2  679   1.061   3.875   0.917  0.4452  0.3288 -0.6906
   43TMC2    O5  680   1.165   3.866   1.121 -0.0582 -0.0630  0.3780
   43TMC2    H5  681   1.250   3.833   1.156  0.0061 -0.9567 -0.6401
   44MPD2     C  682   1.291   3.614   0.162 -0.0970  0.4317  0.9698
   44MPD2    C1  683   1.372   3.537   0.242  0.4448 -0.2289  0.0197
   44MPD2    C2  684   1.338   3.514   0.372 -0.3928  0.6844 -0.2911
   44MPD2    C3  685   1.245   3.597   0.425 -0.5292 -0.0559  1.4381
   44MPD2    C4  686   1.165   3.677   0.351 -0.2118  0.0993  0.0903
   44MPD2    C5  687   1.187   3.680   0.217 -0.0070 -0.1832 -0.5403
   44MPD2     H  688   1.394   3.449   0.438 -0.1741  0.0689 -1.0774
   44MPD2    H1  689   1.088   3.735   0.401 -0.3855  1.1543 -1.3818
   44MPD2    H2  690   1.301   3.621   0.055 -0.1054 -1.7774  0.8379
   44MPD2    H3  691   1.135   3.750   0.152  0.8277  2.0569  1.1683
   44MPD2     N  692   1.219   3.589   0.565 -0.3381 -0.1432 -0.2071
   44MPD2    H5  693   1.128   3.619   0.597 -0.3682  0.1308 -0.5488
   44MPD2    N1  694   1.477   3.463   0.188 -0.1879 -0.0150 -0.4443
   44MPD2    H7  695   1.506   3.394   0.256  3.4991  0.1809 -1.7909
   45TMC2    C1  696   1.765   0.965   9.148  0.6279 -0.3979  0.2894
   45TMC2    C2  697   1.869   0.957   9.066  0.2765 -0.0767 -0.9091
   45TMC2    C3  698   1.966   1.056   9.062  0.4900  0.6217  0.0234
   45TMC2    C4  699   1.734   1.084   9.213  0.0026  0.0696  0.4825
   45TMC2    C5  700   1.837   1.176   9.211  0.5644  0.0079 -0.4096
   45TMC2    C6  701   1.953   1.162   9.142 -0.0889  0.3865  0.0865
   45TMC2     C  702   1.661   0.865   9.121 -0.7320  0.6094  0.2072
   45TMC2     O  703   1.681   0.781   9.040  0.3616 -0.6196  0.3197
   45TMC2     H  704   1.882   0.865   9.011  1.1555 -0.1793 -0.5399
   45TMC2    H1  705   1.646   1.101   9.273  0.1222 -2.5399  1.4208
   45TMC2    H2  706   2.041   1.214   9.176 -0.0249  0.1092  0.3467
   45TMC2    C7  707   1.817   1.296   9.290 -0.5639 -1.0561 -0.2915
   45TMC2    C8  708   2.100   1.006   9.035  0.0359 -0.3045 -0.3372
   45TMC2    O1  709   1.741   1.288   9.386  0.0737 -0.3030  0.2249
   45TMC2    O2  710   2.129   0.887   9.044  0.2189 -0.0802 -0.3832
   45TMC2    O5  711   2.187   1.111   9.025 -0.5778  0.3654  0.1361
   45TMC2    H5  712   2.147   1.200   9.026 -0.2442  0.4998  1.3659
   46MPD2     C  713   1.430   0.678   9.089  0.4042 -0.2258 -0.1421
   46MPD2    C1  714   1.442   0.779   9.184  0.0901 -0.7409 -0.3552
   46MPD2    C2  715   1.334   0.818   9.256  0.1343  0.1901  0.1146
   46MPD2    C3  716   1.212   0.750   9.239 -0.3151 -0.3649  0.7122
   46MPD2    C4  717   1.196   0.647   9.144  0.8039 -0.6048  0.1369
   46MPD2    C5  718   1.311   0.608   9.074  0.1474 -0.0557 -0.2415
   46MPD2     H  719   1.346   0.910   9.311  0.6590  0.8380 -1.0834
   46MPD2    H1  720   1.100   0.603   9.118  0.3627  0.5527 -0.1949
   46MPD2    H2  721   1.509   0.642   9.025  1.3764 -0.4356  1.1731
   46MPD2    H3  722   1.298   0.529   9.001 -0.1777  1.1777 -1.5137
   46MPD2     N  723   1.104   0.796   9.324 -0.2390 -0.3688  0.3376
   46MPD2    H5  724   1.130   0.877   9.379 -0.7308  0.6703 -0.9593
   46MPD2    N1  725   1.552   0.868   9.201  0.2630  0.0413 -0.7088
   46MPD2    H7  726   1.555   0.932   9.280 -3.4148  1.0188 -1.3739
   47TMC2    C1  727   3.579   1.708   9.084  0.5568 -0.0891 -0.1812
   47TMC2    C2  728   3.520   1.694   9.210  0.6253  0.0975  0.2261
   47TMC2    C3  729   3.384   1.710   9.211  0.0502  0.3152  0.2975
   47TMC2    C4  730   3.513   1.747   8.972  0.7211  0.4153  0.2898
   47TMC2    C5  731   3.379   1.771   8.989 -0.7455  0.3812 -0.2886
   47TMC2    C6  732   3.308   1.752   9.107  0.3129  1.0040 -0.0181
   47TMC2     C  733   3.713   1.653   9.073 -0.2542  0.1543  0.4113
   47TMC2     O  734   3.760   1.630   8.961  0.2178  0.2443 -0.1051
   47TMC2     H  735   3.582   1.652   9.288  0.8577 -0.2615 -0.1513
   47TMC2    H1  736   3.563   1.765   8.877  1.6085 -0.2815  0.6294
   47TMC2    H2  737   3.205   1.782   9.119 -0.2416 -0.8755 -0.1135
   47TMC2    C7  738   3.297   1.822   8.882 -0.0844 -0.1524  0.2910
   47TMC2    C8  739   3.326   1.704   9.347  0.0585  0.0412  0.3334
   47TMC2    O1  740   3.178   1.843   8.902 -0.2571  0.0507  0.4919
   47TMC2    O2  741   3.364   1.631   9.434  0.2033 -0.1191  0.4221
   47TMC2    O5  742   3.243   1.803   9.357 -0.1385  0.1047  0.0809
   47TMC2    H5  743   3.243   1.871   9.286 -0.2955  0.0323  0.0119
   48MPD2     C  744   3.953   1.496   9.132  0.6542  0.1188 -0.8647
   48MPD2    C1  745   3.893   1.584   9.218  0.0164  0.3860 -0.1692
   48MPD2    C2  746   3.952   1.601   9.343  0.0633 -0.5777 -0.0700
   48MPD2    C3  747   4.056   1.519   9.388  1.1744 -0.2028 -0.0928
   48MPD2    C4  748   4.124   1.441   9.299  0.3494 -0.2209  0.1412
   48MPD2    C5  749   4.070   1.432   9.173 -0.3640  0.0601 -0.4397
   48MPD2     H  750   3.899   1.658   9.418  3.3836  1.3740  0.7684
   48MPD2    H1  751   4.216   1.386   9.312  1.2628  1.2472 -0.1998
   48MPD2    H2  752   3.926   1.467   9.031  1.1903 -1.8945 -0.4173
   48MPD2    H3  753   4.118   1.370   9.098 -2.0619  1.4990 -2.7129
   48MPD2     N  754   4.085   1.511   9.530 -0.3304 -0.4828 -0.2595
   48MPD2    H5  755   4.028   1.565   9.595  0.7109  0.9610 -0.5690
   48MPD2    N1  756   3.786   1.667   9.187  0.0754  0.0767 -0.1425
   48MPD2    H7  757   3.749   1.713   9.270 -0.4372 -1.8682  0.7207
   49TMC2    C1  758   2.021   3.396  10.700  0.1261  0.4010 -0.1966
   49TMC2    C2  759   1.903   3.346  10.665  0.2298 -0.3359 -0.4962
   49TMC2    C3  760   1.839   3.260  10.747 -0.3669  0.7219 -1.0041
   49TMC2    C4  761   2.071   3.356  10.828  0.3806  0.6277 -0.4049
   49TMC2    C5  762   1.999   3.263  10.908  0.2692 -0.6994 -0.1797
   49TMC2    C6  763   1.880   3.208  10.864  0.2809  0.1036 -0.3077
   49TMC2     C  764   2.088   3.506  10.620  0.1122 -0.2628  0.0676
   49TMC2     O  765   2.024   3.523  10.517  0.3132 -0.1186  0.3006
   49TMC2     H  766   1.865   3.382  10.570 -1.0937 -1.8173 -0.5266
   49TMC2    H1  767   2.161   3.402  10.869 -0.9667  2.3001  0.6656
   49TMC2    H2  768   1.816   3.157  10.934  0.0622  1.9674  0.8593
   49TMC2    C7  769   2.015   3.255  11.054 -0.3950 -0.0508  0.1194
   49TMC2    C8  770   1.700   3.226  10.719 -0.0256 -0.0795  0.6209
   49TMC2    O1  771   1.932   3.198  11.128 -0.2167 -0.0161 -0.2638
   49TMC2    O2  772   1.612   3.190  10.797  0.2635  0.9027 -0.4612
   49TMC2    O5  773   1.668   3.229  10.591 -0.1332  0.2242 -0.3010
   49TMC2    H5  774   1.713   3.299  10.538  0.3008 -0.0008 -0.2231
   50MPD2     C  775   2.220   3.755  10.512  0.0278  0.1103  0.9087
   50MPD2    C1  776   2.217   3.716  10.645 -0.7088  0.6756 -0.1037
   50MPD2    C2  777   2.266   3.802  10.744  0.2907 -0.3402  0.1736
   50MPD2    C3  778   2.321   3.925  10.710 -0.4405 -0.2162 -0.5471
   50MPD2    C4  779   2.320   3.957  10.578 -0.0352 -0.0485  0.2657
   50MPD2    C5  780   2.273   3.877  10.481 -0.6948  0.3006  0.3925
   50MPD2     H  781   2.264   3.767  10.847  2.6670  0.6449  0.5472
   50MPD2    H1  782   2.375   4.048  10.552  1.4949 -0.5426  1.7612
   50MPD2    H2  783   2.192   3.687  10.433  0.5033 -0.9964  1.6903
   50MPD2    H3  784   2.283   3.908  10.378 -2.0961  1.9018  0.7475
   50MPD2     N  785   2.350   4.011  10.816  0.1859  0.7338  0.4337
   50MPD2    H5  786   2.310   3.989  10.906 -0.1225 -0.5469 -0.0126
   50MPD2    N1  787   2.171   3.592  10.691 -0.7487 -0.0042 -0.2014
   50MPD2    H7  788   2.184   3.573  10.790  0.6192  0.9955 -0.2014
   51TMC2    C1  789   2.631   2.702   1.540 -0.0761 -0.6296  0.4757
   51TMC2    C2  790   2.612   2.682   1.674 -0.4429 -0.1575  0.3476
   51TMC2    C3  791   2.656   2.783   1.754 -0.1664 -0.3867 -0.0014
   51TMC2    C4  792   2.681   2.811   1.489 -0.3513 -1.1953 -0.4313
   51TMC2    C5  793   2.730   2.908   1.570 -0.0771  0.5142  0.6802
   51TMC2    C6  794   2.730   2.895   1.705 -0.1240  0.0632 -0.1172
   51TMC2     C  795   2.675   2.579   1.475  0.8669 -0.5492  0.9572
   51TMC2     O  796   2.769   2.589   1.400  0.0157 -0.4766 -0.1120
   51TMC2     H  797   2.575   2.590   1.717 -2.5494 -0.1607 -1.4747
   51TMC2    H1  798   2.706   2.820   1.384  0.6864 -0.8292 -0.1571
   51TMC2    H2  799   2.766   2.973   1.771  0.2920  0.8752 -1.3014
   51TMC2    C7  800   2.817   3.011   1.515  0.1007 -0.0227  0.4093
   51TMC2    C8  801   2.658   2.771   1.900 -0.2876 -0.1397 -0.0268
   51TMC2    O1  802   2.903   3.050   1.591  0.3993 -0.0247 -0.1079
   51TMC2    O2  803   2.763   2.775   1.964 -0.2086  0.0611 -0.2034
   51TMC2    O5  804   2.556   2.692   1.934  0.1790  0.4355  0.0527
   51TMC2    H5  805   2.477   2.725   1.885  0.6601 -0.1654 -1.1294
   52MPD2     C  806   2.682   2.070   1.456 -0.1794  0.4826  0.8965
   52MPD2    C1  807   2.769   2.172   1.405 -0.4817 -0.5347 -0.4172
   52MPD2    C2  808   2.736   2.301   1.414 -0.0337 -0.1686 -0.1352
   52MPD2    C3  809   2.622   2.336   1.480  0.0024 -0.0960 -0.0955
   52MPD2    C4  810   2.542   2.243   1.543  0.2739 -0.2726  0.2587
   52MPD2    C5  811   2.577   2.113   1.530  0.1894 -0.2023  0.4137
   52MPD2     H  812   2.813   2.371   1.383 -0.9976  1.9910  2.3876
   52MPD2    H1  813   2.449   2.268   1.593 -0.3477 -0.6448 -0.6928
   52MPD2    H2  814   2.707   1.965   1.469 -1.3706 -0.0291 -0.9599
   52MPD2    H3  815   2.525   2.037   1.588  1.7417 -1.8479 -0.3465
   52MPD2     N  816   2.591   2.472   1.507 -0.7577 -0.4390  0.2486
   52MPD2    H5  817   2.519   2.497   1.574 -0.4905 -0.3776  0.5120
   52MPD2    N1  818   2.907   2.147   1.370  0.4517  0.3313  0.2099
   52MPD2    H7  819   2.971   2.215   1.332  3.2677 -0.2162  3.9668
   53TMC2    C1  820   2.811   1.154  11.627  0.3516 -0.5633 -0.0697
   53TMC2    C2  821   2.948   1.173  11.636 -0.3423  0.0479  0.1254
   53TMC2    C3  822   3.011   1.173  11.751  0.1013 -0.4316  0.4496
   53TMC2    C4  823   2.739   1.164  11.742 -0.0262  0.5755 -0.4328
   53TMC2    C5  824   2.804   1.181  11.855  0.4117 -0.5294 -0.5747
   53TMC2    C6  825   2.940   1.170  11.863  0.5987 -0.4173 -0.0166
   53TMC2     C  826   2.748   1.149  11.500  0.0863  0.7385  0.6783
   53TMC2     O  827   2.809   1.176  11.398  0.1763 -0.0733 -1.1953
   53TMC2     H  828   2.995   1.181  11.538  2.1557 -0.4287  1.2995
   53TMC2    H1  829   2.630   1.160  11.749  0.0395 -0.1304  0.1854
   53TMC2    H2  830   2.998   1.158  11.954  1.2562  0.8857 -0.2669
   53TMC2    C7  831   2.736   1.192  11.980  0.3493 -0.3507 -0.0797
   53TMC2    C8  832   3.153   1.144  11.758  0.6417 -0.2949  0.0814
   53TMC2    O1  833   2.632   1.128  11.988  0.6553  0.6672  0.3589
   53TMC2    O2  834   3.226   1.173  11.848 -0.0180  0.6653 -0.2404
   53TMC2    O5  835   3.153   1.034  11.682  0.2143  0.4766 -0.5512
   53TMC2    H5  836   3.063   1.010  11.652  0.6090  0.3980 -1.6506
   54MPD2     C  837   2.547   1.108  11.285  0.0556 -0.2734 -0.3929
   54MPD2    C1  838   2.524   1.080  11.418 -0.1224 -0.2001 -0.2600
   54MPD2    C2  839   2.405   1.019  11.464 -0.1871 -0.0741 -0.6147
   54MPD2    C3  840   2.297   1.003  11.371  0.5085  0.1827 -0.2158
   54MPD2    C4  841   2.326   1.023  11.236  0.5015  0.3627  0.0523
   54MPD2    C5  842   2.452   1.066  11.198  0.5937  0.2786  0.8822
   54MPD2     H  843   2.387   1.023  11.571 -2.0906 -0.7063 -0.9191
   54MPD2    H1  844   2.249   1.014  11.160 -0.3683  1.2704  0.8219
   54MPD2    H2  845   2.636   1.149  11.239 -0.5756 -1.0524 -2.3344
   54MPD2    H3  846   2.472   1.070  11.092  0.4842  0.0185  0.8528
   54MPD2     N  847   2.160   0.981  11.402  0.1347  0.3807 -0.0300
   54MPD2    H5  848   2.098   0.982  11.322 -0.3549 -0.4195  0.3489
   54MPD2    N1  849   2.615   1.116  11.517 -0.3662 -0.1814 -0.5397
   54MPD2    H7  850   2.585   1.081  11.608  1.6468  1.2595  0.6747
   55TMC2    C1  851   4.242   4.322   0.633  0.1515 -0.0115  0.2604
   55TMC2    C2  852   4.361   4.355   0.569  0.0094 -0.0940 -0.7089
   55TMC2    C3  853   4.465   4.269   0.582 -0.2812 -0.5047 -0.2569
   55TMC2    C4  854   4.234   4.213   0.717  0.7539  0.0823  0.4031
   55TMC2    C5  855   4.341   4.131   0.728 -0.0850  0.4737 -0.3160
   55TMC2    C6  856   4.450   4.158   0.649 -0.2695 -0.1646 -0.5922
   55TMC2     C  857   4.116   4.359   0.569 -0.4975 -0.2983 -0.3393
   55TMC2     O  858   4.015   4.336   0.628 -0.3705  0.5826  0.0854
   55TMC2     H  859   4.367   4.448   0.515 -0.8448 -0.0376 -0.7111
   55TMC2    H1  860   4.146   4.201   0.780  0.9855 -1.9137  0.3479
   55TMC2    H2  861   4.527   4.081   0.651 -1.5682 -1.5034 -1.7797
   55TMC2    C7  862   4.339   3.992   0.788  0.1092 -0.9152 -0.1895
   55TMC2    C8  863   4.592   4.296   0.509 -0.1941  0.0254 -0.0218
   55TMC2    O1  864   4.444   3.939   0.815  0.2999 -0.1156 -0.3966
   55TMC2    O2  865   4.691   4.223   0.519 -0.3222  0.4365  0.1769
   55TMC2    O5  866   4.583   4.401   0.420  0.3255 -0.1490  0.3350
   55TMC2    H5  867   4.493   4.435   0.401  1.8497  2.2724 -2.4695
   56MPD2     C  868   4.059   4.547   0.260  0.2123  0.1690  0.2243
   56MPD2    C1  869   4.020   4.466   0.366 -0.2028  0.2802  0.1606
   56MPD2    C2  870   3.887   4.439   0.391  0.2398  0.6711 -0.3319
   56MPD2    C3  871   3.791   4.469   0.297 -0.2510 -0.3490  0.2246
   56MPD2    C4  872   3.831   4.551   0.189  0.7207 -0.4461  0.5964
   56MPD2    C5  873   3.961   4.578   0.169 -0.0796 -0.6172 -0.2647
   56MPD2     H  874   3.849   4.382   0.475  1.6479 -1.2280 -0.9741
   56MPD2    H1  875   3.768   4.600   0.116 -0.0307 -0.0071  1.5470
   56MPD2    H2  876   4.163   4.579   0.254  0.3997 -0.8488 -1.9234
   56MPD2    H3  877   3.986   4.655   0.098  2.3734  0.2682  1.5268
   56MPD2     N  878   3.660   4.441   0.330 -0.6393 -0.5233  0.2091
   56MPD2    H5  879   3.651   4.388   0.416 -0.0358 -3.2593 -1.4157
   56MPD2    N1  880   4.130   4.422   0.449  0.0824  0.4280 -0.1233
   56MPD2    H7  881   4.221   4.439   0.407 -0.1747  0.0375 -0.8284
   57TMC2    C1  882   2.871   4.273  13.483  0.8058  0.4399  0.4608
   57TMC2    C2  883   2.882   4.147  13.511 -0.1526 -0.0044  0.2592
   57TMC2    C3  884   3.003   4.087  13.492  0.2750  0.7341 -0.2133
   57TMC2    C4  885   2.967   4.344  13.421 -0.7100 -0.6257 -0.2116
   57TMC2    C5  886   3.094   4.291  13.421 -0.2382 -0.0889  0.8637
   57TMC2    C6  887   3.115   4.157  13.458 -0.1237 -0.9252  0.1683
   57TMC2     C  888   2.748   4.337  13.517 -0.3500 -0.3031  0.7005
   57TMC2     O  889   2.757   4.447  13.565 -0.3918  0.5736  0.1904
   57TMC2     H  890   2.794   4.092  13.543 -0.7853  1.3789  0.8927
   57TMC2    H1  891   2.946   4.443  13.382 -0.1414 -1.7030 -3.2523
   57TMC2    H2  892   3.215   4.115  13.466  0.3068  0.8698  4.4372
   57TMC2    C7  893   3.205   4.364  13.350 -0.3453 -0.2181  0.0307
   57TMC2    C8  894   3.035   3.978  13.589 -0.4454 -0.1538  0.1393
   57TMC2    O1  895   3.191   4.485  13.333 -0.2543  0.3138 -0.2558
   57TMC2    O2  896   3.124   3.982  13.674  0.1642  0.2477  0.2328
   57TMC2    O5  897   2.928   3.903  13.604  0.0521 -0.1340 -0.1085
   57TMC2    H5  898   2.854   3.903  13.541  1.6528  0.0427 -1.9901
   58MPD2     C  899   2.246   4.320  13.592 -0.0593  0.0594  0.5233
   58MPD2    C1  900   2.342   4.401  13.653 -0.1249 -0.7232  0.7127
   58MPD2    C2  901   2.479   4.367  13.625  0.2552 -0.9110 -0.7998
   58MPD2    C3  902   2.508   4.279  13.527 -0.2046 -0.0182 -0.1030
   58MPD2    C4  903   2.415   4.204  13.468 -0.5577  0.0364 -0.1716
   58MPD2    C5  904   2.278   4.222  13.501 -0.4541 -0.4404  0.0388
   58MPD2     H  905   2.560   4.420  13.673 -0.4288 -0.5798  0.0013
   58MPD2    H1  906   2.436   4.124  13.398  0.0162 -0.2574  0.3398
   58MPD2    H2  907   2.141   4.342  13.607 -0.0068  1.0062 -0.5141
   58MPD2    H3  908   2.201   4.158  13.460 -1.0320 -0.1169  0.6235
   58MPD2     N  909   2.637   4.256  13.490  1.2395  0.5097  0.3033
   58MPD2    H5  910   2.650   4.170  13.437  0.3986  1.3725 -1.2909
   58MPD2    N1  911   2.314   4.500  13.745  0.2666 -0.1947 -0.2172
   58MPD2    H7  912   2.396   4.557  13.768 -0.8542  1.5797 -0.6488
   59TMC2    C1  913   0.359   4.628  12.762  0.7882 -0.2370  0.6285
   59TMC2    C2  914   0.474   4.645  12.694  0.3141  0.1286  0.5468
   59TMC2    C3  915   0.483   4.622  12.558 -0.0091  1.3503 -0.0239
   59TMC2    C4  916   0.251   4.584  12.696 -0.5562 -0.5964 -0.0366
   59TMC2    C5  917   0.258   4.553  12.566  0.0056  0.1886 -0.4479
   59TMC2    C6  918   0.378   4.564  12.490  0.4289 -0.3374  0.1126
   59TMC2     C  919   0.336   4.720  12.875  0.0137  0.2421  0.4622
   59TMC2     O  920   0.219   0.021  12.892 -0.3607 -0.7359 -0.2675
   59TMC2     H  921   0.546   4.705  12.749  0.5975  1.2619 -1.0569
   59TMC2    H1  922   0.157   4.581  12.751 -1.1561  1.3816 -0.9889
   59TMC2    H2  923   0.391   4.544  12.384  1.4402 -1.9159  0.5263
   59TMC2    C7  924   0.124   4.542  12.503 -0.3898 -0.5535  0.7817
   59TMC2    C8  925   0.577   4.706  12.487  0.4525  0.2676 -0.3500
   59TMC2    O1  926   0.023   4.521  12.567 -0.6187 -0.3852  0.0848
   59TMC2    O2  927   0.549   0.013  12.375  0.0513 -0.4300  0.1727
   59TMC2    O5  928   0.701   4.660  12.529 -0.3131  0.2644  0.2797
   59TMC2    H5  929   0.708   4.627  12.621 -1.4558 -0.8012 -0.0203
   60MPD2     C  930   0.341   0.172  13.112 -0.4973 -0.0606  0.3644
   60MPD2    C1  931   0.441   0.085  13.075 -0.0359 -0.0395 -0.0328
   60MPD2    C2  932   0.556   0.076  13.150 -0.1292 -0.4228 -0.5127
   60MPD2    C3  933   0.576   0.161  13.258 -0.6247  0.0553 -0.2538
   60MPD2    C4  934   0.477   0.248  13.298  0.0017  0.4930  0.4119
   60MPD2    C5  935   0.360   0.246  13.223  0.3572  0.5265 -0.6789
   60MPD2     H  936   0.627   4.733  13.123  1.5973  1.5056 -1.4861
   60MPD2    H1  937   0.493   0.314  13.382  1.6784  0.4739  0.1067
   60MPD2    H2  938   0.246   0.177  13.061 -0.3951 -0.3161  0.1484
   60MPD2    H3  939   0.277   0.312  13.243 -0.6561 -1.1920  0.6985
   60MPD2     N  940   0.694   0.168  13.340  0.5870  0.8602 -0.2888
   60MPD2    H5  941   0.683   0.228  13.421  0.2328  1.3880 -0.7297
   60MPD2    N1  942   0.441   0.009  12.957 -0.1545 -0.1482  0.1255
   60MPD2    H7  943   0.522   4.687  12.935  1.1362  0.9626  1.9923
   61TMC2    C1  944   4.734   1.670  15.386 -0.4697  0.7433 -0.3812
   61TMC2    C2  945   4.681   1.612  15.504  1.0266  0.1992 -0.1245
   61TMC2    C3  946   4.685   1.690  15.613 -0.3611 -0.3346  0.8181
   61TMC2    C4  947   0.051   1.795  15.381  0.0352  0.6678  0.8397
   61TMC2    C5  948   0.063   1.868  15.496  1.2173 -0.2962  0.0850
   61TMC2    C6  949   4.734   1.822  15.611  0.0941 -0.7134  0.0238
   61TMC2     C  950   0.029   1.576  15.280  0.2533  0.3909  0.4253
   61TMC2     O  951   0.049   1.459  15.310 -0.0610  0.8407 -0.1697
   61TMC2     H  952   4.641   1.511  15.503 -0.2441  0.7329 -2.4693
   61TMC2    H1  953   0.078   1.840  15.286 -1.9222 -0.5230 -0.2901
   61TMC2    H2  954   4.734   1.885  15.699 -0.3874  0.9096 -1.1295
   61TMC2    C7  955   0.129   1.993  15.502  0.1705 -0.0213  0.0385
   61TMC2    C8  956   4.593   1.673  15.728 -0.2091  0.2136  0.1851
   61TMC2    O1  957   0.128   2.051  15.394  0.2328 -0.4328  0.2163
   61TMC2    O2  958   4.580   1.752  15.821  0.6806 -0.1322  0.0400
   61TMC2    O5  959   4.591   1.536  15.752  0.3908 -0.0664 -0.5113
   61TMC2    H5  960   4.599   1.482  15.670 -0.5072 -0.1021 -0.5771
   62MPD2     C  961   0.158   1.463  15.036  0.3176  0.1607  0.2099
   62MPD2    C1  962   0.109   1.594  15.041 -0.4090 -0.4413  0.6117
   62MPD2    C2  963   0.143   1.682  14.946 -0.4180  0.2616  0.1957
   62MPD2    C3  964   0.206   1.641  14.832  0.2502  0.3579  0.2855
   62MPD2    C4  965   0.245   1.514  14.813 -0.9246 -0.0173 -0.0281
   62MPD2    C5  966   0.224   1.423  14.917  0.6386 -0.2978 -0.8993
   62MPD2     H  967   0.138   1.788  14.968 -0.5454  0.0903  1.0037
   62MPD2    H1  968   0.304   1.482  14.728 -0.3927  0.5392  0.1329
   62MPD2    H2  969   0.161   1.401  15.125 -0.0901 -0.1034  0.0404
   62MPD2    H3  970   0.273   1.327  14.908  0.2757 -0.5870  0.1434
   62MPD2     N  971   0.220   1.738  14.740  0.0468 -0.0685  0.3394
   62MPD2    H5  972   0.188   1.830  14.768  0.0581 -0.0155  0.1771
   62MPD2    N1  973   0.048   1.645  15.157 -0.3390 -1.1375  0.4732
   62MPD2    H7  974   0.009   1.738  15.141 -0.8075 -1.1665  1.4667
   63TMC2    C1  975   3.682   1.815  10.304 -0.5269 -0.0561  0.1439
   63TMC2    C2  976   3.793   1.815  10.384 -0.0031 -0.1404  0.1837
   63TMC2    C3  977   3.902   1.884  10.332 -0.7092  0.0332 -0.1589
   63TMC2    C4  978   3.673   1.860  10.175  0.2664 -1.0097  0.1040
   63TMC2    C5  979   3.785   1.927  10.128  0.0445  0.0354 -0.1622
   63TMC2    C6  980   3.894   1.941  10.208 -0.0614 -0.1856 -0.2248
   63TMC2     C  981   3.558   1.765  10.361  0.3246 -0.0952 -0.4790
   63TMC2     O  982   3.459   1.832  10.346  0.4012  0.4523 -0.2545
   63TMC2     H  983   3.784   1.767  10.481 -1.5436 -1.8561 -0.7980
   63TMC2    H1  984   3.579   1.847  10.122 -0.6581  4.9317  0.3683
   63TMC2    H2  985   3.981   1.992  10.168  0.5942 -1.7427 -0.7640
   63TMC2    C7  986   3.772   1.978   9.992  0.4913  0.2983  0.0605
   63TMC2    C8  987   4.005   1.927  10.424 -0.0887  0.2711 -0.4459
   63TMC2    O1  988   3.673   1.937   9.928  0.2255  0.2191 -0.5298
   63TMC2    O2  989   4.112   1.970  10.386 -0.8063 -0.6716  0.3511
   63TMC2    O5  990   3.958   1.920  10.552  0.4745 -0.0592  0.5996
   63TMC2    H5  991   3.863   1.940  10.555  0.4701 -0.0456  0.3568
   64MPD2     C  992   3.284   1.351  10.484  1.0203  0.1807  0.6186
   64MPD2    C1  993   3.409   1.309  10.451  0.3584 -0.0667  0.0040
   64MPD2    C2  994   3.512   1.406  10.433 -0.8767 -0.3461  0.0662
   64MPD2    C3  995   3.476   1.541  10.429  0.2803  0.0198  0.0819
   64MPD2    C4  996   3.347   1.586  10.459  0.4365  0.2312  0.0208
   64MPD2    C5  997   3.255   1.484  10.489 -0.1591  0.5424 -0.9872
   64MPD2     H  998   3.615   1.380  10.412 -0.7927 -0.6703  0.9007
   64MPD2    H1  999   3.325   1.691  10.470  0.5753  0.2075  0.4977
   64MPD2    H2 1000   3.199   1.288  10.507  0.8732  0.3938  0.6589
   64MPD2    H3 1001   3.153   1.515  10.508 -0.3516 -0.5479 -0.2799
   64MPD2     N 1002   3.582   1.637  10.411 -0.0425 -0.1602 -0.1992
   64MPD2    H5 1003   3.678   1.606  10.405  0.5959  1.4041  2.1128
   64MPD2    N1 1004   3.443   1.169  10.447  0.0377 -0.7558 -0.3097
   64MPD2    H7 1005   3.539   1.153  10.419 -0.6302 -0.6378 -2.6603
   65TMC2    C1 1006   0.356   1.605  15.513 -0.8164  0.4727 -0.0452
   65TMC2    C2 1007   0.369   1.558  15.382 -0.2254  0.2104 -0.5268
   65TMC2    C3 1008   0.433   1.635  15.289  0.2826  0.2352  0.1481
   65TMC2    C4 1009   0.428   1.715  15.549 -0.0381 -0.1375 -0.3075
   65TMC2    C5 1010   0.494   1.785  15.451  0.0029 -0.6904  0.0033
   65TMC2    C6 1011   0.494   1.754  15.314  0.0011  0.7973  0.5186
   65TMC2     C 1012   0.282   1.528  15.608 -0.3174  0.5719 -0.6192
   65TMC2     O 1013   0.253   1.589  15.711  0.5100 -0.0859 -0.4493
   65TMC2     H 1014   0.319   1.468  15.351 -0.1817  0.4989 -1.4370
   65TMC2    H1 1015   0.444   1.739  15.654 -1.1296  0.7577 -0.3570
   65TMC2    H2 1016   0.567   1.797  15.246  0.2849  1.1976  1.0756
   65TMC2    C7 1017   0.587   1.895  15.486  0.1423  0.3841 -0.6392
   65TMC2    C8 1018   0.467   1.569  15.159  0.1463  0.1800 -0.4487
   65TMC2    O1 1019   0.644   1.939  15.389 -0.3642  0.3409 -1.2785
   65TMC2    O2 1020   0.485   1.449  15.142 -0.5294 -0.2497 -0.0997
   65TMC2    O5 1021   0.483   1.665  15.065 -0.1717  0.2632  0.0481
   65TMC2    H5 1022   0.457   1.758  15.084 -1.2687 -0.2710  1.1687
   66MPD2     C 1023   0.148   1.321  15.759 -0.5503 -0.4016  0.3643
   66MPD2    C1 1024   0.242   1.296  15.660  0.2085  0.6788  0.0337
   66MPD2    C2 1025   0.292   1.166  15.639  0.3047  0.4748 -0.0914
   66MPD2    C3 1026   0.259   1.068  15.732  0.2233  0.1929  0.2993
   66MPD2    C4 1027   0.173   1.097  15.834 -0.8846 -0.0472  0.3091
   66MPD2    C5 1028   0.116   1.219  15.847  0.0639 -1.1588 -0.5448
   66MPD2     H 1029   0.365   1.157  15.559 -0.1411 -2.2338 -0.1928
   66MPD2    H1 1030   0.159   1.026  15.916 -0.3283 -0.7693 -0.2164
   66MPD2    H2 1031   0.102   1.417  15.777  0.4095  0.3132 -1.0126
   66MPD2    H3 1032   0.050   1.240  15.931 -2.0300  1.3077 -2.7993
   66MPD2     N 1033   0.313   0.934  15.726 -0.1338 -0.8084 -0.6633
   66MPD2    H5 1034   0.281   0.867  15.795  0.2011  0.0989  0.3692
   66MPD2    N1 1035   0.291   1.399  15.577 -0.8336 -0.0148 -0.8995
   66MPD2    H7 1036   0.353   1.373  15.501 -0.7393 -1.2410 -0.4000
   67TMC2    C1 1037   0.544   0.212  14.194 -0.2933  0.5396 -0.9396
   67TMC2    C2 1038   0.447   0.268  14.264 -0.7379 -0.3946 -0.2085
   67TMC2    C3 1039   0.475   0.324  14.381 -0.0695  0.1052 -0.2855
   67TMC2    C4 1040   0.673   0.197  14.241  0.1261 -0.4306 -0.2761
   67TMC2    C5 1041   0.691   0.260  14.357  0.5776 -0.5998  0.7079
   67TMC2    C6 1042   0.597   0.316  14.436 -0.3397  0.0965  0.0214
   67TMC2     C 1043   0.522   0.204  14.051  0.3869  1.0837  0.1362
   67TMC2     O 1044   0.605   0.136  13.987  0.1042  0.5832 -0.6347
   67TMC2     H 1045   0.346   0.273  14.226 -0.9115  3.7367  0.8733
   67TMC2    H1 1046   0.756   0.166  14.178  1.3303  2.9565 -0.3490
   67TMC2    H2 1047   0.611   0.338  14.542  1.4278  2.5652 -0.7185
   67TMC2    C7 1048   0.821   0.233  14.416  0.5795 -0.5006  0.1292
   67TMC2    C8 1049   0.364   0.386  14.461 -0.4058  0.2150 -0.2907
   67TMC2    O1 1050   0.885   0.137  14.379  0.4014  0.4942 -0.5490
   67TMC2    O2 1051   0.387   0.477  14.540 -0.1032  0.5198  0.5090
   67TMC2    O5 1052   0.249   0.313  14.442  0.4507  0.5040 -0.1656
   67TMC2    H5 1053   0.257   0.230  14.390 -1.8444  0.6846 -0.8202
   68MPD2     C 1054   0.428   0.220  13.774  0.4635  1.0317 -0.0808
   68MPD2    C1 1055   0.367   0.290  13.881 -0.2784  0.3081 -0.5142
   68MPD2    C2 1056   0.250   0.364  13.847 -0.0484  0.3361  0.2901
   68MPD2    C3 1057   0.200   0.370  13.720 -0.4631 -0.5115 -0.1706
   68MPD2    C4 1058   0.263   0.294  13.622 -0.7259  0.3959 -0.3955
   68MPD2    C5 1059   0.372   0.230  13.649 -0.3043  0.0651  0.5226
   68MPD2     H 1060   0.185   0.405  13.924  0.2412 -1.6452  1.6051
   68MPD2    H1 1061   0.244   0.288  13.516 -2.1175 -1.5110 -0.0393
   68MPD2    H2 1062   0.521   0.164  13.786  1.1931  2.0234 -1.1020
   68MPD2    H3 1063   0.419   0.187  13.561  2.4382  0.3966  1.8271
   68MPD2     N 1064   0.088   0.448  13.690 -0.3758  0.7125  0.1149
   68MPD2    H5 1065   0.042   0.426  13.603 -0.9909  0.1700  0.5769
   68MPD2    N1 1066   0.417   0.280  14.013 -0.3118  0.2597 -0.1237
   68MPD2    H7 1067   0.370   0.335  14.084 -1.4250 -0.4694 -0.2824
   69TMC2    C1 1068   2.762   1.673  12.439 -0.0001 -0.3400  0.3695
   69TMC2    C2 1069   2.640   1.730  12.442 -0.5757 -0.2115  0.8306
   69TMC2    C3 1070   2.589   1.761  12.325 -0.9821 -0.1349 -0.2695
   69TMC2    C4 1071   2.830   1.647  12.321 -0.2315 -0.1296 -0.2609
   69TMC2    C5 1072   2.782   1.708  12.209  0.3120  0.5027  0.0011
   69TMC2    C6 1073   2.662   1.767  12.211  0.4074  0.6591 -0.2706
   69TMC2     C 1074   2.824   1.643  12.571 -0.0098 -0.5245  0.1237
   69TMC2     O 1075   2.735   1.612  12.654  0.1968  0.0647  0.1714
   69TMC2     H 1076   2.587   1.729  12.537 -0.1156 -0.8031  1.0797
   69TMC2    H1 1077   2.924   1.592  12.325 -1.1889 -1.6312  1.8908
   69TMC2    H2 1078   2.644   1.828  12.123  1.3736  1.4043  0.0540
   69TMC2    C7 1079   2.835   1.666  12.078  0.1391 -0.1933  0.1405
   69TMC2    C8 1080   2.462   1.829  12.333 -0.6845 -0.1382 -0.6523
   69TMC2    O1 1081   2.959   1.648  12.090 -0.3882  0.0295  0.5106
   69TMC2    O2 1082   2.423   1.871  12.442 -0.5260  0.1896  0.0515
   69TMC2    O5 1083   2.397   1.793  12.220 -0.3004  0.7483 -0.2664
   69TMC2    H5 1084   2.445   1.741  12.152 -1.3520  0.9275 -1.1593
   70MPD2     C 1085   3.170   1.523  12.624  0.0267 -0.9305 -0.2944
   70MPD2    C1 1086   3.033   1.532  12.647 -0.6650 -0.2118 -0.4891
   70MPD2    C2 1087   2.978   1.439  12.738  0.2770 -0.2179 -0.1227
   70MPD2    C3 1088   3.049   1.351  12.816  0.1169 -0.3297  0.1174
   70MPD2    C4 1089   3.183   1.345  12.789 -0.3666  0.4013  0.1082
   70MPD2    C5 1090   3.239   1.429  12.692  0.1540  0.0622  0.2051
   70MPD2     H 1091   2.870   1.443  12.750  0.1588 -0.0729 -1.1632
   70MPD2    H1 1092   3.249   1.271  12.832 -0.8960  0.2058  0.5747
   70MPD2    H2 1093   3.215   1.582  12.546  3.0514 -2.4812  0.3070
   70MPD2    H3 1094   3.343   1.417  12.665 -0.0710 -0.1193 -0.5985
   70MPD2     N 1095   2.990   1.253  12.910  0.5652 -0.2157  0.6365
   70MPD2    H5 1096   3.046   1.174  12.939 -2.2695 -1.7208  2.0609
   70MPD2    N1 1097   2.960   1.618  12.563  0.0300 -0.7713  0.2434
   70MPD2    H7 1098   3.015   1.669  12.495 -0.5948 -1.2088 -0.5797
   71TMC2    C1 1099   0.254   2.493   1.789 -0.1055  0.2473  0.8261
   71TMC2    C2 1100   0.356   2.421   1.838  0.1260 -0.7651  0.1821
   71TMC2    C3 1101   0.387   2.431   1.968  0.1432  0.1388 -0.0654
   71TMC2    C4 1102   0.185   2.580   1.873  0.4082 -0.3129 -0.3968
   71TMC2    C5 1103   0.218   2.579   2.002 -0.1241 -0.0006 -0.5993
   71TMC2    C6 1104   0.325   2.515   2.059 -0.0762 -0.0438  0.9144
   71TMC2     C 1105   0.226   2.498   1.644  1.1271  0.2069  0.7274
   71TMC2     O 1106   0.120   2.560   1.616 -0.2634 -0.0218 -0.0535
   71TMC2     H 1107   0.419   2.352   1.783  2.0892  1.9188 -0.9383
   71TMC2    H1 1108   0.115   2.649   1.827  1.5563  1.0494 -0.0977
   71TMC2    H2 1109   0.341   2.517   2.166 -0.5038  3.1861  0.9160
   71TMC2    C7 1110   0.109   2.590   2.093  0.4824  0.0131 -0.0649
   71TMC2    C8 1111   0.475   2.325   2.021  0.2370 -0.3213 -0.2916
   71TMC2    O1 1112   0.123   2.570   2.213  0.6373  0.0494 -0.4421
   71TMC2    O2 1113   0.510   2.228   1.952 -0.0805 -0.0544 -0.1409
   71TMC2    O5 1114   0.564   2.394   2.087  0.1861  0.0705  0.1555
   71TMC2    H5 1115   0.539   2.478   2.132 -2.5012 -0.5889 -0.0617
   72MPD2     C 1116   0.228   2.252   1.202 -0.4911  0.2338 -0.7594
   72MPD2    C1 1117   0.359   2.239   1.256 -0.3138 -0.1054 -0.2470
   72MPD2    C2 1118   0.381   2.299   1.381 -1.0358  0.2221 -0.5661
   72MPD2    C3 1119   0.275   2.361   1.453 -0.4928  0.0960 -0.0118
   72MPD2    C4 1120   0.144   2.364   1.398 -0.3884  0.2331  0.9350
   72MPD2    C5 1121   0.127   2.311   1.276 -0.5084  0.2378 -0.1293
   72MPD2     H 1122   0.466   2.283   1.446 -0.6876  4.2566 -0.0284
   72MPD2    H1 1123   0.058   2.417   1.436 -0.7694  0.6724 -0.5677
   72MPD2    H2 1124   0.208   2.229   1.098  0.8085  0.7772 -1.1319
   72MPD2    H3 1125   0.035   2.341   1.228 -0.7516 -0.8352 -0.3345
   72MPD2     N 1126   0.307   2.421   1.571  0.2096  0.6575 -0.4342
   72MPD2    H5 1127   0.399   2.393   1.607 -0.6750 -0.7090  0.7735
   72MPD2    N1 1128   0.464   2.174   1.194  0.1311 -0.3181 -0.3085
   72MPD2    H7 1129   0.552   2.160   1.243  0.2941 -0.5914 -0.6700
   73TMC2    C1 1130   0.132   3.782  14.247 -0.1573 -0.4762 -0.6243
   73TMC2    C2 1131   0.094   3.908  14.275  0.1933  0.0730  0.1754
   73TMC2    C3 1132   0.181   3.984  14.348  0.1697  0.2831  0.7020
   73TMC2    C4 1133   0.238   3.721  14.299  0.1553 -0.9691  0.3232
   73TMC2    C5 1134   0.338   3.800  14.352  0.2291  0.7879 -0.6361
   73TMC2    C6 1135   0.302   3.933  14.377  0.4447 -0.2969  0.4367
   73TMC2     C 1136   0.127   3.754  14.099  0.4644 -0.1389 -0.3126
   73TMC2     O 1137   0.212   3.672  14.072 -0.0800  0.1254 -0.2312
   73TMC2     H 1138   4.724   3.936  14.262 -0.0913 -0.6990  0.8077
   73TMC2    H1 1139   0.251   3.614  14.286  2.0757 -0.5959 -0.8063
   73TMC2    H2 1140   0.379   3.989  14.430 -0.0510 -0.1127  0.9604
   73TMC2    C7 1141   0.475   3.783  14.300 -1.2159 -0.7765 -0.2983
   73TMC2    C8 1142   0.154   4.116  14.408 -0.4169  0.2831 -0.1225
   73TMC2    O1 1143   0.559   3.851  14.357  0.5902  0.0697 -0.0812
   73TMC2    O2 1144   0.233   4.158  14.490  0.3478  0.1039  0.3103
   73TMC2    O5 1145   0.085   4.189  14.311 -0.7419  0.4029 -0.1098
   73TMC2    H5 1146   0.015   4.134  14.269  1.0617 -0.4827 -1.9687
   74MPD2     C 1147   0.087   3.925  13.622 -0.1536 -0.3429  0.0931
   74MPD2    C1 1148   0.153   3.804  13.669 -0.3917  0.5804 -0.6048
   74MPD2    C2 1149   0.139   3.786  13.804  0.2332 -0.2173 -0.1616
   74MPD2    C3 1150   0.064   3.873  13.884  0.8248  0.0223  0.3740
   74MPD2    C4 1151   4.716   3.975  13.834 -0.3047  0.1550 -0.0159
   74MPD2    C5 1152   4.730   3.995  13.700  0.0044  0.7798  0.4097
   74MPD2     H 1153   0.200   3.709  13.849  0.3516 -0.4247 -0.6759
   74MPD2    H1 1154   4.657   4.042  13.894 -2.0292  0.0731 -1.6118
   74MPD2    H2 1155   0.090   3.952  13.517  0.4701  0.9928  0.4570
   74MPD2    H3 1156   4.665   4.064  13.647  0.9854  1.9009  0.6649
   74MPD2     N 1157   0.062   3.859  14.030  0.1669  0.6386 -0.2654
   74MPD2    H5 1158   4.727   3.920  14.072 -1.3333  0.7921 -3.0201
   74MPD2    N1 1159   0.230   3.722  13.580 -0.6157 -0.0070 -0.4042
   74MPD2    H7 1160   0.238   3.760  13.487 -0.2211  0.5998 -0.1249
   75TMC2    C1 1161   4.674   0.634  13.693 -0.2554  0.5418 -0.9756
   75TMC2    C2 1162   4.620   0.730  13.779 -0.0547 -0.6402 -0.4132
   75TMC2    C3 1163   4.536   0.811  13.711  0.1460  0.1379 -0.7177
   75TMC2    C4 1164   4.669   0.629  13.559 -0.7390  0.4287  0.4427
   75TMC2    C5 1165   4.579   0.713  13.504  1.0608  0.2361  0.5199
   75TMC2    C6 1166   4.506   0.801  13.576  0.0615 -0.1318 -0.4621
   75TMC2     C 1167   0.034   0.548  13.769 -0.6772 -0.7977 -0.2225
   75TMC2     O 1168   0.062   0.590  13.884  0.2727 -0.6719 -0.0519
   75TMC2     H 1169   4.628   0.739  13.886 -0.0010 -0.2625 -0.4497
   75TMC2    H1 1170   4.723   0.561  13.494 -0.6560 -0.7475  1.7295
   75TMC2    H2 1171   4.436   0.869  13.529  0.1474  0.9471  0.9526
   75TMC2    C7 1172   4.546   0.703  13.363 -0.2339 -0.1086  0.0019
   75TMC2    C8 1173   4.474   0.923  13.786  0.4040  0.4631  0.0826
   75TMC2    O1 1174   4.563   0.591  13.312 -0.0081 -0.2532  1.1546
   75TMC2    O2 1175   4.362   0.961  13.755 -0.1182 -0.4533 -0.0193
   75TMC2    O5 1176   4.559   0.979  13.882 -0.6376  0.1786 -0.0740
   75TMC2    H5 1177   4.646   0.938  13.900  0.2057  2.8327  1.8710
   76TMC2    C1 1178   3.569   0.897  12.300  0.2339  0.3856  0.1861
   76TMC2    C2 1179   3.443   0.915  12.364  0.0510 -0.2577 -0.1535
   76TMC2    C3 1180   3.453   0.900  12.499  0.1505  0.1265 -0.6729
   76TMC2    C4 1181   3.689   0.875  12.369 -0.2295  1.2821  0.3071
   76TMC2    C5 1182   3.686   0.870  12.509 -0.6816  0.1240  0.7732
   76TMC2    C6 1183   3.564   0.880  12.572 -0.0721  0.0846 -0.4643
   76TMC2     C 1184   3.569   0.932  12.157 -0.0284  0.1452  0.6666
   76TMC2     O 1185   3.467   0.950  12.097 -0.2585  0.6471  0.3436
   76TMC2     H 1186   3.356   0.951  12.311  0.4038 -1.1416 -1.3207
   76TMC2    H1 1187   3.776   0.853  12.308 -1.2339  1.2781 -1.1428
   76TMC2    H2 1188   3.549   0.886  12.679 -1.9490  2.6947 -0.8619
   76TMC2    C7 1189   3.804   0.912  12.580 -0.0458  0.7580 -0.0540
   76TMC2    C8 1190   3.327   0.919  12.571 -0.5282  0.0133  0.4228
   76TMC2    O1 1191   3.902   0.960  12.515  0.6437 -0.5462  0.1136
   76TMC2    O2 1192   3.297   0.842  12.660  0.3456 -0.4259  0.2304
   76TMC2    O5 1193   3.307   1.047  12.589  0.5250  0.3397  0.5743
   76TMC2    H5 1194   3.348   1.098  12.516 -2.6188  0.2827 -1.2655
   77MPD2     C 1195   3.796   1.105  11.730 -0.9375 -1.1668 -0.6791
   77MPD2    C1 1196   3.666   1.110  11.767 -0.8380  0.1330  0.4151
   77MPD2    C2 1197   3.631   1.050  11.885 -0.1526 -0.2279  0.3570
   77MPD2    C3 1198   3.725   1.004  11.974 -0.0163  0.3374 -0.0247
   77MPD2    C4 1199   3.860   0.993  11.939 -0.1860  0.3422 -0.6743
   77MPD2    C5 1200   3.895   1.042  11.813 -0.1997  0.3397  0.0243
   77MPD2     H 1201   3.524   1.043  11.902 -0.2699  0.4414 -0.1191
   77MPD2    H1 1202   3.931   0.954  12.011 -1.6248  0.4813  0.8283
   77MPD2    H2 1203   3.815   1.131  11.627  0.3284  0.4059 -0.0600
   77MPD2    H3 1204   3.995   1.024  11.776 -0.1641 -0.5441  0.5547
   77MPD2     N 1205   3.698   0.949  12.107 -0.0307 -0.3289  0.1757
   77MPD2    H5 1206   3.775   0.960  12.172 -1.0935 -1.4363  1.6328
   77MPD2    N1 1207   3.567   1.180  11.695 -0.2626  0.5449 -0.7503
   77MPD2    H7 1208   3.483   1.207  11.745 -0.4820  0.6256 -1.1643
   78TMC2    C1 1209   0.813   2.624   1.892  0.0240 -0.0868 -0.2930
   78TMC2    C2 1210   0.721   2.542   1.834 -0.3261  0.1017 -0.5007
   78TMC2    C3 1211   0.766   2.433   1.760 -0.3733  0.3228  0.2066
   78TMC2    C4 1212   0.942   2.607   1.897  0.1000 -0.4538  0.4795
   78TMC2    C5 1213   0.988   2.508   1.809  0.4149  0.8118 -0.7826
   78TMC2    C6 1214   0.906   2.417   1.750 -0.2610 -0.3267  0.3620
   78TMC2     C 1215   0.764   2.752   1.936  0.9022  0.4594  0.0942
   78TMC2     O 1216   0.661   2.799   1.883  0.3202 -0.1498  0.0631
   78TMC2     H 1217   0.615   2.560   1.836 -0.2564  0.5466 -0.7748
   78TMC2    H1 1218   0.997   2.696   1.925  0.5239 -0.2829 -0.9181
   78TMC2    H2 1219   0.943   2.333   1.693 -4.2738 -0.3869 -2.2068
   78TMC2    C7 1220   1.130   2.479   1.827  0.0834 -0.2784 -0.0736
   78TMC2    C8 1221   0.674   2.374   1.672 -0.5138  0.3253  0.5684
   78TMC2    O1 1222   1.165   2.385   1.761  0.1841 -1.3331  1.0659
   78TMC2    O2 1223   0.575   2.435   1.639  0.1955 -0.6525  0.0905
   78TMC2    O5 1224   0.704   2.242   1.650  0.0400  0.3271  0.2914
   78TMC2    H5 1225   0.768   2.206   1.715  1.2021  0.2967 -0.8690
   79MPD1     C 1226   0.730   3.118   2.283  0.2228  0.4079 -0.3629
   79MPD1    C1 1227   0.651   3.092   2.169 -0.3399 -0.2090 -0.3593
   79MPD1    C2 1228   0.689   2.991   2.089  1.1635  0.1936  0.4846
   79MPD1    C3 1229   0.793   2.910   2.125  0.8856  0.0573  0.3773
   79MPD1    C4 1230   0.874   2.938   2.230  0.2839 -0.0798  0.0829
   79MPD1    C5 1231   0.839   3.041   2.314  0.4910  0.0903 -0.5099
   79MPD1     H 1232   0.627   2.975   2.001 -0.5214  2.7129  1.1997
   79MPD1    H1 1233   0.954   2.870   2.255 -0.3046 -1.2856 -1.2810
   79MPD1    H2 1234   0.709   3.201   2.350  1.9259  0.3722  0.2056
   79MPD1    H3 1235   0.896   3.051   2.406 -2.7229  1.3263  1.3902
   79MPD1     N 1236   0.827   2.792   2.055  0.0441 -0.0840  0.5646
   79MPD1    H5 1237   0.898   2.730   2.092 -1.8788 -2.2620  0.6787
   79MPD1    N1 1238   0.530   3.159   2.145 -0.1599  0.0618 -0.8068
   79MPD1    H6 1239   0.488   3.199   2.229 -0.5818 -1.0284 -0.5039
   79MPD1    H7 1240   0.460   3.114   2.087 -1.0419  1.1131 -0.5672
   80TMC2    C1 1241   1.820   4.149  12.458  0.5987 -0.4534 -0.0334
   80TMC2    C2 1242   1.765   4.027  12.437  0.1286  0.2207 -0.6232
   80TMC2    C3 1243   1.730   3.949  12.539 -0.7411 -0.2952 -0.0721
   80TMC2    C4 1244   1.855   4.195  12.582  0.0105  0.3650 -0.4324
   80TMC2    C5 1245   1.829   4.105  12.681  0.0069 -0.3185  0.5365
   80TMC2    C6 1246   1.770   3.983  12.664 -0.4694 -0.1664  0.2732
   80TMC2     C 1247   1.885   4.209  12.345 -0.2306 -1.3743  0.7622
   80TMC2     O 1248   1.914   4.142  12.248  0.2359 -0.5650  0.4636
   80TMC2     H 1249   1.731   4.020  12.334  0.3220 -0.6029 -0.6275
   80TMC2    H1 1250   1.891   4.296  12.595 -0.0968  0.4754 -0.9782
   80TMC2    H2 1251   1.751   3.919  12.749  0.7973  1.3922  1.7374
   80TMC2    C7 1252   1.836   4.152  12.819 -0.4910 -0.4037 -0.4991
   80TMC2    C8 1253   1.693   3.813  12.525 -0.7748  0.2374 -0.0997
   80TMC2    O1 1254   1.766   4.088  12.897 -0.7604  0.1130  0.1363
   80TMC2    O2 1255   1.611   3.755  12.596  0.1662 -0.2913 -0.1473
   80TMC2    O5 1256   1.764   3.764  12.420  1.0330  0.2882 -0.2323
   80TMC2    H5 1257   1.833   3.831  12.399  0.0253  0.5797 -2.6336
   81MPD2     C 1258   2.064   4.390  12.185 -0.5282  0.2665 -0.2083
   81MPD2    C1 1259   1.973   4.433  12.276  0.0569 -0.7419  0.3390
   81MPD2    C2 1260   1.962   4.567  12.303 -0.0120 -0.6115 -0.1386
   81MPD2    C3 1261   2.062   4.654  12.258 -0.0945  0.1610  0.0811
   81MPD2    C4 1262   2.160   4.608  12.170  0.1427  0.3144  0.1786
   81MPD2    C5 1263   2.159   4.475  12.132  0.0402  0.0521  0.0896
   81MPD2     H 1264   1.880   4.613  12.357 -0.7095 -2.1851  0.1673
   81MPD2    H1 1265   2.242   4.663  12.126 -1.1448  3.1692  1.3386
   81MPD2    H2 1266   2.068   4.288  12.150  1.1805  1.4038 -3.2958
   81MPD2    H3 1267   2.216   4.446  12.045 -0.0724  0.6705 -0.1895
   81MPD2     N 1268   2.071   0.054  12.288 -0.6181 -0.3502 -0.1325
   81MPD2    H5 1269   2.156   0.101  12.260 -0.0723 -1.8609 -1.0171
   81MPD2    N1 1270   1.894   4.344  12.357 -0.2529  0.6775  0.1448
   81MPD2    H7 1271   1.832   4.399  12.416  0.0060  0.7919  0.3081
   82TMC2    C1 1272   4.681   4.720  10.741  0.4526 -0.0432  0.3359
   82TMC2    C2 1273   4.691   0.118  10.704 -0.4742  0.0668  0.0355
   82TMC2    C3 1274   0.011   0.203  10.796 -0.5357 -0.0886  0.1916
   82TMC2    C4 1275   0.005   4.675  10.860  0.8436  0.7468  0.3933
   82TMC2    C5 1276   0.066   0.034  10.943  0.4315 -0.0486  0.3292
   82TMC2    C6 1277   0.057   0.168  10.914  0.4813 -0.0270 -0.1686
   82TMC2     C 1278   4.685   4.620  10.628 -0.2464  0.4103 -0.5531
   82TMC2     O 1279   4.718   4.666  10.521 -0.1887 -0.3318  0.2042
   82TMC2     H 1280   4.642   0.153  10.614  0.5975 -0.6635 -0.8379
   82TMC2    H1 1281   0.009   4.573  10.896 -2.1113  1.6219  3.1645
   82TMC2    H2 1282   0.073   0.247  10.987  0.9776  0.1344 -0.4542
   82TMC2    C7 1283   0.089   4.724  11.081  0.2476  0.2109  0.1856
   82TMC2    C8 1284   0.061   0.332  10.751 -0.1013  0.0741 -0.0626
   82TMC2    O1 1285   0.014   4.638  11.127  0.2740  0.1503  0.1183
   82TMC2    O2 1286   0.179   0.361  10.768  0.0071 -0.2097 -0.5333
   82TMC2    O5 1287   4.715   0.373  10.650 -0.9813  0.1637 -0.2469
   82TMC2    H5 1288   4.618   0.359  10.656 -1.3913  2.5704 -1.1932
   83MPD2     C 1289   4.700   4.140  10.444 -0.2798 -0.3601  0.7642
   83MPD2    C1 1290   0.009   4.256  10.382 -0.6062 -0.2276  0.0974
   83MPD2    C2 1291   4.732   4.364  10.464 -0.0257 -0.1863  0.2331
   83MPD2    C3 1292   4.673   4.370  10.588 -1.0654 -0.0282  0.2631
   83MPD2    C4 1293   4.624   4.251  10.636 -0.6017 -0.2307  0.2991
   83MPD2    C5 1294   4.646   4.135  10.571  0.6633  0.6138  0.1461
   83MPD2     H 1295   0.034   4.455  10.419  1.6275 -2.2159 -2.5808
   83MPD2    H1 1296   4.598   4.245  10.741  1.7334  1.6301  0.9665
   83MPD2    H2 1297   4.708   4.044  10.394  0.4505  0.9390 -1.6254
   83MPD2    H3 1298   4.624   4.038  10.614  0.2314  0.3168 -0.7374
   83MPD2     N 1299   4.658   4.490  10.664 -0.2547 -0.0822  0.9950
   83MPD2    H5 1300   4.616   4.479  10.756  2.7688 -0.2050  2.3712
   83MPD2    N1 1301   0.054   4.250  10.250 -0.1036  0.9130 -0.1246
   83MPD2    H7 1302   0.051   4.159  10.205  0.3362  0.0270  1.6383
   84TMC2    C1 1303   2.268   4.262  11.131  0.0057 -0.0505  0.0135
   84TMC2    C2 1304   2.365   4.352  11.171  0.5307  0.1004 -0.3714
   84TMC2    C3 1305   2.474   4.357  11.087  0.3284 -0.5299  0.2018
   84TMC2    C4 1306   2.273   4.183  11.021 -0.3269 -0.1629  0.3116
   84TMC2    C5 1307   2.377   4.209  10.940  0.1081  0.4437  0.1911
   84TMC2    C6 1308   2.480   4.292  10.972 -0.3999  0.0079 -0.6395
   84TMC2     C 1309   2.144   4.275  11.203  0.4381  0.3242 -0.3616
   84TMC2     O 1310   2.144   4.336  11.308 -0.1158  0.6658  0.0023
   84TMC2     H 1311   2.349   4.410  11.262 -0.5300  0.2181 -0.6353
   84TMC2    H1 1312   2.194   4.126  10.972  1.1524  0.6952 -3.1142
   84TMC2    H2 1313   2.574   4.303  10.919  0.3214  0.9361  0.8227
   84TMC2    C7 1314   2.394   4.140  10.810  0.5212 -0.1033  0.3905
   84TMC2    C8 1315   2.574   4.459  11.115 -0.5181  0.0554  0.2382
   84TMC2    O1 1316   2.463   4.185  10.718  0.0185 -0.1331 -0.4437
   84TMC2    O2 1317   2.649   4.498  11.028 -0.3949  0.4745  0.1610
   84TMC2    O5 1318   2.617   4.449  11.241 -0.1515  0.1983  0.1730
   84TMC2    H5 1319   2.574   4.381  11.296  0.5226 -1.3375 -1.1923
   85TMC2    C1 1320   3.194   2.730  16.014  0.4070 -0.0707 -0.2170
   85TMC2    C2 1321   3.116   2.650  15.938  0.0282 -0.2996 -0.4822
   85TMC2    C3 1322   3.073   2.717  15.828  0.2205 -0.3200 -0.0724
   85TMC2    C4 1323   3.243   2.857  15.982  0.6008  0.2476 -0.7150
   85TMC2    C5 1324   3.196   2.912  15.866  0.4748  0.7868 -0.2246
   85TMC2    C6 1325   3.108   2.846  15.788  0.4859 -0.0585  0.4814
   85TMC2     C 1326   3.264   2.669  16.122 -0.0987 -0.3962  0.2736
   85TMC2     O 1327   3.311   2.731  16.218 -0.8206  0.1900 -0.7267
   85TMC2     H 1328   3.063   2.560  15.968 -1.3817  1.2782  1.7595
   85TMC2    H1 1329   3.317   2.907  16.044  0.8624 -1.5679  0.4332
   85TMC2    H2 1330   3.080   2.876  15.688  0.7171  0.0641  0.4554
   85TMC2    C7 1331   3.295   3.011  15.817  0.1877  0.1031 -0.4875
   85TMC2    C8 1332   2.995   2.638  15.734 -0.1458 -0.4094  0.6257
   85TMC2    O1 1333   3.399   3.023  15.873 -0.0668 -0.3460 -0.3450
   85TMC2    O2 1334   2.915   2.693  15.655  0.5646  0.2895  0.7596
   85TMC2    O5 1335   3.025   2.509  15.740 -0.5566  0.2982  0.0197
   85TMC2    H5 1336   3.117   2.503  15.776 -0.9216 -2.9734  0.4527
   86MPD2     C 1337   3.416   2.231  16.318 -0.2890  0.2438  0.1081
   86MPD2    C1 1338   3.375   2.205  16.187  0.1670  0.1764 -1.0016
   86MPD2    C2 1339   3.330   2.312  16.112  0.1861  0.2830 -0.6717
   86MPD2    C3 1340   3.342   2.441  16.162 -0.0100  1.0182  0.3070
   86MPD2    C4 1341   3.407   2.465  16.281 -0.6097  0.4007  0.2591
   86MPD2    C5 1342   3.442   2.356  16.355 -0.1729  0.7475 -0.4396
   86MPD2     H 1343   3.278   2.296  16.018 -0.0559 -0.0241 -0.4866
   86MPD2    H1 1344   3.426   2.556  16.336  0.5895  0.8240 -0.8625
   86MPD2    H2 1345   3.438   2.154  16.391  0.1743 -1.2478 -1.6167
   86MPD2    H3 1346   3.496   2.373  16.448 -1.0231  2.2271 -0.2121
   86MPD2     N 1347   3.279   2.542  16.091 -0.3821 -0.0063  0.0384
   86MPD2    H5 1348   3.241   2.515  16.001  0.0654 -1.1749  0.1959
   86MPD2    N1 1349   3.342   2.073  16.165  0.1758  1.1780  0.3058
   86MPD2    H7 1350   3.379   2.009  16.236 -0.5401 -1.5536 -1.7901
   87TMC2    C1 1351   1.432   4.604   1.182 -0.1053 -0.0688  0.2740
   87TMC2    C2 1352   1.497   4.538   1.282  0.6070 -0.4277 -0.3250
   87TMC2    C3 1353   1.489   4.604   1.406  0.7169 -0.2612  0.3588
   87TMC2    C4 1354   1.359   4.713   1.206  0.3086  0.0859  0.4488
   87TMC2    C5 1355   1.368   0.045   1.325 -0.0398  0.0733 -0.6532
   87TMC2    C6 1356   1.428   4.724   1.438  0.2661 -0.1625 -0.3176
   87TMC2     C 1357   1.408   4.538   1.053  0.1830  0.0920 -0.6389
   87TMC2     O 1358   1.303   4.574   1.002 -0.2766 -0.4275 -0.4805
   87TMC2     H 1359   1.541   4.440   1.267 -0.9424 -1.3493  1.1280
   87TMC2    H1 1360   1.298   0.017   1.126 -2.5269 -0.3479  2.4093
   87TMC2    H2 1361   1.428   0.026   1.540  1.2241 -1.8471  0.2826
   87TMC2    C7 1362   1.303   0.177   1.329 -0.7419  0.2902  0.0423
   87TMC2    C8 1363   1.545   4.530   1.516 -0.2755 -0.5513 -0.5364
   87TMC2    O1 1364   1.226   0.208   1.236  0.5160  0.2044 -0.0904
   87TMC2    O2 1365   1.553   4.408   1.524  0.8392 -0.2084 -0.1025
   87TMC2    O5 1366   1.602   4.613   1.602  0.0595  0.0843  0.3163
   87TMC2    H5 1367   1.632   4.693   1.554 -1.8016 -1.3302 -3.2398
   88MPD2     C 1368   1.455   0.437   1.536 -0.5162  0.0835 -0.1219
   88MPD2    C1 1369   1.371   0.385   1.443  0.3939  0.1358  0.2095
   88MPD2    C2 1370   1.290   0.464   1.370  0.1386  0.0034  0.2378
   88MPD2    C3 1371   1.296   0.600   1.381  0.3413  0.4389  0.1522
   88MPD2    C4 1372   1.385   0.656   1.473  0.1609 -0.3482 -0.1986
   88MPD2    C5 1373   1.466   0.574   1.546  0.9662  0.2056 -0.5262
   88MPD2     H 1374   1.219   0.431   1.295  0.4791 -2.5058  1.0392
   88MPD2    H1 1375   1.397   0.762   1.492 -0.6659  0.1215 -2.3140
   88MPD2    H2 1376   1.506   0.378   1.612 -0.0460 -1.1820 -1.4184
   88MPD2    H3 1377   1.531   0.610   1.625  1.2513  1.3709 -1.2899
   88MPD2     N 1378   1.205   0.685   1.313 -0.3706 -0.0607  0.0014
   88MPD2    H5 1379   1.199   0.778   1.352  2.6503 -0.7091  1.9727
   88MPD2    N1 1380   1.366   0.247   1.430 -0.6067 -0.0906  0.2863
   88MPD2    H7 1381   1.420   0.194   1.498 -0.3596 -1.4244 -0.9731
   89TMC2    C1 1382   2.443   3.281   1.406 -0.7959  0.2649  0.8723
   89TMC2    C2 1383   2.568   3.335   1.375 -0.2300 -0.3842  0.1133
   89TMC2    C3 1384   2.575   3.473   1.354  0.0890 -0.3666 -0.3739
   89TMC2    C4 1385   2.329   3.359   1.393 -0.0078 -0.0534 -0.6514
   89TMC2    C5 1386   2.347   3.485   1.335 -0.4590 -0.3693  0.8753
   89TMC2    C6 1387   2.464   3.550   1.327 -0.0343  0.5713  0.0916
   89TMC2     C 1388   2.427   3.139   1.404 -0.0369  0.2716  0.6583
   89TMC2     O 1389   2.516   3.065   1.356  0.1864  0.2722 -0.2145
   89TMC2     H 1390   2.646   3.260   1.385  0.0433 -0.2442 -1.0591
   89TMC2    H1 1391   2.238   3.312   1.358 -1.0476  1.8728 -0.5709
   89TMC2    H2 1392   2.474   3.656   1.306  2.1403  0.1802 -0.8458
   89TMC2    C7 1393   2.222   3.557   1.293  0.2100 -0.4874 -0.4872
   89TMC2    C8 1394   2.707   3.533   1.326  0.3088 -0.6867  0.8469
   89TMC2    O1 1395   2.124   3.488   1.299  0.3903 -0.4740 -0.2524
   89TMC2    O2 1396   2.730   3.632   1.255  0.4058  0.2693 -0.1370
   89TMC2    O5 1397   2.791   3.474   1.415  0.5106  0.2910 -0.7258
   89TMC2    H5 1398   2.745   3.408   1.471 -1.2293 -1.2595 -4.0387
   90MPD2     C 1399   2.097   2.749   1.487 -0.1108  0.4353  0.1490
   90MPD2    C1 1400   2.046   2.870   1.528  0.4161  0.3343  0.3389
   90MPD2    C2 1401   2.122   2.986   1.520 -0.3676 -0.6962 -0.1450
   90MPD2    C3 1402   2.250   2.988   1.464 -0.5403  0.9761 -0.4378
   90MPD2    C4 1403   2.304   2.870   1.431  1.0022 -0.1331 -0.2125
   90MPD2    C5 1404   2.223   2.758   1.445  0.1094 -0.0074  0.1764
   90MPD2     H 1405   2.079   3.083   1.542  0.6775 -0.1209 -0.6139
   90MPD2    H1 1406   2.404   2.855   1.393  1.8492  0.1436  1.9169
   90MPD2    H2 1407   2.048   2.653   1.496 -0.1231  0.4226 -0.0373
   90MPD2    H3 1408   2.272   2.663   1.430 -2.1278 -1.2157  0.4836
   90MPD2     N 1409   2.308   3.108   1.457 -0.1235 -0.2266 -0.2403
   90MPD2    H5 1410   2.254   3.188   1.487 -0.8243 -0.8469  0.1597
   90MPD2    N1 1411   1.919   2.890   1.592 -0.4125 -0.0202 -0.0434
   90MPD2    H7 1412   1.913   2.983   1.632  0.2236  0.4086 -0.9424
   91TMC2    C1 1413   2.919   3.385  16.195 -0.4437  0.0274  0.2867
   91TMC2    C2 1414   2.986   3.437  16.300  0.2739 -0.4884  0.4405
   91TMC2    C3 1415   2.927   3.419  16.421 -0.7629 -0.2146 -0.4752
   91TMC2    C4 1416   2.816   3.295  16.211 -1.1473  0.1304  0.3099
   91TMC2    C5 1417   2.768   3.266  16.340 -0.3512 -0.1397  0.4171
   91TMC2    C6 1418   2.835   3.325  16.447 -0.5517 -0.0373 -0.0531
   91TMC2     C 1419   2.978   3.394  16.064 -0.2411  0.6012  0.5739
   91TMC2     O 1420   2.914   3.390  15.960 -0.0168  0.1871  0.5164
   91TMC2     H 1421   3.070   3.505  16.291  0.9233 -1.5844 -1.7915
   91TMC2    H1 1422   2.778   3.252  16.119  0.8803  2.3992 -1.5994
   91TMC2    H2 1423   2.789   3.312  16.544 -3.4389  0.1099 -1.4005
   91TMC2    C7 1424   2.715   3.131  16.368  0.6072 -0.1250 -0.2682
   91TMC2    C8 1425   2.987   3.494  16.530  0.0502  0.3105 -0.2703
   91TMC2    O1 1426   2.738   3.079  16.477 -0.2590  0.2546  0.1139
   91TMC2    O2 1427   3.045   3.601  16.518 -0.0338  0.5943  0.5317
   91TMC2    O5 1428   2.995   3.421  16.639  0.6960 -0.2488  0.3815
   91TMC2    H5 1429   2.975   3.325  16.628 -1.8421  0.6659 -2.8033
   92MPD2     C 1430   3.175   3.459  15.839 -0.9501  0.1143  0.5670
   92MPD2    C1 1431   3.206   3.445  15.972  0.2229 -0.8636 -0.1778
   92MPD2    C2 1432   3.335   3.463  16.010 -0.4207  0.0502 -0.3206
   92MPD2    C3 1433   3.440   3.495  15.925 -0.0891 -0.4374 -0.2885
   92MPD2    C4 1434   3.408   3.509  15.790  0.3213 -0.6651 -0.1397
   92MPD2    C5 1435   3.277   3.482  15.753 -0.4069  0.2902  0.8813
   92MPD2     H 1436   3.362   3.462  16.115 -0.8822  1.1551 -0.1849
   92MPD2    H1 1437   3.477   3.526  15.709  1.6956  1.5750  1.5253
   92MPD2    H2 1438   3.079   3.438  15.795 -0.1154 -0.7768 -0.8276
   92MPD2    H3 1439   3.260   3.491  15.646 -1.8818 -0.8227  1.0144
   92MPD2     N 1440   3.575   3.519  15.968  0.5234 -0.0509 -0.7578
   92MPD2    H5 1441   3.644   3.513  15.894  1.1884 -0.6225 -0.0867
   92MPD2    N1 1442   3.111   3.415  16.082  0.1218 -0.7116 -0.1627
   92MPD2    H7 1443   3.147   3.424  16.176  1.3528 -1.2796 -0.5817
   93TMC2    C1 1444   0.056   3.147  13.650  0.6871  0.4361  0.3348
   93TMC2    C2 1445   4.687   3.224  13.711  0.1048  0.6824  0.1132
   93TMC2    C3 1446   4.727   3.321  13.798 -0.0434 -0.0195  0.2854
   93TMC2    C4 1447   0.189   3.158  13.693  0.6246  0.3344 -0.0560
   93TMC2    C5 1448   0.214   3.260  13.781  0.2801  0.3569  0.5190
   93TMC2    C6 1449   0.120   3.345  13.840 -0.2536  0.2745 -0.7537
   93TMC2     C 1450   0.024   3.030  13.569  0.2405  0.4354  0.4357
   93TMC2     O 1451   0.115   2.961  13.523 -0.1127  0.0459  0.1754
   93TMC2     H 1452   4.589   3.220  13.667  1.1063  1.6354 -2.1813
   93TMC2    H1 1453   0.271   3.100  13.652  0.0301 -1.8002  1.7566
   93TMC2    H2 1454   0.146   3.438  13.890  1.3227  0.8876 -2.6841
   93TMC2    C7 1455   0.350   3.270  13.823 -0.3069  0.6250  0.0666
   93TMC2    C8 1456   4.626   3.388  13.881  0.0418  0.4080 -0.4899
   93TMC2    O1 1457   0.430   3.195  13.772  0.3757 -0.5514  0.1388
   93TMC2    O2 1458   4.648   3.423  14.001  0.6362  0.7103 -0.3739
   93TMC2    O5 1459   4.531   3.435  13.806 -0.0265  0.0288  0.1422
   93TMC2    H5 1460   4.542   3.417  13.710 -0.6451  1.9906 -0.2838
   94MPD2     C 1461   4.639   2.777  13.464  0.1931  0.3703  0.9962
   94MPD2    C1 1462   4.562   2.884  13.512 -0.5368 -0.2890 -0.2411
   94MPD2    C2 1463   4.423   2.879  13.509 -0.3112  0.1463  0.6313
   94MPD2    C3 1464   4.360   2.763  13.468  0.2218 -0.5895 -0.1194
   94MPD2    C4 1465   4.432   2.651  13.433 -1.4310  0.5690 -0.9055
   94MPD2    C5 1466   4.572   2.661  13.437 -0.4064 -0.9620  0.5451
   94MPD2     H 1467   4.368   2.967  13.541  0.3523  1.0216 -0.6575
   94MPD2    H1 1468   4.393   2.552  13.416 -0.9392  0.5004 -1.6247
   94MPD2    H2 1469   0.012   2.778  13.459  0.1184  0.5417 -0.5985
   94MPD2    H3 1470   4.621   2.570  13.407  2.3696  0.3024  1.3081
   94MPD2     N 1471   4.227   2.754  13.432 -0.5295  0.1763 -1.5298
   94MPD2    H5 1472   4.183   2.670  13.395 -0.4586 -0.0893 -1.0036
   94MPD2    N1 1473   4.622   3.004  13.567  0.1750  0.3523 -0.3501
   94MPD2    H7 1474   4.559   3.059  13.625 -0.0879 -0.8439  0.4917
   95TMC2    C1 1475   4.249   0.300  15.597  1.0429  0.1212 -0.5725
   95TMC2    C2 1476   4.153   0.395  15.586  0.1637  0.6516  1.1584
   95TMC2    C3 1477   4.016   0.358  15.572 -0.4288  0.0662  0.2482
   95TMC2    C4 1478   4.218   0.169  15.610 -0.2202  0.8934 -0.7659
   95TMC2    C5 1479   4.088   0.130  15.602  0.0586 -0.2856  0.2719
   95TMC2    C6 1480   3.986   0.223  15.579  0.6027 -0.1248  0.4104
   95TMC2     C 1481   4.374   0.348  15.629 -0.3873 -0.1044  0.3487
   95TMC2     O 1482   4.414   0.439  15.557 -0.4362 -0.5871 -0.5662
   95TMC2     H 1483   4.188   0.495  15.565  1.9214  0.1516  1.6969
   95TMC2    H1 1484   4.305   0.106  15.617  0.0683  1.0666 -2.6745
   95TMC2    H2 1485   3.883   0.189  15.575  0.5347 -0.0642  1.6690
   95TMC2    C7 1486   4.043   4.729  15.633 -0.1715 -0.1288 -0.1839
   95TMC2    C8 1487   3.917   0.458  15.551 -0.7266  0.1936 -0.4429
   95TMC2    O1 1488   3.927   4.696  15.604  0.0362 -0.4951 -0.1755
   95TMC2    O2 1489   3.803   0.433  15.507 -0.3194  0.3625 -0.4283
   95TMC2    O5 1490   3.945   0.567  15.626  0.1825  0.6523  0.0426
   95TMC2    H5 1491   4.030   0.568  15.676  0.6085 -1.5233 -0.6445
   96MPD2     C 1492   4.713   0.463  15.988  0.5505 -0.5678 -0.1895
   96MPD2    C1 1493   4.716   0.466  15.848 -0.2149  0.4457  0.2870
   96MPD2    C2 1494   4.610   0.421  15.772 -0.2242  0.3074  0.2564
   96MPD2    C3 1495   4.502   0.370  15.837 -0.2793  0.5675 -0.5329
   96MPD2    C4 1496   4.499   0.361  15.978  0.1547 -0.6067  1.2638
   96MPD2    C5 1497   4.605   0.409  16.049 -0.0416 -0.6406 -0.0522
   96MPD2     H 1498   4.608   0.423  15.664 -1.0515 -0.5020  0.2624
   96MPD2    H1 1499   4.411   0.324  16.029  1.0960 -3.4937  0.8058
   96MPD2    H2 1500   0.060   0.497  16.051  1.2720 -0.6497 -1.0848
   96MPD2    H3 1501   4.602   0.410  16.158  0.1168 -0.0526 -0.0508
   96MPD2     N 1502   4.383   0.335  15.764  0.5711 -0.0580  0.0686
   96MPD2    H5 1503   4.308   0.290  15.814 -1.2659  1.2904 -1.4549
   96MPD2    N1 1504   0.096   0.516  15.788 -0.0360  0.7438 -0.4216
   96MPD2    H7 1505   0.153   0.580  15.843  0.9198  0.0753 -0.6292
   97TMC2    C1 1506   2.502   2.288   0.019  0.4585 -0.0238 -1.4060
   97TMC2    C2 1507   2.556   2.245  17.635 -0.9233 -0.3233 -0.4870
   97TMC2    C3 1508   2.589   2.344  17.542  0.2080 -0.2228 -0.1162
   97TMC2    C4 1509   2.487   2.423   0.043  0.4352  0.9009  0.3200
   97TMC2    C5 1510   2.539   2.516  17.696  0.1243  0.1111 -0.0040
   97TMC2    C6 1511   2.597   2.474  17.579 -0.1861  0.3657  0.6144
   97TMC2     C 1512   2.520   2.209   0.136  0.1966  0.5702 -0.4728
   97TMC2     O 1513   2.538   2.270   0.238  0.2773 -0.0201  0.1008
   97TMC2     H 1514   2.587   2.144  17.612 -0.4220 -0.2792 -0.0160
   97TMC2    H1 1515   2.424   2.452   0.126  1.0010 -1.6642  1.6178
   97TMC2    H2 1516   2.644   2.543  17.510 -1.8822  2.2091  1.3274
   97TMC2    C7 1517   2.588   2.650   0.007 -0.3075 -0.1872 -0.2242
   97TMC2    C8 1518   2.680   2.292  17.437  0.1783  0.2721  0.0376
   97TMC2    O1 1519   2.662   2.720  17.671 -1.0415  0.3961 -0.6059
   97TMC2    O2 1520   2.734   2.180  17.435 -0.8046  0.5288  0.3219
   97TMC2    O5 1521   2.674   2.373  17.324  0.7581 -0.7924 -0.2630
   97TMC2    H5 1522   2.601   2.439  17.322  1.1173 -0.3780  0.3176
   98MPD2     C 1523   2.612   1.764   0.392  0.3509 -0.1020  0.2026
   98MPD2    C1 1524   2.634   1.897   0.425 -0.9110  0.1341  0.6847
   98MPD2    C2 1525   2.600   1.994   0.335 -1.1374  0.3516 -0.9466
   98MPD2    C3 1526   2.546   1.967   0.209 -0.1308 -0.2418 -0.5332
   98MPD2    C4 1527   2.519   1.834   0.189  0.3891  0.2129  0.1140
   98MPD2    C5 1528   2.555   1.731   0.272  0.0708 -0.3674 -0.3006
   98MPD2     H 1529   2.628   2.096   0.359 -3.7414  0.4152  1.9168
   98MPD2    H1 1530   2.470   1.801   0.098  1.4468 -0.0153 -0.3769
   98MPD2    H2 1531   2.635   1.684   0.462  0.9823  0.0570  0.1798
   98MPD2    H3 1532   2.534   1.627   0.250  0.9285 -0.5356 -0.3250
   98MPD2     N 1533   2.507   2.066   0.112  0.4384  0.3584  0.2855
   98MPD2    H5 1534   2.462   2.038   0.025  0.0957  2.2586 -0.1431
   98MPD2    N1 1535   2.676   1.918   0.562  0.2019  1.0633  0.0889
   98MPD2    H7 1536   2.697   1.833   0.614 -0.1979  2.4958  2.5471
   99TMC2    C1 1537   1.744   3.747   1.804 -0.3454 -0.0528 -0.3487
   99TMC2    C2 1538   1.855   3.808   1.863  0.6844  0.0940 -0.7238
   99TMC2    C3 1539   1.852   3.942   1.883 -0.6044  0.2669  0.7653
   99TMC2    C4 1540   1.622   3.813   1.787 -0.3746  0.5188 -0.2990
   99TMC2    C5 1541   1.629   3.947   1.811 -0.1025  0.3771 -0.1215
   99TMC2    C6 1542   1.747   4.011   1.845  0.1044 -0.2528 -0.1750
   99TMC2     C 1543   1.771   3.635   1.716 -0.0490 -0.3229 -0.0238
   99TMC2     O 1544   1.879   3.578   1.715  0.0653 -0.1414  0.2451
   99TMC2     H 1545   1.936   3.748   1.903 -1.7163 -0.9409  2.6177
   99TMC2    H1 1546   1.534   3.760   1.753  1.0995 -0.6428 -2.3232
   99TMC2    H2 1547   1.738   4.115   1.873 -1.4234 -0.4600  0.1205
   99TMC2    C7 1548   1.510   4.022   1.834  0.1387  0.9002 -1.2910
   99TMC2    C8 1549   1.971   4.022   1.895 -1.4364  0.2877 -0.0767
   99TMC2    O1 1550   1.515   4.138   1.872  0.5138 -0.0755  0.1883
   99TMC2    O2 1551   1.975   4.144   1.909  0.4007 -0.5539 -0.2961
   99TMC2    O5 1552   2.064   3.954   1.819  0.1985  0.2967  0.0999
   99TMC2    H5 1553   2.023   3.871   1.787  1.3343  0.8537 -2.8316
  100MPD2     C 1554   1.812   3.478   1.461  0.7639  0.1875  0.4899
  100MPD2    C1 1555   1.704   3.568   1.488  0.3976 -0.1137 -1.3989
  100MPD2    C2 1556   1.594   3.576   1.403 -0.6543 -1.0223  0.1381
  100MPD2    C3 1557   1.588   3.506   1.284  0.1953 -0.1315 -0.4659
  100MPD2    C4 1558   1.694   3.421   1.250  0.1938  0.0125 -0.4547
  100MPD2    C5 1559   1.800   3.414   1.340  0.1464 -0.2365  0.2378
  100MPD2     H 1560   1.509   3.638   1.429  0.0819  0.6996 -1.5002
  100MPD2    H1 1561   1.697   3.360   1.161  0.9932  0.5069 -0.7591
  100MPD2    H2 1562   1.904   3.466   1.515  0.5180 -2.7609  0.2180
  100MPD2    H3 1563   1.876   3.336   1.342  0.4494  0.0924  1.6557
  100MPD2     N 1564   1.476   3.521   1.199 -0.3205 -0.5425 -0.1238
  100MPD2    H5 1565   1.405   3.585   1.232 -0.5368 -1.2664  0.8290
  100MPD2    N1 1566   1.692   3.643   1.608 -0.6449 -0.1977 -0.0456
  100MPD2    H7 1567   1.602   3.690   1.609 -0.9691 -0.8367  0.6842
  101TMC2    C1 1568   1.816   0.746  13.531  0.1627 -0.1925  0.2108
  101TMC2    C2 1569   1.825   0.783  13.660 -0.2768 -0.0582 -0.8017
  101TMC2    C3 1570   1.923   0.873  13.694 -0.0824  0.3203  0.4291
  101TMC2    C4 1571   1.914   0.781  13.443 -0.3535  0.2980  0.1302
  101TMC2    C5 1572   2.017   0.856  13.483 -0.0705 -0.4329 -0.9865
  101TMC2    C6 1573   2.018   0.908  13.608  0.0759 -0.2183  0.0235
  101TMC2     C 1574   1.710   0.655  13.488 -0.5463  0.3000 -0.7100
  101TMC2     O 1575   1.604   0.661  13.554  0.2195  0.1360  0.4633
  101TMC2     H 1576   1.756   0.736  13.730  0.6931  1.6673  1.3160
  101TMC2    H1 1577   1.914   0.750  13.339 -0.9718 -1.4873  0.6754
  101TMC2    H2 1578   2.094   0.979  13.637 -1.0511 -0.0943  2.6799
  101TMC2    C7 1579   2.066   0.935  13.373  0.4928 -0.1124  0.5030
  101TMC2    C8 1580   1.948   0.887  13.840 -0.0847  0.9872  0.3541
  101TMC2    O1 1581   2.010   0.923  13.266 -0.0417 -0.1856  0.4455
  101TMC2    O2 1582   2.061   0.879  13.877  0.0269  0.4836  0.0047
  101TMC2    O5 1583   1.844   0.829  13.907 -0.3621 -0.1096  0.6313
  101TMC2    H5 1584   1.751   0.843  13.877 -0.4100 -2.9940 -0.5499
  102MPD2     C 1585   1.732   0.396  13.225 -0.2556 -0.5500  0.2938
  102MPD2    C1 1586   1.671   0.474  13.322  0.1481 -0.6030  0.4872
  102MPD2    C2 1587   1.544   0.440  13.371  0.4876 -0.1862  0.4339
  102MPD2    C3 1588   1.485   0.322  13.325  0.3112  0.0359  0.5422
  102MPD2    C4 1589   1.553   0.244  13.225 -0.1209  0.7214  0.0216
  102MPD2    C5 1590   1.670   0.285  13.182  0.3678  0.2491 -0.1492
  102MPD2     H 1591   1.497   0.504  13.445 -0.9482  0.5619 -1.1434
  102MPD2    H1 1592   1.515   0.150  13.186  0.9582  0.9808 -1.7005
  102MPD2    H2 1593   1.820   0.431  13.173 -1.4791 -0.2571 -1.5931
  102MPD2    H3 1594   1.707   0.227  13.099 -0.0517  0.7875 -0.7199
  102MPD2     N 1595   1.369   0.281  13.394 -0.0717  0.0623 -0.2999
  102MPD2    H5 1596   1.335   0.339  13.470  0.8865  0.5150 -0.2103
  102MPD2    N1 1597   1.752   0.568  13.387 -0.8225  0.0298 -0.5684
  102MPD2    H7 1598   1.848   0.573  13.355 -0.4211 -1.5844  0.3345
  103TMC2    C1 1599   3.925   0.719  13.345 -0.3704  0.5406 -0.0335
  103TMC2    C2 1600   4.050   0.685  13.389 -0.2595  0.0507 -0.3399
  103TMC2    C3 1601   4.068   0.618  13.503 -0.2340 -0.1585 -0.3596
  103TMC2    C4 1602   3.815   0.666  13.416 -0.0337 -0.5518 -0.1656
  103TMC2    C5 1603   3.840   0.592  13.525  0.3360 -0.7248 -0.2917
  103TMC2    C6 1604   3.961   0.567  13.575 -0.4186 -0.1920 -0.6950
  103TMC2     C 1605   3.901   0.764  13.209 -0.1404  0.1209 -0.1143
  103TMC2     O 1606   3.784   0.786  13.178 -0.1103  0.1784 -0.5950
  103TMC2     H 1607   4.144   0.710  13.341 -0.0531  0.2848  0.1795
  103TMC2    H1 1608   3.715   0.676  13.375  0.4047  1.0262 -0.8521
  103TMC2    H2 1609   3.978   0.518  13.670  0.2560 -1.9082 -1.7014
  103TMC2    C7 1610   3.719   0.575  13.609 -0.6737  0.2405 -0.2123
  103TMC2    C8 1611   4.203   0.579  13.543 -0.3193 -0.0028  0.4103
  103TMC2    O1 1612   3.613   0.565  13.552 -0.1563  0.0937  0.0527
  103TMC2    O2 1613   4.245   0.601  13.660 -0.3522  0.4429 -0.0234
  103TMC2    O5 1614   4.250   0.487  13.458 -0.8411 -0.1167  0.3544
  103TMC2    H5 1615   4.205   0.476  13.372 -2.4159  1.1541  1.0163
  104MPD2     C 1616   4.127   0.921  12.975 -0.0397  0.2786 -0.2716
  104MPD2    C1 1617   4.015   0.860  13.019 -1.4539  0.0823  0.3120
  104MPD2    C2 1618   3.902   0.851  12.932 -0.0468 -0.3808 -0.1597
  104MPD2    C3 1619   3.903   0.904  12.807 -0.3014 -0.5814 -0.0079
  104MPD2    C4 1620   4.020   0.980  12.778  0.0271 -0.0548 -0.1173
  104MPD2    C5 1621   4.127   0.990  12.854  0.9031 -0.7820  0.2129
  104MPD2     H 1622   3.809   0.803  12.964  0.8337 -2.4144 -0.6402
  104MPD2    H1 1623   4.044   1.029  12.684  0.3875 -1.0215 -0.5225
  104MPD2    H2 1624   4.214   0.909  13.038  1.7780 -0.5853 -2.9339
  104MPD2    H3 1625   4.218   1.044  12.828  0.8748 -1.6862 -1.7964
  104MPD2     N 1626   3.794   0.886  12.714  0.2375  0.8031  0.4821
  104MPD2    H5 1627   3.711   0.840  12.750 -1.8365  3.1956 -1.2448
  104MPD2    N1 1628   4.017   0.799  13.144  0.0666 -0.0337 -0.0621
  104MPD2    H7 1629   4.095   0.814  13.207  0.2342 -0.8957 -0.0664
  105TMC2    C1 1630   1.274   4.431   0.095  0.2765  0.2144  0.3997
  105TMC2    C2 1631   1.244   4.565   0.098 -0.9118  0.5057  0.0204
  105TMC2    C3 1632   1.246   4.629   0.219  0.5058 -0.9763 -0.2025
  105TMC2    C4 1633   1.277   4.354   0.210  0.3755  0.4243  0.4966
  105TMC2    C5 1634   1.300   4.423   0.329  0.1427 -0.5550 -0.6449
  105TMC2    C6 1635   1.287   4.560   0.333 -0.1130  0.4686  0.0555
  105TMC2     C 1636   1.260   4.362  17.711 -0.0024  0.0746  0.1973
  105TMC2     O 1637   1.213   4.247  17.712 -0.0797 -0.2042 -0.4326
  105TMC2     H 1638   1.219   4.620   0.007  0.1608 -0.5363 -0.9097
  105TMC2    H1 1639   1.288   4.246   0.209 -1.5290  0.2122  1.4920
  105TMC2    H2 1640   1.306   4.610   0.427 -0.3672  0.2329  0.2315
  105TMC2    C7 1641   1.371   4.344   0.428  0.1881 -0.9957 -0.0752
  105TMC2    C8 1642   1.239   0.042   0.219  0.0835 -0.3270  0.1320
  105TMC2    O1 1643   1.425   4.235   0.400 -0.4808  0.2417  0.4520
  105TMC2    O2 1644   1.302   0.111   0.138 -0.3761  0.3723  0.4157
  105TMC2    O5 1645   1.191   0.084   0.340  0.4090 -0.0455  0.2812
  105TMC2    H5 1646   1.132   0.019   0.385 -0.2402  0.5674  0.3218
  106MPD2     C 1647   1.459   4.313  17.225  0.3983  0.1737 -0.6868
  106MPD2    C1 1648   1.475   4.440  17.271 -0.2986 -0.0693  0.5258
  106MPD2    C2 1649   1.438   4.471  17.404  0.2928 -0.8427  0.6589
  106MPD2    C3 1650   1.367   4.375  17.478 -0.7153 -0.7528  0.2558
  106MPD2    C4 1651   1.328   4.257  17.427 -0.1088  0.1702 -0.4466
  106MPD2    C5 1652   1.373   4.230  17.299  0.6026 -0.1019  0.5743
  106MPD2     H 1653   1.463   4.566  17.450 -0.0095 -0.8380  0.8140
  106MPD2    H1 1654   1.251   4.197  17.475  0.3621  0.3612  0.5495
  106MPD2    H2 1655   1.488   4.294  17.122  1.8477  0.9343 -0.4272
  106MPD2    H3 1656   1.332   4.144  17.246 -0.7868  0.5293  0.6272
  106MPD2     N 1657   1.330   4.425  17.609 -0.6797  0.0220  0.2114
  106MPD2    H5 1658   1.348   4.520  17.639 -0.7021  0.2906 -0.6334
  106MPD2    N1 1659   1.526   4.544  17.193 -0.3438 -0.3319  0.1665
  106MPD2    H7 1660   1.537   4.630  17.246 -1.6207 -0.3013  0.3834
  107TMC2    C1 1661   1.459   0.029  11.646  1.1554 -0.2736 -0.6764
  107TMC2    C2 1662   1.575   0.079  11.694  0.2735 -0.2120 -0.0989
  107TMC2    C3 1663   1.691   0.020  11.651 -0.6003 -0.4068 -0.1802
  107TMC2    C4 1664   1.452   4.651  11.564 -0.2941 -0.3699 -0.5369
  107TMC2    C5 1665   1.572   4.585  11.553  0.6325 -0.3131  0.1563
  107TMC2    C6 1666   1.694   4.633  11.592  0.1446  0.2027 -0.3999
  107TMC2     C 1667   1.343   0.037  11.734 -0.7231 -0.9478 -0.0417
  107TMC2     O 1668   1.367   0.073  11.849  0.1046 -0.6601 -0.1131
  107TMC2     H 1669   1.569   0.166  11.759  0.1200  0.0612 -0.4782
  107TMC2    H1 1670   1.368   4.591  11.531 -2.1969  2.8999 -1.6029
  107TMC2    H2 1671   1.788   4.580  11.587 -0.4458 -0.8026 -1.0003
  107TMC2    C7 1672   1.574   4.467  11.471  0.7804 -0.9055  0.1313
  107TMC2    C8 1673   1.814   0.063  11.719 -0.4838  0.0957  0.1227
  107TMC2    O1 1674   1.469   4.411  11.457  0.8308  0.3754 -0.6990
  107TMC2    O2 1675   1.901   4.719  11.745  0.4686  0.4343 -0.3845
  107TMC2    O5 1676   1.792   0.184  11.771  0.3349  0.3460  0.1808
  107TMC2    H5 1677   1.739   0.239  11.709  1.3662 -0.2572 -1.2247
  108MPD2     C 1678   0.991   4.688  11.653  0.2662 -0.0947  0.6979
  108MPD2    C1 1679   1.098   4.709  11.740  0.4133  0.2129 -0.0495
  108MPD2    C2 1680   1.081   4.706  11.876  0.1224  0.0701 -0.2681
  108MPD2    C3 1681   0.957   4.675  11.928  0.2889 -0.5198 -0.2008
  108MPD2    C4 1682   0.851   4.682  11.844 -0.4274  0.0785  0.4503
  108MPD2    C5 1683   0.867   4.683  11.705 -0.6113 -0.1619  0.2499
  108MPD2     H 1684   1.172   4.704  11.935 -0.1893 -0.6338  0.1852
  108MPD2    H1 1685   0.751   4.673  11.884 -0.6627  1.3780  0.1622
  108MPD2    H2 1686   0.992   4.676  11.545  0.5602  0.2075  0.6681
  108MPD2    H3 1687   0.783   4.672  11.637 -0.6826 -1.2350  0.5121
  108MPD2     N 1688   0.939   4.649  12.061 -0.5466 -0.2749  0.4970
  108MPD2    H5 1689   0.842   4.639  12.090 -0.4108 -0.0007  1.0632
  108MPD2    N1 1690   1.226   4.727  11.676  0.6239  0.4615 -0.3607
  108MPD2    H7 1691   1.238   4.708  11.577 -1.8345  1.6657 -0.8791
  109TMC2    C1 1692   1.975   1.862   0.661  0.3800  0.3558  0.1764
  109TMC2    C2 1693   1.984   1.776   0.554  0.0312 -0.4958 -0.1651
  109TMC2    C3 1694   2.108   1.720   0.531  0.4722 -0.5304 -0.2877
  109TMC2    C4 1695   2.068   1.871   0.757 -0.6281 -0.9957 -0.3186
  109TMC2    C5 1696   2.195   1.815   0.725  0.3810 -0.3766  0.0809
  109TMC2    C6 1697   2.217   1.743   0.611  0.0718  0.4247 -0.4747
  109TMC2     C 1698   1.852   1.939   0.672 -0.1851  0.0055 -0.0056
  109TMC2     O 1699   1.761   1.911   0.596  0.7266 -0.1871  0.3935
  109TMC2     H 1700   1.907   1.783   0.478  0.0048 -2.1184 -0.2881
  109TMC2    H1 1701   2.042   1.920   0.850  0.8334 -0.1216 -0.3727
  109TMC2    H2 1702   2.318   1.708   0.591  0.7235  1.4158  1.0548
  109TMC2    C7 1703   2.311   1.827   0.809 -0.0383  0.4304 -0.2054
  109TMC2    C8 1704   2.118   1.654   0.403  0.2816 -0.4031  0.1228
  109TMC2    O1 1705   2.418   1.820   0.760 -0.3636  0.0260 -0.1022
  109TMC2    O2 1706   2.214   1.648   0.337 -0.2654 -0.0649  0.3593
  109TMC2    O5 1707   2.023   1.557   0.394  0.3562  0.1658  0.4819
  109TMC2    H5 1708   1.940   1.561   0.446 -1.4508  0.4212 -2.4585
  110MPD2     C 1709   1.532   2.183   1.006 -0.0516  1.0239 -0.5175
  110MPD2    C1 1710   1.659   2.205   1.046  0.0789  0.2718 -0.6136
  110MPD2    C2 1711   1.759   2.156   0.961 -0.7649  0.4489 -0.4882
  110MPD2    C3 1712   1.741   2.088   0.841 -0.1379  0.2736 -0.0569
  110MPD2    C4 1713   1.609   2.073   0.802 -0.3705 -0.2684 -0.3195
  110MPD2    C5 1714   1.507   2.120   0.888  0.9947 -0.4878  0.1702
  110MPD2     H 1715   1.862   2.170   0.989 -0.2951  1.0010 -2.4493
  110MPD2    H1 1716   1.577   2.012   0.718 -3.1577  0.7835 -0.0348
  110MPD2    H2 1717   1.442   2.198   1.064 -0.3028 -2.2760 -0.0422
  110MPD2    H3 1718   1.404   2.103   0.861  1.3949  0.5431 -2.0151
  110MPD2     N 1719   1.855   2.035   0.771 -0.0219  0.1871 -0.0288
  110MPD2    H5 1720   1.944   2.059   0.813 -0.4637 -0.7980  1.4789
  110MPD2    N1 1721   1.680   2.255   1.176  0.0196  0.2778  0.2556
  110MPD2    H7 1722   1.597   2.255   1.235 -0.2739 -1.7650 -0.1604
  111TMC2    C1 1723   1.580   1.255  11.771  0.0947  0.2908 -0.4267
  111TMC2    C2 1724   1.462   1.191  11.800 -0.3921 -0.5581  0.4325
  111TMC2    C3 1725   1.404   1.228  11.912 -0.3964  0.5644  0.2298
  111TMC2    C4 1726   1.635   1.351  11.849  0.7119  0.1663 -0.3132
  111TMC2    C5 1727   1.573   1.382  11.967 -0.2924 -0.1990 -0.0479
  111TMC2    C6 1728   1.456   1.325  12.002  0.3167  0.0605  0.5069
  111TMC2     C 1729   1.621   1.235  11.637 -0.6126 -0.0585  0.2964
  111TMC2     O 1730   1.556   1.168  11.559  0.2338 -0.2337 -0.0238
  111TMC2     H 1731   1.429   1.109  11.737  0.0652 -0.3917 -0.0328
  111TMC2    H1 1732   1.716   1.416  11.817  0.6935 -0.0209 -0.7333
  111TMC2    H2 1733   1.401   1.348  12.092 -1.2852 -0.2727 -0.3917
  111TMC2    C7 1734   1.666   1.418  12.069  0.4964 -0.4679  0.1169
  111TMC2    C8 1735   1.281   1.167  11.958  0.1362 -0.5765 -0.1936
  111TMC2    O1 1736   1.783   1.382  12.060 -0.1529  0.3193  0.0467
  111TMC2    O2 1737   1.273   1.101  12.057 -0.3624  0.1011  0.3305
  111TMC2    O5 1738   1.200   1.267  11.926  0.2480 -1.1477 -0.1491
  111TMC2    H5 1739   1.236   1.303  11.842  1.1493 -0.0522  0.7285
  112MPD2     C 1740   1.959   1.278  11.252  0.6526 -1.5401  0.3362
  112MPD2    C1 1741   1.820   1.278  11.253 -0.0045 -0.1574 -0.3922
  112MPD2    C2 1742   1.751   1.273  11.368 -0.7398  0.8554  0.2528
  112MPD2    C3 1743   1.815   1.274  11.487  0.3852  0.0066  0.6990
  112MPD2    C4 1744   1.949   1.302  11.489  0.7923 -0.3834 -0.0175
  112MPD2    C5 1745   2.020   1.300  11.373 -0.3923  0.1800  0.4650
  112MPD2     H 1746   1.642   1.276  11.364 -0.7119  0.0573 -0.8349
  112MPD2    H1 1747   2.002   1.327  11.580  0.9093 -1.3445  0.1767
  112MPD2    H2 1748   2.015   1.273  11.159 -1.5934  0.2902 -1.1023
  112MPD2    H3 1749   2.121   1.338  11.365  0.1447 -1.1469  0.8346
  112MPD2     N 1750   1.754   1.279  11.613  0.0091  0.0895  0.1167
  112MPD2    H5 1751   1.812   1.309  11.690 -1.2700  0.5907  0.8723
  112MPD2    N1 1752   1.742   1.279  11.131 -0.0187  0.4249 -0.1497
  112MPD2    H7 1753   1.641   1.283  11.137 -0.0273 -1.6712  1.0815
  113TMC2    C1 1754   0.229   3.915   1.148 -0.6452  0.4602  0.4730
  113TMC2    C2 1755   0.197   4.014   1.058 -0.2967 -0.2067  1.0047
  113TMC2    C3 1756   0.094   3.996   0.979  0.5659 -0.6312 -0.5595
  113TMC2    C4 1757   0.165   3.800   1.150  0.0024 -0.1947  0.2812
  113TMC2    C5 1758   0.064   3.780   1.063  0.1443 -0.5432  0.1984
  113TMC2    C6 1759   0.021   3.885   0.985 -0.7538  0.2219  0.4153
  113TMC2     C 1760   0.371   3.920   1.183 -0.0144 -0.1907 -0.0386
  113TMC2     O 1761   0.421   4.025   1.207  0.3083 -0.1395  0.1542
  113TMC2     H 1762   0.258   4.103   1.055  0.6558 -0.8589  1.0518
  113TMC2    H1 1763   0.203   3.724   1.217  1.3960  1.4000  1.3157
  113TMC2    H2 1764   4.666   3.868   0.926  0.0928 -1.4644 -0.4039
  113TMC2    C7 1765   4.704   3.673   1.074 -0.0451  0.3624  0.0453
  113TMC2    C8 1766   0.065   4.099   0.876  0.2274 -0.4182  0.8415
  113TMC2    O1 1767   4.626   3.662   0.984  0.0066 -0.1415 -0.3293
  113TMC2    O2 1768   4.688   4.138   0.856 -0.2544  0.5399  0.4041
  113TMC2    O5 1769   0.175   4.144   0.822  0.4707 -0.2050  0.1686
  113TMC2    H5 1770   0.250   4.082   0.836 -0.2914 -0.3895  3.2286
  114MPD2     C 1771   0.834   3.705   1.208  0.0371 -0.6203 -0.6780
  114MPD2    C1 1772   0.790   3.829   1.260 -0.2118  0.9024  0.7796
  114MPD2    C2 1773   0.658   3.865   1.242 -0.0807 -0.1014  0.7847
  114MPD2    C3 1774   0.567   3.775   1.176  0.2537  0.6631 -0.5309
  114MPD2    C4 1775   0.614   3.653   1.125 -0.0920 -0.2022  0.1776
  114MPD2    C5 1776   0.749   3.623   1.138  0.8702 -0.1195 -0.4155
  114MPD2     H 1777   0.623   3.954   1.291  0.8075 -0.1737  1.5420
  114MPD2    H1 1778   0.553   3.577   1.078 -1.2881  0.3900  0.7628
  114MPD2    H2 1779   0.931   3.658   1.224 -0.2718 -1.3656 -1.0311
  114MPD2    H3 1780   0.791   3.531   1.099 -0.0439 -0.4172 -0.7055
  114MPD2     N 1781   0.433   3.803   1.159  0.3451 -0.0711  0.2079
  114MPD2    H5 1782   0.369   3.728   1.134 -0.3276  0.3092  0.7901
  114MPD2    N1 1783   0.876   3.908   1.347 -1.0629  0.7272 -0.1396
  114MPD2    H7 1784   0.837   3.997   1.377  0.4688  0.9346  1.2498
  115TMC2    C1 1785   1.373   1.825   0.135  1.0649 -0.7168  0.7342
  115TMC2    C2 1786   1.361   1.760   0.254  0.1236 -0.2242 -0.0414
  115TMC2    C3 1787   1.396   1.825   0.362 -0.0894 -1.1140 -0.2527
  115TMC2    C4 1788   1.439   1.950   0.124  0.3852  0.4250 -0.4922
  115TMC2    C5 1789   1.481   2.008   0.239 -0.5064  0.0849  0.1344
  115TMC2    C6 1790   1.481   1.937   0.358 -0.4723 -0.0799 -0.5552
  115TMC2     C 1791   1.299   1.768   0.026  0.3159 -0.5800 -0.6267
  115TMC2     O 1792   1.313   1.649   0.011  0.3104 -0.5469  0.4996
  115TMC2     H 1793   1.284   1.684   0.253  0.8828 -0.9988  0.1136
  115TMC2    H1 1794   1.446   1.985   0.022 -0.2706  1.9833 -0.0063
  115TMC2    H2 1795   1.536   1.975   0.444  1.0860  0.2310 -1.6913
  115TMC2    C7 1796   1.566   2.127   0.244  0.1787  0.7403  0.4156
  115TMC2    C8 1797   1.368   1.764   0.493  0.4447 -0.1545  0.8970
  115TMC2    O1 1798   1.624   2.153   0.345  0.1466  0.7185  0.5056
  115TMC2    O2 1799   1.333   1.649   0.507  0.4330 -0.1299  0.1982
  115TMC2    O5 1800   1.321   1.871   0.560 -0.0073  0.3673  0.5894
  115TMC2    H5 1801   1.375   1.950   0.539 -0.4284  0.9442  1.6735
  116MPD2     C 1802   0.937   1.788  17.409  0.3272 -0.1301  0.3266
  116MPD2    C1 1803   0.993   1.679  17.471  0.1752  1.0887  0.1315
  116MPD2    C2 1804   1.091   1.702  17.566 -0.3960 -0.0734 -0.0191
  116MPD2    C3 1805   1.127   1.829  17.598 -0.5050  0.3860 -0.0369
  116MPD2    C4 1806   1.051   1.932  17.552  0.2094  0.0981  0.0829
  116MPD2    C5 1807   0.958   1.915  17.452 -0.3375 -0.1301  0.3791
  116MPD2     H 1808   1.145   1.616  17.603  0.0550 -0.0977 -0.7432
  116MPD2    H1 1809   1.074   2.035  17.578  0.2883 -0.0271  0.5046
  116MPD2    H2 1810   0.850   1.777  17.345 -0.3562  1.0426  1.0541
  116MPD2    H3 1811   0.895   1.991  17.409  0.1452 -0.6252 -1.1801
  116MPD2     N 1812   1.225   1.858  17.691  0.5288 -0.0819 -0.4683
  116MPD2    H5 1813   1.239   1.957  17.709 -2.4604  0.5136 -1.4397
  116MPD2    N1 1814   0.934   1.552  17.438  1.1137  0.0331  0.4332
  116MPD2    H7 1815   0.846   1.565  17.390  1.7045  1.8828 -0.1351
  117TMC2    C1 1816   4.297   3.499  14.066 -0.2435 -0.5284  0.5997
  117TMC2    C2 1817   4.397   3.463  14.151  0.3720 -0.1950 -0.4913
  117TMC2    C3 1818   4.470   3.557  14.219  0.6981 -0.3139 -0.4885
  117TMC2    C4 1819   4.268   3.632  14.034  1.0783 -0.8909  0.4470
  117TMC2    C5 1820   4.350   3.721  14.094 -0.3005 -0.6095  0.5227
  117TMC2    C6 1821   4.446   3.688  14.187 -0.1221 -0.3919 -0.6830
  117TMC2     C 1822   4.223   3.397  13.993  0.8248 -0.1840  0.0914
  117TMC2     O 1823   4.275   3.285  13.975 -0.0586  0.4350 -0.3950
  117TMC2     H 1824   4.415   3.360  14.181  0.9687  0.0007 -0.1662
  117TMC2    H1 1825   4.194   3.677  13.968 -0.2833  1.4694  3.5971
  117TMC2    H2 1826   4.507   3.760  14.240  0.6928 -2.1333  0.7663
  117TMC2    C7 1827   4.339   3.855  14.050 -0.6161 -0.7066  0.4915
  117TMC2    C8 1828   4.568   3.526  14.321  0.2778  0.8789 -0.3813
  117TMC2    O1 1829   4.446   3.916  14.039 -0.2291  0.1529 -0.0824
  117TMC2    O2 1830   4.585   3.607  14.413  0.1772  0.3177 -0.7407
  117TMC2    O5 1831   4.665   3.462  14.250  0.4889 -0.9530 -0.0720
  117TMC2    H5 1832   4.649   3.448  14.154  1.3881 -0.7329 -0.2534
  118MPD2     C 1833   4.042   4.061  13.950  0.3244  0.9185  0.0246
  118MPD2    C1 1834   4.178   4.028  13.976  0.4603 -0.6292 -0.1091
  118MPD2    C2 1835   4.275   4.120  13.935  0.4310 -0.3802 -0.3470
  118MPD2    C3 1836   4.237   4.238  13.867  0.2120 -0.5035  0.4137
  118MPD2    C4 1837   4.102   4.270  13.847  0.0138 -0.1537  0.0327
  118MPD2    C5 1838   4.005   4.175  13.885  0.1127  0.1852 -0.1199
  118MPD2     H 1839   4.379   4.090  13.948  0.5437 -0.3882 -1.2531
  118MPD2    H1 1840   4.072   4.367  13.807 -0.2446 -0.0147  0.5643
  118MPD2    H2 1841   3.963   3.988  13.967  0.9152  0.7586  2.0953
  118MPD2    H3 1842   3.899   4.198  13.872 -0.1908 -2.4975 -2.3204
  118MPD2     N 1843   4.327   4.328  13.811  0.2891  0.3134 -0.5258
  118MPD2    H5 1844   4.288   4.394  13.744  1.1389  0.3788 -0.9467
  118MPD2    N1 1845   4.210   3.900  14.036 -0.3650 -0.1491  0.1838
  118MPD2    H7 1846   4.138   3.829  14.047 -0.5336 -0.3240 -2.0657
  119TMC2    C1 1847   1.901   0.092  13.409  0.0674 -0.2777 -0.4033
  119TMC2    C2 1848   1.915   0.027  13.289 -0.5110 -0.4673 -0.4404
  119TMC2    C3 1849   1.818   4.680  13.244 -0.9345 -0.5874 -1.2153
  119TMC2    C4 1850   1.782   0.073  13.480 -0.6024  0.5347 -0.0261
  119TMC2    C5 1851   1.677   0.006  13.414  0.7540  0.0742 -0.4496
  119TMC2    C6 1852   1.692   4.677  13.299  0.1011 -0.4782  0.5761
  119TMC2     C 1853   2.012   0.123  13.492 -0.9976  0.3916 -0.2494
  119TMC2     O 1854   1.990   0.124  13.615 -0.1943 -0.0141  0.6302
  119TMC2     H 1855   2.006   0.035  13.230 -0.7066 -2.9061 -1.0510
  119TMC2    H1 1856   1.762   0.124  13.573 -0.7904  0.7387 -0.1760
  119TMC2    H2 1857   1.604   4.623  13.264 -1.3178  1.3972  1.2810
  119TMC2    C7 1858   1.579   4.685  13.500 -0.2366 -0.5590 -0.0800
  119TMC2    C8 1859   1.838   4.650  13.098  0.0985  0.0974 -0.9355
  119TMC2    O1 1860   1.474   4.651  13.451  0.9064  0.0514  0.3657
  119TMC2    O2 1861   1.900   4.730  13.030 -0.1384  0.0948 -0.1947
  119TMC2    O5 1862   1.741   4.565  13.048 -0.5522  0.0465 -0.4775
  119TMC2    H5 1863   1.684   4.511  13.106  1.0982 -0.4213  0.7021
  120MPD2     C 1864   2.518   0.213  13.592 -0.2388  0.4465  0.0014
  120MPD2    C1 1865   2.408   0.214  13.674  0.9499  0.3872 -0.1865
  120MPD2    C2 1866   2.277   0.194  13.621  0.0946 -0.2086 -0.9893
  120MPD2    C3 1867   2.263   0.156  13.491  0.2033  0.3827 -0.0087
  120MPD2    C4 1868   2.374   0.156  13.409 -0.1234 -0.2441 -0.3781
  120MPD2    C5 1869   2.502   0.189  13.458 -0.1467  0.1187  0.1379
  120MPD2     H 1870   2.191   0.211  13.685  2.6649 -1.9657  2.9795
  120MPD2    H1 1871   2.359   0.126  13.306 -0.7565 -0.4192 -0.2362
  120MPD2    H2 1872   2.618   0.236  13.627 -0.0426  1.1095 -0.9870
  120MPD2    H3 1873   2.586   0.187  13.390 -1.3012 -0.0235 -1.2837
  120MPD2     N 1874   2.132   0.141  13.430 -0.2277  0.4334 -0.0235
  120MPD2    H5 1875   2.127   0.126  13.330  0.1549 -3.5444  0.5415
  120MPD2    N1 1876   2.429   0.245  13.816  0.0087  0.0409 -0.0320
  120MPD2    H7 1877   2.516   0.293  13.834  0.6649 -0.7214 -1.1301
  121TMC2    C1 1878   4.172   2.054  14.380  1.2165  0.0358 -0.1265
  121TMC2    C2 1879   4.152   2.017  14.514  0.3371  0.7713  0.0645
  121TMC2    C3 1880   4.044   1.949  14.551 -0.0558  0.3616  0.3798
  121TMC2    C4 1881   4.078   2.023  14.283  0.0959 -0.1152  0.1251
  121TMC2    C5 1882   3.969   1.951  14.328 -0.1636 -0.3309 -0.1890
  121TMC2    C6 1883   3.950   1.905  14.462 -0.1027  0.0916  0.2272
  121TMC2     C 1884   4.305   2.101  14.345 -0.0131  1.0650  0.4701
  121TMC2     O 1885   4.376   2.142  14.433  0.4939  0.2962 -0.3674
  121TMC2     H 1886   4.234   2.026  14.585  2.2612  0.8536 -2.1828
  121TMC2    H1 1887   4.080   2.050  14.178  1.7433 -1.4408 -0.1875
  121TMC2    H2 1888   3.868   1.845  14.501  2.0884 -2.3391  1.1372
  121TMC2    C7 1889   3.872   1.911  14.225  0.2636 -0.2869 -0.2435
  121TMC2    C8 1890   4.061   1.863  14.666 -0.2118  0.5768  0.1195
  121TMC2    O1 1891   3.911   1.927  14.108 -0.5276  0.2151  0.0864
  121TMC2    O2 1892   3.977   1.831  14.747 -0.2730  0.1608  0.1423
  121TMC2    O5 1893   4.177   1.794  14.652 -0.0916  0.0566  1.0051
  121TMC2    H5 1894   4.221   1.821  14.568  0.5477 -2.3646  0.5618
  122MPD2     C 1895   4.559   2.147  14.197  0.0354  0.1878  0.0985
  122MPD2    C1 1896   4.436   2.149  14.139  0.0375  0.2849  0.2587
  122MPD2    C2 1897   4.418   2.170  14.005 -0.6950 -0.0722  0.0801
  122MPD2    C3 1898   4.523   2.202  13.921  0.0939 -0.1184 -0.5836
  122MPD2    C4 1899   4.651   2.214  13.977 -0.0334 -0.0416 -0.3260
  122MPD2    C5 1900   4.664   2.194  14.114 -0.0179 -0.7810 -0.4616
  122MPD2     H 1901   4.314   2.164  13.976  0.1906  0.2039 -3.0849
  122MPD2    H1 1902   0.004   2.244  13.920  0.9215 -2.5750 -0.1744
  122MPD2    H2 1903   4.583   2.116  14.298 -1.5629  1.6234  0.9057
  122MPD2    H3 1904   0.030   2.206  14.153 -0.4697 -0.3451  0.5919
  122MPD2     N 1905   4.513   2.216  13.784 -0.1876  0.5528  0.1414
  122MPD2    H5 1906   4.595   2.243  13.730  0.3478 -2.0832 -0.3558
  122MPD2    N1 1907   4.320   2.117  14.209  0.4705 -0.2400 -0.1796
  122MPD2    H7 1908   4.245   2.093  14.145 -1.5986  3.0285  1.0104
  123TMC2    C1 1909   1.681   0.454  10.718  0.4460 -0.0551 -0.6964
  123TMC2    C2 1910   1.714   0.553  10.807 -0.8309  0.2019 -0.1203
  123TMC2    C3 1911   1.749   0.678  10.764  0.0076  0.3866  0.1081
  123TMC2    C4 1912   1.707   0.473  10.583  0.3101  0.6080  0.0550
  123TMC2    C5 1913   1.774   0.588  10.549  0.0875 -0.0380 -0.0104
  123TMC2    C6 1914   1.786   0.699  10.632  0.2733 -0.7075  0.1298
  123TMC2     C 1915   1.585   0.353  10.760 -0.0092 -0.3590  0.6067
  123TMC2     O 1916   1.532   0.372  10.867 -0.6969  0.5588  0.2499
  123TMC2     H 1917   1.699   0.532  10.912  0.6072  4.6045  0.9993
  123TMC2    H1 1918   1.701   0.391  10.513 -0.0318  0.4120  0.3153
  123TMC2    H2 1919   1.808   0.796  10.590 -1.3788 -1.6628 -2.9514
  123TMC2    C7 1920   1.907   0.545  10.503  0.5579 -0.0979  0.2316
  123TMC2    C8 1921   1.781   0.767  10.879  0.0718 -0.5027  0.0210
  123TMC2    O1 1922   1.933   0.427  10.502  0.3215 -0.3107  0.1988
  123TMC2    O2 1923   1.807   0.734  10.993  0.1109 -0.6878  0.7057
  123TMC2    O5 1924   1.825   0.882  10.829  0.2287  0.2149  0.3377
  123TMC2    H5 1925   1.762   0.907  10.759  1.1345  2.6432  0.3921
  124MPD2     C 1926   1.305   4.659  10.696  0.2115 -0.9740  0.5767
  124MPD2    C1 1927   1.397   4.665  10.590  0.6004  0.3422  0.2468
  124MPD2    C2 1928   1.484   0.040  10.589 -0.5646 -1.0093 -0.0943
  124MPD2    C3 1929   1.476   0.138  10.686  0.9226 -0.8081 -0.7238
  124MPD2    C4 1930   1.387   0.127  10.792 -0.3185  0.6890 -0.4815
  124MPD2    C5 1931   1.301   0.019  10.795 -0.0585 -0.6371  0.5149
  124MPD2     H 1932   1.570   0.046  10.523  0.0283 -0.2348  0.7462
  124MPD2    H1 1933   1.382   0.192  10.879  1.5352 -1.5323  1.2706
  124MPD2    H2 1934   1.231   4.582  10.714  1.3644 -2.1896  0.1442
  124MPD2    H3 1935   1.227   0.002  10.873 -0.1881  1.0366  0.7499
  124MPD2     N 1936   1.577   0.240  10.675  0.1866  0.1297 -0.7512
  124MPD2    H5 1937   1.631   0.251  10.589  1.1165  2.6389  0.1529
  124MPD2    N1 1938   1.403   4.553  10.514 -0.4764  0.7732 -0.2380
  124MPD2    H7 1939   1.339   4.479  10.542 -0.9422 -0.1251 -3.6753
  125TMC2    C1 1940   2.804   2.430   8.284  0.7057 -0.2353 -0.3410
  125TMC2    C2 1941   2.704   2.384   8.362  0.0476  0.2495 -0.0630
  125TMC2    C3 1942   2.722   2.285   8.458  0.0272 -0.1314 -0.5445
  125TMC2    C4 1943   2.933   2.388   8.311 -0.3579 -0.0240 -0.1593
  125TMC2    C5 1944   2.952   2.301   8.414 -0.0316  0.1177 -0.9655
  125TMC2    C6 1945   2.849   2.249   8.493  0.3939  0.2928  0.3071
  125TMC2     C 1946   2.794   2.540   8.195 -0.4901 -0.0963  0.1515
  125TMC2     O 1947   2.872   2.533   8.104 -0.5466  0.2346  0.3043
  125TMC2     H 1948   2.603   2.422   8.350 -0.6622 -0.9749  1.9418
  125TMC2    H1 1949   3.014   2.413   8.243 -0.4967  0.2833 -0.2131
  125TMC2    H2 1950   2.858   2.179   8.575 -1.9761  1.8696  1.8998
  125TMC2    C7 1951   3.083   2.230   8.411 -0.1602  0.3489 -0.0048
  125TMC2    C8 1952   2.626   2.236   8.557  0.3341 -0.2179 -0.0824
  125TMC2    O1 1953   3.164   2.255   8.320  0.5600  0.4156 -0.3203
  125TMC2    O2 1954   2.653   2.204   8.671  0.2653  0.3593 -0.3176
  125TMC2    O5 1955   2.504   2.260   8.510  0.0233  0.3868 -0.0041
  125TMC2    H5 1956   2.504   2.278   8.413  0.2969 -2.0068 -0.4597
  126MPD1     C 1957   2.554   2.941   7.981  0.0981  0.4892 -0.7953
  126MPD1    C1 1958   2.522   2.933   8.116 -0.4921  0.2764  0.0739
  126MPD1    C2 1959   2.569   2.830   8.191  0.6957  0.8085  0.0832
  126MPD1    C3 1960   2.656   2.734   8.138  0.1981  0.0903 -0.6912
  126MPD1    C4 1961   2.702   2.759   8.009  0.1767  0.3530  0.1827
  126MPD1    C5 1962   2.650   2.856   7.927 -0.3060  0.0680 -0.3942
  126MPD1     H 1963   2.522   2.828   8.289  2.3699 -0.8319  0.8509
  126MPD1    H1 1964   2.783   2.701   7.967 -0.6427 -0.4944 -0.2444
  126MPD1    H2 1965   2.518   3.021   7.918  0.4377 -0.1847 -1.8593
  126MPD1    H3 1966   2.693   2.876   7.830  0.7960 -1.5887 -0.2386
  126MPD1     N 1967   2.703   2.644   8.230  0.0193 -0.0874 -0.6113
  126MPD1    H5 1968   2.648   2.633   8.315  0.0274  0.1504 -0.5746
  126MPD1    N1 1969   2.427   3.020   8.162 -0.5981 -0.0603  0.0926
  126MPD1    H6 1970   2.410   3.096   8.096 -0.8476  0.0458  0.2767
  126MPD1    H7 1971   2.445   3.052   8.257 -0.0910  1.3307 -0.4750
  127TMC2    C1 1972   3.676   0.620   9.887  0.1420 -0.0245 -0.9802
  127TMC2    C2 1973   3.721   0.538   9.783  0.2800  1.0103  0.0556
  127TMC2    C3 1974   3.677   0.410   9.785  0.8335 -0.2142  0.2792
  127TMC2    C4 1975   3.595   0.577   9.986  0.3368  0.0560 -0.5785
  127TMC2    C5 1976   3.560   0.447   9.989  0.1179 -0.2518 -0.0112
  127TMC2    C6 1977   3.597   0.369   9.891 -0.3513 -0.5180 -0.1830
  127TMC2     C 1978   3.712   0.754   9.877  0.1290  0.6140  0.9274
  127TMC2     O 1979   3.794   0.792   9.794  0.8377 -0.0225  0.7580
  127TMC2     H 1980   3.798   0.574   9.716  1.2565  0.4375  0.8616
  127TMC2    H1 1981   3.585   0.624  10.083 -0.5576 -0.1468 -0.5755
  127TMC2    H2 1982   3.577   0.262   9.896 -1.1497 -0.3602  0.0751
  127TMC2    C7 1983   3.479   0.401  10.107  0.3735 -0.2924  0.4389
  127TMC2    C8 1984   3.782   0.314   9.776 -0.0831 -0.1601 -0.7561
  127TMC2    O1 1985   3.408   0.486  10.159 -0.0131 -0.4186 -0.2077
  127TMC2    O2 1986   3.825   0.251   9.872 -0.0480 -0.0921 -0.2261
  127TMC2    O5 1987   3.865   0.357   9.678  0.1422  0.3178  0.3665
  127TMC2    H5 1988   3.814   0.407   9.611 -0.1081  0.6814  0.8275
  128MPD2     C 1989   3.598   1.028  10.085 -0.0876 -0.0144  0.5266
  128MPD2    C1 1990   3.675   0.968   9.992 -0.1105  0.4010  0.2694
  128MPD2    C2 1991   3.784   1.039   9.941 -0.1219  0.3084 -0.1024
  128MPD2    C3 1992   3.807   1.169   9.985 -0.6959  0.2323 -0.3380
  128MPD2    C4 1993   3.720   1.226  10.077  0.0863 -0.0874 -0.5378
  128MPD2    C5 1994   3.615   1.162  10.130 -0.3154 -0.4784 -1.8209
  128MPD2     H 1995   3.853   0.983   9.877 -2.2413  0.2243 -2.3083
  128MPD2    H1 1996   3.738   1.324  10.120 -0.4179  0.1910 -0.9601
  128MPD2    H2 1997   3.513   0.974  10.126 -0.7119  0.6026  0.0292
  128MPD2    H3 1998   3.549   1.211  10.201  2.5469 -0.4201  0.8008
  128MPD2     N 1999   3.922   1.231   9.934 -0.6090  0.4048  1.2106
  128MPD2    H5 2000   3.975   1.182   9.864 -2.1248 -1.6573  1.4907
  128MPD2    N1 2001   3.643   0.832   9.967  0.3761  0.3056  0.1844
  128MPD2    H7 2002   3.556   0.802  10.011  0.8076  0.0471  0.8515
  129TMC2    C1 2003   3.323   1.458   2.139 -0.1639  0.3114  0.1904
  129TMC2    C2 2004   3.299   1.447   2.273  0.1028  0.3504 -0.7653
  129TMC2    C3 2005   3.211   1.355   2.319 -0.3245  0.0023  0.7152
  129TMC2    C4 2006   3.273   1.369   2.045  0.2534  0.6332 -0.2066
  129TMC2    C5 2007   3.195   1.275   2.098  0.4558 -0.1581 -0.6390
  129TMC2    C6 2008   3.149   1.270   2.231  0.2024 -0.0654 -0.1480
  129TMC2     C 2009   3.404   1.566   2.108 -1.0526  0.1896 -0.7530
  129TMC2     O 2010   3.499   1.587   2.184  0.3556  0.7342  0.0334
  129TMC2     H 2011   3.347   1.514   2.343 -0.9175 -0.0805  0.3509
  129TMC2    H1 2012   3.304   1.376   1.941  3.0834 -1.4349  0.4993
  129TMC2    H2 2013   3.077   1.194   2.258  0.6199 -0.3647  0.1251
  129TMC2    C7 2014   3.161   1.165   2.022  0.0374  0.0188 -0.3720
  129TMC2    C8 2015   3.153   1.375   2.451 -0.8761  0.1274  0.3815
  129TMC2    O1 2016   3.051   1.118   2.049 -0.2065  0.4791 -0.7192
  129TMC2    O2 2017   3.161   1.473   2.524 -0.1163 -0.3498  0.7416
  129TMC2    O5 2018   3.136   1.247   2.497 -0.0680 -0.1782  0.1821
  129TMC2    H5 2019   3.200   1.190   2.449 -1.3104 -1.3292 -0.1177
  130MPD2     C 2020   3.566   1.785   1.977 -0.1665 -0.1568  0.2606
  130MPD2    C1 2021   3.449   1.731   1.928 -0.0766  1.0080  0.8303
  130MPD2    C2 2022   3.392   1.775   1.809 -0.3496 -0.1742 -0.0049
  130MPD2    C3 2023   3.447   1.879   1.734 -0.1696 -0.1482 -0.5665
  130MPD2    C4 2024   3.567   1.934   1.783 -0.5786  0.5876 -0.5345
  130MPD2    C5 2025   3.619   1.886   1.904 -0.1639  0.3716 -0.5001
  130MPD2     H 2026   3.296   1.731   1.783  0.7642 -2.0923 -0.8610
  130MPD2    H1 2027   3.609   2.016   1.727  2.6973 -0.6789  0.1174
  130MPD2    H2 2028   3.621   1.748   2.063  0.3252  0.3174  0.1526
  130MPD2    H3 2029   3.718   1.917   1.935 -0.6288  0.1022  1.2593
  130MPD2     N 2030   3.381   1.924   1.619 -0.4946  0.0237 -0.1368
  130MPD2    H5 2031   3.303   1.866   1.590 -0.7389  0.7234 -0.8822
  130MPD2    N1 2032   3.383   1.616   1.984 -0.1858  0.4698 -0.3445
  130MPD2    H7 2033   3.306   1.583   1.927 -1.3917 -1.2183  2.3070
  131TMC2    C1 2034   1.480   0.328   9.563  0.1628  0.4452  0.0061
  131TMC2    C2 2035   1.360   0.395   9.554 -0.4562 -0.3281 -0.1785
  131TMC2    C3 2036   1.366   0.529   9.532  0.2587 -0.7194 -0.5735
  131TMC2    C4 2037   1.598   0.383   9.550  0.3114 -0.7228  0.0733
  131TMC2    C5 2038   1.604   0.520   9.525 -0.4088  0.1204 -0.5112
  131TMC2    C6 2039   1.489   0.591   9.508 -0.5792  0.2209 -0.0542
  131TMC2     C 2040   1.476   0.193   9.622  0.1763 -0.5201 -0.5324
  131TMC2     O 2041   1.565   0.154   9.701 -0.4074 -0.0707 -0.2677
  131TMC2     H 2042   1.265   0.346   9.570 -0.9037  0.9203  0.9945
  131TMC2    H1 2043   1.693   0.334   9.564  0.6518  0.4859  2.1052
  131TMC2    H2 2044   1.484   0.696   9.483 -1.3823  0.0705 -0.5097
  131TMC2    C7 2045   1.716   0.578   9.462  0.4343  0.1945 -0.2088
  131TMC2    C8 2046   1.255   0.622   9.565  0.1214 -1.0191 -0.9609
  131TMC2    O1 2047   1.771   0.506   9.379 -0.1566  0.4609  0.6453
  131TMC2    O2 2048   1.278   0.729   9.620  0.2889 -0.6102  0.0703
  131TMC2    O5 2049   1.146   0.543   9.589  0.4162  0.5538 -0.0043
  131TMC2    H5 2050   1.129   0.497   9.504  0.5125 -0.0692  0.3114
  132MPD2     C 2051   1.201   4.686   9.572 -0.2475 -0.2523  0.5949
  132MPD2    C1 2052   1.310   0.007   9.643  0.3113 -0.2650  0.5015
  132MPD2    C2 2053   1.360   4.676   9.752  0.5276 -0.0718  0.2848
  132MPD2    C3 2054   1.311   4.553   9.780  0.1045  0.3992  0.0102
  132MPD2    C4 2055   1.215   4.494   9.702 -0.3168  0.3558 -0.1222
  132MPD2    C5 2056   1.148   4.571   9.609  0.8986 -0.4043 -0.8240
  132MPD2     H 2057   1.430   4.725   9.819  0.4443  0.5322 -0.0719
  132MPD2    H1 2058   1.169   4.400   9.730  1.2784 -0.4242 -0.1139
  132MPD2    H2 2059   1.162   0.007   9.488 -0.9322 -0.4591  0.7771
  132MPD2    H3 2060   1.075   4.522   9.544 -0.4502  1.8865 -1.0288
  132MPD2     N 2061   1.348   4.507   9.907 -0.1695 -0.0746 -0.0659
  132MPD2    H5 2062   1.410   4.566   9.962  2.4864 -2.9923  0.0407
  132MPD2    N1 2063   1.358   0.132   9.593 -0.0386  0.6503 -0.3607
  132MPD2    H7 2064   1.305   0.173   9.516  0.6879  2.2329 -0.0030
  133TMC2    C1 2065   1.345   1.459  10.100 -0.7066  0.0300  0.3773
  133TMC2    C2 2066   1.352   1.433  10.233  0.0369 -0.4244 -0.2527
  133TMC2    C3 2067   1.345   1.545  10.310  0.3539 -0.1480  0.0329
  133TMC2    C4 2068   1.341   1.581  10.045 -0.3111 -0.0698 -0.2519
  133TMC2    C5 2069   1.336   1.691  10.129  0.9869  0.0947 -0.0591
  133TMC2    C6 2070   1.333   1.678  10.265 -0.8721  0.1749  0.3450
  133TMC2     C 2071   1.300   1.347  10.017 -0.1491 -0.1582 -0.1593
  133TMC2     O 2072   1.262   1.363   9.901  0.1950  0.1538 -0.3136
  133TMC2     H 2073   1.339   1.337  10.283 -0.5741  0.3278  1.0349
  133TMC2    H1 2074   1.349   1.586   9.937  0.4517  1.4451 -0.1360
  133TMC2    H2 2075   1.319   1.759  10.336 -2.2595  0.2022  0.0415
  133TMC2    C7 2076   1.334   1.826  10.088  0.4092  0.1054 -0.3199
  133TMC2    C8 2077   1.320   1.516  10.445 -0.3314 -0.2884  0.0933
  133TMC2    O1 2078   1.348   1.915  10.178 -0.3153  0.3844 -0.2726
  133TMC2    O2 2079   1.356   1.409  10.488  0.0306 -0.0247 -0.4582
  133TMC2    O5 2080   1.193   1.561  10.458 -0.1385  0.2698  0.9897
  133TMC2    H5 2081   1.165   1.639  10.405 -2.0627  0.0765  1.7412
  134MPD2     C 2082   1.411   0.992  10.040 -0.1222 -0.2960  0.3719
  134MPD2    C1 2083   1.326   1.100  10.008  1.0689  0.0993  0.1912
  134MPD2    C2 2084   1.218   1.072   9.927  0.3122  0.1103 -0.5474
  134MPD2    C3 2085   1.196   0.940   9.879 -0.0010  0.2429 -0.2412
  134MPD2    C4 2086   1.293   0.840   9.902  0.8015 -0.7864 -0.1474
  134MPD2    C5 2087   1.392   0.864   9.995 -0.6727 -0.0016 -0.2120
  134MPD2     H 2088   1.141   1.148   9.920  1.6489  1.2714 -2.9700
  134MPD2    H1 2089   1.277   0.739   9.866 -0.1480 -1.3452  1.8084
  134MPD2    H2 2090   1.490   1.003  10.114  1.1954  0.2829 -1.1158
  134MPD2    H3 2091   1.466   0.788  10.018 -1.8460 -1.5075 -1.3924
  134MPD2     N 2092   1.089   0.915   9.792  0.4574 -0.8977  0.4568
  134MPD2    H5 2093   1.094   0.827   9.740  2.9945 -0.3127 -0.2756
  134MPD2    N1 2094   1.350   1.225  10.065  0.1679 -0.0981 -0.1267
  134MPD2    H7 2095   1.425   1.229  10.134 -0.9526  2.6697  0.9316
  135TMC2    C1 2096   2.638   1.775   9.580  0.8701  0.2608 -0.1663
  135TMC2    C2 2097   2.537   1.751   9.667 -0.1949 -0.3769 -0.2238
  135TMC2    C3 2098   2.533   1.630   9.728 -0.1230  0.3846 -0.1079
  135TMC2    C4 2099   2.721   1.672   9.541 -0.2401  0.6171  0.5474
  135TMC2    C5 2100   2.706   1.547   9.599  0.1117  1.5741  0.1378
  135TMC2    C6 2101   2.616   1.529   9.697  1.1492 -0.1299  0.3762
  135TMC2     C 2102   2.677   1.915   9.576 -0.3725  0.4771  1.1411
  135TMC2     O 2103   2.611   1.988   9.647 -0.4131  0.0582 -0.0048
  135TMC2     H 2104   2.464   1.822   9.702  0.6207 -0.1747  1.0903
  135TMC2    H1 2105   2.806   1.687   9.475 -0.4260 -1.5225 -0.1915
  135TMC2    H2 2106   2.603   1.437   9.752 -1.4745  0.1105  0.1573
  135TMC2    C7 2107   2.788   1.440   9.546  0.2689 -0.0936  0.4163
  135TMC2    C8 2108   2.416   1.601   9.811  0.6215  0.2933 -0.0997
  135TMC2    O1 2109   2.883   1.471   9.473  0.7534  0.7939  0.0676
  135TMC2    O2 2110   2.355   1.682   9.882  0.3812 -0.2301  0.2465
  135TMC2    O5 2111   2.372   1.473   9.794 -0.7194 -0.4830  0.2016
  135TMC2    H5 2112   2.424   1.428   9.725  1.6193  1.3722  0.7744
  136MPD2     C 2113   2.726   2.192   9.461 -0.1048 -0.1912 -0.1660
  136MPD2    C1 2114   2.798   2.082   9.424  0.5333 -0.1351  0.1687
  136MPD2    C2 2115   2.899   2.090   9.331  0.2992  0.2808 -0.8674
  136MPD2    C3 2116   2.933   2.211   9.276 -0.4267  0.3248 -0.4378
  136MPD2    C4 2117   2.858   2.319   9.309  0.6388  0.4493 -0.2723
  136MPD2    C5 2118   2.756   2.311   9.401 -0.3686 -0.2814 -0.4890
  136MPD2     H 2119   2.950   1.997   9.312 -0.2141 -0.0511 -0.6152
  136MPD2    H1 2120   2.882   2.415   9.264  0.7512  0.9342  0.8177
  136MPD2    H2 2121   2.651   2.194   9.540  0.5634  1.0036  0.4541
  136MPD2    H3 2122   2.695   2.393   9.436  0.5802 -0.8679  2.5181
  136MPD2     N 2123   3.035   2.223   9.180 -0.1814 -0.7335 -0.0569
  136MPD2    H5 2124   3.043   2.315   9.138  1.3665 -1.5232 -1.4651
  136MPD2    N1 2125   2.762   1.949   9.474  0.5097  0.1310 -0.1432
  136MPD2    H7 2126   2.805   1.871   9.426 -1.5094 -1.2523  0.2940
  137TMC2    C1 2127   2.768   1.848   9.075  0.1015  0.2553  0.1952
  137TMC2    C2 2128   2.830   1.948   9.004  0.6363 -0.0702 -0.0845
  137TMC2    C3 2129   2.769   2.066   8.981 -0.1743 -0.4550 -0.1432
  137TMC2    C4 2130   2.649   1.868   9.138  0.0797 -0.8142 -0.0248
  137TMC2    C5 2131   2.586   1.987   9.110  0.4792 -0.5755 -0.6974
  137TMC2    C6 2132   2.641   2.088   9.036 -0.4608  0.2851 -0.2702
  137TMC2     C 2133   2.854   1.754   9.139 -0.1799 -0.0981 -0.3582
  137TMC2     O 2134   2.841   1.733   9.258 -0.2409 -0.6812 -0.1794
  137TMC2     H 2135   2.935   1.936   8.978  0.0741 -3.4188 -0.7447
  137TMC2    H1 2136   2.615   1.796   9.212 -0.7590 -0.0052  0.3711
  137TMC2    H2 2137   2.583   2.177   9.015  1.4328  1.6926  0.5072
  137TMC2    C7 2138   2.483   2.036   9.196 -0.2081 -0.8002 -1.0415
  137TMC2    C8 2139   2.828   2.152   8.884  0.3108  0.0274  0.3237
  137TMC2    O1 2140   2.458   2.154   9.208  0.4614 -0.2768 -0.0564
  137TMC2    O2 2141   2.920   2.116   8.813  0.4463  0.1954  0.0840
  137TMC2    O5 2142   2.810   2.276   8.912  0.1822 -0.0868 -0.1969
  137TMC2    H5 2143   2.725   2.308   8.949  0.4196  1.9603 -1.4273
  138MPD2     C 2144   3.060   1.508   8.947 -0.2872 -0.5447 -0.4264
  138MPD2    C1 2145   3.009   1.580   9.058  0.1651  0.5022  0.1937
  138MPD2    C2 2146   3.038   1.525   9.183  0.3441 -0.3082 -0.0090
  138MPD2    C3 2147   3.111   1.405   9.195  0.2322  0.3337  0.0785
  138MPD2    C4 2148   3.158   1.340   9.083 -0.2528 -0.3708 -1.0100
  138MPD2    C5 2149   3.120   1.389   8.963 -0.7068 -0.7431 -0.6092
  138MPD2     H 2150   3.014   1.575   9.277 -0.3887  0.4564 -0.6000
  138MPD2    H1 2151   3.217   1.250   9.094 -1.6281 -1.1892 -0.3413
  138MPD2    H2 2152   3.039   1.533   8.843  1.5692  0.6885 -0.5060
  138MPD2    H3 2153   3.141   1.327   8.876 -1.6745  1.5343 -2.4820
  138MPD2     N 2154   3.136   1.354   9.325  0.1949  0.5501 -0.3131
  138MPD2    H5 2155   3.095   1.410   9.399  0.6533  0.1988  0.2010
  138MPD2    N1 2156   2.919   1.687   9.038 -0.7049 -0.5774 -0.4765
  138MPD2    H7 2157   2.902   1.712   8.941 -0.5655  0.5072 -0.2267
  139TMC2    C1 2158   4.175   4.221  13.459  0.2624 -0.3979 -0.7752
  139TMC2    C2 2159   4.167   4.281  13.333 -0.3004 -0.8256  0.0177
  139TMC2    C3 2160   4.051   4.339  13.296  0.1712 -0.3822 -0.3481
  139TMC2    C4 2161   4.061   4.176  13.519 -0.7141 -0.1866 -0.3331
  139TMC2    C5 2162   3.945   4.220  13.462  0.7937 -0.1104 -0.0914
  139TMC2    C6 2163   3.935   4.297  13.350  0.4139 -0.9213  0.2563
  139TMC2     C 2164   4.294   4.151  13.479  0.3305 -0.7924  0.8977
  139TMC2     O 2165   4.390   4.192  13.415 -0.4347 -0.1757  0.4485
  139TMC2     H 2166   4.255   4.302  13.273  2.1034 -4.6955  2.1531
  139TMC2    H1 2167   4.060   4.131  13.618  0.7733 -1.3456 -0.8526
  139TMC2    H2 2168   3.840   4.333  13.312  0.2460 -1.8084 -0.1568
  139TMC2    C7 2169   3.813   4.192  13.520 -0.2020  0.1822 -0.5227
  139TMC2    C8 2170   4.037   4.418  13.178 -0.7251  0.1560 -0.2718
  139TMC2    O1 2171   3.716   4.256  13.481  0.0983 -0.9040  0.1039
  139TMC2    O2 2172   3.973   4.387  13.077 -0.2401  0.2381  0.3437
  139TMC2    O5 2173   4.146   4.500  13.176  0.2264  0.0868  0.0189
  139TMC2    H5 2174   4.189   4.514  13.263 -2.0759  0.5208  1.0892
  140MPD2     C 2175   4.395   3.863  13.677 -0.4784  0.0029  0.3411
  140MPD2    C1 2176   4.389   3.945  13.565 -0.2053  0.4351  0.4498
  140MPD2    C2 2177   4.473   3.921  13.459 -0.1339 -0.0282 -0.2920
  140MPD2    C3 2178   4.559   3.816  13.464 -0.3180  0.3928  0.3613
  140MPD2    C4 2179   4.558   3.725  13.569  0.5959  0.0380  0.1555
  140MPD2    C5 2180   4.472   3.747  13.672 -0.2955 -0.4705  0.1153
  140MPD2     H 2181   4.473   3.974  13.364 -0.8570  1.3620  0.4681
  140MPD2    H1 2182   4.628   3.644  13.583  1.9487  0.8853 -1.7240
  140MPD2    H2 2183   4.344   3.880  13.771 -0.3086  1.5541  0.1444
  140MPD2    H3 2184   4.474   3.686  13.762  1.1433  1.0250  1.0988
  140MPD2     N 2185   4.637   3.799  13.349  0.1338 -0.0419 -0.6800
  140MPD2    H5 2186   4.624   3.867  13.274  0.3452 -1.0422 -1.6200
  140MPD2    N1 2187   4.288   4.039  13.559  0.8284  0.2871  0.0365
  140MPD2    H7 2188   4.203   4.018  13.610  0.2037  1.2152 -0.6355
  141TMC2    C1 2189   4.185   1.446  15.065  0.1514  0.4617  0.1393
  141TMC2    C2 2190   4.248   1.411  15.186 -0.1377 -0.3431 -0.0745
  141TMC2    C3 2191   4.268   1.504  15.280 -0.6204 -0.3039 -0.0095
  141TMC2    C4 2192   4.160   1.574  15.029  0.5095 -0.3803 -0.6578
  141TMC2    C5 2193   4.186   1.667  15.135 -0.0561  0.2989  0.2271
  141TMC2    C6 2194   4.234   1.630  15.255 -1.0304 -0.6892 -0.0467
  141TMC2     C 2195   4.159   1.331  14.979 -0.7548  0.0708  1.0414
  141TMC2     O 2196   4.118   1.225  15.025 -0.4695 -0.6512  0.5443
  141TMC2     H 2197   4.263   1.308  15.217  0.3833 -0.7540 -1.6877
  141TMC2    H1 2198   4.127   1.600  14.929  2.2418 -0.2602 -1.1959
  141TMC2    H2 2199   4.241   1.705  15.333 -0.4094 -0.9384  0.1413
  141TMC2    C7 2200   4.231   1.801  15.102 -0.3699 -0.6941 -0.9611
  141TMC2    C8 2201   4.342   1.466  15.398  0.5334  0.0757  0.3021
  141TMC2    O1 2202   4.246   1.870  15.202 -0.2460  0.5269 -0.4057
  141TMC2    O2 2203   4.346   1.532  15.502  0.0853  0.2781 -0.3642
  141TMC2    O5 2204   4.436   1.391  15.341 -0.2521  0.1556  0.7084
  141TMC2    H5 2205   4.451   1.397  15.245 -0.0522  2.1895  0.8559
  142TMC2    C1 2206   2.508   0.010  10.698 -0.1363  0.9179  0.3468
  142TMC2    C2 2207   2.628   4.727  10.634  0.4569  0.5339 -0.0544
  142TMC2    C3 2208   2.668   0.097  10.556 -0.6639 -0.7195 -0.0404
  142TMC2    C4 2209   2.417   0.115  10.669 -0.3743 -0.5025  0.0074
  142TMC2    C5 2210   2.464   0.208  10.578 -0.4335 -0.2793  0.5526
  142TMC2    C6 2211   2.592   0.207  10.521 -0.3048  0.2990 -0.4578
  142TMC2     C 2212   2.436   4.618  10.729 -0.1438  0.2354  0.7443
  142TMC2     O 2213   2.470   4.518  10.667  0.5198  0.1218  0.1828
  142TMC2     H 2214   2.689   4.638  10.649  0.0610  0.2353 -0.2178
  142TMC2    H1 2215   2.309   0.107  10.673 -0.3110 -0.3646  1.9744
  142TMC2    H2 2216   2.627   0.288  10.458  1.3254  0.3673  0.5188
  142TMC2    C7 2217   2.376   0.321  10.574 -0.7208 -0.0574  0.3532
  142TMC2    C8 2218   2.807   0.092  10.517 -0.0878  0.7145  0.3303
  142TMC2    O1 2219   2.284   0.316  10.657 -0.6553  0.4024 -0.2635
  142TMC2    O2 2220   2.854   0.165  10.428  0.3344 -0.1067 -0.7686
  142TMC2    O5 2221   2.872   0.046  10.630  0.5634 -0.0117 -0.2594
  142TMC2    H5 2222   2.809   0.023  10.702  0.3292  0.6887 -0.2428
  143MPD2     C 2223   1.988   4.446  10.913 -0.0064  0.0986 -0.1453
  143MPD2    C1 2224   2.070   4.389  10.816  0.4869 -0.0677  0.0787
  143MPD2    C2 2225   2.184   4.461  10.778  0.0182 -0.0964 -0.2785
  143MPD2    C3 2226   2.216   4.580  10.841  0.3504  0.0063 -0.4179
  143MPD2    C4 2227   2.125   4.636  10.931  0.1016 -0.1483 -0.3326
  143MPD2    C5 2228   2.017   4.567  10.962 -0.4975 -0.6765 -0.1793
  143MPD2     H 2229   2.257   4.414  10.713 -0.0412 -0.4288 -0.1013
  143MPD2    H1 2230   2.142   4.733  10.977 -1.6903  0.5782 -1.2401
  143MPD2    H2 2231   1.899   4.398  10.951  0.9423 -1.4940  0.0871
  143MPD2    H3 2232   1.946   4.620  11.024 -0.6627 -0.6037 -0.4321
  143MPD2     N 2233   2.336   4.655  10.811  0.1195 -0.1587 -0.2758
  143MPD2    H5 2234   2.340   0.017  10.842  0.0630 -0.4708  0.6853
  143MPD2    N1 2235   2.033   4.267  10.754  0.1329  0.0008  0.3517
  143MPD2    H7 2236   1.943   4.229  10.782  0.2744 -0.5361  0.0695
  144TMC2    C1 2237   0.760   3.049   0.627  0.2201 -0.1488  0.2506
  144TMC2    C2 2238   0.787   2.935   0.562 -0.1982  0.4119  0.2039
  144TMC2    C3 2239   0.889   2.857   0.604  1.0296 -0.3722  0.6279
  144TMC2    C4 2240   0.835   3.093   0.729 -0.6296 -0.2234 -0.3765
  144TMC2    C5 2241   0.932   3.014   0.767 -0.4067 -0.7332 -0.1503
  144TMC2    C6 2242   0.959   2.892   0.718 -0.3519 -0.1509  0.8656
  144TMC2     C 2243   0.641   3.128   0.579 -0.6936 -0.4650 -0.4204
  144TMC2     O 2244   0.559   3.064   0.514  0.3440  0.1305 -0.2663
  144TMC2     H 2245   0.728   2.887   0.485 -0.4343  3.4774 -1.5414
  144TMC2    H1 2246   0.819   3.190   0.773 -2.7081 -1.1338  0.8841
  144TMC2    H2 2247   1.051   2.843   0.750 -0.6163 -0.9962  0.3455
  144TMC2    C7 2248   1.012   3.045   0.885 -0.2770  0.1013 -0.8489
  144TMC2    C8 2249   0.948   2.756   0.522  0.0502  0.3010 -0.9016
  144TMC2    O1 2250   1.112   2.978   0.915 -0.2365  1.2134  0.7708
  144TMC2    O2 2251   0.933   2.754   0.402  0.1859 -0.0104 -0.2398
  144TMC2    O5 2252   1.018   2.674   0.593 -0.1400 -0.3405 -0.4601
  144TMC2    H5 2253   0.984   2.675   0.686 -0.3956  0.7712 -0.5714
  145MPD2     C 2254   0.396   3.570   0.461  0.2233 -0.2927 -0.0540
  145MPD2    C1 2255   0.352   3.439   0.462 -0.4606 -0.8777  0.6420
  145MPD2    C2 2256   0.430   3.334   0.513  0.6688 -0.0467 -0.7389
  145MPD2    C3 2257   0.556   3.360   0.563 -0.5767 -0.5110 -0.6610
  145MPD2    C4 2258   0.603   3.491   0.562 -0.0047 -0.2175  0.0554
  145MPD2    C5 2259   0.523   3.590   0.502 -0.5590 -0.0037 -0.1106
  145MPD2     H 2260   0.397   3.231   0.510  0.5137  0.0302 -1.7302
  145MPD2    H1 2261   0.702   3.530   0.581 -0.0171 -0.6954  1.1340
  145MPD2    H2 2262   0.349   3.659   0.422 -1.3005 -1.4163 -0.8066
  145MPD2    H3 2263   0.563   3.689   0.486 -1.6526  0.0394 -2.6813
  145MPD2     N 2264   0.654   3.264   0.594 -0.1245 -0.3466  0.2050
  145MPD2    H5 2265   0.738   3.299   0.639 -0.7837  1.0992  0.2857
  145MPD2    N1 2266   0.229   3.405   0.404  0.2009  0.3356 -0.3170
  145MPD2    H7 2267   0.201   3.307   0.409  3.6457 -0.6733 -0.9359
  146TMC2    C1 2268   1.746   2.049  12.570  0.3359  0.4516  0.1986
  146TMC2    C2 2269   1.680   2.069  12.453  0.1079  0.0905  0.5076
  146TMC2    C3 2270   1.686   1.970  12.355  0.5855  0.1367  0.1902
  146TMC2    C4 2271   1.832   1.946  12.575 -0.1248 -0.2991 -0.2786
  146TMC2    C5 2272   1.852   1.861  12.472 -0.0324 -0.1788  0.4276
  146TMC2    C6 2273   1.766   1.862  12.367  0.2669  0.4243 -0.2295
  146TMC2     C 2274   1.730   2.142  12.679  0.2728  0.1571  0.7771
  146TMC2     O 2275   1.690   2.255  12.661 -0.4369 -0.6270  0.5660
  146TMC2     H 2276   1.613   2.153  12.440  2.1814  1.5055 -0.9153
  146TMC2    H1 2277   1.912   1.963  12.646 -0.3870 -1.5993  0.3372
  146TMC2    H2 2278   1.771   1.786  12.289  2.4205  0.8151 -0.4778
  146TMC2    C7 2279   1.963   1.771  12.462 -0.1549  0.2728  0.3041
  146TMC2    C8 2280   1.661   2.012  12.218  0.9033  0.1130  0.9194
  146TMC2    O1 2281   2.011   1.733  12.355 -0.1107  0.4206 -0.6113
  146TMC2    O2 2282   1.659   1.921  12.134  0.0581 -0.0656  0.3902
  146TMC2    O5 2283   1.691   2.144  12.198 -0.4602  0.3027 -0.2784
  146TMC2    H5 2284   1.677   2.217  12.263 -0.2072  2.4980 -2.6718
  147MPD2     C 2285   2.366   1.571  12.699 -0.3046  0.1553  0.1959
  147MPD2    C1 2286   2.273   1.603  12.794 -0.0359  0.5935 -0.4426
  147MPD2    C2 2287   2.158   1.674  12.753  0.2090 -0.1881 -0.2935
  147MPD2    C3 2288   2.129   1.677  12.624 -0.2604  0.3870  0.0828
  147MPD2    C4 2289   2.211   1.629  12.528  0.9822  0.3754 -0.0153
  147MPD2    C5 2290   2.337   1.587  12.568  0.8720  0.5463 -0.3071
  147MPD2     H 2291   2.098   1.725  12.827 -1.2700 -1.4146 -0.6420
  147MPD2    H1 2292   2.184   1.633  12.423  0.1652 -1.4389  0.1340
  147MPD2    H2 2293   2.462   1.533  12.731 -0.6479 -2.1241 -1.4455
  147MPD2    H3 2294   2.407   1.550  12.494  2.5183  1.2763  0.8882
  147MPD2     N 2295   2.011   1.741  12.592  0.1742  0.1781  0.2166
  147MPD2    H5 2296   1.959   1.759  12.677 -3.0167  2.1182 -2.1414
  147MPD2    N1 2297   2.314   1.591  12.929  0.4790 -0.0925 -0.6077
  147MPD2    H7 2298   2.412   1.573  12.949  0.4298 -0.2545 -0.5113
  148TMC2    C1 2299   1.039   0.674  10.605 -0.0925 -0.6418  0.2288
  148TMC2    C2 2300   1.169   0.713  10.606  1.1026 -0.0960  0.4683
  148TMC2    C3 2301   1.260   0.639  10.671  0.3221 -0.5512 -0.0615
  148TMC2    C4 2302   0.999   0.573  10.686 -0.2766 -0.0793  0.0655
  148TMC2    C5 2303   1.093   0.502  10.760 -0.0116 -0.0289 -0.3273
  148TMC2    C6 2304   1.231   0.526  10.742  0.3060  0.1212  0.5177
  148TMC2     C 2305   0.941   0.780  10.562 -0.8500 -0.6280 -0.3057
  148TMC2     O 2306   0.991   0.891  10.576  0.0808 -0.5105 -0.4949
  148TMC2     H 2307   1.210   0.789  10.541 -1.1889 -0.6988 -1.6382
  148TMC2    H1 2308   0.893   0.553  10.694  0.0026 -1.8602 -0.8704
  148TMC2    H2 2309   1.313   0.471  10.788  0.2255 -1.5803 -1.3771
  148TMC2    C7 2310   1.052   0.381  10.826 -0.5438 -0.2233 -0.1820
  148TMC2    C8 2311   1.397   0.654  10.625 -0.0189 -0.0609 -0.1926
  148TMC2    O1 2312   0.949   0.338  10.772 -0.2889 -0.3136  0.1075
  148TMC2    O2 2313   1.446   0.765  10.605 -0.3752 -0.5003  0.3601
  148TMC2    O5 2314   1.427   0.547  10.552  0.2994 -0.1236 -0.8121
  148TMC2    H5 2315   1.356   0.480  10.557 -0.8814  1.1871 -0.0249
  149MPD2     C 2316   0.723   0.947  10.467  0.2630  0.2348 -0.3761
  149MPD2    C1 2317   0.720   0.810  10.464 -0.0331  0.0038  0.1770
  149MPD2    C2 2318   0.619   0.749  10.395  0.1595  0.4235 -0.7574
  149MPD2    C3 2319   0.533   0.826  10.316 -1.0700 -0.3864  0.5053
  149MPD2    C4 2320   0.530   0.965  10.330 -0.2199  0.3134 -0.0238
  149MPD2    C5 2321   0.630   1.022  10.412 -0.9148  0.6367 -0.1147
  149MPD2     H 2322   0.612   0.642  10.408 -0.4549  0.4949 -0.5180
  149MPD2    H1 2323   0.471   1.033  10.270 -1.3387 -0.8637 -0.2447
  149MPD2    H2 2324   0.791   1.002  10.532  0.6184  0.0511 -0.5938
  149MPD2    H3 2325   0.625   1.128  10.433  1.9965  0.7658 -0.1609
  149MPD2     N 2326   0.445   0.771  10.218 -0.0796  0.3515  0.2464
  149MPD2    H5 2327   0.396   0.835  10.157  1.7928 -0.6272 -2.3077
  149MPD2    N1 2328   0.819   0.732  10.520  0.0444 -0.4896  0.6236
  149MPD2    H7 2329   0.819   0.630  10.519  0.9907 -0.4825 -0.4642
  150TMC2    C1 2330   3.552   0.436  12.175  1.0270 -0.6715  0.2354
  150TMC2    C2 2331   3.520   0.355  12.070 -0.3176 -0.0026 -0.1571
  150TMC2    C3 2332   3.616   0.273  12.023  0.1397 -0.4961  0.6814
  150TMC2    C4 2333   3.677   0.442  12.232  0.5357  0.8357  0.0375
  150TMC2    C5 2334   3.771   0.368  12.167  0.7606 -0.0668  0.3569
  150TMC2    C6 2335   3.745   0.273  12.073  0.7012  0.3841  0.1275
  150TMC2     C 2336   3.447   0.507  12.251  0.3777 -0.3276  0.5833
  150TMC2     O 2337   3.478   0.607  12.315 -0.2801 -0.3511  0.2290
  150TMC2     H 2338   3.420   0.352  12.029  0.0559 -0.8830 -1.0020
  150TMC2    H1 2339   3.708   0.492  12.323  0.5299  1.0076 -0.0549
  150TMC2    H2 2340   3.809   0.200  12.024 -1.3439 -0.6680 -0.9622
  150TMC2    C7 2341   3.904   0.364  12.220  0.5306 -0.2477  0.1865
  150TMC2    C8 2342   3.588   0.186  11.911 -0.1572  0.1901  1.4726
  150TMC2    O1 2343   3.960   0.463  12.267  0.5185  0.0876  0.2650
  150TMC2    O2 2344   3.675   0.118  11.864  0.4150 -0.4764 -0.0122
  150TMC2    O5 2345   3.477   0.129  11.960  0.3910  0.1445 -0.4462
  150TMC2    H5 2346   3.423   0.177  12.026 -0.0672 -0.2385 -0.5430
  151MPD2     C 2347   2.988   0.571  12.445 -0.9788 -0.5715 -0.5005
  151MPD2    C1 2348   2.993   0.445  12.382 -0.1786  0.4067  0.5267
  151MPD2    C2 2349   3.106   0.402  12.321  0.4174  0.4816 -0.0715
  151MPD2    C3 2350   3.211   0.489  12.307 -0.8944 -1.1328 -0.1041
  151MPD2    C4 2351   3.202   0.617  12.348 -0.0188 -0.3370 -0.4019
  151MPD2    C5 2352   3.092   0.656  12.419  0.6032 -0.0882 -0.3682
  151MPD2     H 2353   3.110   0.306  12.271  0.1833  0.8218 -0.7410
  151MPD2    H1 2354   3.274   0.697  12.333  1.2201 -1.6071 -1.2100
  151MPD2    H2 2355   2.904   0.612  12.499 -0.2031 -1.0246  1.0413
  151MPD2    H3 2356   3.094   0.758  12.456  0.4925  0.6440 -2.3512
  151MPD2     N 2357   3.326   0.435  12.247 -0.5281  0.6820  0.7932
  151MPD2    H5 2358   3.321   0.341  12.209  3.5675  1.3513 -1.4426
  151MPD2    N1 2359   2.880   0.363  12.392  0.0927 -0.3105 -0.3208
  151MPD2    H7 2360   2.811   0.401  12.456  0.9443 -0.7316  0.8539
  152TMC2    C1 2361   3.451   4.253  12.792 -0.5475 -0.1405 -0.2966
  152TMC2    C2 2362   3.555   4.167  12.818  0.2524 -0.4963  0.0529
  152TMC2    C3 2363   3.678   4.206  12.769 -0.1245  0.7413  0.1555
  152TMC2    C4 2364   3.473   4.379  12.727  0.2966 -0.1129 -0.4778
  152TMC2    C5 2365   3.599   4.403  12.687  0.1284 -0.4333 -0.5656
  152TMC2    C6 2366   3.705   4.318  12.701 -0.3865  0.1455 -0.3109
  152TMC2     C 2367   3.329   4.253  12.873  0.4148 -0.1505 -0.3843
  152TMC2     O 2368   3.251   4.345  12.857 -0.0725 -0.0454  0.4489
  152TMC2     H 2369   3.549   4.096  12.900 -0.6250 -0.1445  0.2920
  152TMC2    H1 2370   3.399   4.456  12.710  1.9740  1.2245 -1.6788
  152TMC2    H2 2371   3.806   4.352  12.685  0.3241 -1.3394  1.0202
  152TMC2    C7 2372   3.614   4.536  12.636  0.5664 -0.3838  0.7141
  152TMC2    C8 2373   3.787   4.118  12.799  0.0667 -0.7801 -0.0042
  152TMC2    O1 2374   3.521   4.575  12.569  0.1012  0.2384  0.3947
  152TMC2    O2 2375   3.873   4.150  12.881  0.7763  0.4009  0.0488
  152TMC2    O5 2376   3.718   4.002  12.796 -0.2328 -0.1115  0.3491
  152TMC2    H5 2377   3.661   4.008  12.716  1.6218  0.7309 -0.9030
  153MPD2     C 2378   3.181   3.982  13.063  0.4083  0.4053 -0.1021
  153MPD2    C1 2379   3.195   4.109  13.022  0.1551  0.6177  0.4304
  153MPD2    C2 2380   3.102   4.200  13.058  0.3732  0.1664 -0.3870
  153MPD2    C3 2381   2.981   4.162  13.105  0.5548  0.5248  0.2188
  153MPD2    C4 2382   2.958   4.030  13.132 -0.3156 -0.2571  0.3554
  153MPD2    C5 2383   3.059   3.937  13.109 -0.3186 -0.0173  0.2722
  153MPD2     H 2384   3.120   4.305  13.036 -1.9467  0.1435 -2.4404
  153MPD2    H1 2385   2.862   4.000  13.171 -0.3832  0.5705  0.8490
  153MPD2    H2 2386   3.256   3.908  13.042 -0.1977 -0.2741  0.1366
  153MPD2    H3 2387   3.036   3.831  13.119 -0.4005  0.1548  1.8190
  153MPD2     N 2388   2.871   4.251  13.119  0.1985  0.0670 -0.0899
  153MPD2    H5 2389   2.783   4.210  13.149 -0.6271  0.6443 -1.7194
  153MPD2    N1 2390   3.313   4.140  12.950 -0.1177  0.1070 -0.2240
  153MPD2    H7 2391   3.380   4.065  12.940  0.7175  0.6037  1.6560
  154TMC2    C1 2392   1.367   3.953   0.614  0.1102  0.1598  0.0943
  154TMC2    C2 2393   1.405   3.961   0.745  0.5411  1.1247  0.0041
  154TMC2    C3 2394   1.521   3.912   0.785  0.3200 -0.0771 -0.2218
  154TMC2    C4 2395   1.460   3.919   0.519 -1.0987 -0.4035  0.1456
  154TMC2    C5 2396   1.588   3.877   0.559  0.5722  0.0159  0.3294
  154TMC2    C6 2397   1.618   3.871   0.692  0.0768 -0.2517  0.4609
  154TMC2     C 2398   1.255   4.045   0.584  0.0490  0.2149  0.6239
  154TMC2     O 2399   1.186   4.079   0.681  0.5359 -0.0717 -0.4015
  154TMC2     H 2400   1.345   4.007   0.823  0.5718 -0.8421  1.1943
  154TMC2    H1 2401   1.438   3.901   0.414  0.0376  0.3415 -0.2172
  154TMC2    H2 2402   1.719   3.852   0.729  0.5386  0.0933 -0.6269
  154TMC2    C7 2403   1.674   3.816   0.454 -0.0918  0.2921  0.4985
  154TMC2    C8 2404   1.566   3.929   0.918 -0.3343 -0.5097  0.3650
  154TMC2    O1 2405   1.642   3.840   0.337  0.0326  0.1560  0.2635
  154TMC2    O2 2406   1.521   4.007   1.000  0.2397 -0.2459  0.2275
  154TMC2    O5 2407   1.607   3.803   0.949  0.4813 -0.0479 -0.5083
  154TMC2    H5 2408   1.599   3.729   0.884 -0.5340 -1.3915  1.1561
  155MPD2     C 2409   1.075   4.080   0.262 -0.2643  0.2794 -0.7496
  155MPD2    C1 2410   1.095   4.094   0.399  0.0684  0.1642  0.3424
  155MPD2    C2 2411   1.013   4.178   0.467  0.6323  0.5815 -0.4752
  155MPD2    C3 2412   0.922   4.259   0.405  0.0893 -0.0321  0.4057
  155MPD2    C4 2413   0.893   4.234   0.279 -0.6841  0.5287 -0.2705
  155MPD2    C5 2414   0.973   4.147   0.208  0.1603 -0.2299 -0.4103
  155MPD2     H 2415   1.037   4.200   0.570  0.3778 -0.2893 -0.2249
  155MPD2    H1 2416   0.817   4.290   0.225 -1.1265  0.3238  0.1436
  155MPD2    H2 2417   1.127   4.009   0.198  1.7962 -0.6381  1.9338
  155MPD2    H3 2418   0.944   4.129   0.105 -0.6848 -0.5397 -0.1208
  155MPD2     N 2419   0.854   4.346   0.493  0.3375  0.1422 -0.2089
  155MPD2    H5 2420   0.878   4.367   0.589  0.3675  1.3169 -0.4660
  155MPD2    N1 2421   1.205   4.026   0.455 -0.7474  0.7495 -0.2729
  155MPD2    H7 2422   1.258   3.964   0.394  0.4584  0.4314  1.0844
  156TMC2    C1 2423   2.534   2.189  11.999  0.0715 -0.4346 -0.1250
  156TMC2    C2 2424   2.434   2.148  11.921  0.0375 -0.2880  0.2659
  156TMC2    C3 2425   2.455   2.170  11.789  0.2441 -0.1639 -0.9267
  156TMC2    C4 2426   2.635   2.268  11.950 -0.7720 -0.0758 -0.1695
  156TMC2    C5 2427   2.645   2.292  11.817 -0.3351  0.6832  0.0923
  156TMC2    C6 2428   2.552   2.246  11.730 -0.4378 -0.3412 -0.3956
  156TMC2     C 2429   2.537   2.150  12.136 -0.6993  0.0594 -0.0985
  156TMC2     O 2430   2.445   2.171  12.215  0.0905 -0.0457  0.1397
  156TMC2     H 2431   2.352   2.083  11.950 -1.6651  1.1237 -1.2996
  156TMC2    H1 2432   2.716   2.300  12.014  0.0253 -1.3718 -0.5420
  156TMC2    H2 2433   2.575   2.257  11.625 -0.9697  0.8663 -0.3750
  156TMC2    C7 2434   2.780   2.333  11.765  0.0406 -0.3801  0.0476
  156TMC2    C8 2435   2.383   2.081  11.698 -0.0161  0.3512 -0.7734
  156TMC2    O1 2436   2.775   2.404  11.670 -0.0466 -0.2393 -0.4005
  156TMC2    O2 2437   2.268   2.098  11.658  0.7500  0.7332 -0.7294
  156TMC2    O5 2438   2.478   2.008  11.631  0.4785  0.0009  0.1162
  156TMC2    H5 2439   2.559   2.008  11.687 -0.2935 -2.2863  1.2380
  157MPD2     C 2440   2.647   2.117  12.406 -0.0064  0.0482  0.4561
  157MPD2    C1 2441   2.715   2.085  12.289  0.2627 -0.3464  0.1652
  157MPD2    C2 2442   2.845   2.033  12.306  0.1537  1.2624 -0.9033
  157MPD2    C3 2443   2.902   2.010  12.426  0.4467 -0.1375  0.2780
  157MPD2    C4 2444   2.828   2.035  12.539  0.1456 -0.0810 -0.1054
  157MPD2    C5 2445   2.702   2.089  12.525 -0.0469 -0.6685  0.1634
  157MPD2     H 2446   2.903   2.003  12.219 -2.6082 -3.6362 -1.0719
  157MPD2    H1 2447   2.866   2.015  12.638 -0.0532 -0.0733 -0.0258
  157MPD2    H2 2448   2.549   2.163  12.411  0.4299  1.0310 -0.1099
  157MPD2    H3 2449   2.643   2.119  12.611 -1.4270 -0.7633 -0.7540
  157MPD2     N 2450   3.032   1.960  12.430 -0.3898 -0.4211  0.2868
  157MPD2    H5 2451   3.082   1.934  12.345  1.1119  0.8591  0.7744
  157MPD2    N1 2452   2.657   2.095  12.163 -0.7130  0.2204 -0.1532
  157MPD2    H7 2453   2.715   2.080  12.081  0.0569  1.2691  0.2044
  158TMC2    C1 2454   3.588   0.390  13.220  0.3067 -0.3296  0.2556
  158TMC2    C2 2455   3.581   0.515  13.161 -0.1589 -1.0615  0.5028
  158TMC2    C3 2456   3.451   0.562  13.152  0.3357 -0.1091  0.2604
  158TMC2    C4 2457   3.469   0.324  13.264 -1.0401  0.6492  0.6334
  158TMC2    C5 2458   3.345   0.385  13.262 -0.1529 -0.4686 -0.3237
  158TMC2    C6 2459   3.335   0.506  13.196  0.4731 -0.1597  0.1164
  158TMC2     C 2460   3.714   0.355  13.271  0.2818 -0.6599 -0.9379
  158TMC2     O 2461   3.815   0.403  13.215 -0.2385 -0.0994 -0.2510
  158TMC2     H 2462   3.668   0.562  13.118 -2.0497  1.4921 -0.5096
  158TMC2    H1 2463   3.484   0.222  13.298  1.0673  0.3112 -1.2946
  158TMC2    H2 2464   3.238   0.550  13.176  0.2063 -0.7025  0.2182
  158TMC2    C7 2465   3.222   0.319  13.300  0.1811  0.4149  0.5950
  158TMC2    C8 2466   3.447   0.683  13.076  0.2302 -0.5226  0.0149
  158TMC2    O1 2467   3.123   0.351  13.232  0.5522 -0.1363  0.4534
  158TMC2    O2 2468   3.539   0.715  12.997  0.6836 -0.4135  0.1025
  158TMC2    O5 2469   3.352   0.765  13.128 -0.3890 -0.9626 -0.3873
  158TMC2    H5 2470   3.295   0.728  13.198  0.7374 -1.3629  0.3230
  159MPD2     C 2471   4.042   0.209  13.646  0.2144  0.1203 -0.2754
  159MPD2    C1 2472   3.908   0.220  13.690 -0.0112  0.3560  0.2194
  159MPD2    C2 2473   3.808   0.245  13.603 -0.1668 -0.7496  0.0925
  159MPD2    C3 2474   3.829   0.256  13.471 -0.3923 -0.2631 -0.3456
  159MPD2    C4 2475   3.962   0.251  13.424 -0.1073  0.6032  0.1222
  159MPD2    C5 2476   4.062   0.216  13.511 -0.1940  0.3288 -0.4252
  159MPD2     H 2477   3.709   0.253  13.646 -0.5530 -1.5221 -0.6634
  159MPD2    H1 2478   3.979   0.258  13.317 -0.6053  0.3218  0.0266
  159MPD2    H2 2479   4.121   0.191  13.718 -0.1804  1.0396  0.3901
  159MPD2    H3 2480   4.166   0.221  13.479  0.2885 -0.5662  0.9897
  159MPD2     N 2481   3.712   0.289  13.392 -0.2219 -0.6334 -0.1065
  159MPD2    H5 2482   3.621   0.270  13.431 -1.0228 -1.4255 -2.3573
  159MPD2    N1 2483   3.879   0.235  13.827  0.5479 -0.1596  0.5244
  159MPD2    H7 2484   3.782   0.254  13.852  0.9544 -0.3747  2.2795
  160TMC2    C1 2485   3.432   3.587   1.853  0.5404  0.2938  0.0804
  160TMC2    C2 2486   3.336   3.649   1.930  0.5319 -0.1337 -0.5904
  160TMC2    C3 2487   3.378   3.669   2.058 -0.0828  0.2082  1.5425
  160TMC2    C4 2488   3.555   3.541   1.898 -0.4324 -0.2594  0.1346
  160TMC2    C5 2489   3.587   3.551   2.029  0.2651  0.4192  0.2269
  160TMC2    C6 2490   3.502   3.625   2.107 -0.1243 -0.6579  0.2287
  160TMC2     C 2491   3.386   3.532   1.723 -0.1200  0.5368 -0.6965
  160TMC2     O 2492   3.442   3.430   1.681 -0.4466 -0.1603  0.2689
  160TMC2     H 2493   3.242   3.692   1.899 -0.5660 -1.3921  0.9689
  160TMC2    H1 2494   3.617   3.487   1.828 -0.0627  0.4461 -0.0859
  160TMC2    H2 2495   3.528   3.649   2.210 -1.6488  0.0896  0.4399
  160TMC2    C7 2496   3.726   3.543   2.069  0.5738 -0.0199 -0.3576
  160TMC2    C8 2497   3.272   3.697   2.163  0.0605 -0.2828  0.2833
  160TMC2    O1 2498   3.758   3.522   2.187  0.0619  0.2090 -0.0163
  160TMC2    O2 2499   3.311   3.707   2.280  0.7946  0.6041  0.5741
  160TMC2    O5 2500   3.156   3.648   2.121  0.1608  0.1202  0.0839
  160TMC2    H5 2501   3.145   3.633   2.024 -1.1921  0.8875  0.1187
  161MPD2     C 2502   3.207   3.515   1.492  0.0079 -0.2761 -0.2075
  161MPD2    C1 2503   3.251   3.632   1.542 -0.2384 -0.1419 -0.1924
  161MPD2    C2 2504   3.238   3.749   1.472  0.1473  0.5082 -0.2282
  161MPD2    C3 2505   3.163   3.750   1.353  0.6181 -0.9049 -0.0299
  161MPD2    C4 2506   3.097   3.629   1.311 -0.7527 -0.3096  0.2615
  161MPD2    C5 2507   3.126   3.512   1.381  0.8615 -0.0359 -0.0106
  161MPD2     H 2508   3.278   3.843   1.509  0.8805 -0.4318  1.3760
  161MPD2    H1 2509   3.032   3.620   1.225 -0.1647  2.7704 -0.5109
  161MPD2    H2 2510   3.221   3.426   1.553  2.0471  0.3037  0.1521
  161MPD2    H3 2511   3.082   3.417   1.355  2.0273 -0.3627 -0.8112
  161MPD2     N 2512   3.139   3.868   1.274  0.4528 -0.2294 -0.3319
  161MPD2    H5 2513   3.078   3.854   1.193  1.3899  2.8328 -1.5640
  161MPD2    N1 2514   3.320   3.637   1.661  0.6816 -0.2878 -0.2223
  161MPD2    H7 2515   3.355   3.728   1.690 -0.4184 -0.1430  0.6423
  162TMC2    C1 2516   2.028   1.114   0.989  0.5005  0.0379 -0.5832
  162TMC2    C2 2517   1.933   1.212   0.968 -0.2350  0.1162  1.0827
  162TMC2    C3 2518   1.905   1.298   1.069  0.6544 -0.0332  0.6181
  162TMC2    C4 2519   2.094   1.098   1.105  0.4747  0.4000 -0.0877
  162TMC2    C5 2520   2.069   1.199   1.202  0.1170  0.0790 -0.5327
  162TMC2    C6 2521   1.981   1.302   1.183 -0.8635 -0.2463 -0.5542
  162TMC2     C 2522   2.063   1.034   0.879  0.6963  0.3636 -0.5574
  162TMC2     O 2523   2.018   1.068   0.767 -0.5483  0.0263  0.1542
  162TMC2     H 2524   1.867   1.201   0.883  1.3441  1.0707 -0.2506
  162TMC2    H1 2525   2.158   1.014   1.127  0.5885  0.8333  1.2423
  162TMC2    H2 2526   1.943   1.368   1.261 -0.8892 -0.6820 -0.1995
  162TMC2    C7 2527   2.137   1.193   1.333 -0.1439  0.1064 -0.7862
  162TMC2    C8 2528   1.772   1.328   1.098  0.1787  0.0981 -0.4868
  162TMC2    O1 2529   2.100   1.271   1.421 -0.0552 -0.4167  0.2049
  162TMC2    O2 2530   1.726   1.403   1.184  0.1924  0.1735  0.4066
  162TMC2    O5 2531   1.702   1.226   1.049  0.2246  0.3605  0.0305
  162TMC2    H5 2532   1.749   1.151   1.007 -0.9778  0.2600 -1.1298
  163MPD2     C 2533   2.313   0.641   0.659 -0.3324  0.0094 -0.4008
  163MPD2    C1 2534   2.255   0.752   0.598  0.1337 -0.1438 -0.0564
  163MPD2    C2 2535   2.204   0.851   0.684 -0.4504  0.1485  0.4287
  163MPD2    C3 2536   2.217   0.841   0.822 -0.2355  0.5948 -0.4015
  163MPD2    C4 2537   2.293   0.748   0.882 -0.9107 -0.2258  0.3738
  163MPD2    C5 2538   2.330   0.642   0.797 -0.2357  0.3045  0.1516
  163MPD2     H 2539   2.148   0.931   0.638 -0.7044 -1.8093 -2.6564
  163MPD2    H1 2540   2.310   0.733   0.988  1.8334 -1.7542 -0.2698
  163MPD2    H2 2541   2.344   0.549   0.611 -0.4263  1.4461 -3.2290
  163MPD2    H3 2542   2.358   0.550   0.847  1.9011  0.2626 -1.1259
  163MPD2     N 2543   2.159   0.941   0.905 -0.5179 -0.3218 -0.0351
  163MPD2    H5 2544   2.185   0.937   1.002 -0.6487 -1.8073 -0.0701
  163MPD2    N1 2545   2.249   0.759   0.456  1.0314 -0.1214  0.0927
  163MPD2    H7 2546   2.289   0.683   0.402  0.2126 -1.3149  1.1674
  164TMC2    C1 2547   1.571   0.233  11.239 -0.5860 -0.9758 -0.5364
  164TMC2    C2 2548   1.619   0.262  11.361 -0.6886  0.3257 -0.0847
  164TMC2    C3 2549   1.627   0.395  11.387  0.3123  0.3355 -0.3507
  164TMC2    C4 2550   1.525   0.324  11.150  0.1396 -1.3122  0.1936
  164TMC2    C5 2551   1.521   0.458  11.185  0.1272  0.2303 -0.2896
  164TMC2    C6 2552   1.577   0.491  11.305  0.3079  0.8054 -0.1104
  164TMC2     C 2553   1.551   0.090  11.211 -0.2790 -0.5446  0.2317
  164TMC2     O 2554   1.548   0.007  11.303  0.0047 -0.0944  0.2236
  164TMC2     H 2555   1.645   0.179  11.425 -3.6871 -2.2337 -2.1998
  164TMC2    H1 2556   1.462   0.294  11.066  0.2546 -1.1726  0.0570
  164TMC2    H2 2557   1.588   0.598  11.323  0.1653  0.7536  0.2869
  164TMC2    C7 2558   1.429   0.540  11.111  0.3452  0.2639 -0.5555
  164TMC2    C8 2559   1.695   0.435  11.510  0.0281 -0.3935  0.4999
  164TMC2    O1 2560   1.327   0.488  11.074 -0.1180 -0.6060 -0.6582
  164TMC2    O2 2561   1.712   0.370  11.613 -0.3078 -0.0081 -0.1716
  164TMC2    O5 2562   1.773   0.535  11.477 -1.0664 -0.1818  0.6000
  164TMC2    H5 2563   1.747   0.563  11.386 -2.1231 -0.4285  0.8192
  165TMC2    C1 2564   3.437   3.158   1.300  1.4631  0.0009  0.5235
  165TMC2    C2 2565   3.486   3.136   1.181 -0.2634 -0.2623  0.1738
  165TMC2    C3 2566   3.618   3.149   1.159  0.2598 -0.0005  0.0849
  165TMC2    C4 2567   3.518   3.200   1.402  0.1888 -0.2401 -0.1092
  165TMC2    C5 2568   3.651   3.201   1.382  1.0060  0.0574 -0.1781
  165TMC2    C6 2569   3.701   3.178   1.258 -1.0705 -0.0758  0.9951
  165TMC2     C 2570   3.290   3.191   1.329 -0.2624  0.2546 -0.4087
  165TMC2     O 2571   3.254   3.200   1.445 -0.2098 -0.2355  0.1830
  165TMC2     H 2572   3.421   3.094   1.105  0.3158  0.2910 -0.6255
  165TMC2    H1 2573   3.476   3.217   1.501  1.4676 -0.9991  0.5699
  165TMC2    H2 2574   3.806   3.198   1.240 -0.9019 -1.0907  0.8381
  165TMC2    C7 2575   3.741   3.196   1.493  0.1884  0.1421 -0.7739
  165TMC2    C8 2576   3.685   3.124   1.027  0.1189  0.5657 -0.5935
  165TMC2    O1 2577   3.860   3.176   1.461 -0.3039  0.2570  0.0264
  165TMC2    O2 2578   3.804   3.089   1.015  0.2890  0.1245  0.5885
  165TMC2    O5 2579   3.586   3.096   0.934 -0.3196 -0.1335 -0.1131
  165TMC2    H5 2580   3.491   3.117   0.951 -0.5390 -0.4152 -0.9748
  166MPD2     C 2581   2.805   3.182   1.188 -0.2947  0.3628  0.4856
  166MPD2    C1 2582   2.870   3.116   1.292 -0.6518  0.5518  0.3550
  166MPD2    C2 2583   3.010   3.123   1.302 -0.7677 -0.6292  0.0701
  166MPD2    C3 2584   3.083   3.181   1.200 -0.1895  0.0491 -0.5248
  166MPD2    C4 2585   3.020   3.231   1.090  0.2704  0.1377 -0.0042
  166MPD2    C5 2586   2.879   3.228   1.090 -0.1340  0.0093  0.7579
  166MPD2     H 2587   3.056   3.085   1.393 -0.9837  0.1981  0.5206
  166MPD2    H1 2588   3.067   3.285   1.008  0.9973  1.2263  1.1415
  166MPD2    H2 2589   2.698   3.192   1.174 -0.3311  0.0348  0.5480
  166MPD2    H3 2590   2.816   3.275   1.016 -2.7444 -0.8114  2.4559
  166MPD2     N 2591   3.223   3.191   1.213 -0.0154 -0.6898  0.0406
  166MPD2    H5 2592   3.268   3.211   1.124 -0.1537 -0.2965  0.0601
  166MPD2    N1 2593   2.782   3.049   1.382  0.1164  0.3801  0.8155
  166MPD2    H7 2594   2.689   3.037   1.344 -0.0175  1.4536  0.8051
  167TMC2    C1 2595   1.493   0.921  12.947  0.5941  0.9814  0.4667
  167TMC2    C2 2596   1.542   0.965  13.068 -0.4952 -0.0331  0.2953
  167TMC2    C3 2597   1.537   0.883  13.177  0.2696  0.0311 -0.2578
  167TMC2    C4 2598   1.429   0.798  12.940  0.0580 -0.2641 -0.1622
  167TMC2    C5 2599   1.431   0.718  13.052 -0.4824  0.0746 -0.5805
  167TMC2    C6 2600   1.471   0.764  13.179  0.0202 -0.1753  0.2236
  167TMC2     C 2601   1.471   1.016  12.840 -0.5820  0.7009  0.2437
  167TMC2     O 2602   1.451   1.136  12.875  0.7655  0.1341  0.0679
  167TMC2     H 2603   1.565   1.071  13.066  1.8125 -0.5269 -0.0423
  167TMC2    H1 2604   1.396   0.754  12.847  0.7380 -2.2838  0.5426
  167TMC2    H2 2605   1.459   0.702  13.267  0.8146 -1.2245 -0.4026
  167TMC2    C7 2606   1.352   0.597  13.039  0.5133  0.0415 -0.1554
  167TMC2    C8 2607   1.579   0.935  13.309 -0.1137  0.0909 -0.4712
  167TMC2    O1 2608   1.299   0.554  13.138  0.2654  0.6294  0.6660
  167TMC2    O2 2609   1.519   0.908  13.409 -0.4820 -0.2996 -0.0518
  167TMC2    O5 2610   1.661   1.039  13.294 -0.4041 -0.1083 -0.0667
  167TMC2    H5 2611   1.700   1.040  13.204 -0.7912  1.7809 -0.2040
  168MPD2     C 2612   1.486   1.173  12.594 -0.0872  0.4064  0.2308
  168MPD2    C1 2613   1.499   1.035  12.596 -0.4429  0.0506  0.2178
  168MPD2    C2 2614   1.493   0.960  12.486  0.0257 -0.4002 -0.3991
  168MPD2    C3 2615   1.471   1.014  12.359  0.3391 -0.9597  0.1476
  168MPD2    C4 2616   1.448   1.154  12.358  0.4269 -0.5931 -0.1851
  168MPD2    C5 2617   1.461   1.232  12.471 -0.2668  0.4893 -0.0818
  168MPD2     H 2618   1.508   0.853  12.494 -2.4663 -0.7984 -0.9916
  168MPD2    H1 2619   1.416   1.211  12.272 -4.2820 -0.3029  1.7042
  168MPD2    H2 2620   1.495   1.229  12.687  0.5196 -1.1562  1.1160
  168MPD2    H3 2621   1.450   1.340  12.465 -4.1081  0.0840 -0.0719
  168MPD2     N 2622   1.432   0.939  12.244 -0.5847 -0.1627  0.2920
  168MPD2    H5 2623   1.391   0.990  12.166  0.1855  2.5440  1.6430
  168MPD2    N1 2624   1.484   0.965  12.715 -0.0762 -0.5304 -0.4046
  168MPD2    H7 2625   1.491   0.864  12.722 -1.7376 -0.8346 -3.0922
  169MPD1     C 2626   2.197   0.663   9.963 -0.3515  0.2359 -0.0533
  169MPD1    C1 2627   2.261   0.615   9.846  0.2334 -1.0749  0.3308
  169MPD1    C2 2628   2.354   0.514   9.861 -0.0036 -0.7964 -0.3808
  169MPD1    C3 2629   2.393   0.464   9.984 -0.3077  0.0110  0.5740
  169MPD1    C4 2630   2.331   0.516  10.097 -0.5039 -0.0044  0.5717
  169MPD1    C5 2631   2.233   0.612  10.083 -0.0751 -0.0383 -0.2991
  169MPD1     H 2632   2.402   0.470   9.774  1.6554 -1.5345  0.8924
  169MPD1    H1 2633   2.361   0.479  10.195  1.5074  0.7611  0.2563
  169MPD1    H2 2634   2.124   0.743   9.968  1.7241  2.0281  1.6194
  169MPD1    H3 2635   2.182   0.664  10.164 -1.4715 -0.9709 -0.5772
  169MPD1     N 2636   2.503   0.369   9.995 -0.3253  0.6036 -0.4521
  169MPD1    H5 2637   2.551   0.344   9.909 -1.5325 -2.1874 -0.2868
  169MPD1    N1 2638   2.212   0.655   9.724  0.4211 -0.2919 -1.0415
  169MPD1    H6 2639   2.169   0.747   9.725 -0.4683 -0.7346  0.7431
  169MPD1    H7 2640   2.283   0.650   9.651  2.1425  0.7947  0.5682
  170MPD1     C 2641   2.379   2.524  12.900  1.2673  0.2389  0.6493
  170MPD1    C1 2642   2.390   2.431  12.998  0.2919  0.2920 -0.4109
  170MPD1    C2 2643   2.393   2.470  13.128 -0.1333  0.3001 -0.2763
  170MPD1    C3 2644   2.364   2.601  13.170  1.3886 -0.2754  0.0783
  170MPD1    C4 2645   2.347   2.700  13.073 -0.0761 -0.0857  0.2355
  170MPD1    C5 2646   2.348   2.658  12.943  0.1254 -0.2061  0.5134
  170MPD1     H 2647   2.410   2.395  13.205  2.0224  1.7349  0.6753
  170MPD1    H1 2648   2.327   2.806  13.087  0.3871 -0.1055  1.0272
  170MPD1    H2 2649   2.397   2.504  12.795 -0.3836 -0.5978  0.5266
  170MPD1    H3 2650   2.338   2.735  12.867 -1.5441  0.5629  1.5071
  170MPD1     N 2651   2.361   2.630  13.309  0.0381 -0.0038 -0.0836
  170MPD1    H5 2652   2.369   2.550  13.371  0.5070 -1.1908 -1.6554
  170MPD1    N1 2653   2.425   2.300  12.956  0.0404 -0.7409  0.1818
  170MPD1    H6 2654   2.386   2.271  12.867  0.0555 -2.4110  0.7199
  170MPD1    H7 2655   2.393   2.239  13.031  0.2973 -1.9971 -0.7269
  171MPD1     C 2656   1.151   4.158  15.103  0.7622 -0.4704  0.0458
  171MPD1    C1 2657   1.176   4.031  15.057  0.2008  0.3685  0.2953
  171MPD1    C2 2658   1.224   3.938  15.149  0.5268 -0.5674 -0.0238
  171MPD1    C3 2659   1.258   3.976  15.277 -0.2994  0.2414  0.2170
  171MPD1    C4 2660   1.241   4.111  15.314  0.4662  0.6894  0.1817
  171MPD1    C5 2661   1.189   4.196  15.227  0.2372  0.2311 -0.1841
  171MPD1     H 2662   1.225   3.837  15.109  2.5798 -0.2434 -0.7752
  171MPD1    H1 2663   1.271   4.148  15.412  0.9853  1.9793 -0.4648
  171MPD1    H2 2664   1.100   4.235  15.046  0.7090 -0.9797 -0.6027
  171MPD1    H3 2665   1.163   4.298  15.249 -1.6385 -0.7824  2.3115
  171MPD1     N 2666   1.329   3.897  15.362 -1.1315  0.0389  0.1833
  171MPD1    H5 2667   1.347   3.937  15.453 -0.5502 -1.1397  0.5822
  171MPD1    N1 2668   1.120   3.996  14.932 -0.6235 -0.2098 -0.2540
  171MPD1    H6 2669   1.163   3.917  14.884 -0.8664  1.2455 -2.9023
  171MPD1    H7 2670   1.131   4.079  14.874 -0.6211  1.4220  2.0572
  172MPD1     C 2671   0.233   2.825   0.157 -0.2456  0.6350  0.2745
  172MPD1    C1 2672   0.208   2.949   0.101 -0.0345 -0.8799 -0.5433
  172MPD1    C2 2673   0.306   3.042   0.122  0.3938  0.0678 -0.5065
  172MPD1    C3 2674   0.408   3.025   0.212  0.1395 -0.1916 -0.1536
  172MPD1    C4 2675   0.425   2.902   0.271  0.1678 -0.2574 -0.3672
  172MPD1    C5 2676   0.334   2.803   0.245  0.3876 -0.0424  0.3141
  172MPD1     H 2677   0.283   3.135   0.072  0.0131  0.1320 -0.2078
  172MPD1    H1 2678   0.503   2.881   0.344 -0.7176  2.1217  1.2529
  172MPD1    H2 2679   0.162   2.744   0.143 -1.1142  1.3607  0.4496
  172MPD1    H3 2680   0.354   2.704   0.284  0.8242  0.5081  1.4940
  172MPD1     N 2681   0.498   3.129   0.242  0.2549  0.5275  0.1423
  172MPD1    H5 2682   0.575   3.113   0.307  0.9587 -0.3069 -0.8993
  172MPD1    N1 2683   0.104   2.964   0.002  0.2976 -0.1463 -0.4291
  172MPD1    H6 2684   0.014   2.925   0.032  0.1871  0.6884  0.3589
  172MPD1    H7 2685   0.094   3.061  17.709  0.2710 -0.0723 -0.1899
  173MPD1     C 2686   2.473   3.625  14.085 -0.3708  0.6336 -0.5193
  173MPD1    C1 2687   2.533   3.507  14.131 -1.1806 -0.3344  0.4612
  173MPD1    C2 2688   2.456   3.406  14.171 -0.1006  0.6105  0.0848
  173MPD1    C3 2689   2.318   3.421  14.168  0.4293 -0.2260  0.3679
  173MPD1    C4 2690   2.260   3.540  14.131 -0.4144 -0.0695 -0.3554
  173MPD1    C5 2691   2.339   3.643  14.092 -0.6710 -0.6274 -0.7701
  173MPD1     H 2692   2.492   3.307  14.195 -0.4641  0.1029 -1.4476
  173MPD1    H1 2693   2.154   3.562  14.136 -0.8064 -2.5276  2.0867
  173MPD1    H2 2694   2.527   3.712  14.050  0.3467  0.0409 -0.8880
  173MPD1    H3 2695   2.282   3.725  14.049 -0.2532  0.2467  0.3405
  173MPD1     N 2696   2.241   3.317  14.214 -0.3985  0.3963  0.8830
  173MPD1    H5 2697   2.288   3.242  14.264 -0.7898  1.7496  3.2670
  173MPD1    N1 2698   2.671   3.494  14.127  0.6053 -0.5023  0.3463
  173MPD1    H6 2699   2.704   3.446  14.210  0.7869  0.1465  0.6506
  173MPD1    H7 2700   2.711   3.587  14.120  3.2553 -1.6296  0.8739
  174MPD1     C 2701   2.291   2.428  14.590  0.2927  0.4185  0.0722
  174MPD1    C1 2702   2.373   2.528  14.547  0.0645  0.0069 -0.6877
  174MPD1    C2 2703   2.320   2.629  14.464  0.6885 -0.2956  0.8120
  174MPD1    C3 2704   2.182   2.635  14.452 -0.4460  0.4595 -0.7669
  174MPD1    C4 2705   2.103   2.538  14.507  0.4368  0.6324 -0.3864
  174MPD1    C5 2706   2.161   2.439  14.578 -0.0653  0.1864 -0.1737
  174MPD1     H 2707   2.381   2.711  14.426 -0.5615  0.5446  0.6117
  174MPD1    H1 2708   1.995   2.548  14.503 -0.0174 -3.8519  0.7648
  174MPD1    H2 2709   2.331   2.353  14.658  0.8402 -0.5596 -1.3346
  174MPD1    H3 2710   2.089   2.378  14.632 -0.3930  0.9969  0.2972
  174MPD1     N 2711   2.104   2.741  14.403  0.4890 -0.4800 -0.2486
  174MPD1    H5 2712   2.004   2.746  14.418  0.2287  0.0357 -2.1729
  174MPD1    N1 2713   2.512   2.508  14.562  0.2140 -0.3206 -0.1268
  174MPD1    H6 2714   2.528   2.461  14.651  0.3995  0.8794  0.4706
  174MPD1    H7 2715   2.545   2.435  14.500 -0.9848 -0.5310 -0.4966
  175MPD1     C 2716   0.667   0.624  15.987  0.3264 -0.2719  0.4179
  175MPD1    C1 2717   0.683   0.570  15.864  0.4629  0.0305 -0.1831
  175MPD1    C2 2718   0.594   0.460  15.833  0.2570 -0.1688  0.1679
  175MPD1    C3 2719   0.499   0.417  15.928 -0.0173 -0.4060 -0.3152
  175MPD1    C4 2720   0.491   0.482  16.048 -0.3343 -0.5746  0.0500
  175MPD1    C5 2721   0.588   0.577  16.082 -0.1133  0.2739  0.5014
  175MPD1     H 2722   0.599   0.404  15.740  1.0458  0.7638 -0.3483
  175MPD1    H1 2723   0.418   0.456  16.124  1.3753 -0.5127  1.7246
  175MPD1    H2 2724   0.731   0.707  16.013  0.8745 -0.1985 -1.1692
  175MPD1    H3 2725   0.581   0.627  16.178 -0.8188 -1.1866  1.2093
  175MPD1     N 2726   0.402   0.308  15.904  0.3270  0.0961  0.1387
  175MPD1    H5 2727   0.326   0.286  15.968  0.7981 -1.4975  0.1402
  175MPD1    N1 2728   0.756   0.628  15.757  0.2828 -0.1604 -0.4369
  175MPD1    H6 2729   0.821   0.697  15.793 -1.1254  0.5801  0.6913
  175MPD1    H7 2730   0.805   0.550  15.714 -0.3131 -0.0580 -1.3259
  176MPD1     C 2731   1.795   0.885  17.734  0.4836 -0.9056 -0.3464
  176MPD1    C1 2732   1.794   0.932  17.606 -0.4621  0.7266 -0.1333
  176MPD1    C2 2733   1.816   1.068  17.598  0.2071 -0.5239 -0.2655
  176MPD1    C3 2734   1.860   1.149  17.696 -0.4542 -0.5090 -0.1681
  176MPD1    C4 2735   1.868   1.100   0.089  0.0883  0.7429 -0.0914
  176MPD1    C5 2736   1.828   0.967   0.102 -0.5426 -0.0644  0.1377
  176MPD1     H 2737   1.813   1.109  17.497  0.5555 -2.1290 -0.9152
  176MPD1    H1 2738   1.899   1.156   0.177  0.4065 -1.2023  1.0456
  176MPD1    H2 2739   1.780   0.779   0.019 -3.1857 -0.5912 -1.3795
  176MPD1    H3 2740   1.824   0.928   0.203 -1.1381  0.7077  0.4164
  176MPD1     N 2741   1.899   1.283  17.659 -0.2023 -0.2338 -0.4673
  176MPD1    H5 2742   1.895   1.303  17.560  0.7273  0.1655 -0.4238
  176MPD1    N1 2743   1.740   0.852  17.500  0.1385  0.0453 -0.0167
  176MPD1    H6 2744   1.766   0.884  17.407 -0.5330 -0.9290 -0.5354
  176MPD1    H7 2745   1.759   0.753  17.517 -0.9443 -0.5282 -2.1953
  177MPD1     C 2746   0.074   1.455  10.367  0.5223  0.3355  0.4495
  177MPD1    C1 2747   4.718   1.358  10.395 -0.2559  0.4759 -0.2973
  177MPD1    C2 2748   4.619   1.335  10.299 -0.3949 -0.4804  0.2831
  177MPD1    C3 2749   4.593   1.428  10.199 -0.0323  0.0145 -0.0487
  177MPD1    C4 2750   4.688   1.528  10.187  0.2177 -0.3548  0.2182
  177MPD1    C5 2751   0.062   1.539  10.262 -0.9616 -0.3708  0.6352
  177MPD1     H 2752   4.555   1.250  10.319  0.4769 -0.8199  1.6117
  177MPD1    H1 2753   4.678   1.608  10.115  0.8721 -0.1749  0.3247
  177MPD1    H2 2754   0.169   1.467  10.419  1.4484 -0.3038 -1.0742
  177MPD1    H3 2755   0.129   1.623  10.251 -0.1130 -0.9019  1.6848
  177MPD1     N 2756   4.469   1.420  10.124  0.1164 -0.6985  0.0533
  177MPD1    H5 2757   4.410   1.342  10.151 -1.5852  0.5997  0.1182
  177MPD1    N1 2758   0.021   1.268  10.496 -0.2525  0.0625  0.0865
  177MPD1    H6 2759   4.685   1.204  10.531  2.2526 -1.8395  1.6737
  177MPD1    H7 2760   0.071   1.319  10.569 -2.8854  2.1960  0.4309
  178MPD1     C 2761   2.902   2.501   0.398  0.5239  0.8641 -0.3498
  178MPD1    C1 2762   2.864   2.407   0.308 -0.0915 -0.3954  0.1771
  178MPD1    C2 2763   2.891   2.423   0.172 -0.4913  0.3894  0.2356
  178MPD1    C3 2764   2.954   2.536   0.124 -0.0207 -0.4544  0.3102
  178MPD1    C4 2765   2.981   2.637   0.216 -0.1030  0.0181 -0.4925
  178MPD1    C5 2766   2.961   2.610   0.354 -0.1611  0.1617  1.0476
  178MPD1     H 2767   2.857   2.342   0.108 -4.0754  1.0591  1.2999
  178MPD1    H1 2768   3.020   2.735   0.189 -1.1455  0.3426 -0.8271
  178MPD1    H2 2769   2.894   2.486   0.505  0.5858  1.8707 -0.2080
  178MPD1    H3 2770   2.985   2.686   0.428 -1.1236  0.4658  1.0400
  178MPD1     N 2771   3.003   2.555  17.728 -0.1078  0.1317 -0.5619
  178MPD1    H5 2772   3.035   2.650  17.708  0.8808 -0.1901 -0.5060
  178MPD1    N1 2773   2.817   2.286   0.357 -0.0070  0.0291 -0.0835
  178MPD1    H6 2774   2.741   2.249   0.300 -0.2097 -0.1277  0.2859
  178MPD1    H7 2775   2.768   2.304   0.445 -0.4367  0.0772 -0.3308
  179MPD1     C 2776   2.551   0.990  15.892 -0.3147  0.3553 -0.0722
  179MPD1    C1 2777   2.438   0.960  15.965  0.3620 -0.0012 -0.5210
  179MPD1    C2 2778   2.386   0.830  15.949 -0.0375 -0.4671 -0.4636
  179MPD1    C3 2779   2.439   0.740  15.856  0.0079 -0.0299  0.1232
  179MPD1    C4 2780   2.557   0.767  15.793 -0.1974 -0.8428  0.0332
  179MPD1    C5 2781   2.603   0.895  15.810 -0.3622 -0.4943  0.2829
  179MPD1     H 2782   2.301   0.804  16.012  1.0301  0.7301  1.4598
  179MPD1    H1 2783   2.599   0.711  15.711 -0.8747  2.0470 -2.2705
  179MPD1    H2 2784   2.604   1.084  15.904 -1.5089  1.1882 -1.4339
  179MPD1    H3 2785   2.693   0.922  15.756 -1.0753  0.0990 -0.6024
  179MPD1     N 2786   2.379   0.614  15.826 -0.0354  0.6578 -0.3774
  179MPD1    H5 2787   2.431   0.542  15.776  2.3244  2.3648 -0.3875
  179MPD1    N1 2788   2.376   1.059  16.041 -0.0999 -0.4963  0.2124
  179MPD1    H6 2789   2.437   1.139  16.051 -1.9498  0.8920  0.3110
  179MPD1    H7 2790   2.340   1.018  16.127 -1.1148 -0.7144 -0.3204
  180MPD1     C 2791   1.887   2.188  15.232  0.5647 -0.0797 -0.1749
  180MPD1    C1 2792   1.820   2.187  15.110  0.9541  0.0318  0.1717
  180MPD1    C2 2793   1.807   2.069  15.037  0.0643  0.2979 -0.1042
  180MPD1    C3 2794   1.857   1.950  15.092 -0.0801 -0.2614 -1.0119
  180MPD1    C4 2795   1.914   1.954  15.218 -0.3985  0.0664  0.3786
  180MPD1    C5 2796   1.934   2.072  15.282  0.4043  0.2832 -0.3600
  180MPD1     H 2797   1.770   2.077  14.936 -3.1562 -1.8652  0.9155
  180MPD1    H1 2798   1.954   1.865  15.266 -1.0753 -0.0130  0.7829
  180MPD1    H2 2799   1.900   2.279  15.289  0.3150  0.8607 -1.6302
  180MPD1    H3 2800   1.970   2.065  15.384  0.9567  0.1155 -0.5631
  180MPD1     N 2801   1.846   1.830  15.011  0.3010  0.1437  0.3941
  180MPD1    H5 2802   1.781   1.835  14.934 -0.4338 -2.0019  0.8858
  180MPD1    N1 2803   1.784   2.311  15.052 -0.5979 -0.0200  0.0847
  180MPD1    H6 2804   1.767   2.384  15.122  1.0888  1.8034 -1.4039
  180MPD1    H7 2805   1.712   2.299  14.981 -0.8478  0.6017  0.2288
  181MPD1     C 2806   3.165   2.828  10.013  0.3653  0.0576  0.1108
  181MPD1    C1 2807   3.185   2.895  10.133  0.6100 -1.1123  0.6381
  181MPD1    C2 2808   3.283   2.996  10.129 -0.1726  0.1423  0.0033
  181MPD1    C3 2809   3.344   3.045  10.016  0.0569  1.4556 -0.4229
  181MPD1    C4 2810   3.312   2.984   9.896 -0.0958  0.0459 -0.3922
  181MPD1    C5 2811   3.219   2.885   9.898  1.3756 -0.4621  0.1393
  181MPD1     H 2812   3.306   3.030  10.229 -2.5467 -0.2372  0.6785
  181MPD1    H1 2813   3.371   3.016   9.810 -2.2219  0.6957 -1.6077
  181MPD1    H2 2814   3.117   2.731  10.000  1.8678 -0.8030  1.0136
  181MPD1    H3 2815   3.189   2.845   9.802 -1.1899 -1.0788  1.2004
  181MPD1     N 2816   3.456   3.135  10.022 -0.7984  0.0370 -0.5549
  181MPD1    H5 2817   3.503   3.162   9.936 -0.5697  2.0587  0.2089
  181MPD1    N1 2818   3.129   2.846  10.252  0.1146  0.0731  0.5509
  181MPD1    H6 2819   3.036   2.809  10.234 -0.0911  0.7313  0.2477
  181MPD1    H7 2820   3.132   2.919  10.322  0.2536 -1.6009  2.2795
  182MPD1     C 2821   4.256   2.901   1.985 -0.0938 -0.3999  1.0279
  182MPD1    C1 2822   4.341   2.859   1.894  0.2261  0.2039  0.2626
  182MPD1    C2 2823   4.293   2.835   1.769 -0.3335  0.1984  0.2012
  182MPD1    C3 2824   4.158   2.856   1.729  0.2958 -0.2280  0.7724
  182MPD1    C4 2825   4.073   2.903   1.826  0.7635 -0.0899 -0.2963
  182MPD1    C5 2826   4.124   2.924   1.957 -0.2278 -0.0421 -0.2554
  182MPD1     H 2827   4.364   2.795   1.697  0.1499  0.6455  0.4329
  182MPD1    H1 2828   3.966   2.917   1.813  0.2715 -2.8262  0.6677
  182MPD1    H2 2829   4.289   2.931   2.084 -0.0263  1.4095  0.4568
  182MPD1    H3 2830   4.076   2.957   2.048  0.3575  1.5697 -0.5191
  182MPD1     N 2831   4.102   2.836   1.605 -0.1954 -0.8237  0.2409
  182MPD1    H5 2832   4.002   2.857   1.600 -0.0164 -0.1665 -0.5126
  182MPD1    N1 2833   4.481   2.854   1.915 -0.6308  0.3170 -0.3070
  182MPD1    H6 2834   4.509   2.854   2.013  1.6147  0.6673 -0.9468
  182MPD1    H7 2835   4.523   2.779   1.861 -0.6823  0.3648 -0.4151
  183MPD1     C 2836   3.863   2.764   8.419 -0.0171  0.0477  0.1491
  183MPD1    C1 2837   3.792   2.879   8.456  0.5326 -0.0543 -0.0991
  183MPD1    C2 2838   3.829   2.936   8.578 -0.1539  0.0596  0.0657
  183MPD1    C3 2839   3.923   2.882   8.662 -0.4997 -0.1927  0.0096
  183MPD1    C4 2840   3.976   2.762   8.629 -1.2125  0.0635  0.1001
  183MPD1    C5 2841   3.944   2.706   8.514  0.4994  0.1616 -0.1948
  183MPD1     H 2842   3.771   3.021   8.611 -1.6153  0.5014 -3.5407
  183MPD1    H1 2843   4.037   2.703   8.696 -0.6258  1.4462  0.7688
  183MPD1    H2 2844   3.845   2.709   8.328 -4.0449 -1.1187  1.6337
  183MPD1    H3 2845   3.978   2.606   8.490  0.9571 -0.1544  1.7550
  183MPD1     N 2846   3.949   2.948   8.790  0.0866  0.3591 -0.5713
  183MPD1    H5 2847   3.890   3.030   8.805 -0.6967 -0.1928 -0.6287
  183MPD1    N1 2848   3.709   2.940   8.366  0.2765  0.4879 -0.2851
  183MPD1    H6 2849   3.649   3.006   8.414 -1.2369 -0.6504 -0.6187
  183MPD1    H7 2850   3.652   2.868   8.322 -0.9827  1.1026  0.3422
  184MPD1     C 2851   3.014   1.748  10.209 -0.3312  0.0334 -0.4616
  184MPD1    C1 2852   3.058   1.620  10.239  0.3057  0.7169 -0.7860
  184MPD1    C2 2853   3.159   1.569  10.171  0.2078 -0.1014 -0.0475
  184MPD1    C3 2854   3.229   1.651  10.084  0.0611 -1.1102 -0.2128
  184MPD1    C4 2855   3.203   1.784  10.071 -0.3283 -1.0622  0.0513
  184MPD1    C5 2856   3.092   1.831  10.136  0.6888 -0.2059 -0.7080
  184MPD1     H 2857   3.182   1.464  10.176 -0.5950 -0.4092 -2.6062
  184MPD1    H1 2858   3.268   1.851  10.015  0.0532 -1.4068  0.0752
  184MPD1    H2 2859   2.919   1.783  10.249  1.9213  3.5232  1.8176
  184MPD1    H3 2860   3.065   1.936  10.140  3.6269  0.5723 -0.5884
  184MPD1     N 2861   3.344   1.605  10.015 -0.5128  0.4859 -0.1375
  184MPD1    H5 2862   3.396   1.673   9.962 -0.4797 -1.4044 -2.4907
  184MPD1    N1 2863   2.983   1.537  10.334 -0.4563  0.8044  0.8536
  184MPD1    H6 2864   2.954   1.592  10.414 -1.5930 -0.4084  1.2685
  184MPD1    H7 2865   3.049   1.471  10.374 -1.8711 -0.1987  1.5245
  185MPD1     C 2866   3.490   0.740   9.476 -0.3589 -0.4605 -1.4241
  185MPD1    C1 2867   3.521   0.845   9.395  0.0872 -0.0491  0.0698
  185MPD1    C2 2868   3.540   0.964   9.458 -0.0814 -0.2425  0.4015
  185MPD1    C3 2869   3.511   0.981   9.596  0.0929  0.0724  0.2596
  185MPD1    C4 2870   3.476   0.874   9.670 -0.5128  0.6224  0.0971
  185MPD1    C5 2871   3.484   0.747   9.613  0.0594  0.2586  0.4055
  185MPD1     H 2872   3.582   1.046   9.401 -1.0184 -0.4620 -0.6071
  185MPD1    H1 2873   3.449   0.885   9.774 -0.7073  1.5728 -0.0526
  185MPD1    H2 2874   3.477   0.641   9.434 -1.2021  0.1003 -2.4685
  185MPD1    H3 2875   3.463   0.655   9.667  2.1121 -0.4024  0.0842
  185MPD1     N 2876   3.518   1.102   9.667  0.4287 -0.6333 -0.3714
  185MPD1    H5 2877   3.483   1.105   9.762 -1.5833  1.8387 -1.2139
  185MPD1    N1 2878   3.569   0.822   9.268 -0.1147  0.2237  0.0831
  185MPD1    H6 2879   3.555   0.909   9.217 -1.9350  0.3217  0.7506
  185MPD1    H7 2880   3.522   0.756   9.207  2.1297 -1.5618  0.2735
  186MPD1     C 2881   3.126   0.601  15.667 -0.2195 -0.4247  1.1230
  186MPD1    C1 2882   3.073   0.568  15.782  0.0266  0.2216  1.1502
  186MPD1    C2 2883   2.991   0.652  15.849 -0.4936 -0.0686 -0.6881
  186MPD1    C3 2884   2.994   0.787  15.815  0.1707  0.3766 -0.3838
  186MPD1    C4 2885   3.073   0.827  15.705 -0.4007  0.0838  0.4746
  186MPD1    C5 2886   3.135   0.731  15.630 -0.4523 -0.2266 -0.1471
  186MPD1     H 2887   2.939   0.615  15.937  0.9170  0.9643  0.5702
  186MPD1    H1 2888   3.080   0.930  15.672  3.6956 -0.0726  0.7805
  186MPD1    H2 2889   3.172   0.527  15.603 -1.3598 -0.7710  0.7072
  186MPD1    H3 2890   3.171   0.759  15.531 -1.2686  1.6993  0.1131
  186MPD1     N 2891   2.930   0.879  15.906 -0.1893 -0.2250  0.3187
  186MPD1    H5 2892   2.929   0.978  15.882  1.2429 -0.0440  1.0249
  186MPD1    N1 2893   3.078   0.438  15.837  0.3028  0.0227  0.4174
  186MPD1    H6 2894   3.089   0.432  15.938  0.2724  2.0642  0.5416
  186MPD1    H7 2895   3.148   0.380  15.793  0.4845  0.4559  0.1351
  187MPD1     C 2896   2.126   2.393   0.035 -0.2129 -0.4508  0.2452
  187MPD1    C1 2897   2.156   2.501  17.687 -0.4034 -0.5599  0.4724
  187MPD1    C2 2898   2.133   2.480  17.549 -0.0985  0.6032  0.7361
  187MPD1    C3 2899   2.096   2.353  17.502 -0.1976 -0.7296 -0.3473
  187MPD1    C4 2900   2.057   2.252  17.591 -0.3714  0.2457  0.1182
  187MPD1    C5 2901   2.085   2.267  17.727  0.8822  0.5853  0.2712
  187MPD1     H 2902   2.162   2.564  17.486  1.3663  1.5167  2.6198
  187MPD1    H1 2903   2.015   2.157  17.558  0.7657  0.5567 -2.1862
  187MPD1    H2 2904   2.144   2.399   0.141 -1.4976 -1.0732  0.4920
  187MPD1    H3 2905   2.064   2.192   0.065 -1.5997  2.3654  1.3293
  187MPD1     N 2906   2.064   2.330  17.367 -0.2603 -0.0510  0.4676
  187MPD1    H5 2907   2.022   2.242  17.336 -0.1370  0.7506 -1.9588
  187MPD1    N1 2908   2.213   2.612   0.003  0.3465  0.1951 -0.8461
  187MPD1    H6 2909   2.215   2.690  17.675 -0.7187  1.7318  0.9391
  187MPD1    H7 2910   2.168   2.643   0.089  1.4608  1.9538 -0.8919
  188MPD1     C 2911   0.765   1.699   9.951  0.5777 -0.4452  0.2905
  188MPD1    C1 2912   0.871   1.666  10.037 -0.5173  0.0253  0.4159
  188MPD1    C2 2913   0.872   1.530  10.083 -0.2073  0.1651 -0.3507
  188MPD1    C3 2914   0.777   1.435  10.054  0.1371 -0.1324  0.2440
  188MPD1    C4 2915   0.674   1.477   9.978 -0.0041  1.0462  0.2889
  188MPD1    C5 2916   0.672   1.604   9.926 -0.1228 -0.0237  0.6663
  188MPD1     H 2917   0.962   1.505  10.137 -1.3891 -1.7581  0.7269
  188MPD1    H1 2918   0.608   1.407   9.927 -0.9875  0.9937  1.6327
  188MPD1    H2 2919   0.765   1.785   9.884  1.4752 -0.3848  0.3636
  188MPD1    H3 2920   0.590   1.633   9.862  1.3451 -0.5307 -1.4558
  188MPD1     N 2921   0.792   1.301  10.088  0.7912  0.0066  0.0685
  188MPD1    H5 2922   0.717   1.241  10.053  2.0607 -1.3420 -0.3421
  188MPD1    N1 2923   0.982   1.751  10.059  0.0004 -0.3773 -0.2528
  188MPD1    H6 2924   0.972   1.851  10.044 -1.4039 -0.6482 -1.0563
  188MPD1    H7 2925   1.023   1.735  10.151 -0.4858 -0.0128  0.0260
  189MPD1     C 2926   3.811   3.462   0.680 -0.2463 -0.0952 -0.4883
  189MPD1    C1 2927   3.724   3.557   0.643 -0.1304 -0.0674 -0.3554
  189MPD1    C2 2928   3.609   3.528   0.583  0.2730  0.3062  0.5884
  189MPD1    C3 2929   3.553   3.403   0.592 -0.3974  0.1897 -0.1967
  189MPD1    C4 2930   3.634   3.306   0.646 -0.0574  0.1384 -0.2416
  189MPD1    C5 2931   3.762   3.336   0.690 -0.3211 -0.5255 -0.2637
  189MPD1     H 2932   3.554   3.611   0.538  0.2315 -1.3333 -2.3637
  189MPD1    H1 2933   3.608   3.202   0.665  1.1605  0.3031  2.3143
  189MPD1    H2 2934   3.909   3.483   0.720  1.0222 -1.2869 -2.9469
  189MPD1    H3 2935   3.819   3.251   0.727  1.0048 -0.1471 -1.4350
  189MPD1     N 2936   3.424   3.382   0.544 -0.4281 -0.0795  0.3113
  189MPD1    H5 2937   3.372   3.460   0.504  1.3391  1.1467  0.4128
  189MPD1    N1 2938   3.781   3.676   0.616 -0.4406  0.3156  0.4629
  189MPD1    H6 2939   3.848   3.698   0.690 -1.6997 -0.6352  1.8741
  189MPD1    H7 2940   3.711   3.749   0.615 -1.1985 -0.4650 -2.2156
  190MPD1     C 2941   2.108   1.969  15.802 -0.1810  0.3496  0.3442
  190MPD1    C1 2942   2.197   1.949  15.905  0.6149  0.3410 -0.3939
  190MPD1    C2 2943   2.330   1.973  15.874  0.1209  0.0871 -0.6055
  190MPD1    C3 2944   2.362   2.036  15.758  0.4250 -0.1736  0.5132
  190MPD1    C4 2945   2.264   2.069  15.662 -0.5071 -0.8590  0.4547
  190MPD1    C5 2946   2.134   2.037  15.689 -0.4675 -0.0624 -0.4512
  190MPD1     H 2947   2.407   1.948  15.946 -1.7013  1.0658  1.6755
  190MPD1    H1 2948   2.286   2.123  15.571  2.8048 -0.1195  1.6642
  190MPD1    H2 2949   2.012   1.924  15.825 -0.7067 -0.4098 -3.4358
  190MPD1    H3 2950   2.061   2.069  15.615 -1.3619 -0.4176  0.2717
  190MPD1     N 2951   2.493   2.061  15.740  0.3721 -0.4808  0.2700
  190MPD1    H5 2952   2.550   2.028  15.816  0.1038 -1.2193  0.1477
  190MPD1    N1 2953   2.174   1.870  16.019  0.1123 -0.1288 -0.0480
  190MPD1    H6 2954   2.247   1.891  16.088 -0.4031  0.1002  0.4340
  190MPD1    H7 2955   2.082   1.879  16.060  0.3672  0.0173  0.4950
  191MPD1     C 2956   0.480   3.534  12.293 -0.4939 -0.5054  0.0574
  191MPD1    C1 2957   0.544   3.580  12.406  0.2932  0.8092  0.1837
  191MPD1    C2 2958   0.674   3.626  12.403  0.4558  0.2454  0.1430
  191MPD1    C3 2959   0.750   3.628  12.288 -0.2421 -0.9027 -0.4755
  191MPD1    C4 2960   0.694   3.573  12.171 -0.0129  0.2390  0.4369
  191MPD1    C5 2961   0.557   3.527  12.178  0.4069  0.1481 -0.0715
  191MPD1     H 2962   0.727   3.636  12.497 -0.0180 -0.1001  0.4474
  191MPD1    H1 2963   0.753   3.559  12.081 -1.5462  1.5561 -0.7812
  191MPD1    H2 2964   0.380   3.494  12.295 -0.2034 -1.0066  3.6777
  191MPD1    H3 2965   0.514   3.491  12.085  3.3746 -0.2204 -1.2704
  191MPD1     N 2966   0.889   3.659  12.300 -0.1845  0.1341  0.3247
  191MPD1    H5 2967   0.924   3.696  12.388  0.7543 -0.9117  0.4008
  191MPD1    N1 2968   0.488   3.548  12.536 -0.5940  0.0078 -0.0826
  191MPD1    H6 2969   0.387   3.545  12.522 -0.3795 -1.1203 -1.3976
  191MPD1    H7 2970   0.508   3.612  12.612 -1.1991  0.2593 -0.1378
  192MPD1     C 2971   1.722   3.961  11.746  0.2742 -0.4063  0.0026
  192MPD1    C1 2972   1.769   3.876  11.846  0.4621 -0.6811  0.3257
  192MPD1    C2 2973   1.676   3.829  11.943 -0.5155  0.1062  0.7826
  192MPD1    C3 2974   1.545   3.870  11.939 -0.3565 -0.4509  0.6647
  192MPD1    C4 2975   1.499   3.943  11.828  0.4113  0.1903  0.5254
  192MPD1    C5 2976   1.587   3.988  11.729  0.4853  0.3409  0.4561
  192MPD1     H 2977   1.715   3.768  12.024  0.2883 -0.9585 -0.3975
  192MPD1    H1 2978   1.404   3.995  11.839 -0.4272 -1.3991  0.8509
  192MPD1    H2 2979   1.793   4.018  11.688 -0.9151  0.6198 -0.4420
  192MPD1    H3 2980   1.544   4.072  11.675 -1.2009  0.3774  1.8458
  192MPD1     N 2981   1.450   3.829  12.035 -0.0877 -0.7162  0.1466
  192MPD1    H5 2982   1.361   3.875  12.018 -0.1898 -0.2074  2.1157
  192MPD1    N1 2983   1.909   3.874  11.873  0.3128  0.0745 -0.0873
  192MPD1    H6 2984   1.929   3.776  11.892  1.7770  0.0344 -1.8393
  192MPD1    H7 2985   1.961   3.894  11.788  1.0966 -2.2793 -0.1688
  193MPD1     C 2986   1.038   3.527  16.553  0.1559  0.0618  0.4558
  193MPD1    C1 2987   1.086   3.539  16.425 -0.2849 -0.7409  0.4375
  193MPD1    C2 2988   1.173   3.640  16.400  0.8452 -0.2096  0.2576
  193MPD1    C3 2989   1.236   3.716  16.501  0.0305 -0.5816 -0.2115
  193MPD1    C4 2990   1.181   3.698  16.629  0.4905 -0.0138 -0.5757
  193MPD1    C5 2991   1.083   3.608  16.654  0.3174 -0.2448  0.7273
  193MPD1     H 2992   1.213   3.651  16.300 -1.7499 -1.4179 -0.9022
  193MPD1    H1 2993   1.224   3.748  16.716  3.4557  0.4976 -2.3145
  193MPD1    H2 2994   0.962   3.453  16.577  0.6203 -0.7727 -0.6335
  193MPD1    H3 2995   1.061   3.593  16.759  0.6575  1.3905  1.0403
  193MPD1     N 2996   1.324   3.826  16.476 -0.0006  0.5741  0.0388
  193MPD1    H5 2997   1.338   3.890  16.554  0.1335  1.5489 -0.7718
  193MPD1    N1 2998   1.017   3.476  16.319 -0.0775  0.2537 -0.2872
  193MPD1    H6 2999   0.999   3.381  16.351 -0.1191 -0.5871 -2.8568
  193MPD1    H7 3000   1.073   3.465  16.235 -2.1684  0.3786 -1.7002
  194MPD1     C 3001   3.326   0.545   0.346  0.2333  1.6199  0.5675
  194MPD1    C1 3002   3.281   0.504   0.220 -0.9679 -0.0551 -0.4099
  194MPD1    C2 3003   3.383   0.460   0.131  0.0875 -0.2379 -0.2495
  194MPD1    C3 3004   3.517   0.460   0.167 -0.3765 -0.7880 -0.1542
  194MPD1    C4 3005   3.554   0.506   0.294 -0.0322  0.0079  0.0366
  194MPD1    C5 3006   3.460   0.544   0.383 -0.0463  0.0120 -0.0890
  194MPD1     H 3007   3.349   0.413   0.039  1.1329 -0.5418 -0.4716
  194MPD1    H1 3008   3.657   0.505   0.327 -0.3132 -0.3984  0.9227
  194MPD1    H2 3009   3.258   0.575   0.425 -1.7856  0.1532 -0.6270
  194MPD1    H3 3010   3.491   0.564   0.485 -2.6058 -0.1469  0.7079
  194MPD1     N 3011   3.617   0.416   0.078 -0.3339 -0.0004 -0.0126
  194MPD1    H5 3012   3.713   0.408   0.108 -0.1283  2.8962  0.1216
  194MPD1    N1 3013   3.144   0.480   0.197 -0.1982  0.3744 -0.6448
  194MPD1    H6 3014   3.092   0.543   0.258 -1.6767 -0.4291 -1.0776
  194MPD1    H7 3015   3.118   0.508   0.103  0.2467 -1.5591 -1.3407
  195MPD1     C 3016   1.309   3.129   0.604  0.2542 -0.1064  0.0082
  195MPD1    C1 3017   1.448   3.115   0.623 -0.5495  0.1865 -0.3225
  195MPD1    C2 3018   1.492   2.986   0.628 -0.1182 -0.2101  0.2858
  195MPD1    C3 3019   1.416   2.881   0.585  0.2463  0.7645  0.5515
  195MPD1    C4 3020   1.292   2.910   0.531 -0.2251  0.1338 -0.1534
  195MPD1    C5 3021   1.241   3.031   0.541 -0.1765 -0.2869 -0.2084
  195MPD1     H 3022   1.597   2.969   0.651 -0.0799  2.4435  2.0050
  195MPD1    H1 3023   1.229   2.826   0.502  0.1984 -0.0243 -0.6061
  195MPD1    H2 3024   1.254   3.220   0.626 -1.5022 -1.6317  1.8910
  195MPD1    H3 3025   1.134   3.037   0.521  0.3898  2.1560 -2.5989
  195MPD1     N 3026   1.463   2.748   0.574 -0.0803  0.4667 -0.0216
  195MPD1    H5 3027   1.405   2.685   0.520  2.0862 -1.8421  0.3623
  195MPD1    N1 3028   1.524   3.219   0.677 -0.5654 -0.0556  0.4268
  195MPD1    H6 3029   1.487   3.311   0.651  0.4481 -0.1893 -1.5392
  195MPD1    H7 3030   1.624   3.225   0.662 -0.5082 -1.2112  0.3362
  196MPD1     C 3031   0.661   1.447   0.476  0.1489  0.0594  0.5407
  196MPD1    C1 3032   0.648   1.573   0.423 -0.7925 -0.2395  0.2173
  196MPD1    C2 3033   0.649   1.684   0.511 -1.2892 -0.6414 -0.8882
  196MPD1    C3 3034   0.643   1.664   0.648  0.1749  0.1483  0.2532
  196MPD1    C4 3035   0.646   1.533   0.698 -0.0060  0.3273  0.2924
  196MPD1    C5 3036   0.650   1.425   0.613  0.3407 -0.0892 -0.4771
  196MPD1     H 3037   0.653   1.781   0.462 -0.2822 -1.4901 -2.4920
  196MPD1    H1 3038   0.661   1.511   0.803 -0.7800  0.5412  0.4501
  196MPD1    H2 3039   0.654   1.353   0.422  2.8326  0.4207 -0.4082
  196MPD1    H3 3040   0.649   1.319   0.639  1.2198  0.2121  0.7445
  196MPD1     N 3041   0.646   1.766   0.741  0.3965 -0.0565  0.1546
  196MPD1    H5 3042   0.624   1.744   0.837  0.4190 -1.6675 -0.2035
  196MPD1    N1 3043   0.655   1.582   0.285 -0.1953  0.3413 -0.1260
  196MPD1    H6 3044   0.620   1.670   0.247  0.9106  0.7209 -0.2474
  196MPD1    H7 3045   0.603   1.510   0.235  2.3515 -1.5423 -0.0148
  197MPD1     C 3046   4.571   3.786  17.180  0.7223 -0.0460  0.2815
  197MPD1    C1 3047   4.689   3.730  17.219 -0.7877 -0.0556 -0.4569
  197MPD1    C2 3048   0.071   3.768  17.154 -0.0029  0.4601 -0.0993
  197MPD1    C3 3049   0.060   3.868  17.057 -0.2184 -0.6244 -0.1806
  197MPD1    C4 3050   4.672   3.924  17.026  0.1376  0.0440  0.1995
  197MPD1    C5 3051   4.561   3.885  17.087 -0.6140 -0.1129  0.2072
  197MPD1     H 3052   0.166   3.720  17.175 -0.0339  0.6569  0.5105
  197MPD1    H1 3053   4.663   4.009  16.960 -0.6991  1.1160  1.6756
  197MPD1    H2 3054   4.478   3.753  17.225  0.0345 -0.2636 -1.3104
  197MPD1    H3 3055   4.467   3.930  17.059 -0.4034 -0.3682 -0.9100
  197MPD1     N 3056   0.170   3.902  16.985  0.4406 -0.4943  0.1087
  197MPD1    H5 3057   0.136   3.949  16.903  4.5210  1.0960 -0.6510
  197MPD1    N1 3058   4.685   3.621  17.301 -1.0299 -0.0428  0.2170
  197MPD1    H6 3059   0.034   3.621  17.360 -1.1738  0.5611  0.4269
  197MPD1    H7 3060   4.608   3.637  17.366 -0.7190  1.2298  0.2870
  198MPD1     C 3061   1.414   2.642  15.856 -0.2275  0.6165 -0.3545
  198MPD1    C1 3062   1.473   2.735  15.938  0.0705  0.5193  0.0932
  198MPD1    C2 3063   1.609   2.750  15.925 -0.2040 -0.0868  0.5031
  198MPD1    C3 3064   1.686   2.679  15.831  0.3578  0.0023 -0.2930
  198MPD1    C4 3065   1.618   2.600  15.735 -0.3069  0.4012  0.3671
  198MPD1    C5 3066   1.483   2.579  15.752  0.3952  0.0960 -0.1566
  198MPD1     H 3067   1.660   2.822  15.988 -0.6516  1.6691 -1.1582
  198MPD1    H1 3068   1.656   2.554  15.645  0.2284  2.1755 -0.3201
  198MPD1    H2 3069   1.306   2.629  15.853 -0.1322 -0.8001  2.1714
  198MPD1    H3 3070   1.439   2.515  15.676 -1.3402  0.8937  0.1794
  198MPD1     N 3071   1.824   2.698  15.814 -0.2763  1.1271  0.0785
  198MPD1    H5 3072   1.868   2.761  15.881  2.3218 -0.6057 -0.0220
  198MPD1    N1 3073   1.417   2.778  16.055  0.1596  0.3788  0.0196
  198MPD1    H6 3074   1.465   2.861  16.091 -2.2350  2.8782 -2.6504
  198MPD1    H7 3075   1.316   2.785  16.049  0.2798  3.1471  1.5748
  199MPD1     C 3076   3.648   4.480   9.392 -0.5655 -0.1826  0.2483
  199MPD1    C1 3077   3.694   4.352   9.381 -0.0401  0.4867  0.2063
  199MPD1    C2 3078   3.613   4.260   9.446  1.2564  0.0456 -0.6320
  199MPD1    C3 3079   3.511   4.301   9.524 -0.5476  0.2110  0.1435
  199MPD1    C4 3080   3.474   4.432   9.540 -0.1166  0.3048  0.1735
  199MPD1    C5 3081   3.546   4.521   9.468  0.4940 -0.3241  0.7489
  199MPD1     H 3082   3.632   4.155   9.426 -0.2314 -0.0923 -1.2987
  199MPD1    H1 3083   3.392   4.456   9.607  0.5218 -2.6942  2.0522
  199MPD1    H2 3084   3.699   4.567   9.351 -2.6643 -0.1221 -2.2605
  199MPD1    H3 3085   3.535   4.628   9.483 -0.4142 -0.4837  1.2159
  199MPD1     N 3086   3.425   4.202   9.577 -0.1410 -0.2563 -0.1527
  199MPD1    H5 3087   3.346   4.240   9.629  0.5751  0.0496  0.6970
  199MPD1    N1 3088   3.796   4.329   9.289 -0.2428  0.7675  0.1009
  199MPD1    H6 3089   3.844   4.239   9.296  0.3053  1.1872  1.6359
  199MPD1    H7 3090   3.858   4.409   9.278  0.1396  0.4721  0.1133
  200MPD1     C 3091   3.510   4.325  15.943  0.8182  0.5548  0.7952
  200MPD1    C1 3092   3.565   4.430  15.872  0.0931 -0.0365 -0.1175
  200MPD1    C2 3093   3.551   4.422  15.740 -0.6764  0.3279 -0.8132
  200MPD1    C3 3094   3.475   4.323  15.679 -0.1675  0.1697 -0.2941
  200MPD1    C4 3095   3.405   4.235  15.755  0.0694 -0.2475 -0.5666
  200MPD1    C5 3096   3.420   4.238  15.891  0.6269 -0.0496  0.1364
  200MPD1     H 3097   3.599   4.496  15.677  2.0691 -0.8559 -0.1088
  200MPD1    H1 3098   3.336   4.163  15.715  1.6017 -3.0299  1.7963
  200MPD1    H2 3099   3.536   4.305  16.047  0.5965 -0.5271  0.6408
  200MPD1    H3 3100   3.371   4.167  15.957  2.1646  0.2964  1.6367
  200MPD1     N 3101   3.477   4.312  15.539 -0.3276  0.2435 -0.3074
  200MPD1    H5 3102   3.544   4.371  15.491 -0.0967  1.1195  1.0971
  200MPD1    N1 3103   3.660   4.509  15.925 -0.0737  0.3741 -0.1380
  200MPD1    H6 3104   3.641   4.548  16.017  0.6454  1.7406 -0.5600
  200MPD1    H7 3105   3.681   4.584  15.859  0.3940 -0.8902 -1.4170
  201MPD1     C 3106   0.418   3.326  12.864  0.4194  0.4480 -0.2264
  201MPD1    C1 3107   0.539   3.316  12.925  0.1504 -0.6828  0.5147
  201MPD1    C2 3108   0.572   3.194  12.982 -0.2918 -0.0757 -0.1915
  201MPD1    C3 3109   0.503   3.077  12.955  0.1590  0.0301  0.2917
  201MPD1    C4 3110   0.383   3.095  12.882  0.6006  0.1004  0.5052
  201MPD1    C5 3111   0.343   3.218  12.835 -0.1715 -0.1464 -0.1875
  201MPD1     H 3112   0.668   3.183  13.030 -0.9391 -2.2057  0.6619
  201MPD1    H1 3113   0.307   3.021  12.863  0.8922  0.5551 -2.4495
  201MPD1    H2 3114   0.373   3.416  12.824  0.6638 -0.1442 -1.8457
  201MPD1    H3 3115   0.248   3.234  12.785 -0.6092  1.3676  1.1303
  201MPD1     N 3116   0.548   2.948  13.011 -0.5359  0.3884  0.7634
  201MPD1    H5 3117   0.639   2.938  13.053  0.1626  0.7171 -0.6493
  201MPD1    N1 3118   0.602   3.431  12.973 -0.3296  0.4567  0.6791
  201MPD1    H6 3119   0.602   3.512  12.911  3.3125 -0.8988 -1.0300
  201MPD1    H7 3120   0.700   3.410  12.991 -0.8769 -2.8301 -0.2044
  202MPD1     C 3121   4.510   1.867   8.957  0.1138 -0.1500  0.4311
  202MPD1    C1 3122   4.483   2.001   8.950 -0.1222 -0.1188 -0.4909
  202MPD1    C2 3123   4.563   2.074   9.043 -1.1138 -0.3460  0.7944
  202MPD1    C3 3124   4.633   2.014   9.151 -0.1338 -0.1960 -0.2816
  202MPD1    C4 3125   4.655   1.881   9.150  0.0463 -0.6089  0.5041
  202MPD1    C5 3126   4.597   1.811   9.049  0.3951 -0.4851  0.4437
  202MPD1     H 3127   4.544   2.180   9.029  3.4642  0.7243  2.7862
  202MPD1    H1 3128   4.716   1.835   9.227  1.0853  0.5887  0.3932
  202MPD1    H2 3129   4.488   1.801   8.874  3.3898  0.4873 -0.9822
  202MPD1    H3 3130   4.628   1.708   9.033 -3.1367 -1.4052 -0.4880
  202MPD1     N 3131   4.679   2.090   9.251 -0.0821  0.1670 -0.4006
  202MPD1    H5 3132   0.011   2.049   9.316  2.0167  0.9893 -2.0230
  202MPD1    N1 3133   4.457   2.057   8.826 -0.2507  0.6224  0.6228
  202MPD1    H6 3134   4.431   2.156   8.828 -0.1222  0.6374  1.6515
  202MPD1    H7 3135   4.383   2.006   8.780  0.8546  0.1187 -0.5784
  203MPD1     C 3136   4.526   2.287  11.872  0.7229 -0.8465  0.3960
  203MPD1    C1 3137   4.556   2.239  12.001 -0.1684  0.4121  0.4270
  203MPD1    C2 3138   4.528   2.315  12.116  0.2126 -0.2326 -0.1664
  203MPD1    C3 3139   4.457   2.432  12.101 -0.3786 -0.1146 -0.0508
  203MPD1    C4 3140   4.447   2.487  11.975  0.5496 -0.1149  0.8429
  203MPD1    C5 3141   4.480   2.410  11.863  0.3020 -0.8670  0.7561
  203MPD1     H 3142   4.554   2.273  12.213 -1.7987  0.7067  0.7742
  203MPD1    H1 3143   4.413   2.589  11.960  0.0083 -0.4348 -0.1615
  203MPD1    H2 3144   4.544   2.226  11.784 -1.0438 -0.2253 -0.3887
  203MPD1    H3 3145   4.457   2.463  11.771  1.2067 -4.3277 -1.4446
  203MPD1     N 3146   4.408   2.502  12.210  0.3562  0.0895  0.4757
  203MPD1    H5 3147   4.372   2.595  12.193 -1.3821 -0.9893 -1.6404
  203MPD1    N1 3148   4.640   2.130  12.012 -0.1126 -0.3173  0.2128
  203MPD1    H6 3149   4.609   2.055  12.073 -0.6668 -0.3706 -0.1315
  203MPD1    H7 3150   4.664   2.078  11.928 -0.6355 -0.5903  0.2349
  204MPD1     C 3151   3.488   0.110  17.405 -0.2976  0.2296  0.1684
  204MPD1    C1 3152   3.574   0.124  17.296 -0.2583 -0.2997  0.3286
  204MPD1    C2 3153   3.698   0.067  17.300 -0.4017  0.5394  0.1465
  204MPD1    C3 3154   3.748   0.009  17.410 -0.1429  0.4441  0.5227
  204MPD1    C4 3155   3.665   4.730  17.522 -0.2378 -0.8757 -0.2345
  204MPD1    C5 3156   3.539   0.046  17.512 -0.2899 -0.1447 -0.0794
  204MPD1     H 3157   3.752   0.077  17.206 -0.3268 -2.6445 -0.1658
  204MPD1    H1 3158   3.702   4.683  17.612  0.4152 -0.5098 -0.3082
  204MPD1    H2 3159   3.397   0.167  17.417  1.3505  3.2767 -1.7804
  204MPD1    H3 3160   3.476   0.045  17.601 -0.0327  0.6653  0.1055
  204MPD1     N 3161   3.872   4.676  17.398 -0.5866 -0.4942 -0.4193
  204MPD1    H5 3162   3.923   4.684  17.311 -1.4123 -0.3875 -0.8937
  204MPD1    N1 3163   3.529   0.180  17.176  0.1133 -0.1579 -0.2043
  204MPD1    H6 3164   3.452   0.239  17.206 -0.7687 -0.1768 -2.4142
  204MPD1    H7 3165   3.603   0.231  17.129 -1.9369  1.3548 -1.8178
  205MPD1     C 3166   4.062   3.318   0.512 -0.3758 -0.2265 -0.0513
  205MPD1    C1 3167   4.065   3.400   0.404  0.6152  0.3325  0.0168
  205MPD1    C2 3168   4.140   3.516   0.411  0.3509 -0.2187  0.0541
  205MPD1    C3 3169   4.225   3.540   0.520 -0.2679  0.6001  0.5006
  205MPD1    C4 3170   4.242   3.444   0.617 -0.2109 -0.4151  0.5169
  205MPD1    C5 3171   4.150   3.338   0.614 -0.6046 -0.1517  0.9711
  205MPD1     H 3172   4.142   3.587   0.330 -0.1663 -0.0856  0.1589
  205MPD1    H1 3173   4.294   3.459   0.711 -0.1781 -1.6827  0.6982
  205MPD1    H2 3174   4.008   3.225   0.495 -0.1818 -0.3236 -0.1345
  205MPD1    H3 3175   4.159   3.265   0.693 -0.5729 -2.1380 -0.8876
  205MPD1     N 3176   4.312   3.649   0.533 -0.9791  0.1380 -0.6287
  205MPD1    H5 3177   4.392   3.640   0.595 -0.9829 -2.6793 -1.0380
  205MPD1    N1 3178   3.975   3.376   0.298  0.4772  0.0776 -0.1107
  205MPD1    H6 3179   3.952   3.277   0.296 -1.3828  0.5215 -1.8885
  205MPD1    H7 3180   4.011   3.404   0.207 -0.5379  1.8993  0.0239
  206MPD1     C 3181   3.941   2.284  17.017 -0.4412  0.0588  0.1421
  206MPD1    C1 3182   4.024   2.174  17.027  0.7381  0.1907  0.0272
  206MPD1    C2 3183   4.011   2.084  16.922 -0.0861  0.0864  0.8199
  206MPD1    C3 3184   3.923   2.102  16.813  0.4410 -0.2644  0.1719
  206MPD1    C4 3185   3.836   2.206  16.820 -0.7647  0.0685 -0.4753
  206MPD1    C5 3186   3.849   2.299  16.917  0.1009 -0.6082 -0.2399
  206MPD1     H 3187   4.088   2.008  16.922  0.2661  0.4280  2.9176
  206MPD1    H1 3188   3.775   2.228  16.734 -0.9319 -0.2677 -0.4433
  206MPD1    H2 3189   3.951   2.363  17.090  0.1202 -0.0434  0.1774
  206MPD1    H3 3190   3.787   2.387  16.904  0.8428 -0.1639 -0.6958
  206MPD1     N 3191   3.924   2.022  16.691  0.1129 -0.2060 -0.0913
  206MPD1    H5 3192   3.853   2.057  16.628 -0.7907  0.6779  1.4028
  206MPD1    N1 3193   4.128   2.178  17.121  0.3022  0.5695  0.1316
  206MPD1    H6 3194   4.170   2.089  17.147  2.6300  1.2079 -1.4312
  206MPD1    H7 3195   4.092   2.219  17.207 -0.6617  0.8606 -0.4117
  207MPD1     C 3196   1.529   4.048   9.908  0.6408  0.2657 -0.1505
  207MPD1    C1 3197   1.646   4.121   9.918 -0.3317  0.3987 -0.4460
  207MPD1    C2 3198   1.729   4.093  10.031  0.2641 -0.2675 -0.4141
  207MPD1    C3 3199   1.693   3.994  10.122  0.3340  0.1164 -0.1669
  207MPD1    C4 3200   1.575   3.926  10.104  0.6586  0.0714 -0.0356
  207MPD1    C5 3201   1.498   3.951   9.994 -0.0873  0.6969  0.0343
  207MPD1     H 3202   1.820   4.148  10.049  0.3500 -0.6573  0.3476
  207MPD1    H1 3203   1.534   3.858  10.178 -0.8815  0.5258 -0.4682
  207MPD1    H2 3204   1.465   4.058   9.821 -0.2279  1.9222  0.6942
  207MPD1    H3 3205   1.404   3.898   9.979 -0.4121  1.2773  0.0151
  207MPD1     N 3206   1.779   3.951  10.221  0.3401  0.7840 -0.5938
  207MPD1    H5 3207   1.755   3.878  10.287 -0.8127  0.6733 -1.1503
  207MPD1    N1 3208   1.697   4.205   9.810  0.3131 -0.1605 -0.5834
  207MPD1    H6 3209   1.757   4.283   9.836  0.4453 -0.5301  0.2286
  207MPD1    H7 3210   1.620   4.239   9.753 -0.5951  1.7856  1.7948
  208MPD1     C 3211   0.744   2.502   0.621 -0.4724 -0.3170 -0.1191
  208MPD1    C1 3212   0.746   2.575   0.734  0.3054 -0.3647  0.4896
  208MPD1    C2 3213   0.647   2.668   0.742 -0.3026  0.8930  0.7043
  208MPD1    C3 3214   0.538   2.670   0.661  0.4898  0.4466 -0.0745
  208MPD1    C4 3215   0.531   2.584   0.554 -0.3743 -0.3354  0.4169
  208MPD1    C5 3216   0.642   2.508   0.533  0.3675 -0.1340  0.2703
  208MPD1     H 3217   0.653   2.734   0.828 -0.7124  1.8786 -0.0289
  208MPD1    H1 3218   0.436   2.558   0.510 -0.7965 -0.4445  1.3777
  208MPD1    H2 3219   0.819   2.430   0.591 -0.9070 -1.6260  1.9032
  208MPD1    H3 3220   0.636   2.429   0.460  1.2470 -0.6490  0.7568
  208MPD1     N 3221   0.423   2.752   0.702 -0.2368  0.1934  0.7427
  208MPD1    H5 3222   0.443   2.803   0.787  1.1371 -1.3702  1.3568
  208MPD1    N1 3223   0.860   2.586   0.816 -0.0227 -0.3183 -0.9361
  208MPD1    H6 3224   0.899   2.493   0.831 -0.9619 -0.7670 -1.2437
  208MPD1    H7 3225   0.842   2.628   0.907 -1.0589  1.0615 -1.7740
  209MPD1     C 3226   1.924   2.680  11.310  0.5949  0.3173  0.2449
  209MPD1    C1 3227   1.964   2.762  11.214  0.1834 -0.1228 -0.4183
  209MPD1    C2 3228   1.932   2.896  11.225 -0.0141  0.0502  0.6766
  209MPD1    C3 3229   1.848   2.939  11.328 -0.2523  0.7706 -0.2115
  209MPD1    C4 3230   1.806   2.851  11.426  0.1366  0.1945  0.4417
  209MPD1    C5 3231   1.845   2.720  11.416 -0.2276  0.4012 -0.2530
  209MPD1     H 3232   1.960   2.972  11.154 -1.5257 -1.3043 -1.3908
  209MPD1    H1 3233   1.743   2.889  11.506  0.6086  2.8052 -0.4140
  209MPD1    H2 3234   1.966   2.581  11.315 -0.2384  0.1001  2.7332
  209MPD1    H3 3235   1.806   2.652  11.490  0.3402 -0.4244 -0.7111
  209MPD1     N 3236   1.813   3.076  11.333  0.1004  0.0594  0.0321
  209MPD1    H5 3237   1.839   3.130  11.252  1.9238  0.5588  0.9675
  209MPD1    N1 3238   2.052   2.719  11.106  0.0602  0.5104 -0.2688
  209MPD1    H6 3239   2.032   2.619  11.094  0.8162  0.2763  0.4079
  209MPD1    H7 3240   2.009   2.764  11.026  0.5793  1.1094 -0.2101
  210MPD1     C 3241   2.111   3.601  12.027  0.1274  0.3443 -0.1104
  210MPD1    C1 3242   2.184   3.607  11.907  0.3280  0.3282  0.2521
  210MPD1    C2 3243   2.124   3.557  11.789  0.9301 -0.0261  0.2387
  210MPD1    C3 3244   1.986   3.532  11.795  0.4193 -0.7193 -0.1961
  210MPD1    C4 3245   1.915   3.539  11.908 -0.3779  0.1561 -0.0534
  210MPD1    C5 3246   1.975   3.582  12.020  0.9067 -0.1666  0.6149
  210MPD1     H 3247   2.176   3.542  11.695  0.5129  0.3068 -0.0412
  210MPD1    H1 3248   1.808   3.522  11.911 -0.0206 -2.1414 -0.4968
  210MPD1    H2 3249   2.160   3.636  12.117 -0.5524  0.8580  0.0593
  210MPD1    H3 3250   1.915   3.590  12.110  2.1458  0.9733  1.3430
  210MPD1     N 3251   1.918   3.481  11.684 -0.6454  0.7113  0.2582
  210MPD1    H5 3252   1.826   3.442  11.702 -1.1142  0.3153 -2.9623
  210MPD1    N1 3253   2.327   3.616  11.911  0.1181 -1.2841  0.4879
  210MPD1    H6 3254   2.372   3.636  11.822  0.6141 -2.0839  0.5542
  210MPD1    H7 3255   2.351   3.683  11.983  1.1930  0.7486 -1.7852
  211MPD1     C 3256   4.322   3.053  15.756  0.2599 -0.1816  0.2350
  211MPD1    C1 3257   4.189   3.059  15.717  0.2864 -0.0328 -0.0235
  211MPD1    C2 3258   4.105   3.150  15.779  0.0811  0.2457 -0.1292
  211MPD1    C3 3259   4.143   3.236  15.875 -0.0867  0.8116 -0.4783
  211MPD1    C4 3260   4.276   3.234  15.913  0.0524 -0.1654 -0.2228
  211MPD1    C5 3261   4.358   3.139  15.852 -0.4419 -0.1456 -0.3001
  211MPD1     H 3262   3.999   3.150  15.753  0.1199 -1.9069 -0.2444
  211MPD1    H1 3263   4.314   3.306  15.984  2.2258 -1.9101  0.3840
  211MPD1    H2 3264   4.396   2.982  15.722 -1.4539 -1.7865 -0.1670
  211MPD1    H3 3265   4.461   3.127  15.886 -0.1275  1.4323 -0.7043
  211MPD1     N 3266   4.058   3.342  15.915 -0.7451  0.0746  0.4550
  211MPD1    H5 3267   3.968   3.343  15.868  0.5503  1.1587 -1.9771
  211MPD1    N1 3268   4.130   2.959  15.641  0.6562 -0.3466  0.2216
  211MPD1    H6 3269   4.186   2.940  15.559  0.8546  1.2914 -0.0327
  211MPD1    H7 3270   4.038   2.984  15.605 -0.1179 -2.5547  0.7025
  212MPD1     C 3271   3.520   1.922  16.785 -0.1859 -0.8653 -0.7694
  212MPD1    C1 3272   3.538   1.810  16.708  0.2401  0.1566  0.5519
  212MPD1    C2 3273   3.467   1.695  16.742 -0.0632  0.0207  0.9795
  212MPD1    C3 3274   3.371   1.696  16.850 -0.6328 -0.1035 -0.1529
  212MPD1    C4 3275   3.360   1.818  16.924 -0.1337  0.7934 -0.1691
  212MPD1    C5 3276   3.437   1.929  16.889 -0.2507 -0.4550 -0.3805
  212MPD1     H 3277   3.484   1.604  16.685  1.0719  0.8718 -0.0396
  212MPD1    H1 3278   3.300   1.825  17.014  0.6887  1.1642  0.3471
  212MPD1    H2 3279   3.566   2.017  16.758  2.0274 -1.4458  0.9528
  212MPD1    H3 3280   3.429   2.020  16.947 -0.0256 -1.6471  1.5177
  212MPD1     N 3281   3.281   1.588  16.884 -0.3518  0.3943 -0.1159
  212MPD1    H5 3282   3.206   1.611  16.948  1.1576  1.5635  1.2158
  212MPD1    N1 3283   3.643   1.816  16.613  0.0080 -0.2780  0.6599
  212MPD1    H6 3284   3.632   1.762  16.528  1.4185 -1.6399  1.3553
  212MPD1    H7 3285   3.665   1.914  16.593 -1.2836  0.0496  0.7812
  213MPD1     C 3286   1.166   2.103  16.084 -0.3400 -0.3853  0.1116
  213MPD1    C1 3287   1.047   2.041  16.059  0.4334 -0.0271 -0.4666
  213MPD1    C2 3288   1.035   1.992  15.927 -0.7681 -0.1229 -1.0869
  213MPD1    C3 3289   1.120   2.027  15.824  0.2482  0.1201 -0.3081
  213MPD1    C4 3290   1.232   2.097  15.851  0.2369 -0.2975  0.4314
  213MPD1    C5 3291   1.255   2.133  15.982  0.2113  0.8149 -0.4739
  213MPD1     H 3292   0.943   1.940  15.902  0.2497 -0.7380 -3.5621
  213MPD1    H1 3293   1.310   2.126  15.783  0.1180  0.5021  0.6307
  213MPD1    H2 3294   1.199   2.118  16.186  1.2445  3.1005 -0.9033
  213MPD1    H3 3295   1.347   2.184  16.008  0.1720  1.6242 -1.9114
  213MPD1     N 3296   1.088   1.988  15.694  0.3274 -0.1881 -0.2134
  213MPD1    H5 3297   1.010   1.926  15.673 -0.7440  0.3430  2.1838
  213MPD1    N1 3298   0.989   1.958  16.160  0.0816 -0.2381 -0.7044
  213MPD1    H6 3299   0.894   1.929  16.138  0.5004 -3.2217  1.3820
  213MPD1    H7 3300   0.992   2.008  16.248 -0.4234  0.4424 -1.0761
  214MPD1     C 3301   0.650   1.283  15.497 -0.5374  0.1344 -1.0691
  214MPD1    C1 3302   0.670   1.336  15.371 -0.1295  0.3932  0.3238
  214MPD1    C2 3303   0.727   1.457  15.354  0.3931  0.3541 -0.4975
  214MPD1    C3 3304   0.778   1.527  15.462 -0.3387  0.6193  0.1683
  214MPD1    C4 3305   0.775   1.468  15.586  0.1959  0.4326 -0.0171
  214MPD1    C5 3306   0.705   1.352  15.601  0.9522  0.1694 -0.4491
  214MPD1     H 3307   0.726   1.493  15.251  2.5421 -0.1759 -0.7043
  214MPD1    H1 3308   0.828   1.515  15.668  1.1656  1.6085 -1.3208
  214MPD1    H2 3309   0.608   1.185  15.516  1.0086 -0.0853  1.2063
  214MPD1    H3 3310   0.706   1.307  15.700  1.6227  0.5746 -0.2715
  214MPD1     N 3311   0.845   1.656  15.450  0.2679 -0.4155 -0.4443
  214MPD1    H5 3312   0.872   1.690  15.542 -2.2332 -0.7552  0.4093
  214MPD1    N1 3313   0.626   1.261  15.257  0.5998 -0.6037  0.7602
  214MPD1    H6 3314   0.568   1.181  15.279  0.7302 -0.8821  0.0690
  214MPD1    H7 3315   0.572   1.323  15.197  0.4745 -2.0417 -0.5887
  215MPD1     C 3316   1.382   2.279  10.634  0.1664  0.4396 -0.6382
  215MPD1    C1 3317   1.397   2.255  10.766  0.1107  0.3880 -0.4028
  215MPD1    C2 3318   1.423   2.357  10.850 -0.1518  0.0541  1.0932
  215MPD1    C3 3319   1.444   2.483  10.799  0.0102  0.2295  0.0550
  215MPD1    C4 3320   1.433   2.509  10.663 -0.3071  0.5252  0.0913
  215MPD1    C5 3321   1.404   2.408  10.581 -0.2137  0.4002 -0.0705
  215MPD1     H 3322   1.435   2.328  10.954  4.2567  0.0190  0.5609
  215MPD1    H1 3323   1.433   2.610  10.623 -1.1558  0.6377  0.3743
  215MPD1    H2 3324   1.347   2.195  10.574 -0.5389 -0.4266  0.9690
  215MPD1    H3 3325   1.388   2.438  10.478  0.0915 -0.3462 -0.3357
  215MPD1     N 3326   1.474   2.577  10.899 -0.3587 -0.0369 -0.5076
  215MPD1    H5 3327   1.455   2.544  10.993  0.7104  1.4811  0.2464
  215MPD1    N1 3328   1.359   2.129  10.820  0.2630 -0.8194  0.0647
  215MPD1    H6 3329   1.361   2.051  10.754  0.6627  0.1952 -1.1178
  215MPD1    H7 3330   1.421   2.116  10.900 -0.6917 -2.2562  0.5743
  216MPD1     C 3331   2.735   0.768   0.790 -0.1446 -0.0581 -0.4282
  216MPD1    C1 3332   2.870   0.788   0.813  0.4151 -0.6071 -0.0979
  216MPD1    C2 3333   2.956   0.698   0.764 -0.3521 -0.1523  0.3691
  216MPD1    C3 3334   2.914   0.579   0.714 -0.2671  0.4477 -0.0611
  216MPD1    C4 3335   2.780   0.556   0.701 -0.1670  0.0290  0.0292
  216MPD1    C5 3336   2.691   0.651   0.730 -0.1523 -0.0445 -0.1058
  216MPD1     H 3337   3.061   0.723   0.767 -1.2671  3.8345  0.2969
  216MPD1    H1 3338   2.751   0.454   0.680  4.0796 -0.8483 -1.5576
  216MPD1    H2 3339   2.660   0.844   0.811 -0.3036 -0.8239  1.7529
  216MPD1    H3 3340   2.589   0.618   0.712 -1.2216  3.0246  0.3594
  216MPD1     N 3341   3.015   0.497   0.666 -0.5817 -0.5248 -0.6998
  216MPD1    H5 3342   3.112   0.523   0.677 -0.8227 -0.0917  0.4295
  216MPD1    N1 3343   2.909   0.921   0.847 -0.0540 -0.0588  0.2174
  216MPD1    H6 3344   3.002   0.928   0.889  0.1738  1.0141 -0.4384
  216MPD1    H7 3345   2.847   0.981   0.900  1.8323  1.6662  0.4933
  217MPD1     C 3346   2.830   2.727   8.548  0.8791  0.2752 -0.4419
  217MPD1    C1 3347   2.947   2.683   8.503 -0.0961  0.2892 -0.4435
  217MPD1    C2 3348   3.020   2.595   8.577  0.2391 -0.0511  0.2980
  217MPD1    C3 3349   2.975   2.549   8.698 -0.5898 -0.2738 -0.0639
  217MPD1    C4 3350   2.853   2.597   8.744 -0.3298  0.5239  0.2219
  217MPD1    C5 3351   2.781   2.683   8.670 -0.5247 -0.0928  0.5334
  217MPD1     H 3352   3.107   2.550   8.532  1.7527 -0.3296  3.5036
  217MPD1    H1 3353   2.816   2.556   8.838 -0.4581  1.2849  0.5004
  217MPD1    H2 3354   2.767   2.796   8.492  1.1814 -0.1909 -1.3591
  217MPD1    H3 3355   2.681   2.717   8.697  0.7664  3.9512  0.3350
  217MPD1     N 3356   3.052   2.457   8.773 -0.3847 -0.2787 -0.4351
  217MPD1    H5 3357   3.016   2.437   8.866 -1.7664  1.5599 -0.5772
  217MPD1    N1 3358   3.018   2.738   8.391 -0.4718  0.3109 -0.0602
  217MPD1    H6 3359   3.074   2.675   8.334  1.3526  0.9470  1.0414
  217MPD1    H7 3360   2.952   2.767   8.319 -0.1301 -0.7739 -0.8091
  218MPD1     C 3361   0.680   3.182  11.438 -0.1492 -0.1460  0.5420
  218MPD1    C1 3362   0.631   3.056  11.410 -0.2341 -0.3313 -0.6288
  218MPD1    C2 3363   0.595   2.974  11.516 -0.4770 -0.3397 -0.5068
  218MPD1    C3 3364   0.596   3.018  11.644 -0.4503 -0.2366 -0.1834
  218MPD1    C4 3365   0.652   3.140  11.671 -0.1897  0.1902 -0.2372
  218MPD1    C5 3366   0.688   3.223  11.568  0.2669 -0.3336 -0.4351
  218MPD1     H 3367   0.570   2.870  11.497 -1.8948 -0.0007 -0.4585
  218MPD1    H1 3368   0.654   3.189  11.768 -1.7838  2.3024 -1.2661
  218MPD1    H2 3369   0.704   3.250  11.357 -0.2286 -0.4074  0.3008
  218MPD1    H3 3370   0.717   3.326  11.586  2.0061 -1.5739  3.9332
  218MPD1     N 3371   0.570   2.931  11.750  0.1103  0.6255 -0.1813
  218MPD1    H5 3372   0.523   2.845  11.724  0.4816  0.2893  0.2626
  218MPD1    N1 3373   0.615   3.019  11.273  0.2979  0.1438 -0.3621
  218MPD1    H6 3374   0.594   2.921  11.259 -1.0237  0.6786 -2.1391
  218MPD1    H7 3375   0.698   3.046  11.220  0.8702  0.9670  0.9274
  219MPD1     C 3376   0.454   2.010  11.887 -0.3058  0.1706  0.8503
  219MPD1    C1 3377   0.447   2.101  11.785 -0.0487 -0.4528 -0.4047
  219MPD1    C2 3378   0.435   2.237  11.825  0.4514  0.1015 -0.1124
  219MPD1    C3 3379   0.434   2.277  11.960  0.4961 -0.3021 -0.1565
  219MPD1    C4 3380   0.447   2.181  12.055 -0.3596 -0.5590 -0.0636
  219MPD1    C5 3381   0.456   2.047  12.015 -0.0890  0.2811 -0.2597
  219MPD1     H 3382   0.432   2.305  11.741 -0.0026 -0.6671 -0.7182
  219MPD1    H1 3383   0.453   2.203  12.161  0.9310 -0.6165 -0.1354
  219MPD1    H2 3384   0.459   1.903  11.870  0.8943  0.5504 -1.1786
  219MPD1    H3 3385   0.452   1.961  12.080  2.2915  0.8848  0.6914
  219MPD1     N 3386   0.406   2.407  12.006  0.1778 -0.2339 -0.6215
  219MPD1    H5 3387   0.404   2.422  12.107  3.2969  0.8084 -0.7276
  219MPD1    N1 3388   0.468   2.062  11.649  0.1292 -0.1363 -0.2110
  219MPD1    H6 3389   0.427   2.119  11.575  1.8243  3.9802  2.0429
  219MPD1    H7 3390   0.420   1.973  11.642  2.0628 -1.2543  0.8503
  220MPD1     C 3391   0.894   3.753   9.740 -0.5818  0.2533  0.8005
  220MPD1    C1 3392   0.838   3.628   9.749  0.6303  0.3484  0.0149
  220MPD1    C2 3393   0.811   3.581   9.875  1.1089 -0.6390 -0.0066
  220MPD1    C3 3394   0.833   3.657   9.988 -0.4221  0.1195 -0.7748
  220MPD1    C4 3395   0.863   3.791   9.972 -0.6638  1.0292  1.1086
  220MPD1    C5 3396   0.892   3.840   9.847  0.5104  0.4626  0.0524
  220MPD1     H 3397   0.785   3.478   9.895 -2.9718  0.7450  1.6797
  220MPD1    H1 3398   0.859   3.859  10.056 -1.2306  1.5213  0.6788
  220MPD1    H2 3399   0.924   3.797   9.646 -0.1042 -0.6030  0.5530
  220MPD1    H3 3400   0.933   3.940   9.832 -0.7371  0.9989  0.2484
  220MPD1     N 3401   0.820   3.606  10.120 -0.0719 -0.0030 -0.3555
  220MPD1    H5 3402   0.810   3.505  10.130 -2.9619  0.4304  1.0015
  220MPD1    N1 3403   0.833   3.544   9.640  0.2123  0.4430  0.2636
  220MPD1    H6 3404   0.825   3.595   9.552 -0.1220 -0.5118 -0.2568
  220MPD1    H7 3405   0.758   3.476   9.651  1.1862 -0.3896  1.6693
  221MPD1     C 3406   3.652   3.010  17.260 -0.8431  0.7125  0.1956
  221MPD1    C1 3407   3.649   2.944  17.137 -0.3401  0.0173 -0.3135
  221MPD1    C2 3408   3.756   2.949  17.053 -0.0291  0.1722 -0.4222
  221MPD1    C3 3409   3.873   3.013  17.092 -0.1329 -0.3268 -0.1313
  221MPD1    C4 3410   3.879   3.070  17.217  0.1674 -0.3211  0.3847
  221MPD1    C5 3411   3.773   3.067  17.302  0.4858  0.2080 -0.4286
  221MPD1     H 3412   3.750   2.908  16.953  1.5452 -1.6707  0.2509
  221MPD1    H1 3413   3.975   3.111  17.248  0.5119 -0.5009 -0.4423
  221MPD1    H2 3414   3.568   3.012  17.328 -0.3499  1.7648  0.7653
  221MPD1    H3 3415   3.779   3.111  17.401 -1.7830  1.0655 -0.6603
  221MPD1     N 3416   3.990   3.016  17.016 -0.1845  0.0785  0.1705
  221MPD1    H5 3417   4.069   3.043  17.074 -1.4472 -2.6761  3.1954
  221MPD1    N1 3418   3.518   2.898  17.104 -0.0782  0.0560  0.2649
  221MPD1    H6 3419   3.518   2.829  17.029 -3.0716 -0.1798  0.4794
  221MPD1    H7 3420   3.465   2.866  17.185 -1.8221  0.9183 -0.5307
  222MPD1     C 3421   3.523   1.149  17.047  0.1734  0.3579  0.2053
  222MPD1    C1 3422   3.528   1.288  17.024 -0.1695 -0.2554  0.2035
  222MPD1    C2 3423   3.458   1.371  17.109  0.5935  0.1903 -0.2743
  222MPD1    C3 3424   3.382   1.323  17.215 -0.4475 -0.4176 -0.6802
  222MPD1    C4 3425   3.383   1.186  17.230 -0.6630  0.4483  0.1259
  222MPD1    C5 3426   3.438   1.099  17.140 -0.6470  0.2282  0.6324
  222MPD1     H 3427   3.456   1.476  17.083  2.0210 -0.2159 -2.0861
  222MPD1    H1 3428   3.327   1.137  17.309  1.1351 -3.4168 -0.9401
  222MPD1    H2 3429   3.566   1.076  16.980 -1.7143 -0.4643 -0.1101
  222MPD1    H3 3430   3.431   0.991  17.151 -1.3550  0.7293  5.3891
  222MPD1     N 3431   3.314   1.398  17.313  0.6509  0.5065  0.0158
  222MPD1    H5 3432   3.261   1.347  17.383  0.4779  0.3253 -0.2491
  222MPD1    N1 3433   3.607   1.341  16.915  0.3471  0.1193  0.1598
  222MPD1    H6 3434   3.616   1.280  16.834 -0.8222  0.8234 -0.5043
  222MPD1    H7 3435   3.561   1.423  16.876  1.6514  1.9851  2.5479
  223MPD1     C 3436   3.012   1.365   0.498 -0.0932  0.0370  0.3438
  223MPD1    C1 3437   2.947   1.480   0.465 -0.1561  0.4578 -0.7389
  223MPD1    C2 3438   2.961   1.538   0.340 -0.2006 -0.4002 -0.4516
  223MPD1    C3 3439   3.026   1.462   0.239 -0.2421  0.1044  0.1614
  223MPD1    C4 3440   3.080   1.343   0.269  0.1007  0.8245  0.1233
  223MPD1    C5 3441   3.075   1.295   0.397 -0.0314  0.2129 -0.3138
  223MPD1     H 3442   2.908   1.630   0.319  0.6088 -0.0699 -1.0426
  223MPD1    H1 3443   3.122   1.276   0.195  1.5671  1.7430  0.1336
  223MPD1    H2 3444   3.014   1.314   0.593 -0.9438 -0.8064 -0.0855
  223MPD1    H3 3445   3.123   1.198   0.402 -3.5141 -1.4790  0.3802
  223MPD1     N 3446   3.029   1.521   0.109  0.2622 -0.0560  0.2649
  223MPD1    H5 3447   2.976   1.606   0.096  0.8615  0.4930  1.3364
  223MPD1    N1 3448   2.890   1.557   0.571 -0.6521 -0.1263  0.3560
  223MPD1    H6 3449   2.889   1.497   0.654  1.2707 -2.2620 -1.1630
  223MPD1    H7 3450   2.793   1.577   0.550 -0.7194 -0.8145  0.0236
  224MPD1     C 3451   0.418   2.514  10.133 -0.3850  0.1511  0.0918
  224MPD1    C1 3452   0.396   2.615  10.045  0.0691  0.5452  0.5735
  224MPD1    C2 3453   0.278   2.612   9.971  0.5659 -0.8429 -0.3818
  224MPD1    C3 3454   0.178   2.521   9.998  0.1158 -0.0970 -0.5152
  224MPD1    C4 3455   0.201   2.423  10.092  0.1036  0.4508  0.0045
  224MPD1    C5 3456   0.322   2.423  10.160  0.5229  0.3064  0.1531
  224MPD1     H 3457   0.263   2.687   9.894 -0.2696  2.0911  2.6511
  224MPD1    H1 3458   0.129   2.343  10.103 -1.6783  2.2911  1.7849
  224MPD1    H2 3459   0.515   2.497  10.179 -0.8001  0.8461  1.2252
  224MPD1    H3 3460   0.354   2.340  10.223 -0.1272 -1.0089 -1.2434
  224MPD1     N 3461   0.046   2.527   9.946 -0.2201 -0.5296 -0.2973
  224MPD1    H5 3462   4.719   2.446   9.938  0.8193 -1.4159  0.7246
  224MPD1    N1 3463   0.497   2.708  10.022  0.1943 -0.1898  0.4684
  224MPD1    H6 3464   0.452   2.799  10.024 -1.4768 -1.0037 -0.4159
  224MPD1    H7 3465   0.560   2.712  10.102 -1.4881 -2.6907  1.9291
  225MPD1     C 3466   1.173   4.133  12.174  0.2461 -0.8016 -0.8478
  225MPD1    C1 3467   1.109   4.095  12.059  0.8008  0.7616 -0.6207
  225MPD1    C2 3468   0.992   4.018  12.073  0.5326  0.7316 -0.6225
  225MPD1    C3 3469   0.925   4.021  12.190 -0.0291 -0.1979 -0.7592
  225MPD1    C4 3470   0.985   4.076  12.304 -0.4797 -0.0838  0.1784
  225MPD1    C5 3471   1.109   4.136  12.295 -0.0433  0.0526 -1.0036
  225MPD1     H 3472   0.943   3.962  11.994  1.4081 -2.2343  0.9128
  225MPD1    H1 3473   0.939   4.073  12.402  0.7416 -1.1217  0.7110
  225MPD1    H2 3474   1.277   4.165  12.166 -0.8841  3.8233  2.6939
  225MPD1    H3 3475   1.154   4.182  12.382 -0.5584 -0.1321 -0.6420
  225MPD1     N 3476   0.790   3.972  12.209 -0.3203  0.1517 -0.2283
  225MPD1    H5 3477   0.764   3.990  12.306  2.1556 -1.7575  0.8065
  225MPD1    N1 3478   1.176   4.085  11.934 -0.0779  0.6518 -0.9561
  225MPD1    H6 3479   1.116   4.088  11.852 -0.9814  0.1571 -0.3172
  225MPD1    H7 3480   1.233   4.168  11.925 -0.4687  1.3185  2.5955
  226MPD1     C 3481   2.663   2.850  10.132 -0.1983 -0.7030 -0.3496
  226MPD1    C1 3482   2.762   2.916  10.200 -0.1421  0.1310  0.0484
  226MPD1    C2 3483   2.853   3.001  10.137  0.0468 -0.7393 -0.1765
  226MPD1    C3 3484   2.852   3.012   9.996 -0.5444 -0.5507  0.5521
  226MPD1    C4 3485   2.748   2.952   9.936 -0.2779 -0.3137  0.3207
  226MPD1    C5 3486   2.664   2.869  10.003  0.5224  0.3633  0.0628
  226MPD1     H 3487   2.934   3.039  10.197 -0.2145 -0.3209 -0.0902
  226MPD1    H1 3488   2.728   2.965   9.830  2.4367  1.6730  0.0456
  226MPD1    H2 3489   2.591   2.783  10.176  0.8659 -1.4966  0.2005
  226MPD1    H3 3490   2.589   2.815   9.947 -0.0951  1.7079 -0.4051
  226MPD1     N 3491   2.948   3.086   9.932 -0.2110  0.7313 -0.8603
  226MPD1    H5 3492   3.012   3.132   9.997  1.7710 -1.5821 -1.1832
  226MPD1    N1 3493   2.779   2.896  10.338  0.5517 -0.3550  0.2821
  226MPD1    H6 3494   2.689   2.863  10.372  0.5009 -0.3566  0.1475
  226MPD1    H7 3495   2.828   2.965  10.394  0.2043  0.2422 -0.1384
  227MPD1     C 3496   3.701   3.662  10.152 -0.6176  0.4927 -0.0414
  227MPD1    C1 3497   3.737   3.631  10.017 -0.1594 -0.2219  0.6767
  227MPD1    C2 3498   3.643   3.582   9.930  0.2444 -0.2525 -0.2038
  227MPD1    C3 3499   3.517   3.544   9.969  0.5239 -0.4533 -0.4999
  227MPD1    C4 3500   3.484   3.566  10.101 -0.1821 -0.2276  0.4713
  227MPD1    C5 3501   3.570   3.628  10.188  0.0130  0.1106 -0.1095
  227MPD1     H 3502   3.668   3.570   9.826  1.4857  2.7203 -0.2739
  227MPD1    H1 3503   3.388   3.538  10.143 -0.6046 -2.4891 -1.9822
  227MPD1    H2 3504   3.767   3.716  10.218  2.0654 -1.8697 -0.7847
  227MPD1    H3 3505   3.547   3.649  10.292 -0.8582  0.1136 -0.3062
  227MPD1     N 3506   3.428   3.471   9.880 -0.1196  0.1376 -0.0769
  227MPD1    H5 3507   3.455   3.445   9.786  0.4962 -0.1960  0.1956
  227MPD1    N1 3508   3.863   3.668   9.975 -0.4486  0.2246 -0.4392
  227MPD1    H6 3509   3.894   3.615   9.894 -0.8264  0.4557 -0.7374
  227MPD1    H7 3510   3.932   3.650  10.047 -1.5630 -0.9228  0.3478
  228MPD1     C 3511   3.111   1.532  13.199 -0.5758  0.0394  0.6179
  228MPD1    C1 3512   3.038   1.571  13.093  0.3272  0.4266 -1.3731
  228MPD1    C2 3513   2.903   1.576  13.102  0.2020  0.2277  0.1207
  228MPD1    C3 3514   2.834   1.550  13.217 -0.3223 -0.2356 -0.1765
  228MPD1    C4 3515   2.907   1.531  13.334 -0.2680 -0.4937 -1.0285
  228MPD1    C5 3516   3.039   1.524  13.317 -0.1945  0.6615 -0.4665
  228MPD1     H 3517   2.837   1.608  13.023 -0.2554  0.5579  0.6368
  228MPD1    H1 3518   2.875   1.516  13.437 -0.6255 -0.6469 -1.1620
  228MPD1    H2 3519   3.220   1.535  13.201 -0.5289 -0.1284 -1.2338
  228MPD1    H3 3520   3.115   1.516  13.394 -1.4891  0.1727  0.7484
  228MPD1     N 3521   2.692   1.561  13.211 -0.5348 -0.0474  0.4119
  228MPD1    H5 3522   2.651   1.590  13.123  1.6170 -0.2962 -0.6730
  228MPD1    N1 3523   3.101   1.618  12.978  0.7428  0.2999 -0.2202
  228MPD1    H6 3524   3.189   1.569  12.966  1.0016  1.1226 -1.5898
  228MPD1    H7 3525   3.042   1.601  12.897  0.7574 -1.1480  0.0762
  229MPD1     C 3526   2.471   0.223  15.597 -0.3925  0.2954  0.8876
  229MPD1    C1 3527   2.464   0.343  15.532  0.7588  0.3565  0.4887
  229MPD1    C2 3528   2.405   0.338  15.405  0.8315  0.7863 -0.3009
  229MPD1    C3 3529   2.390   0.213  15.350 -0.1324 -0.0196  0.3129
  229MPD1    C4 3530   2.393   0.096  15.419  0.0861  0.4618 -0.7405
  229MPD1    C5 3531   2.426   0.107  15.552  0.8451  0.0120 -0.4588
  229MPD1     H 3532   2.377   0.432  15.360  0.9163  1.2896  0.7048
  229MPD1    H1 3533   2.369   4.734  15.376 -1.2223 -0.5880  2.3711
  229MPD1    H2 3534   2.513   0.209  15.696  1.7753 -3.0837 -0.5241
  229MPD1    H3 3535   2.432   0.013  15.606  0.5109  0.0427 -0.3735
  229MPD1     N 3536   2.351   0.198  15.211  0.0235  0.6903 -0.1476
  229MPD1    H5 3537   2.323   0.107  15.175 -2.1191  0.4956  2.0388
  229MPD1    N1 3538   2.489   0.464  15.605  0.1201 -0.6294  0.1839
  229MPD1    H6 3539   2.574   0.449  15.659 -1.3839 -0.8363  2.4910
  229MPD1    H7 3540   2.505   0.537  15.535 -1.8845  1.9380  2.4327
  230MPD1     C 3541   1.724   0.626  14.583 -0.5403  0.4840  0.4389
  230MPD1    C1 3542   1.809   0.690  14.665  0.1647  0.1093  0.5892
  230MPD1    C2 3543   1.918   0.620  14.709 -0.2194  0.0408 -0.1314
  230MPD1    C3 3544   1.938   0.487  14.676 -0.3175  0.2429 -0.4233
  230MPD1    C4 3545   1.854   0.430  14.590  0.5895 -0.4920 -1.0306
  230MPD1    C5 3546   1.748   0.499  14.540  0.1930  0.0629 -0.2729
  230MPD1     H 3547   1.976   0.668  14.787 -2.1577 -0.0122  1.3592
  230MPD1    H1 3548   1.877   0.328  14.561 -1.7476 -1.1711 -0.5102
  230MPD1    H2 3549   1.637   0.680  14.546 -1.2526 -1.5180 -0.8006
  230MPD1    H3 3550   1.677   0.459  14.468  0.9633  0.9437 -1.5135
  230MPD1     N 3551   2.061   0.430  14.726  0.0170  0.3116  0.7111
  230MPD1    H5 3552   2.116   0.481  14.794  0.8200 -0.1720  0.4226
  230MPD1    N1 3553   1.784   0.815  14.734 -0.8208 -0.1648 -0.0806
  230MPD1    H6 3554   1.757   0.871  14.653 -0.0179  1.6460  0.9148
  230MPD1    H7 3555   1.865   0.860  14.776  0.1665 -1.7609 -0.2952
  231MPD1     C 3556   0.531   2.244  15.283  0.0240 -0.3700 -0.8077
  231MPD1    C1 3557   0.494   2.269  15.147  0.2869 -0.4667 -0.5489
  231MPD1    C2 3558   0.582   2.323  15.060 -0.9833 -0.5159  0.6110
  231MPD1    C3 3559   0.710   2.371  15.114 -0.3136  0.4723 -0.3181
  231MPD1    C4 3560   0.739   2.348  15.244  0.1335  0.1297 -0.0868
  231MPD1    C5 3561   0.657   2.278  15.323  0.3701 -0.3007 -0.0965
  231MPD1     H 3562   0.583   2.332  14.952 -0.0073  0.6655  0.7134
  231MPD1    H1 3563   0.835   2.374  15.289 -0.8823 -2.1432  3.4150
  231MPD1    H2 3564   0.468   2.193  15.355  0.9416 -1.2573 -0.6420
  231MPD1    H3 3565   0.684   2.258  15.427  0.8612 -0.6316 -0.2877
  231MPD1     N 3566   0.804   2.424  15.024 -0.3843  0.0157  0.3887
  231MPD1    H5 3567   0.776   2.438  14.928  1.0091 -2.2037 -0.3458
  231MPD1    N1 3568   0.369   2.215  15.108  0.6509 -0.9594  0.3394
  231MPD1    H6 3569   0.322   2.251  15.025 -0.2747  1.6560  2.0101
  231MPD1    H7 3570   0.300   2.214  15.182  0.2310 -0.2201 -0.0470
  232MPD1     C 3571   2.782   4.685  17.658  0.0399 -0.4223  0.6976
  232MPD1    C1 3572   2.719   4.592   0.004 -0.2097  0.0498 -0.3656
  232MPD1    C2 3573   2.588   4.570  17.706 -0.2321 -0.2518 -0.0886
  232MPD1    C3 3574   2.517   4.628  17.598 -0.8422  0.4352 -0.1953
  232MPD1    C4 3575   2.579   4.728  17.529  0.5115 -0.0522  0.0578
  232MPD1    C5 3576   2.717   0.014  17.562  0.8083  0.5331 -0.2618
  232MPD1     H 3577   2.532   4.504   0.034  1.7706  1.1974  3.0604
  232MPD1    H1 3578   2.525   0.057  17.460  1.2143  0.3268 -0.1479
  232MPD1    H2 3579   2.878   4.727  17.684 -0.9009  1.0470  1.8337
  232MPD1    H3 3580   2.765   0.101  17.518 -0.1063  0.4544 -1.4130
  232MPD1     N 3581   2.384   4.590  17.567 -0.3005 -0.5369  0.0588
  232MPD1    H5 3582   2.350   4.515  17.627  1.3641 -1.5240 -0.2599
  232MPD1    N1 3583   2.765   4.557   0.136 -0.0408  0.3256 -0.0030
  232MPD1    H6 3584   2.864   4.533   0.128  0.6848  2.4107  2.7373
  232MPD1    H7 3585   2.714   4.477   0.172 -0.3428  0.4715 -0.1086
  233MPD1     C 3586   2.882   2.154   1.942  1.0092 -0.4049  0.1547
  233MPD1    C1 3587   2.869   2.174   1.808  0.0039 -0.5191 -0.4860
  233MPD1    C2 3588   2.899   2.303   1.762 -0.0997 -0.6299 -0.3379
  233MPD1    C3 3589   2.935   2.403   1.853 -0.1129 -0.0511  0.0595
  233MPD1    C4 3590   2.934   2.376   1.990  0.0077 -0.2826 -0.0981
  233MPD1    C5 3591   2.907   2.249   2.035  0.1688  0.0124 -0.7186
  233MPD1     H 3592   2.910   2.327   1.657  0.6919  1.4448  0.2274
  233MPD1    H1 3593   2.969   2.452   2.059 -0.0819 -0.9824  0.7330
  233MPD1    H2 3594   2.878   2.051   1.976  0.2152 -0.8123 -1.1590
  233MPD1    H3 3595   2.925   2.222   2.138 -2.2042 -0.3518 -0.3982
  233MPD1     N 3596   2.972   2.531   1.811  0.5402 -0.3939 -0.3039
  233MPD1    H5 3597   3.007   2.586   1.889  0.6975 -1.6590  0.5225
  233MPD1    N1 3598   2.853   2.063   1.720 -0.3037  0.2181 -0.2657
  233MPD1    H6 3599   2.803   1.987   1.766 -1.2549  1.2170  0.3579
  233MPD1    H7 3600   2.829   2.082   1.623  1.3146  0.5459 -0.6064
  234MPD1     C 3601   4.531   1.067   8.782 -0.3171  0.5833 -0.2876
  234MPD1    C1 3602   4.550   1.092   8.911  0.7085  0.1779  0.3145
  234MPD1    C2 3603   4.497   1.209   8.964  0.3812 -1.1714 -0.1998
  234MPD1    C3 3604   4.425   1.301   8.888 -0.4508  0.6237 -0.3486
  234MPD1    C4 3605   4.396   1.272   8.760 -0.0524  0.2271  0.4161
  234MPD1    C5 3606   4.451   1.156   8.709  0.2702  0.2843  0.7120
  234MPD1     H 3607   4.500   1.235   9.069  0.8009 -1.0101 -0.2506
  234MPD1    H1 3608   4.343   1.346   8.701  2.4204  1.8841  0.2799
  234MPD1    H2 3609   4.573   0.981   8.730  1.1952  1.0240  0.1929
  234MPD1    H3 3610   4.439   1.137   8.603 -0.2749  1.1581  0.6146
  234MPD1     N 3611   4.393   1.423   8.954 -0.1533 -0.0178 -0.4188
  234MPD1    H5 3612   4.420   1.441   9.050  1.0830  0.3428 -0.8249
  234MPD1    N1 3613   4.640   1.003   8.981 -0.4047  0.3076  0.4587
  234MPD1    H6 3614   4.625   0.911   8.940 -0.7398 -0.3167  1.9724
  234MPD1    H7 3615   4.620   1.005   9.081  2.0746 -0.1987  0.9484
  235MPD1     C 3616   1.248   3.585  10.289  0.1229  0.2751  0.4739
  235MPD1    C1 3617   1.178   3.646  10.191 -0.5204 -0.1538 -0.2376
  235MPD1    C2 3618   1.181   3.786  10.178 -0.1495  0.1085  1.2565
  235MPD1    C3 3619   1.253   3.860  10.278  0.5368 -0.9139  0.2523
  235MPD1    C4 3620   1.305   3.797  10.387  0.4371 -0.0877  0.2420
  235MPD1    C5 3621   1.301   3.657  10.386 -0.1467  0.4844  0.4908
  235MPD1     H 3622   1.121   3.836  10.104  3.1628  1.4220 -0.5324
  235MPD1    H1 3623   1.352   3.843  10.473  0.5689 -1.0487  0.6868
  235MPD1    H2 3624   1.254   3.478  10.304  0.9261  0.2583  0.0547
  235MPD1    H3 3625   1.328   3.603  10.476 -0.8366  1.5376  1.3246
  235MPD1     N 3626   1.272   3.999  10.249 -0.0449  0.1218  0.3582
  235MPD1    H5 3627   1.242   4.039  10.161  0.6150 -0.9498 -0.3592
  235MPD1    N1 3628   1.111   3.568  10.097 -0.3066 -0.1875 -0.4350
  235MPD1    H6 3629   1.085   3.474  10.126  1.6976  0.6844  4.2439
  235MPD1    H7 3630   1.023   3.610  10.067  0.3232  1.2612 -0.2803
  236MPD1     C 3631   4.552   1.172   9.823  0.9721  0.3658  0.2159
  236MPD1    C1 3632   4.548   1.054   9.754 -0.8923 -0.5435 -0.7468
  236MPD1    C2 3633   4.634   0.954   9.787  0.5240 -0.2760  0.1330
  236MPD1    C3 3634   0.010   0.981   9.862 -0.6590  0.1518 -0.1902
  236MPD1    C4 3635   0.022   1.103   9.922 -0.1823  0.2652  0.4577
  236MPD1    C5 3636   4.653   1.197   9.905 -0.0546  0.1494  0.0034
  236MPD1     H 3637   4.620   0.851   9.756 -2.2282  0.3635 -0.7588
  236MPD1    H1 3638   0.106   1.116   9.988 -2.1276  1.2995  2.7240
  236MPD1    H2 3639   4.471   1.244   9.816 -2.9650 -4.0141  0.8736
  236MPD1    H3 3640   4.667   1.287   9.964  0.4645  1.2658 -1.8364
  236MPD1     N 3641   0.107   0.882   9.888  0.5454 -0.0872 -0.4446
  236MPD1    H5 3642   0.182   0.912   9.949  0.4594 -0.6926 -0.0501
  236MPD1    N1 3643   4.430   1.039   9.671 -0.1907  0.0686  0.0436
  236MPD1    H6 3644   4.390   1.125   9.633 -4.1666 -0.6995  2.4757
  236MPD1    H7 3645   4.440   0.962   9.606 -1.0467 -0.9301  1.1131
  237MPD1     C 3646   1.779   3.481  14.752 -0.0329 -0.6081 -0.5222
  237MPD1    C1 3647   1.779   3.508  14.886  0.1000  0.3845  0.5788
  237MPD1    C2 3648   1.666   3.478  14.949 -0.1597  0.1256  0.0961
  237MPD1    C3 3649   1.548   3.436  14.881  0.5100  0.7816  0.1632
  237MPD1    C4 3650   1.554   3.421  14.747 -0.0537  0.1943 -0.6432
  237MPD1    C5 3651   1.672   3.442  14.684  0.2732  0.3929  0.1895
  237MPD1     H 3652   1.667   3.498  15.055  1.0691  4.2631 -0.7268
  237MPD1    H1 3653   1.462   3.394  14.695 -1.2053 -0.2952  1.6517
  237MPD1    H2 3654   1.867   3.499  14.692 -0.0436  0.4034 -0.2392
  237MPD1    H3 3655   1.680   3.436  14.577 -0.9427  1.8962  0.0124
  237MPD1     N 3656   1.425   3.406  14.941 -0.1650  0.4606  0.4347
  237MPD1    H5 3657   1.349   3.386  14.877  0.8358  1.9392 -1.2006
  237MPD1    N1 3658   1.906   3.528  14.950 -0.2978  0.2300  0.5052
  237MPD1    H6 3659   1.903   3.559  15.047 -0.5995  0.2625  0.4848
  237MPD1    H7 3660   1.966   3.577  14.883 -1.7649  0.9168 -0.2887
  238MPD1     C 3661   2.010   0.958  14.368  0.1426  0.4566 -0.1177
  238MPD1    C1 3662   2.052   0.996  14.493 -0.3928  0.3467 -0.1905
  238MPD1    C2 3663   2.093   1.132  14.512  0.1482 -0.6876 -0.4481
  238MPD1    C3 3664   2.091   1.219  14.402 -0.1658 -0.1041  0.0082
  238MPD1    C4 3665   2.038   1.177  14.278  1.2858 -0.1273 -0.5032
  238MPD1    C5 3666   1.992   1.051  14.269 -0.4800 -0.4954  0.0775
  238MPD1     H 3667   2.117   1.170  14.611  1.0632  2.1295 -1.7482
  238MPD1    H1 3668   2.031   1.236  14.187  3.5318 -1.8094 -1.7567
  238MPD1    H2 3669   1.997   0.855  14.336  0.9409  0.6714 -1.1106
  238MPD1    H3 3670   1.952   1.020  14.173 -0.0193 -1.8157  0.3070
  238MPD1     N 3671   2.152   1.348  14.412  0.5055  1.2129 -0.4758
  238MPD1    H5 3672   2.132   1.407  14.332  1.1516 -1.9272 -2.9461
  238MPD1    N1 3673   2.065   0.900  14.596  0.1993 -0.1998  0.1598
  238MPD1    H6 3674   2.032   0.806  14.575  0.1727  0.5300 -3.0390
  238MPD1    H7 3675   2.047   0.922  14.694 -1.2996 -0.2672 -0.1004
  239MPD1     C 3676   2.990   2.633  15.064 -0.2192  0.0142  0.1628
  239MPD1    C1 3677   3.057   2.698  14.969 -0.3070 -0.2446 -0.2181
  239MPD1    C2 3678   2.989   2.756  14.865  0.9546 -0.6414 -0.1209
  239MPD1    C3 3679   2.850   2.744  14.853  0.1179 -0.1366  0.0209
  239MPD1    C4 3680   2.785   2.700  14.967 -0.1366  0.1302 -0.7550
  239MPD1    C5 3681   2.851   2.641  15.069 -0.5455 -0.0972 -0.4341
  239MPD1     H 3682   3.041   2.805  14.784 -0.9146 -1.4143 -1.7849
  239MPD1    H1 3683   2.677   2.705  14.981 -0.4034  1.6016 -3.3312
  239MPD1    H2 3684   3.044   2.585  15.144  2.1667  1.5539 -0.5002
  239MPD1    H3 3685   2.794   2.601  15.152  0.7180 -2.6751 -0.8044
  239MPD1     N 3686   2.778   2.800  14.741 -0.3194  0.3384 -0.0495
  239MPD1    H5 3687   2.677   2.801  14.746 -0.2220  0.3417  1.9399
  239MPD1    N1 3688   3.201   2.687  14.970  0.2698  0.0265 -0.0712
  239MPD1    H6 3689   3.241   2.776  14.941 -0.0190  0.1244 -0.1743
  239MPD1    H7 3690   3.245   2.671  15.060  0.5713 -1.3147 -0.4527
  240MPD1     C 3691   1.883   2.865  13.780 -0.3987  0.1727  0.3147
  240MPD1    C1 3692   1.886   2.755  13.699 -0.1198 -0.7961 -0.3115
  240MPD1    C2 3693   1.975   2.652  13.721  0.1929  0.4232  0.0845
  240MPD1    C3 3694   2.047   2.653  13.842  1.5180  0.3959 -0.1138
  240MPD1    C4 3695   2.039   2.762  13.932 -0.2038 -0.1256  0.4786
  240MPD1    C5 3696   1.957   2.868  13.898  0.2977  0.4359  0.3390
  240MPD1     H 3697   1.984   2.569  13.652  0.7585 -1.4499  2.4040
  240MPD1    H1 3698   2.077   2.753  14.033 -0.5688 -0.7321  0.5659
  240MPD1    H2 3699   1.827   2.952  13.747 -0.4451 -0.2593 -0.7439
  240MPD1    H3 3700   1.936   2.938  13.977 -0.2562 -1.2541  1.6896
  240MPD1     N 3701   2.108   2.535  13.882  0.2763 -0.3770  0.1936
  240MPD1    H5 3702   2.074   2.452  13.836  0.8362 -0.8944  0.7091
  240MPD1    N1 3703   1.814   2.752  13.581  0.1930 -0.1678 -0.0219
  240MPD1    H6 3704   1.719   2.785  13.598 -0.2397 -2.3954  1.7823
  240MPD1    H7 3705   1.800   2.654  13.558  0.2248 -0.3049  0.5616
  241MPD1     C 3706   2.798   2.229  14.554 -0.1430 -0.2036 -0.1985
  241MPD1    C1 3707   2.681   2.169  14.601  0.3491  0.2194  0.2581
  241MPD1    C2 3708   2.560   2.170  14.525  0.0479 -0.1380 -0.2418
  241MPD1    C3 3709   2.574   2.228  14.399 -0.1116  0.3133 -0.0745
  241MPD1    C4 3710   2.686   2.279  14.349 -0.1295 -0.3216  0.0230
  241MPD1    C5 3711   2.803   2.279  14.422 -0.1441 -0.2465  0.6422
  241MPD1     H 3712   2.469   2.136  14.573  0.6304  0.7159  1.4519
  241MPD1    H1 3713   2.677   2.328  14.252  1.9563  0.4105  0.1883
  241MPD1    H2 3714   2.890   2.232  14.611  2.2552 -1.7670 -3.9495
  241MPD1    H3 3715   2.886   2.336  14.382 -1.9584  1.2548 -0.9959
  241MPD1     N 3716   2.465   2.246  14.314 -0.6260  0.3306 -0.1203
  241MPD1    H5 3717   2.486   2.301  14.231 -0.5841  0.5275  0.0212
  241MPD1    N1 3718   2.676   2.138  14.732 -0.0101  0.5621 -0.0049
  241MPD1    H6 3719   2.604   2.068  14.745  1.9047 -1.0613  1.7763
  241MPD1    H7 3720   2.763   2.095  14.763 -0.2257 -0.3181 -0.6283
  242MPD1     C 3721   1.803   1.809  15.625 -0.0103  0.2165 -0.2754
  242MPD1    C1 3722   1.717   1.800  15.519  0.2407 -0.1108  0.1689
  242MPD1    C2 3723   1.700   1.680  15.452  0.2068  0.3238 -0.2474
  242MPD1    C3 3724   1.780   1.570  15.463  0.1459 -0.3802 -0.0744
  242MPD1    C4 3725   1.869   1.581  15.568  0.4212 -0.1426 -0.7041
  242MPD1    C5 3726   1.881   1.701  15.642  0.1930  0.2230 -0.3168
  242MPD1     H 3727   1.609   1.672  15.393  0.4320  2.7790 -0.9432
  242MPD1    H1 3728   1.929   1.496  15.596 -0.5729 -0.6123 -0.0413
  242MPD1    H2 3729   1.810   1.894  15.693 -0.4747  1.2915 -1.5838
  242MPD1    H3 3730   1.954   1.706  15.722  0.0201  0.6525 -0.1891
  242MPD1     N 3731   1.762   1.445  15.392  0.6196 -0.4994 -0.2498
  242MPD1    H5 3732   1.824   1.371  15.425  0.4263 -0.5049  0.0989
  242MPD1    N1 3733   1.614   1.895  15.504 -0.1928  0.0832  0.2084
  242MPD1    H6 3734   1.577   1.904  15.410  1.1551  0.6198 -0.2699
  242MPD1    H7 3735   1.649   1.984  15.539  1.5799 -0.4791 -0.1676
  243MPD1     C 3736   2.741   4.290  17.526 -0.0714  0.0729  0.1347
  243MPD1    C1 3737   2.830   4.196  17.577  0.2000  0.0574 -0.0866
  243MPD1    C2 3738   2.962   4.209  17.539  0.0802 -0.7848  0.4399
  243MPD1    C3 3739   3.003   4.303  17.443  0.4251 -0.7856  0.0914
  243MPD1    C4 3740   2.917   4.403  17.409 -0.3107 -0.4281 -0.5370
  243MPD1    C5 3741   2.780   4.386  17.433 -0.2343 -0.1464 -0.7361
  243MPD1     H 3742   3.045   4.151  17.579  0.0897 -0.5244  0.7967
  243MPD1    H1 3743   2.950   4.492  17.356 -0.4508 -1.2910 -2.0642
  243MPD1    H2 3744   2.635   4.276  17.545 -0.2379 -0.8687 -1.4958
  243MPD1    H3 3745   2.711   4.455  17.385 -0.7693 -1.8573 -2.3965
  243MPD1     N 3746   3.149   4.313  17.427 -0.3563 -0.3641 -0.6236
  243MPD1    H5 3747   3.207   4.245  17.474 -0.6960 -1.2551 -1.4740
  243MPD1    N1 3748   2.775   4.093  17.646 -0.5077 -0.2249  0.1145
  243MPD1    H6 3749   2.773   4.004  17.596 -4.1030  0.0269 -0.1740
  243MPD1    H7 3750   2.679   4.101  17.680 -1.4483 -1.4293 -2.2520
  244MPD1     C 3751   4.004   4.036   0.072 -0.3325  0.4829  0.4414
  244MPD1    C1 3752   4.041   4.168   0.051  0.2550 -0.1562 -0.1869
  244MPD1    C2 3753   3.945   4.252   0.008  0.0292  0.7975  0.7280
  244MPD1    C3 3754   3.827   4.205  17.691  0.1402  0.4312  0.1732
  244MPD1    C4 3755   3.794   4.070  17.709 -0.0585 -0.1498  0.3196
  244MPD1    C5 3756   3.879   3.989   0.033 -0.1195 -0.1550 -0.1602
  244MPD1     H 3757   3.968   4.358   0.010 -2.1682  1.2729  0.5420
  244MPD1    H1 3758   3.706   4.030  17.658 -0.5223  1.1659  0.0634
  244MPD1    H2 3759   4.066   3.966   0.126  1.0064  0.5355 -1.0182
  244MPD1    H3 3760   3.856   3.883   0.030 -1.1860  0.0869 -0.7570
  244MPD1     N 3761   3.744   4.295  17.618 -0.0798  0.4301 -0.3680
  244MPD1    H5 3762   3.787   4.383  17.592 -1.3652  0.9366 -0.7838
  244MPD1    N1 3763   4.168   4.212   0.100 -0.1318 -0.3672  0.3515
  244MPD1    H6 3764   4.193   4.302   0.059  1.8816 -1.7093 -1.3910
  244MPD1    H7 3765   4.246   4.147   0.092 -0.9873 -1.3170 -0.2491
  245MPD1     C 3766   4.454   0.053  13.008  0.0716  0.0530  0.1884
  245MPD1    C1 3767   4.398   0.142  13.101  0.6237  0.1609  0.1577
  245MPD1    C2 3768   4.474   0.251  13.140 -0.0656  0.7050  0.0156
  245MPD1    C3 3769   4.586   0.289  13.069  0.3356 -0.0538  0.1962
  245MPD1    C4 3770   4.643   0.193  12.985  0.1120  0.1180  0.5932
  245MPD1    C5 3771   4.578   0.082  12.950 -0.0043 -0.2798 -0.0563
  245MPD1     H 3772   4.426   0.310  13.218  2.3650 -0.7833  2.6248
  245MPD1    H1 3773   0.011   0.203  12.952 -0.3077 -1.7228 -1.3143
  245MPD1    H2 3774   4.406   4.693  12.984  0.7092 -0.1165 -0.4192
  245MPD1    H3 3775   4.622   4.728  12.906 -0.1430  0.3156 -1.3998
  245MPD1     N 3776   4.644   0.416  13.100  0.0630  0.8494  0.5035
  245MPD1    H5 3777   4.619   0.459  13.189 -0.7592 -0.0170  0.6905
  245MPD1    N1 3778   4.274   0.117  13.173  0.3616 -0.6295  0.0030
  245MPD1    H6 3779   4.205   0.057  13.127  0.5817 -2.0721  1.5289
  245MPD1    H7 3780   4.224   0.198  13.208  0.8311 -0.5676  0.5288
  246MPD1     C 3781   1.239   2.184   9.731  0.0262 -0.0526 -0.2408
  246MPD1    C1 3782   1.226   2.061   9.672 -0.0995  0.8186 -0.9466
  246MPD1    C2 3783   1.244   1.949   9.750  0.4300  0.0214 -0.1535
  246MPD1    C3 3784   1.298   1.956   9.877  1.1222 -0.1455  0.7521
  246MPD1    C4 3785   1.320   2.078   9.926 -0.0004  0.6165  0.1955
  246MPD1    C5 3786   1.284   2.192   9.864  0.0156 -0.4299 -0.8044
  246MPD1     H 3787   1.218   1.853   9.707 -0.0216 -0.2978  0.8333
  246MPD1    H1 3788   1.380   2.093  10.016  0.7536  0.3581 -0.2683
  246MPD1    H2 3789   1.217   2.274   9.675  1.3960  0.0085 -0.6845
  246MPD1    H3 3790   1.316   2.289   9.900  1.2317 -1.5207  1.0270
  246MPD1     N 3791   1.313   1.838   9.953  1.0130 -0.5442 -0.2893
  246MPD1    H5 3792   1.278   1.759   9.899 -2.3115  0.5897  0.2367
  246MPD1    N1 3793   1.163   2.051   9.552  0.2780  0.3915  0.1213
  246MPD1    H6 3794   1.196   1.964   9.509  0.0323  0.3537  0.0046
  246MPD1    H7 3795   1.211   2.124   9.501 -1.9756  2.5590  1.1167
  247MPD1     C 3796   4.106   4.267  15.842  0.4996 -0.1580  0.6620
  247MPD1    C1 3797   4.002   4.352  15.858  0.6137 -0.4782  0.0520
  247MPD1    C2 3798   4.007   4.474  15.794 -0.7478 -0.0830 -0.2277
  247MPD1    C3 3799   4.122   4.510  15.719 -0.8151 -0.2080 -0.2258
  247MPD1    C4 3800   4.223   4.418  15.717 -0.2307  0.2092  0.3169
  247MPD1    C5 3801   4.214   4.295  15.769  0.4057  0.1490 -0.3832
  247MPD1     H 3802   3.933   4.551  15.815 -0.0716  0.4575  0.1494
  247MPD1    H1 3803   4.312   4.439  15.660  0.1830 -1.5218  0.3284
  247MPD1    H2 3804   4.103   4.173  15.896 -0.1287 -0.4159  0.1859
  247MPD1    H3 3805   4.289   4.217  15.769 -0.6054 -0.8300  0.5174
  247MPD1     N 3806   4.142   4.640  15.656  0.0766  0.0199  0.5217
  247MPD1    H5 3807   4.235   4.661  15.622 -0.0231  1.5817  1.2382
  247MPD1    N1 3808   3.903   4.327  15.949 -0.3683  0.3331 -0.0914
  247MPD1    H6 3809   3.886   4.229  15.968  3.9182 -0.7717 -1.9334
  247MPD1    H7 3810   3.818   4.380  15.929  0.1736  0.7633 -1.2431
  248MPD1     C 3811   2.034   3.476   0.313 -0.7829 -0.5834 -0.3172
  248MPD1    C1 3812   2.024   3.467   0.450 -0.0036 -0.3033  0.2369
  248MPD1    C2 3813   1.945   3.565   0.514 -0.4028 -0.0101 -0.3627
  248MPD1    C3 3814   1.862   3.650   0.438  0.2191 -0.3081 -0.1896
  248MPD1    C4 3815   1.868   3.650   0.299 -0.0382  0.0635  0.0417
  248MPD1    C5 3816   1.957   3.567   0.239 -0.0466 -0.0291  0.6239
  248MPD1     H 3817   1.934   3.562   0.622 -1.2327  2.2692 -0.3785
  248MPD1    H1 3818   1.812   3.717   0.235 -1.8877 -0.4983  1.0804
  248MPD1    H2 3819   2.096   3.404   0.261 -1.4087 -1.3790  0.0444
  248MPD1    H3 3820   1.969   3.563   0.131 -1.4022 -1.0506  0.5011
  248MPD1     N 3821   1.764   3.728   0.508  0.0107 -0.5916  0.0089
  248MPD1    H5 3822   1.757   3.706   0.607  2.1031 -0.4244  0.2015
  248MPD1    N1 3823   2.111   3.382   0.523  0.1763  0.1740 -1.2314
  248MPD1    H6 3824   2.122   3.292   0.477 -2.4118 -1.5572  1.5391
  248MPD1    H7 3825   2.086   3.372   0.621  0.6694  3.2418 -0.7889
  249MPD1     C 3826   2.290   3.331  11.474  0.7212 -0.0609  0.6120
  249MPD1    C1 3827   2.372   3.346  11.370 -0.1315 -0.0251 -0.6546
  249MPD1    C2 3828   2.312   3.354  11.245  0.3813 -0.1613  1.1823
  249MPD1    C3 3829   2.191   3.298  11.221  0.6338 -0.4951 -0.0640
  249MPD1    C4 3830   2.117   3.255  11.332 -0.8249  0.0031  0.7383
  249MPD1    C5 3831   2.161   3.286  11.459  0.2787 -0.0327  0.3053
  249MPD1     H 3832   2.365   3.392  11.159 -2.2049  0.4850 -0.1363
  249MPD1    H1 3833   2.020   3.207  11.332 -0.7733 -0.1193 -1.2890
  249MPD1    H2 3834   2.318   3.362  11.574  1.6578 -1.8669  0.9148
  249MPD1    H3 3835   2.099   3.278  11.547  0.8332  0.1941  0.7172
  249MPD1     N 3836   2.139   3.295  11.087  0.0287 -0.1711  0.2611
  249MPD1    H5 3837   2.204   3.321  11.014  0.6039 -1.1228  0.4370
  249MPD1    N1 3838   2.494   3.411  11.387  0.6770 -0.5675  0.5241
  249MPD1    H6 3839   2.547   3.372  11.464  1.8406 -1.6598 -0.8310
  249MPD1    H7 3840   2.557   3.401  11.307 -0.1924  2.9357 -0.6041
  250MPD2     C 3841   3.951   3.259  12.886  0.6743 -0.4371  1.0310
  250MPD2    C1 3842   3.842   3.337  12.918 -0.1972  0.2258 -0.3287
  250MPD2    C2 3843   3.717   3.283  12.921  0.4536 -0.3601 -0.1114
  250MPD2    C3 3844   3.695   3.154  12.878  1.1655  0.2864 -0.0243
  250MPD2    C4 3845   3.807   3.076  12.839  0.0621  0.3136  0.4985
  250MPD2    C5 3846   3.933   3.132  12.839 -0.0171 -0.2178  0.5822
  250MPD2     H 3847   3.639   3.346  12.962 -0.7768 -0.3948 -2.3659
  250MPD2    H1 3848   3.789   2.974  12.807 -0.0911  0.0853  1.3274
  250MPD2    H2 3849   4.052   3.300  12.884  0.2395  0.6920  2.0300
  250MPD2    H3 3850   4.018   3.076  12.803  0.7006  0.4941  1.1713
  250MPD2     N 3851   3.569   3.086  12.880 -0.2766 -0.7109  0.4578
  250MPD2    H5 3852   3.561   2.992  12.842 -0.9188 -0.7020  0.5656
  250MPD2    N1 3853   3.870   3.469  12.968  0.3230  0.5009 -0.5509
  250MPD2    H7 3854   3.971   3.484  12.970  0.2907  0.7004 -0.3642
  251TMC3    C1 3855   3.854   3.682  13.072  0.1098  0.4372 -0.4141
  251TMC3    C2 3856   3.786   3.763  13.148  0.0594  0.4109 -0.1148
  251TMC3    C3 3857   3.824   3.893  13.155  0.4294 -0.4926 -0.2134
  251TMC3    C4 3858   3.966   3.723  13.002 -0.1319  0.2443  0.0937
  251TMC3    C5 3859   3.996   3.855  12.991  0.2286 -0.0161  0.5237
  251TMC3    C6 3860   3.925   3.942  13.075  0.1335 -0.9198  0.1397
  251TMC3     C 3861   3.785   3.568  13.022 -0.1916  0.2566 -0.0208
  251TMC3     O 3862   3.664   3.579  13.036  0.0827  0.2737  0.3320
  251TMC3     H 3863   3.697   3.728  13.199  1.1558  0.5238  1.9012
  251TMC3    H1 3864   4.014   3.657  12.930  1.1218  1.0213  0.2100
  251TMC3    H2 3865   3.960   4.044  13.081 -0.7904 -0.4972 -1.5488
  251TMC3    C7 3866   4.119   3.900  12.930 -0.8876 -0.1892 -0.7097
  251TMC3    C8 3867   3.724   3.993  13.207  0.1384 -0.6512  0.3723
  251TMC3    O1 3868   4.190   3.814  12.887 -0.0860 -0.3101 -0.1530
  251TMC3    O2 3869   3.623   3.945  13.263 -0.4609 -0.0136 -0.7681
  252TMC3    C1 3870   2.672   0.233  10.092 -0.1825  0.4702 -0.4320
  252TMC3    C2 3871   2.768   0.270  10.008 -0.1547 -0.0057 -0.6016
  252TMC3    C3 3872   2.884   0.197  10.000 -0.4766  0.5277 -0.0378
  252TMC3    C4 3873   2.687   0.123  10.174  0.2990  0.2330  0.2303
  252TMC3    C5 3874   2.802   0.048  10.168 -0.0532  0.3182 -0.1822
  252TMC3    C6 3875   2.905   0.090  10.085  0.1691  0.9329 -0.4069
  252TMC3     C 3876   2.549   0.310  10.111  0.0645 -0.0567 -0.3965
  252TMC3     O 3877   2.486   0.292  10.215  0.2839  0.3178 -0.2663
  252TMC3     H 3878   2.746   0.353   9.941 -0.8159  0.7402  0.5448
  252TMC3    H1 3879   2.601   0.085  10.229  1.0860 -0.1008  1.2401
  252TMC3    H2 3880   2.998   0.034  10.083  0.5774  1.5722  0.8160
  252TMC3    C7 3881   2.801   4.651  10.228  0.3508 -0.1627  0.7192
  252TMC3    C8 3882   2.976   0.227   9.897  0.1217 -0.9098  0.3457
  252TMC3    O1 3883   2.710   4.628  10.300  0.1683  0.0109  0.3288
  252TMC3    O2 3884   2.944   0.318   9.827 -0.2555  0.2932  0.1081
  253MPD2     C 3885   0.476   3.519  14.998  0.0726 -0.3736  0.1891
  253MPD2    C1 3886   0.342   3.534  15.017  0.2541 -0.2170 -0.8808
  253MPD2    C2 3887   0.296   3.580  15.141 -0.2731  0.0101 -0.1759
  253MPD2    C3 3888   0.386   3.609  15.246 -0.3580  0.3516  0.5416
  253MPD2    C4 3889   0.521   3.594  15.221 -0.0779 -0.5078 -0.7364
  253MPD2    C5 3890   0.564   3.547  15.098 -0.4032  0.1577 -0.0551
  253MPD2     H 3891   0.189   3.590  15.154  0.0171  2.4367  0.3653
  253MPD2    H1 3892   0.596   3.621  15.294 -0.0412 -1.1252 -0.5442
  253MPD2    H2 3893   0.524   3.474  14.912  0.6819  0.3514  0.1406
  253MPD2    H3 3894   0.669   3.526  15.084 -0.4447 -0.1682  0.1227
  253MPD2     N 3895   0.348   3.667  15.367  0.1513 -0.0936 -0.0471
  253MPD2    H5 3896   0.415   3.676  15.443  0.5351 -0.7533 -0.3080
  253MPD2    N1 3897   0.246   3.492  14.926  0.0420 -0.6392  0.4407
  253MPD2    H7 3898   0.150   3.502  14.957 -0.1298 -0.3757 -0.1756
  254TMC3    C1 3899   0.220   3.770  15.534  0.6232  0.8974 -0.0428
  254TMC3    C2 3900   0.107   3.843  15.563  0.0103 -0.8207  0.6637
  254TMC3    C3 3901   0.073   3.853  15.694 -0.0357 -0.4750 -0.1874
  254TMC3    C4 3902   0.306   3.709  15.626  1.1290  0.4236  0.4018
  254TMC3    C5 3903   0.264   3.734  15.759  0.1809 -0.3901  0.2134
  254TMC3    C6 3904   0.152   3.798  15.791 -0.5000 -0.4741  0.2711
  254TMC3     C 3905   0.223   3.712  15.400 -0.1172 -0.9227 -0.9065
  254TMC3     O 3906   0.120   3.713  15.339  0.0301 -0.1888 -0.3820
  254TMC3     H 3907   0.046   3.887  15.485 -1.1092 -0.5914  1.6680
  254TMC3    H1 3908   0.375   3.634  15.590  2.4817  2.3334 -0.9798
  254TMC3    H2 3909   0.128   3.814  15.895 -0.3826  0.3072  0.1757
  254TMC3    C7 3910   0.350   3.694  15.872  0.1845 -0.1983  0.4008
  254TMC3    C8 3911   4.700   3.933  15.739  0.4999 -0.0372 -0.6900
  254TMC3    O1 3912   0.293   3.683  15.983  0.0050 -0.5774  0.0371
  254TMC3    O2 3913   4.634   3.892  15.835  0.1211  0.1712  1.0187
  255MPD2     C 3914   3.105   0.523  10.015  0.2311  0.3140 -0.7472
  255MPD2    C1 3915   2.996   0.607  10.034  0.9225  0.3429  0.7952
  255MPD2    C2 3916   2.993   0.732   9.979  0.4517 -0.3547 -0.4411
  255MPD2    C3 3917   3.084   0.768   9.877  0.5473 -0.7492  0.0059
  255MPD2    C4 3918   3.182   0.672   9.854 -0.3799 -0.0041  0.4911
  255MPD2    C5 3919   3.201   0.559   9.931 -0.1224  0.3751  0.2739
  255MPD2     H 3920   2.919   0.803  10.015 -2.5301 -2.8002 -1.7391
  255MPD2    H1 3921   3.257   0.693   9.778 -0.5983 -1.1917 -0.0512
  255MPD2    H2 3922   3.109   0.422  10.055  1.4079  0.0310 -1.5909
  255MPD2    H3 3923   3.290   0.498   9.927 -0.2042  0.2727  0.0180
  255MPD2     N 3924   3.081   0.897   9.816  0.3849  0.5477  0.9350
  255MPD2    H5 3925   3.009   0.960   9.852 -0.8613 -1.5477  2.1156
  255MPD2    N1 3926   2.901   0.557  10.124 -0.2314 -0.4727  0.2115
  255MPD2    H7 3927   2.930   0.478  10.182  1.0383 -0.2855 -0.1701
  256TMC3    C1 3928   2.695   0.657  10.039  0.0257 -0.1273  0.3628
  256TMC3    C2 3929   2.719   0.614   9.912  0.5579  0.8148 -0.0486
  256TMC3    C3 3930   2.652   0.680   9.807  0.4378  0.1542 -0.4790
  256TMC3    C4 3931   2.598   0.746  10.059 -0.7387 -0.4462 -0.2197
  256TMC3    C5 3932   2.524   0.806   9.964 -0.0931 -0.4916 -0.5199
  256TMC3    C6 3933   2.549   0.759   9.836  0.1863 -0.1483  0.3821
  256TMC3     C 3934   2.771   0.608  10.152 -0.1107  0.0924  0.0991
  256TMC3     O 3935   2.705   0.591  10.253 -0.5523  0.2637 -0.1575
  256TMC3     H 3936   2.806   0.555   9.889  1.5263  0.8410  3.5161
  256TMC3    H1 3937   2.588   0.778  10.162 -0.7461 -2.4055  0.3890
  256TMC3    H2 3938   2.485   0.794   9.756 -0.2414 -0.2827  0.6644
  256TMC3    C7 3939   2.453   0.930   9.976 -0.3056  0.4380  0.0525
  256TMC3    C8 3940   2.739   0.730   9.702 -0.0235  0.7818 -0.9103
  256TMC3    O1 3941   2.396   0.964   9.874  0.3693 -0.1416  0.2856
  256TMC3    O2 3942   2.813   0.653   9.647 -0.0227  0.2803  0.7248
  257MPD2     C 3943   2.176   3.504  13.676  0.2538 -0.7485  0.5074
  257MPD2    C1 3944   2.126   3.436  13.566 -0.2190  0.3275  0.2038
  257MPD2    C2 3945   2.123   3.302  13.565  0.2608  0.2629 -0.0779
  257MPD2    C3 3946   2.174   3.232  13.673 -0.2264 -0.4353  0.3026
  257MPD2    C4 3947   2.228   3.292  13.784 -0.0631  0.4288 -0.4042
  257MPD2    C5 3948   2.232   3.427  13.782  0.7642 -0.7640  0.4899
  257MPD2     H 3949   2.078   3.233  13.495 -1.0346 -0.9165  1.8901
  257MPD2    H1 3950   2.269   3.252  13.876  0.3800  0.8900 -0.4058
  257MPD2    H2 3951   2.192   3.611  13.671 -1.3055 -0.4715  1.5794
  257MPD2    H3 3952   2.270   3.470  13.873 -1.3295 -1.9587  1.9257
  257MPD2     N 3953   2.183   3.091  13.659  0.2267 -0.0996 -0.4760
  257MPD2    H5 3954   2.147   3.048  13.574 -1.6321 -0.4011  0.4744
  257MPD2    N1 3955   2.097   3.510  13.450 -0.2191  0.1543  0.3573
  257MPD2    H7 3956   2.127   3.606  13.438 -2.3768  1.0161  1.9907
  258TMC3    C1 3957   2.242   2.865  13.699 -0.9089 -0.4307  1.0434
  258TMC3    C2 3958   2.222   2.831  13.568 -0.5042 -0.2870 -0.2397
  258TMC3    C3 3959   2.307   2.747  13.503 -0.7019 -0.2775  0.6314
  258TMC3    C4 3960   2.340   2.801  13.764 -0.1006  0.5245 -0.2983
  258TMC3    C5 3961   2.426   2.705  13.704 -0.0929  0.2981 -0.0602
  258TMC3    C6 3962   2.413   2.686  13.573 -0.8962  0.3504 -0.6978
  258TMC3     C 3963   2.209   3.001  13.759  0.2633  0.3804  0.4293
  258TMC3     O 3964   2.257   3.026  13.870  0.5212  0.7600  0.3171
  258TMC3     H 3965   2.147   2.885  13.513 -0.5390 -1.5518 -1.4343
  258TMC3    H1 3966   2.358   2.831  13.867  0.6208  0.8580 -0.5176
  258TMC3    H2 3967   2.485   2.618  13.528 -1.1242 -0.1458 -0.3241
  258TMC3    C7 3968   2.548   2.656  13.770  0.1682 -0.3657  0.2218
  258TMC3    C8 3969   2.306   2.749  13.356  0.5129 -1.2991  1.1888
  258TMC3    O1 3970   2.648   2.625  13.706 -0.1063  0.2592  0.4348
  258TMC3    O2 3971   2.255   2.845  13.294  0.2384 -0.7286  0.1947
  259MPD2     C 3972   1.977   0.352   0.726  0.7834  0.1786 -0.6265
  259MPD2    C1 3973   1.963   0.212   0.712  0.4133 -0.6234  0.0519
  259MPD2    C2 3974   1.925   0.164   0.590  0.2450 -0.4194 -0.1548
  259MPD2    C3 3975   1.890   0.246   0.488  0.4040  0.0378  0.5468
  259MPD2    C4 3976   1.895   0.387   0.514 -0.3304 -0.2104 -0.1052
  259MPD2    C5 3977   1.930   0.438   0.633 -0.5383 -0.3088 -0.8838
  259MPD2     H 3978   1.924   0.058   0.569  0.4357  0.3045 -3.7109
  259MPD2    H1 3979   1.877   0.462   0.437 -2.9481 -0.8850 -0.1324
  259MPD2    H2 3980   2.015   0.399   0.816  2.8588  1.0991 -1.9731
  259MPD2    H3 3981   1.925   0.543   0.658 -1.0057 -0.2018 -1.4116
  259MPD2     N 3982   1.836   0.198   0.370 -0.2348  1.0779 -0.7253
  259MPD2    H5 3983   1.842   0.098   0.358 -0.5075  0.9898 -0.0754
  259MPD2    N1 3984   1.989   0.129   0.828 -0.0968  0.1219 -0.3033
  259MPD2    H7 3985   2.028   0.180   0.907  0.7243  0.0689 -0.6778
  260TMC3    C1 3986   1.765   0.188   0.144  0.6768 -0.5299  0.2769
  260TMC3    C2 3987   1.756   0.244   0.019 -0.8236  0.0522  0.3379
  260TMC3    C3 3988   1.699   0.174  17.655 -0.6800 -0.5290  0.4304
  260TMC3    C4 3989   1.689   0.077   0.175  0.0880  0.2394  0.1883
  260TMC3    C5 3990   1.615   0.012   0.071  0.4589 -0.0927 -0.0526
  260TMC3    C6 3991   1.633   0.055  17.675  0.0365 -0.3207 -0.0517
  260TMC3     C 3992   1.814   0.269   0.252  0.1908 -0.2137 -0.1779
  260TMC3     O 3993   1.834   0.386   0.224  0.1646  0.3697  0.1832
  260TMC3     H 3994   1.827   0.321  17.726 -1.0057  1.4876  3.4973
  260TMC3    H1 3995   1.682   0.043   0.278  1.7286 -0.0171  0.2134
  260TMC3    H2 3996   1.566   0.031  17.593 -0.2215 -0.5626  0.2297
  260TMC3    C7 3997   1.586   4.604   0.079 -0.2122  0.4614  0.4214
  260TMC3    C8 3998   1.741   0.204  17.520 -0.9093 -0.6445 -0.1602
  260TMC3    O1 3999   1.564   4.545  17.710 -0.1676 -0.0968 -0.1548
  260TMC3    O2 4000   1.769   0.315  17.485 -0.1258 -0.5133  0.1798
  261MPD2     C 4001   2.750   3.226  12.779  0.1029 -0.7507 -0.1769
  261MPD2    C1 4002   2.881   3.270  12.772 -0.1504 -0.4241 -0.3413
  261MPD2    C2 4003   2.896   3.379  12.681 -0.3123 -0.4179  0.3242
  261MPD2    C3 4004   2.803   3.449  12.609 -0.1414 -0.0851  0.3188
  261MPD2    C4 4005   2.677   3.399  12.624 -0.2730  0.7187 -0.2047
  261MPD2    C5 4006   2.656   3.286  12.704 -0.2766 -0.2632  0.2666
  261MPD2     H 4007   2.996   3.419  12.672 -0.1404 -0.8179  0.4279
  261MPD2    H1 4008   2.592   3.444  12.574 -1.4574 -0.3444  0.8568
  261MPD2    H2 4009   2.714   3.155  12.852 -0.2979  1.4011  1.7297
  261MPD2    H3 4010   2.553   3.265  12.727  0.0550  0.6808  2.6405
  261MPD2     N 4011   2.843   3.554  12.523 -0.0866  0.6260  0.2796
  261MPD2    H5 4012   2.941   3.573  12.506 -0.0152  0.0328  0.0251
  261MPD2    N1 4013   2.989   3.213  12.843  1.0433  0.3357 -0.3822
  261MPD2    H7 4014   3.080   3.252  12.822  0.6444  0.0196 -2.7118
  262TMC3    C1 4015   2.807   3.748  12.391 -0.6025 -0.0920  0.3273
  262TMC3    C2 4016   2.733   3.860  12.390 -0.0089 -0.6077 -0.2186
  262TMC3    C3 4017   2.770   3.946  12.292  0.9581  0.8139  0.3172
  262TMC3    C4 4018   2.909   3.719  12.304  0.1997  0.1557  0.2538
  262TMC3    C5 4019   2.943   3.816  12.216  0.3007  0.1388 -0.2051
  262TMC3    C6 4020   2.877   3.932  12.212 -0.0269  0.5105 -0.0360
  262TMC3     C 4021   2.744   3.642  12.470  0.0789 -0.4688  0.2865
  262TMC3     O 4022   2.626   3.649  12.504 -0.5011 -0.2400  0.0455
  262TMC3     H 4023   2.658   3.883  12.465 -0.4901  1.5412 -1.3548
  262TMC3    H1 4024   2.972   3.631  12.301  1.7630  1.3176 -0.8118
  262TMC3    H2 4025   2.898   4.002  12.132 -1.7519  0.8353 -0.2030
  262TMC3    C7 4026   3.040   3.780  12.117  0.1341 -0.0302  0.2030
  262TMC3    C8 4027   2.706   4.077  12.300  0.0445  0.5533  0.3754
  262TMC3    O1 4028   3.109   3.686  12.146  0.2985 -0.0147 -0.3260
  262TMC3    O2 4029   2.772   4.175  12.269 -0.1664  0.1170 -0.1975
  263MPD2     C 4030   3.561   2.422  11.034 -0.2835 -0.2872  0.6856
  263MPD2    C1 4031   3.618   2.520  11.114 -0.9595 -0.1774  0.1661
  263MPD2    C2 4032   3.662   2.638  11.056  0.6234 -0.0195  0.5169
  263MPD2    C3 4033   3.676   2.655  10.917  0.5593  0.0998  0.4087
  263MPD2    C4 4034   3.622   2.556  10.838  0.3820  0.2753  0.4961
  263MPD2    C5 4035   3.561   2.441  10.899  0.3857  0.1588  0.4379
  263MPD2     H 4036   3.698   2.721  11.117  1.0386  1.0962 -1.2533
  263MPD2    H1 4037   3.631   2.561  10.730  0.3593  0.2169  0.4916
  263MPD2    H2 4038   3.509   2.336  11.074  0.2139 -1.2293 -0.6931
  263MPD2    H3 4039   3.521   2.363  10.836 -2.8248  3.6606 -1.8722
  263MPD2     N 4040   3.751   2.766  10.860  0.3289 -0.1377 -1.1105
  263MPD2    H5 4041   3.793   2.826  10.931  0.6604 -4.0123  1.9377
  263MPD2    N1 4042   3.621   2.497  11.253  0.6693 -0.3978 -0.1890
  263MPD2    H7 4043   3.610   2.399  11.275 -1.8486 -0.2341 -0.7256
  264TMC3    C1 4044   3.817   2.924  10.704  0.2416 -0.7828 -0.4557
  264TMC3    C2 4045   3.765   3.025  10.781  0.6020 -0.4968 -0.7476
  264TMC3    C3 4046   3.781   3.154  10.737 -0.1725 -0.2523  0.0310
  264TMC3    C4 4047   3.882   2.950  10.588  0.4866  0.3527  0.0011
  264TMC3    C5 4048   3.910   3.083  10.557 -0.1563 -0.1665  0.7824
  264TMC3    C6 4049   3.857   3.186  10.628  0.3541 -0.6283 -0.1203
  264TMC3     C 4050   3.777   2.788  10.728  0.1276  0.0711  0.2645
  264TMC3     O 4051   3.754   2.718  10.632 -0.3705 -0.5104 -0.0753
  264TMC3     H 4052   3.702   3.007  10.867 -0.9613  2.5765 -1.2449
  264TMC3    H1 4053   3.932   2.865  10.544  2.3653  0.3767  2.0566
  264TMC3    H2 4054   3.878   3.290  10.604  1.1263 -0.0522  3.0490
  264TMC3    C7 4055   3.987   3.105  10.444 -0.3212  0.2510 -0.0448
  264TMC3    C8 4056   3.814   3.239  10.854  0.7866  0.2476 -0.6990
  264TMC3    O1 4057   3.998   3.013  10.367  0.2512 -0.3763  0.6534
  264TMC3    O2 4058   3.921   3.299  10.845 -0.1861  0.4137 -0.6820
  265MPD2     C 4059   1.394   3.056  15.579 -0.3451 -0.5730  0.9549
  265MPD2    C1 4060   1.419   3.140  15.475  0.1298  0.5202  0.1357
  265MPD2    C2 4061   1.479   3.084  15.356 -0.8830 -0.4444  0.3892
  265MPD2    C3 4062   1.509   2.951  15.346  0.6711  0.0220 -0.1637
  265MPD2    C4 4063   1.474   2.869  15.451  0.2966 -0.4143 -0.3720
  265MPD2    C5 4064   1.422   2.925  15.562 -0.3489  0.5277 -0.1525
  265MPD2     H 4065   1.499   3.157  15.278 -0.6571  1.4774  2.2713
  265MPD2    H1 4066   1.486   2.761  15.450  0.5177 -0.3899 -0.3940
  265MPD2    H2 4067   1.347   3.077  15.674 -0.9244  2.1314  0.0676
  265MPD2    H3 4068   1.390   2.867  15.648  2.0730 -0.2589  0.1986
  265MPD2     N 4069   1.552   2.887  15.229 -0.4448 -0.0108  0.0343
  265MPD2    H5 4070   1.552   2.785  15.230 -1.1169 -0.0108 -0.1873
  265MPD2    N1 4071   1.413   3.280  15.483 -0.0534 -0.9783  0.4480
  265MPD2    H7 4072   1.448   3.334  15.405  1.4292  0.0995  1.8391
  266TMC3    C1 4073   1.387   3.491  15.577 -0.2509 -0.4141 -0.5599
  266TMC3    C2 4074   1.407   3.557  15.696 -0.3405 -0.2604 -0.6928
  266TMC3    C3 4075   1.409   3.694  15.700 -0.1343 -0.0284  0.6515
  266TMC3    C4 4076   1.395   3.564  15.461 -0.6244 -0.1369  0.0576
  266TMC3    C5 4077   1.384   3.704  15.470  0.2005  0.2454 -0.3806
  266TMC3    C6 4078   1.389   3.772  15.588  0.8767  0.1825  0.2745
  266TMC3     C 4079   1.364   3.351  15.593  0.2726 -0.0159  0.3326
  266TMC3     O 4080   1.325   3.311  15.701 -0.2441 -0.1573 -0.2113
  266TMC3     H 4081   1.408   3.507  15.792 -0.7746 -1.9376 -1.5637
  266TMC3    H1 4082   1.378   3.512  15.367  0.2900 -0.9804  0.3602
  266TMC3    H2 4083   1.381   3.881  15.588 -0.8478  0.0646  0.3001
  266TMC3    C7 4084   1.361   3.765  15.343  0.6047 -0.6192 -0.7037
  266TMC3    C8 4085   1.479   3.745  15.814  0.0685  0.4298 -0.6478
  266TMC3    O1 4086   1.359   3.705  15.238 -0.5456  0.3690 -0.5417
  266TMC3    O2 4087   1.515   3.671  15.900  0.3623 -0.1477  0.0541
  267MPD2     C 4088   3.742   0.269   1.106 -0.6306 -0.0425 -0.1023
  267MPD2    C1 4089   3.780   0.238   0.980 -0.0852 -0.1924 -0.3647
  267MPD2    C2 4090   3.691   0.258   0.875 -0.3708  0.5556 -0.8096
  267MPD2    C3 4091   3.563   0.309   0.897 -0.0636 -0.2665  0.3407
  267MPD2    C4 4092   3.525   0.345   1.026  0.3175  0.2964  0.1954
  267MPD2    C5 4093   3.617   0.326   1.126  0.2514 -0.1291 -0.1189
  267MPD2     H 4094   3.715   0.228   0.773 -1.9340 -2.2852 -0.3465
  267MPD2    H1 4095   3.435   0.396   1.059  0.2060  0.4445 -0.3369
  267MPD2    H2 4096   3.802   0.243   1.193 -2.4188  2.2179  1.8191
  267MPD2    H3 4097   3.586   0.358   1.225  1.9227  1.3141 -0.0565
  267MPD2     N 4098   3.464   0.304   0.798  1.2263 -0.2124  0.0088
  267MPD2    H5 4099   3.376   0.354   0.808  0.8481 -0.6793 -0.9835
  267MPD2    N1 4100   3.895   0.170   0.962  0.5106  0.2304 -0.1793
  267MPD2    H7 4101   3.920   0.106   1.038  0.9990 -0.6759 -1.0975
  268TMC3    C1 4102   4.082   0.072   0.843 -0.5931 -0.0852 -1.4836
  268TMC3    C2 4103   4.172   0.089   0.739  0.7259  0.0294  0.1282
  268TMC3    C3 4104   4.278   0.013   0.722 -0.3839 -0.6738  1.0328
  268TMC3    C4 4105   4.092   4.705   0.930 -0.1643  0.9967  0.4883
  268TMC3    C5 4106   4.208   4.630   0.919 -0.4487  0.0695  0.2303
  268TMC3    C6 4107   4.293   4.645   0.814  0.2629  0.2585  0.4349
  268TMC3     C 4108   3.967   0.162   0.842  0.0316  0.2561 -0.7007
  268TMC3     O 4109   3.959   0.237   0.746 -0.3964  0.1125 -0.5173
  268TMC3     H 4110   4.169   0.182   0.683 -0.3320  1.3672  2.4180
  268TMC3    H1 4111   4.021   4.700   1.013 -0.2233 -0.2276  0.3664
  268TMC3    H2 4112   4.374   4.577   0.790 -0.6698  0.2969 -2.7413
  268TMC3    C7 4113   4.212   4.501   0.991 -0.0948 -0.5264  0.4459
  268TMC3    C8 4114   4.333   4.726   0.591 -0.2998 -0.2333  0.7253
  268TMC3    O1 4115   4.317   4.449   1.013  0.5770 -0.5739 -0.3578
  268TMC3    O2 4116   4.439   4.665   0.579  0.2324 -0.3260 -0.2308
  269MPD2     C 4117   4.300   4.178  15.430 -1.1084  0.5606 -0.3779
  269MPD2    C1 4118   4.169   4.184  15.482  0.1061 -0.1072 -0.2643
  269MPD2    C2 4119   4.098   4.299  15.457 -1.0264 -0.0056  0.8998
  269MPD2    C3 4120   4.147   4.401  15.377  0.1371 -0.2803 -0.5396
  269MPD2    C4 4121   4.277   4.394  15.322 -0.0723 -0.2079 -0.2531
  269MPD2    C5 4122   4.354   4.285  15.365 -0.3956 -0.8423 -0.0035
  269MPD2     H 4123   4.003   4.313  15.507 -2.5601  1.1427 -2.3432
  269MPD2    H1 4124   4.308   4.477  15.260  2.2934 -0.1659  0.9974
  269MPD2    H2 4125   4.364   4.095  15.458 -1.1097  0.9630  0.7978
  269MPD2    H3 4126   4.457   4.278  15.333 -0.7708 -1.2439 -1.1382
  269MPD2     N 4127   4.053   4.505  15.353  0.0723 -0.5361  0.0881
  269MPD2    H5 4128   3.956   4.489  15.376 -0.1744  0.8254 -0.0124
  269MPD2    N1 4129   4.119   4.067  15.551 -0.4898  0.2803  0.1610
  269MPD2    H7 4130   4.185   3.991  15.560 -0.7183 -0.0055 -0.5521
  270TMC3    C1 4131   3.969   3.915  15.638  0.0362 -0.0985  1.2337
  270TMC3    C2 4132   3.844   3.863  15.611  0.1092  0.3950  0.4304
  270TMC3    C3 4133   3.818   3.731  15.645  0.0698 -0.4876  0.1839
  270TMC3    C4 4134   4.065   3.837  15.694  0.1230  0.1709 -0.1678
  270TMC3    C5 4135   4.035   3.708  15.721  0.2772  0.3742  0.2659
  270TMC3    C6 4136   3.912   3.656  15.708 -0.3829  0.1192  0.1603
  270TMC3     C 4137   3.991   4.050  15.591  0.4284 -0.0666 -0.2878
  270TMC3     O 4138   3.889   4.115  15.574  0.3696  0.7550  0.2813
  270TMC3     H 4139   3.766   3.920  15.561  0.2888  0.3913  0.1445
  270TMC3    H1 4140   4.169   3.864  15.707  0.2265 -0.0175 -0.5867
  270TMC3    H2 4141   3.891   3.552  15.732 -0.2207 -0.0872 -0.5857
  270TMC3    C7 4142   4.135   3.612  15.680 -0.7823  0.3292  0.0719
  270TMC3    C8 4143   3.739   3.654  15.552  1.4341  0.1356 -0.2481
  270TMC3    O1 4144   4.253   3.642  15.697 -0.1728  0.4483 -0.1701
  270TMC3    O2 4145   3.774   3.539  15.538 -0.6565  0.8163 -0.2102
  271MPD2     C 4146   3.021   3.302  13.826  0.0986 -0.5447  0.0041
  271MPD2    C1 4147   3.040   3.410  13.910  0.2453  0.6243  0.0233
  271MPD2    C2 4148   2.945   3.510  13.907  1.0134 -0.0723  0.5670
  271MPD2    C3 4149   2.854   3.517  13.809 -0.5968  0.0231  0.1648
  271MPD2    C4 4150   2.848   3.420  13.713  0.3285 -0.1494 -0.5417
  271MPD2    C5 4151   2.925   3.309  13.725 -0.5651 -0.7784  0.2215
  271MPD2     H 4152   2.935   3.584  13.986  1.1209  0.5966 -0.0371
  271MPD2    H1 4153   2.763   3.426  13.645 -1.0575 -1.9973  0.9962
  271MPD2    H2 4154   3.078   3.209  13.828 -0.9820 -1.1852  0.8578
  271MPD2    H3 4155   2.915   3.233  13.648 -1.8404 -0.5403  0.1669
  271MPD2     N 4156   2.768   3.631  13.780 -0.0009  0.3306  0.8234
  271MPD2    H5 4157   2.702   3.627  13.703  0.3968 -1.4092  0.5767
  271MPD2    N1 4158   3.141   3.410  14.015 -0.2955 -0.5053 -0.1542
  271MPD2    H7 4159   3.130   3.486  14.081 -0.5132 -1.5488  1.0054
  272TMC3    C1 4160   3.324   3.337  14.140  0.7161 -0.1728  0.7308
  272TMC3    C2 4161   3.461   3.305  14.133 -0.5321  0.0971  0.0857
  272TMC3    C3 4162   3.526   3.301  14.253  0.1822  0.9952  0.2584
  272TMC3    C4 4163   3.253   3.337  14.258 -0.0594  0.2698  0.2339
  272TMC3    C5 4164   3.325   3.327  14.374 -0.7849 -0.5161 -0.9186
  272TMC3    C6 4165   3.463   3.323  14.377  0.0093  0.0604 -0.9716
  272TMC3     C 4166   3.248   3.328  14.020  0.1937 -0.2860 -0.4098
  272TMC3     O 4167   3.293   3.245  13.941  0.3324  0.1262 -0.4995
  272TMC3     H 4168   3.513   3.278  14.042  1.9539 -1.1113  1.8651
  272TMC3    H1 4169   3.146   3.346  14.273 -0.7689 -2.2928 -3.5271
  272TMC3    H2 4170   3.523   3.329  14.467 -2.2496  0.8311  0.4664
  272TMC3    C7 4171   3.271   3.401  14.495  0.3660  0.2638 -0.3484
  272TMC3    C8 4172   3.669   3.259  14.238  0.2383 -0.3497 -0.7965
  272TMC3    O1 4173   3.149   3.408  14.513 -0.0263  0.1768 -0.0277
  272TMC3    O2 4174   3.721   3.265  14.127  0.5385  0.0518  0.2255
  273MPD2     C 4175   4.382   0.983  11.718 -0.5073 -0.9051 -0.5667
  273MPD2    C1 4176   4.399   1.115  11.748 -0.1177 -0.1901  0.3861
  273MPD2    C2 4177   4.338   1.210  11.670  0.3779 -0.2176 -0.3606
  273MPD2    C3 4178   4.258   1.173  11.565 -0.4620 -0.0781  0.6033
  273MPD2    C4 4179   4.239   1.035  11.537 -0.7200  0.8424 -0.5561
  273MPD2    C5 4180   4.299   0.945  11.617 -0.0207  0.2664 -0.5771
  273MPD2     H 4181   4.355   1.316  11.688  1.5628 -0.6826  1.2930
  273MPD2    H1 4182   4.166   1.008  11.461  0.4907 -1.2784 -0.9529
  273MPD2    H2 4183   4.429   0.902  11.773  1.6334  1.0872  0.5582
  273MPD2    H3 4184   4.296   0.838  11.603 -1.0622  0.4513 -1.6829
  273MPD2     N 4185   4.204   1.284  11.493 -0.0899 -0.1820  0.2507
  273MPD2    H5 4186   4.233   1.377  11.520 -1.9922  0.9098 -1.4438
  273MPD2    N1 4187   4.485   1.155  11.854 -0.4792 -0.0999  0.5693
  273MPD2    H7 4188   4.529   1.079  11.905  0.2430 -0.9600 -1.3317
  274TMC3    C1 4189   4.055   1.392  11.349  0.3558 -0.2269 -0.8153
  274TMC3    C2 4190   3.929   1.386  11.289  0.3506  0.1548  0.0139
  274TMC3    C3 4191   3.871   1.512  11.268 -0.8697  0.2691  0.2911
  274TMC3    C4 4192   4.116   1.505  11.383 -0.2006  0.0103  0.0953
  274TMC3    C5 4193   4.047   1.619  11.359  0.1179 -0.3324  0.0885
  274TMC3    C6 4194   3.919   1.629  11.308 -0.2101 -0.0288  0.3959
  274TMC3     C 4195   4.119   1.268  11.389  0.9067  0.1991  0.3969
  274TMC3     O 4196   4.058   1.171  11.343 -0.1150 -0.5119 -0.2179
  274TMC3     H 4197   3.885   1.291  11.261 -0.6472  0.5669  0.1835
  274TMC3    H1 4198   4.222   1.497  11.404  0.0679 -0.3782 -1.3694
  274TMC3    H2 4199   3.862   1.721  11.311  0.7126  0.5824 -0.7919
  274TMC3    C7 4200   4.107   1.753  11.383 -0.2053 -0.1634  0.4209
  274TMC3    C8 4201   3.739   1.516  11.223  0.3655  0.4973 -0.3145
  274TMC3    O1 4202   4.060   1.834  11.307 -0.0015  0.5349  0.1864
  274TMC3    O2 4203   3.654   1.579  11.284  0.1834  0.0010 -0.4334
  275MPD2     C 4204   4.705   4.687  14.380 -0.0911 -0.2099  0.2925
  275MPD2    C1 4205   4.700   4.569  14.443 -0.3588 -0.5144  0.3765
  275MPD2    C2 4206   4.598   4.482  14.407 -0.0242 -0.0300  0.5839
  275MPD2    C3 4207   4.501   4.519  14.315 -0.3992 -0.4629  0.7610
  275MPD2    C4 4208   4.510   4.643  14.252 -0.2588  0.5122  0.4198
  275MPD2    C5 4209   4.616   4.721  14.277  0.4765  0.2036  0.0449
  275MPD2     H 4210   4.591   4.388  14.460  3.0259 -0.6695 -0.1874
  275MPD2    H1 4211   4.440   4.679  14.178 -0.4834 -1.8194 -0.5012
  275MPD2    H2 4212   0.051   0.023  14.397  0.2890 -0.4498 -0.5025
  275MPD2    H3 4213   4.626   0.080  14.223 -1.6173  0.2402 -0.2992
  275MPD2     N 4214   4.384   4.443  14.291 -0.2080 -0.3220  0.3171
  275MPD2    H5 4215   4.304   4.494  14.255  1.3506  1.9084 -0.0371
  275MPD2    N1 4216   0.047   4.537  14.556  0.1720  0.3713 -0.5456
  275MPD2    H7 4217   0.023   4.444  14.590 -2.4124  1.7207  1.3169
  276TMC3    C1 4218   0.172   4.562  14.745 -0.4354 -0.6313 -0.3489
  276TMC3    C2 4219   0.222   4.436  14.758 -0.5482 -0.3466 -0.0311
  276TMC3    C3 4220   0.313   4.416  14.864  0.4091 -0.0491 -1.0400
  276TMC3    C4 4221   0.205   4.658  14.837  0.8830  0.2997 -0.1931
  276TMC3    C5 4222   0.287   4.632  14.945  0.3816  0.4595 -0.2117
  276TMC3    C6 4223   0.341   4.512  14.960 -0.4034  0.1368  0.6415
  276TMC3     C 4224   0.131   4.617  14.620  0.1322  0.6016 -0.0395
  276TMC3     O 4225   0.146   0.001  14.601 -0.4407  0.2405  0.6012
  276TMC3     H 4226   0.222   4.371  14.671 -0.1499  1.1477 -1.1533
  276TMC3    H1 4227   0.161   0.022  14.831  3.5917  1.4636 -0.6554
  276TMC3    H2 4228   0.412   4.482  15.037 -0.3572  2.4535  1.4961
  276TMC3    C7 4229   0.333   0.010  15.024  0.6237 -0.8135  1.0686
  276TMC3    C8 4230   0.379   4.292  14.882  0.2978 -0.1265 -0.1220
  276TMC3    O1 4231   0.361   4.718  15.139  0.2717  0.2722 -0.2655
  276TMC3    O2 4232   0.492   4.294  14.936  0.3722  0.1396 -0.9279
  277MPD2     C 4233   1.684   3.655  13.398  0.6608 -0.3803  0.6848
  277MPD2    C1 4234   1.552   3.654  13.366 -0.1350  0.4415 -0.5773
  277MPD2    C2 4235   1.458   3.603  13.446 -0.3122  0.1014  0.1604
  277MPD2    C3 4236   1.498   3.557  13.570  0.0812 -0.2953  0.1406
  277MPD2    C4 4237   1.627   3.568  13.613  0.2459 -0.4976 -0.2293
  277MPD2    C5 4238   1.723   3.599  13.519  0.4772  0.2306  0.1848
  277MPD2     H 4239   1.357   3.578  13.417 -0.3560  1.2109 -0.6181
  277MPD2    H1 4240   1.662   3.523  13.706  0.4527 -0.9091 -0.5077
  277MPD2    H2 4241   1.762   3.685  13.329  1.9120 -1.6965  1.5096
  277MPD2    H3 4242   1.830   3.594  13.534  0.4271 -3.9664 -0.7750
  277MPD2     N 4243   1.402   3.500  13.651  0.1155 -0.4733 -0.3266
  277MPD2    H5 4244   1.307   3.484  13.618  1.8485 -1.4568 -4.8190
  277MPD2    N1 4245   1.498   3.697  13.240  0.1306 -0.0603 -0.1456
  277MPD2    H7 4246   1.399   3.680  13.227 -0.2644  0.0068  2.7261
  278TMC3    C1 4247   1.308   3.379  13.812 -0.2075 -0.4145 -0.2512
  278TMC3    C2 4248   1.301   3.267  13.735 -0.4956 -0.8055  0.5968
  278TMC3    C3 4249   1.184   3.198  13.733  0.2854  0.1695  0.2322
  278TMC3    C4 4250   1.199   3.413  13.886 -0.8399 -0.2955  0.0384
  278TMC3    C5 4251   1.086   3.335  13.889 -0.2709 -0.7783  0.0339
  278TMC3    C6 4252   1.076   3.230  13.807  0.4029  0.0465  0.0876
  278TMC3     C 4253   1.413   3.466  13.784  0.4919 -0.4088  0.2505
  278TMC3     O 4254   1.496   3.480  13.871 -0.0767  0.4323  0.7323
  278TMC3     H 4255   1.381   3.228  13.672  0.0216  1.2260  0.0017
  278TMC3    H1 4256   1.198   3.499  13.951 -1.3321 -1.3454  1.4333
  278TMC3    H2 4257   0.992   3.161  13.808  1.4024 -1.1682  0.8131
  278TMC3    C7 4258   0.986   3.360  13.998 -0.9741  0.1102  0.0585
  278TMC3    C8 4259   1.199   3.064  13.676  1.1452  0.7479  0.1607
  278TMC3    O1 4260   1.020   3.416  14.101  0.1189 -0.2089 -0.1370
  278TMC3    O2 4261   1.315   3.023  13.664  0.1542  0.0105  0.5328
  279MPD2     C 4262   1.224   3.197   0.173  0.5987  0.5182  0.2191
  279MPD2    C1 4263   1.148   3.288   0.105 -1.0847  0.1911  0.2562
  279MPD2    C2 4264   1.189   3.341  17.722  0.2010 -0.5023 -0.0485
  279MPD2    C3 4265   1.305   3.297  17.659  0.2273  0.4874 -0.0474
  279MPD2    C4 4266   1.376   3.210  17.734  0.4381  0.5162 -0.8121
  279MPD2    C5 4267   1.345   3.163   0.118 -0.2501 -0.0475 -0.5615
  279MPD2     H 4268   1.116   3.406  17.675 -1.2277 -1.6282  0.6421
  279MPD2    H1 4269   1.469   3.173  17.693 -0.0546 -1.8963  0.2258
  279MPD2    H2 4270   1.194   3.148   0.265  0.1845 -0.2585 -0.3391
  279MPD2    H3 4271   1.407   3.089   0.167 -0.8596  0.5366  1.0825
  279MPD2     N 4272   1.339   3.335  17.532  0.7190 -0.5436  0.6707
  279MPD2    H5 4273   1.428   3.311  17.489  0.1220 -0.0188 -0.8769
  279MPD2    N1 4274   1.021   3.327   0.153  0.4384 -0.7661 -0.4102
  279MPD2    H7 4275   0.970   3.395   0.098 -0.7315 -1.0319  0.3538
  280TMC3    C1 4276   0.835   3.351   0.293  0.1260  0.0665  0.4246
  280TMC3    C2 4277   0.727   3.269   0.272  0.8308  0.1180 -0.6230
  280TMC3    C3 4278   0.611   3.334   0.226 -0.2413  0.0182  0.2279
  280TMC3    C4 4279   0.837   3.488   0.265 -0.0951  0.1457 -0.6142
  280TMC3    C5 4280   0.719   3.542   0.224  0.9173  0.1728 -0.5747
  280TMC3    C6 4281   0.605   3.470   0.211 -0.0843 -0.3532 -0.2859
  280TMC3     C 4282   0.962   3.286   0.269  0.3446 -0.1943 -0.3528
  280TMC3     O 4283   0.984   3.188   0.335  0.1003 -0.3799  0.3384
  280TMC3     H 4284   0.739   3.162   0.273  1.4149  0.2008  0.4034
  280TMC3    H1 4285   0.932   3.540   0.277 -1.6317  2.3675  1.8643
  280TMC3    H2 4286   0.506   3.506   0.185  0.0939  0.8228  0.6847
  280TMC3    C7 4287   0.719   3.685   0.186  0.7607 -0.0436  0.3631
  280TMC3    C8 4288   0.491   3.255   0.191  0.4657 -0.9367  0.5412
  280TMC3    O1 4289   0.811   3.752   0.234 -0.3073 -0.3672  0.0953
  280TMC3    O2 4290   0.401   3.312   0.131 -0.5169  0.1151  0.1463
  281TMC3    C1 4291   0.007   3.688  13.176 -0.0573  0.1756  0.2507
  281TMC3    C2 4292   0.004   3.803  13.100 -0.2052 -0.7573  0.9037
  281TMC3    C3 4293   4.728   3.786  12.961 -0.9663  0.8773  0.1505
  281TMC3    C4 4294   4.722   3.564  13.132  0.4228  0.0130 -0.2260
  281TMC3    C5 4295   4.715   3.550  12.996 -0.3011 -0.4920 -0.0304
  281TMC3    C6 4296   4.724   3.660  12.908  0.1609  1.2490 -0.8980
  281TMC3     C 4297   4.719   3.698  13.319  0.1615 -0.7162 -0.6259
  281TMC3     O 4298   0.004   3.593  13.381  0.2211  0.2627 -0.7782
  281TMC3     H 4299   4.733   3.898  13.151 -0.2215 -0.0440 -0.4214
  281TMC3    H1 4300   4.715   3.482  13.202  0.6597  0.6405  0.5316
  281TMC3    H2 4301   4.716   3.640  12.802 -0.4998 -2.9887 -0.0448
  281TMC3    C7 4302   4.704   3.420  12.946 -0.3280 -0.2755  0.1394
  281TMC3    C8 4303   4.636   3.877  12.895 -0.5378  0.4338  0.0601
  281TMC3    O1 4304   0.024   3.387  12.841 -0.5083 -0.2856  0.2072
  281TMC3    O2 4305   4.550   3.821  12.824  0.3322 -0.1394 -0.2588
  282MPD2     C 4306   1.125   0.316  14.817 -0.8043 -0.1165  0.1813
  282MPD2    C1 4307   1.034   0.415  14.817  0.4158  0.4939 -0.1898
  282MPD2    C2 4308   0.928   0.403  14.720 -0.0753 -0.0191  0.1294
  282MPD2    C3 4309   0.936   0.309  14.619  0.3926 -0.3067 -0.3058
  282MPD2    C4 4310   1.038   0.211  14.624  0.0027 -0.3890 -0.3331
  282MPD2    C5 4311   1.129   0.217  14.719  0.1876 -0.6030  0.3864
  282MPD2     H 4312   0.846   0.474  14.714 -0.9513 -1.2286 -2.2638
  282MPD2    H1 4313   1.050   0.129  14.555 -2.2097 -0.6446 -0.3980
  282MPD2    H2 4314   1.200   0.309  14.895  1.4548  1.8020 -1.8046
  282MPD2    H3 4315   1.203   0.138  14.719  2.2613  1.3205 -3.3880
  282MPD2     N 4316   0.843   0.317  14.516 -0.3472 -0.1185 -0.8972
  282MPD2    H5 4317   0.782   0.398  14.523  1.8132  1.0733  4.2833
  282MPD2    N1 4318   1.030   0.508  14.924  0.0059  0.3008 -0.1160
  282MPD2    H7 4319   0.945   0.562  14.931 -0.4378 -0.4013 -0.0948
  283TMC3    C1 4320   1.089   0.611  15.121 -0.0510 -0.1123  0.1530
  283TMC3    C2 4321   1.155   0.733  15.156  0.9809  0.0085  0.5816
  283TMC3    C3 4322   1.136   0.770  15.283  0.6184 -0.2103 -0.4396
  283TMC3    C4 4323   1.007   0.537  15.199 -0.3317 -0.3552  0.4227
  283TMC3    C5 4324   0.996   0.585  15.329 -1.1065  0.5278 -0.5905
  283TMC3    C6 4325   1.056   0.702  15.371 -0.0622  0.4739 -0.5849
  283TMC3     C 4326   1.137   0.547  15.000 -0.6474 -0.4668 -0.0358
  283TMC3     O 4327   1.257   0.535  14.981 -0.2911  0.5408  0.5680
  283TMC3     H 4328   1.238   0.780  15.104 -1.1076  2.0792 -0.8773
  283TMC3    H1 4329   0.975   0.441  15.162 -1.0451  0.3619 -0.8035
  283TMC3    H2 4330   1.046   0.733  15.474  3.1695 -0.4739  0.0287
  283TMC3    C7 4331   0.924   0.507  15.427  0.7451  0.4124  0.7877
  283TMC3    C8 4332   1.190   0.902  15.329  0.9644  0.6655 -0.3935
  283TMC3    O1 4333   0.941   0.528  15.547 -0.4798  0.5083  0.6947
  283TMC3    O2 4334   1.200   0.909  15.450  0.1390 -0.0686 -0.0824
  284MPD2     C 4335   3.479   4.337  12.233  0.0160  0.0884 -0.4646
  284MPD2    C1 4336   3.539   4.352  12.109 -0.5924 -0.0169  0.1269
  284MPD2    C2 4337   3.673   4.317  12.111  0.5436 -0.3536 -0.0238
  284MPD2    C3 4338   3.740   4.259  12.219 -0.4901  0.7357 -0.0443
  284MPD2    C4 4339   3.667   4.239  12.338  0.0484 -0.5330  0.6849
  284MPD2    C5 4340   3.541   4.290  12.342  0.0480 -0.6105 -0.3037
  284MPD2     H 4341   3.726   4.332  12.017 -1.6751 -0.4390 -1.3010
  284MPD2    H1 4342   3.712   4.192  12.424  1.4015 -1.9430 -0.8062
  284MPD2    H2 4343   3.376   4.368  12.242  0.5718  2.1729 -1.2133
  284MPD2    H3 4344   3.482   4.291  12.433  0.7937 -2.5889  0.1975
  284MPD2     N 4345   3.865   4.205  12.208  0.0577 -0.1443  0.3160
  284MPD2    H5 4346   3.888   4.146  12.288  0.6693 -0.4877 -0.1163
  284MPD2    N1 4347   3.488   4.412  11.991  0.3651 -0.1203 -0.3159
  284MPD2    H7 4348   3.559   4.447  11.928  0.4034  0.0062 -0.2034
  285TMC3    C1 4349   3.345   4.505  11.842 -0.1028  0.0817 -0.4933
  285TMC3    C2 4350   3.438   4.452  11.750  0.6001 -0.2228  0.0656
  285TMC3    C3 4351   3.429   4.510  11.631 -0.9341 -0.5785 -0.1258
  285TMC3    C4 4352   3.263   4.618  11.826 -0.8935  0.0264  0.3159
  285TMC3    C5 4353   3.258   4.671  11.700  0.3493 -0.8401 -0.2051
  285TMC3    C6 4354   3.340   4.615  11.599  0.8778 -0.7345 -0.2724
  285TMC3     C 4355   3.368   4.466  11.978  0.1616  0.0020 -0.4727
  285TMC3     O 4356   3.276   4.473  12.060 -0.1743  0.3285 -0.2226
  285TMC3     H 4357   3.480   4.353  11.765 -1.8384 -1.1423  0.7084
  285TMC3    H1 4358   3.209   4.657  11.912 -0.8780 -1.0752  0.8371
  285TMC3    H2 4359   3.338   4.651  11.497  0.6652  1.4073  0.4759
  285TMC3    C7 4360   3.249   0.085  11.698 -0.5204 -0.0177  0.3436
  285TMC3    C8 4361   3.528   4.459  11.537  0.0964 -0.1177  0.5619
  285TMC3    O1 4362   3.312   0.137  11.607 -0.0061 -0.3736  0.0354
  285TMC3    O2 4363   3.600   4.370  11.574  0.0868  0.1808 -0.1334
  286MPD2     C 4364   0.169   2.971   2.119 -0.2019 -0.2490  0.2060
  286MPD2    C1 4365   0.126   3.016   1.998  0.7281  0.3409  0.1567
  286MPD2    C2 4366   0.213   2.999   1.891 -0.3296 -0.2469  0.0544
  286MPD2    C3 4367   0.334   2.928   1.903 -0.3754  0.0290  0.4196
  286MPD2    C4 4368   0.377   2.883   2.029  0.1183 -0.4771 -0.3699
  286MPD2    C5 4369   0.295   2.913   2.134  0.2486  0.1196 -0.6732
  286MPD2     H 4370   0.191   3.027   1.789  0.7177 -2.3450 -0.7488
  286MPD2    H1 4371   0.474   2.835   2.040 -0.7388 -2.8295 -3.2832
  286MPD2    H2 4372   0.112   2.993   2.209 -1.1852  1.9844 -0.9512
  286MPD2    H3 4373   0.317   2.877   2.234 -1.1022 -2.6780 -1.3704
  286MPD2     N 4374   0.415   2.888   1.790 -0.1531 -0.1395  0.4117
  286MPD2    H5 4375   0.505   2.850   1.818  0.5119  0.4313 -0.9842
  286MPD2    N1 4376   0.011   3.091   1.977  0.0217 -0.3451  0.0862
  286MPD2    H7 4377   4.724   3.118   1.881 -2.2600 -0.1954  0.6522
  287TMC3    C1 4378   0.458   2.812   1.566 -0.0832 -0.0481  0.7762
  287TMC3    C2 4379   0.394   2.763   1.453 -1.0055 -0.1321  0.4589
  287TMC3    C3 4380   0.467   2.697   1.360  1.0116  0.2564  0.3865
  287TMC3    C4 4381   0.595   2.793   1.589 -0.3313  0.0619 -0.2305
  287TMC3    C5 4382   0.666   2.736   1.489 -0.4333  0.2306 -0.2408
  287TMC3    C6 4383   0.605   2.687   1.377 -0.1586  0.3097  0.2936
  287TMC3     C 4384   0.366   2.875   1.662 -0.4338 -0.1440 -0.4838
  287TMC3     O 4385   0.252   2.885   1.629  0.2632 -0.3831 -0.0526
  287TMC3     H 4386   0.286   2.762   1.447 -0.9925  0.5297  0.0888
  287TMC3    H1 4387   0.653   2.842   1.666 -0.0670 -0.9595  0.2272
  287TMC3    H2 4388   0.670   2.653   1.297  1.3192  0.8561  1.2577
  287TMC3    C7 4389   0.805   2.707   1.518 -0.3819 -0.2064  0.2916
  287TMC3    C8 4390   0.399   2.649   1.242  0.4254  0.1353  0.3207
  287TMC3    O1 4391   0.854   2.786   1.600  0.4050  0.0799 -0.0275
  287TMC3    O2 4392   0.284   2.687   1.226  0.0337 -0.2281 -0.2197
  288TMC3    C1 4393   2.082   2.961  14.323 -0.3528  0.8607 -0.2281
  288TMC3    C2 4394   1.964   2.973  14.401 -0.4737  0.2790  0.7660
  288TMC3    C3 4395   1.899   3.088  14.399  0.1659  0.3418 -0.6708
  288TMC3    C4 4396   2.129   3.067  14.245 -0.0202  0.3622 -0.1218
  288TMC3    C5 4397   2.051   3.181  14.245  0.3685 -1.2334 -0.4714
  288TMC3    C6 4398   1.936   3.196  14.323  0.2547 -0.0569 -0.4830
  288TMC3     C 4399   2.168   2.840  14.337 -0.8689 -0.2271  0.4425
  288TMC3     O 4400   2.283   2.852  14.289  0.0204 -0.4269 -0.4480
  288TMC3     H 4401   1.948   2.897  14.477 -0.2949 -0.1674  0.3563
  288TMC3    H1 4402   2.223   3.062  14.192  0.2075  0.5493  0.2738
  288TMC3    H2 4403   1.884   3.291  14.324 -0.9582 -0.7061 -1.0087
  288TMC3    C7 4404   2.103   3.307  14.210 -0.1618 -0.4998  0.2533
  288TMC3    C8 4405   1.795   3.114  14.495  0.0663  0.4752  0.1110
  288TMC3    O1 4406   2.022   3.389  14.168  0.3038  0.1278 -0.0867
  288TMC3    O2 4407   1.764   3.233  14.519  0.0149  0.6874 -0.3124
  289MPD2     C 4408   1.726   1.900  14.334  0.3713  0.5506  0.2942
  289MPD2    C1 4409   1.747   2.026  14.270 -0.6166 -0.4120  0.0437
  289MPD2    C2 4410   1.634   2.063  14.201 -0.0971 -0.0379  0.2272
  289MPD2    C3 4411   1.513   1.988  14.192  0.3224  0.3215  0.8011
  289MPD2    C4 4412   1.504   1.875  14.271 -0.9789  0.6406 -0.0308
  289MPD2    C5 4413   1.611   1.833  14.339  0.3729  0.4953 -0.1327
  289MPD2     H 4414   1.630   2.160  14.153 -2.1773 -1.3244 -2.2411
  289MPD2    H1 4415   1.414   1.814  14.272 -0.4992  0.0228  4.3398
  289MPD2    H2 4416   1.817   1.851  14.368  0.5611  0.9477  0.3562
  289MPD2    H3 4417   1.611   1.736  14.388  0.1853  0.3703 -0.3751
  289MPD2     N 4418   1.398   2.034  14.124  0.0347 -0.4528 -0.2236
  289MPD2    H5 4419   1.315   1.980  14.146  0.0434  0.5436  2.3390
  289MPD2    N1 4420   1.872   2.094  14.245 -0.6269 -0.3997 -0.2207
  289MPD2    H7 4421   1.950   2.038  14.277 -0.6406 -0.5490 -0.4436
  290TMC3    C1 4422   1.268   2.206  14.047  0.2624  0.0431  0.2291
  290TMC3    C2 4423   1.270   2.343  14.065 -0.4077 -0.9109  0.5532
  290TMC3    C3 4424   1.148   2.408  14.089 -0.1361 -0.3246  0.9656
  290TMC3    C4 4425   1.153   2.138  14.037  0.3550  0.2751  0.1773
  290TMC3    C5 4426   1.038   2.207  14.044 -0.0322 -0.3617 -0.3202
  290TMC3    C6 4427   1.033   2.340  14.072  0.3876 -0.8417 -0.4473
  290TMC3     C 4428   1.393   2.141  14.048  0.0187  0.3305  0.1980
  290TMC3     O 4429   1.481   2.205  13.993  0.6791 -0.2161 -0.0629
  290TMC3     H 4430   1.366   2.391  14.051 -1.1643  0.7462  1.1250
  290TMC3    H1 4431   1.159   2.033  14.012 -0.9451  0.3363 -0.3545
  290TMC3    H2 4432   0.936   2.383  14.092  0.4453 -1.6373  1.5034
  290TMC3    C7 4433   0.919   2.165  13.975  0.0873 -0.2967  0.5478
  290TMC3    C8 4434   1.136   2.556  14.096 -0.1689  0.5273 -0.1490
  290TMC3    O1 4435   0.853   2.257  13.926 -0.6509  0.1608 -0.4023
  290TMC3    O2 4436   1.036   2.594  14.154 -0.1801  0.3573 -0.2425
  291MPD2     C 4437   1.008   2.135   0.244 -0.5157  0.2427 -0.2560
  291MPD2    C1 4438   1.059   2.071   0.349 -0.6771 -0.2097  0.0525
  291MPD2    C2 4439   1.151   2.141   0.427 -0.7251 -0.0140  0.0985
  291MPD2    C3 4440   1.197   2.269   0.394  0.1852 -0.1584 -0.5616
  291MPD2    C4 4441   1.127   2.331   0.299  0.2274 -0.1078  0.2968
  291MPD2    C5 4442   1.038   2.265   0.221 -0.0376  0.0586  0.0182
  291MPD2     H 4443   1.204   2.086   0.503 -0.4946  0.9244  0.6187
  291MPD2    H1 4444   1.155   2.432   0.273 -1.8563  0.4587  0.2429
  291MPD2    H2 4445   0.947   2.086   0.169 -0.7966  1.1203 -0.6046
  291MPD2    H3 4446   1.003   2.308   0.128 -3.5647 -0.4354  1.1399
  291MPD2     N 4447   1.311   2.328   0.451  0.0272 -0.3533  0.0046
  291MPD2    H5 4448   1.334   2.424   0.427  0.0142  0.2462  2.3454
  291MPD2    N1 4449   1.036   1.940   0.377  0.0426  0.3172 -0.2910
  291MPD2    H7 4450   1.077   1.914   0.466 -0.6699 -1.4622 -0.4794
  292TMC3    C1 4451   0.954   1.718   0.363  1.0432  0.1186  0.1782
  292TMC3    C2 4452   0.981   1.718   0.497 -0.3768 -0.7124  0.3884
  292TMC3    C3 4453   1.038   1.607   0.545 -0.3513 -0.3050 -0.6910
  292TMC3    C4 4454   0.969   1.607   0.288 -0.5182 -0.2035 -0.7456
  292TMC3    C5 4455   1.032   1.495   0.340 -0.0885  0.0007 -0.7523
  292TMC3    C6 4456   1.057   1.490   0.474 -0.0867 -0.4313  0.4820
  292TMC3     C 4457   0.959   1.850   0.302  0.5870 -0.2316  0.2027
  292TMC3     O 4458   0.925   1.852   0.183  0.2552 -0.7989  0.2484
  292TMC3     H 4459   0.953   1.797   0.567 -1.2579  0.4281 -1.2434
  292TMC3    H1 4460   0.945   1.616   0.182  1.5728  0.4370 -1.1533
  292TMC3    H2 4461   1.104   1.402   0.517 -1.8226 -0.9161  1.4051
  292TMC3    C7 4462   1.007   1.361   0.287 -0.5466 -0.0735  0.2357
  292TMC3    C8 4463   1.046   1.606   0.692  0.2501  0.1649 -0.4363
  292TMC3    O1 4464   1.083   1.265   0.304 -0.3706 -0.3177  0.4600
  292TMC3    O2 4465   1.057   1.709   0.761  0.2570 -0.5895  0.2948
  293MPD2     C 4466   2.443   2.974  12.660  0.2731 -0.0871  0.2685
  293MPD2    C1 4467   2.348   3.068  12.694 -0.0585  0.3809 -0.1033
  293MPD2    C2 4468   2.351   3.117  12.824  0.8768  0.8362 -0.3869
  293MPD2    C3 4469   2.435   3.059  12.917  0.0089 -0.1254  0.7124
  293MPD2    C4 4470   2.530   2.965  12.882  0.5997  0.4970  0.3680
  293MPD2    C5 4471   2.530   2.926  12.751 -0.5693  0.5288 -0.1522
  293MPD2     H 4472   2.276   3.194  12.844 -1.0457 -0.4750 -2.5367
  293MPD2    H1 4473   2.600   2.920  12.953  2.4852  0.3132 -1.6046
  293MPD2    H2 4474   2.447   2.923  12.565 -0.8132 -0.4037  0.3854
  293MPD2    H3 4475   2.608   2.860  12.715 -0.0373  2.2724 -2.2241
  293MPD2     N 4476   2.451   3.113  13.046 -0.3089  0.2421 -0.4698
  293MPD2    H5 4477   2.519   3.064  13.103 -2.5368  0.0349  1.9653
  293MPD2    N1 4478   2.246   3.118  12.607 -0.6669  0.1067  0.1841
  293MPD2    H7 4479   2.182   3.186  12.646 -2.4563 -1.5962  0.2134
  294TMC3    C1 4480   2.121   3.136  12.400  0.7353  1.0155 -0.2533
  294TMC3    C2 4481   2.007   3.179  12.469 -0.3135  0.5343 -0.1787
  294TMC3    C3 4482   1.901   3.223  12.402 -0.2959 -0.3310 -0.3631
  294TMC3    C4 4483   2.134   3.155  12.265 -0.2230 -0.6160 -0.1308
  294TMC3    C5 4484   2.022   3.198  12.203  0.1439  0.5748  0.8420
  294TMC3    C6 4485   1.914   3.231  12.268 -0.4850  0.0235  0.2695
  294TMC3     C 4486   2.245   3.095  12.468 -0.2747  0.3185 -0.1436
  294TMC3     O 4487   2.334   3.044  12.400  0.6099  0.2918  0.3270
  294TMC3     H 4488   1.994   3.153  12.574 -0.4760 -0.8910 -0.5503
  294TMC3    H1 4489   2.225   3.141  12.209  0.4477 -3.4219  1.6901
  294TMC3    H2 4490   1.837   3.281  12.210  1.3699  1.6292 -0.8089
  294TMC3    C7 4491   2.010   3.184  12.058  0.5967  0.3662 -0.6399
  294TMC3    C8 4492   1.770   3.178  12.452  0.0095 -0.1474 -0.0208
  294TMC3    O1 4493   1.910   3.229  12.005 -0.5099 -0.0860 -0.3897
  294TMC3    O2 4494   1.741   3.200  12.570 -0.2805  0.9201  0.0073
  295MPD2     C 4495   3.592   2.287   0.711  0.2296  0.4591  0.2001
  295MPD2    C1 4496   3.466   2.340   0.738  0.4936 -0.2528 -0.5563
  295MPD2    C2 4497   3.402   2.303   0.859  1.0915 -0.1452 -0.8501
  295MPD2    C3 4498   3.458   2.214   0.950  0.1028  0.1407  0.3807
  295MPD2    C4 4499   3.583   2.170   0.922 -0.9130  0.3867  0.1318
  295MPD2    C5 4500   3.647   2.202   0.802 -0.4012 -0.5800 -0.6108
  295MPD2     H 4501   3.309   2.358   0.865  0.9007 -0.5788  0.1806
  295MPD2    H1 4502   3.633   2.101   0.989 -0.1734  2.5748  1.8039
  295MPD2    H2 4503   3.650   2.303   0.621  0.1189 -1.0964 -0.1459
  295MPD2    H3 4504   3.744   2.165   0.771  0.1027  1.6998 -1.7732
  295MPD2     N 4505   3.408   2.171   1.071 -0.2456 -0.4087 -0.4441
  295MPD2    H5 4506   3.465   2.107   1.126  1.4669  1.2459 -0.2960
  295MPD2    N1 4507   3.401   2.426   0.644  0.2670  0.1217 -0.4196
  295MPD2    H7 4508   3.303   2.445   0.661  0.0198 -0.5344 -1.0904
  296TMC3    C1 4509   3.262   2.171   1.254 -0.3954 -0.0261  0.2046
  296TMC3    C2 4510   3.133   2.132   1.258  0.2801  0.3359  0.4850
  296TMC3    C3 4511   3.104   2.034   1.358 -0.0210 -0.8078 -0.1529
  296TMC3    C4 4512   3.361   2.128   1.336 -0.4691  0.1078  0.0867
  296TMC3    C5 4513   3.320   2.051   1.438  0.3226  0.7314 -0.2602
  296TMC3    C6 4514   3.195   1.996   1.453 -0.4170  0.2361  0.3092
  296TMC3     C 4515   3.296   2.232   1.128 -0.4723 -0.1523  0.4159
  296TMC3     O 4516   3.210   2.305   1.080 -0.4964  0.5446 -0.3329
  296TMC3     H 4517   3.058   2.174   1.192 -0.6766 -3.6016 -0.9060
  296TMC3    H1 4518   3.455   2.181   1.334 -1.0236  1.1170  0.4105
  296TMC3    H2 4519   3.155   1.930   1.528  1.4089 -2.4306 -1.0779
  296TMC3    C7 4520   3.421   2.028   1.537  0.3251 -0.5441  0.7414
  296TMC3    C8 4521   2.967   2.026   1.396  0.1558 -0.3875 -0.2700
  296TMC3    O1 4522   3.536   2.075   1.529  0.2427  0.2364 -0.0535
  296TMC3    O2 4523   2.929   1.933   1.465  0.1131  0.3129  0.0739
  297MPD2     C 4524   0.301   4.255  15.617  0.1387 -0.1113  0.1605
  297MPD2    C1 4525   0.359   4.343  15.700 -0.2478  0.0059  0.1040
  297MPD2    C2 4526   0.472   4.312  15.768  0.4821  0.5978  0.1581
  297MPD2    C3 4527   0.538   4.194  15.728 -0.1524 -0.1843 -0.1259
  297MPD2    C4 4528   0.483   4.108  15.640 -0.0250  0.4468  0.1888
  297MPD2    C5 4529   0.357   4.137  15.594 -0.3447 -0.1724  1.0733
  297MPD2     H 4530   0.520   4.375  15.843 -1.1529  2.6244 -0.4768
  297MPD2    H1 4531   0.539   4.022  15.606  1.5061  2.3920 -2.2177
  297MPD2    H2 4532   0.211   4.281  15.563 -0.7643 -1.8986  0.8296
  297MPD2    H3 4533   0.308   4.066  15.529 -2.7333 -1.4165  4.2136
  297MPD2     N 4534   0.675   4.188  15.771 -0.2483  0.1147 -0.3863
  297MPD2    H5 4535   0.713   4.273  15.809 -2.6141  1.6590 -1.4909
  297MPD2    N1 4536   0.320   4.480  15.720  0.4578 -0.6306  0.0948
  297MPD2    H7 4537   0.375   4.540  15.781 -0.3829 -2.1565  2.3379
  298TMC3    C1 4538   0.202   4.676  15.711  1.5523  0.8989 -0.3014
  298TMC3    C2 4539   0.318   0.008  15.732  0.5031 -0.2979 -0.7970
  298TMC3    C3 4540   0.302   0.119  15.807 -0.1690 -0.4767 -0.4568
  298TMC3    C4 4541   0.082   4.699  15.761 -0.1025 -0.6006  0.2981
  298TMC3    C5 4542   0.066   0.074  15.840  0.2803  0.3741  0.5179
  298TMC3    C6 4543   0.180   0.149  15.864 -0.2447  0.9045  0.4993
  298TMC3     C 4544   0.214   4.541  15.661 -0.1196  0.0560 -0.5387
  298TMC3     O 4545   0.143   4.498  15.569 -0.0681  0.2011 -0.3235
  298TMC3     H 4546   0.411   4.721  15.680 -1.0901  1.0960 -4.2479
  298TMC3    H1 4547   0.004   4.626  15.741 -2.1904  2.7157 -3.7525
  298TMC3    H2 4548   0.162   0.243  15.916 -0.5282  0.8096  0.5753
  298TMC3    C7 4549   4.708   0.069  15.952 -0.5171 -0.1187 -0.1089
  298TMC3    C8 4550   0.399   0.224  15.791 -0.1648  0.1537 -0.2688
  298TMC3    O1 4551   0.019   0.071  16.064  0.0922 -0.1785 -0.0236
  298TMC3    O2 4552   0.486   0.209  15.705 -0.6158 -0.1317 -0.0165
  299MPD2     C 4553   0.392   2.999  10.930 -0.2899  0.3374 -0.3837
  299MPD2    C1 4554   0.384   3.137  10.945 -0.0681  0.3186  0.2032
  299MPD2    C2 4555   0.319   3.213  10.845 -0.1194  0.3420 -0.7692
  299MPD2    C3 4556   0.258   3.144  10.744 -0.0657 -0.2300  0.0607
  299MPD2    C4 4557   0.276   3.007  10.727  0.6085 -0.6021  0.3059
  299MPD2    C5 4558   0.344   2.938  10.822  0.5458  0.0659 -0.0441
  299MPD2     H 4559   0.327   3.321  10.849  1.2952  0.1992  0.1913
  299MPD2    H1 4560   0.214   2.946  10.662 -0.3655 -0.1716  0.8298
  299MPD2    H2 4561   0.446   2.936  11.000  0.7450  1.4913 -0.1408
  299MPD2    H3 4562   0.366   2.832  10.821 -0.0838 -0.0674 -0.2122
  299MPD2     N 4563   0.189   3.218  10.646  0.0380 -0.1302  0.2080
  299MPD2    H5 4564   0.160   3.164  10.565 -1.1565 -0.9082  1.1684
  299MPD2    N1 4565   0.445   3.194  11.056 -1.0333 -0.4000  0.0064
  299MPD2    H7 4566   0.466   3.136  11.136 -2.2147 -1.4517 -0.4414
  300TMC3    C1 4567   0.088   3.397  10.529 -0.3562  0.7277  0.4475
  300TMC3    C2 4568   0.131   3.360  10.414 -0.0600 -0.4511 -0.1899
  300TMC3    C3 4569   0.090   3.424  10.299  0.3797  0.1118 -0.3894
  300TMC3    C4 4570   4.726   3.491  10.532  0.5833  0.2221  0.0387
  300TMC3    C5 4571   4.687   3.560  10.417  0.1470 -0.3486  0.6211
  300TMC3    C6 4572   0.007   3.531  10.297  0.1240 -0.2560  0.4521
  300TMC3     C 4573   0.137   3.349  10.654  0.8347 -0.2871 -0.8672
  300TMC3     O 4574   0.141   3.428  10.749  0.0311  0.0578  0.2896
  300TMC3     H 4575   0.210   3.287  10.402 -0.1383 -0.7202  0.9868
  300TMC3    H1 4576   4.696   3.539  10.625 -2.0793  0.9294 -1.1545
  300TMC3    H2 4577   4.704   3.574  10.205 -0.6450  0.9713  1.3483
  300TMC3    C7 4578   4.598   3.677  10.415  0.7437  0.2120  0.1989
  300TMC3    C8 4579   0.195   3.440  10.204 -0.1132 -0.1998  0.1290
  300TMC3    O1 4580   4.588   3.737  10.308  0.0563  0.3462 -0.3136
  300TMC3    O2 4581   0.167   3.424  10.088 -0.4820  0.1169  0.0737
  301MPD2     C 4582   3.393   0.143   1.332  0.5350 -0.4710  0.5006
  301MPD2    C1 4583   3.265   0.126   1.286  0.1113 -0.6295  0.1864
  301MPD2    C2 4584   3.214   4.730   1.253  0.0700 -0.2607  0.5489
  301MPD2    C3 4585   3.301   4.623   1.282 -0.6183 -0.6540 -0.1744
  301MPD2    C4 4586   3.427   4.644   1.331  0.3712 -0.0799  0.0541
  301MPD2    C5 4587   3.470   0.034   1.355 -0.1221  0.1546 -0.3982
  301MPD2     H 4588   3.120   4.720   1.200  0.3221 -1.0295  0.2537
  301MPD2    H1 4589   3.505   4.578   1.367  1.3968  0.8618 -0.4282
  301MPD2    H2 4590   3.432   0.240   1.358 -0.5850 -0.1575  0.9981
  301MPD2    H3 4591   3.567   0.056   1.398  0.3649  1.0214 -1.9549
  301MPD2     N 4592   3.268   4.487   1.253 -0.2578  0.6201 -0.7226
  301MPD2    H5 4593   3.330   4.416   1.291 -0.9219 -0.2662 -1.2876
  301MPD2    N1 4594   3.188   0.234   1.238 -0.2454 -0.0928  0.0731
  301MPD2    H7 4595   3.098   0.210   1.197  0.2364  1.3729 -1.8172
  302TMC3    C1 4596   3.182   4.312   1.122  0.2811  0.4693  0.5518
  302TMC3    C2 4597   3.175   4.227   1.233  0.3262  0.4841  0.4590
  302TMC3    C3 4598   3.137   4.098   1.208  0.5179 -0.9123 -0.4674
  302TMC3    C4 4599   3.149   4.272   0.993  0.2277  0.8158 -0.3302
  302TMC3    C5 4600   3.118   4.146   0.977  0.5164 -0.0293 -0.9455
  302TMC3    C6 4601   3.111   4.060   1.081 -0.4675  0.1361 -0.2572
  302TMC3     C 4602   3.194   4.452   1.144 -0.7445 -0.3586 -0.2734
  302TMC3     O 4603   3.149   4.518   1.055 -0.3513 -0.2107  0.1195
  302TMC3     H 4604   3.208   4.243   1.335  1.2658  0.2374  0.1898
  302TMC3    H1 4605   3.183   4.342   0.918  1.6154  0.5266  0.0286
  302TMC3    H2 4606   3.068   3.961   1.069  0.4351 -0.2437 -0.3492
  302TMC3    C7 4607   3.069   4.102   0.851  0.8214 -0.3374  0.7097
  302TMC3    C8 4608   3.169   3.996   1.310 -0.1066 -0.1380 -0.0087
  302TMC3    O1 4609   3.063   3.982   0.830  0.1313  0.2038 -0.5871
  302TMC3    O2 4610   3.222   4.034   1.414 -0.1007  0.1561 -0.6681
  303MPD2     C 4611   3.053   3.427  10.740  0.0992  0.6135  0.1557
  303MPD2    C1 4612   3.002   3.301  10.741 -0.5858 -0.3748  0.4880
  303MPD2    C2 4613   2.917   3.264  10.638  0.5071  0.6125  0.1913
  303MPD2    C3 4614   2.876   3.360  10.541 -0.0183  0.0294 -0.5529
  303MPD2    C4 4615   2.939   3.488  10.541 -0.1942 -0.5528  0.5131
  303MPD2    C5 4616   3.029   3.522  10.639  0.1767  0.5006  0.2300
  303MPD2     H 4617   2.887   3.160  10.630 -0.8774  1.1574 -1.7070
  303MPD2    H1 4618   2.914   3.561  10.465  0.1544 -0.4894  0.4593
  303MPD2    H2 4619   3.134   3.451  10.807  0.0502  0.5666  0.2321
  303MPD2    H3 4620   3.078   3.618  10.644 -1.2757  1.3897 -3.0290
  303MPD2     N 4621   2.782   3.330  10.436 -0.0615 -1.0734 -0.1511
  303MPD2    H5 4622   2.761   3.403  10.370  0.1965 -0.3797  0.5351
  303MPD2    N1 4623   3.045   3.214  10.843 -0.1490 -0.1054  0.6283
  303MPD2    H7 4624   3.083   3.252  10.929 -1.6419  0.1968  1.1461
  304TMC3    C1 4625   3.039   3.013  10.952 -0.4197 -0.3464 -0.5290
  304TMC3    C2 4626   2.976   3.075  11.058 -0.4003  0.7516  0.0648
  304TMC3    C3 4627   2.959   3.006  11.175  0.4608 -0.4824  0.2295
  304TMC3    C4 4628   3.067   2.879  10.941  0.5169  0.2519 -0.1351
  304TMC3    C5 4629   3.028   2.813  11.052  0.4599  0.5040  0.6344
  304TMC3    C6 4630   2.984   2.868  11.171  0.2926 -0.8924  0.5819
  304TMC3     C 4631   3.026   3.080  10.831  0.4255 -0.0376  0.1476
  304TMC3     O 4632   3.028   3.017  10.725 -0.0081  0.0971  0.5603
  304TMC3     H 4633   2.954   3.181  11.064  0.7009  1.0396 -1.0334
  304TMC3    H1 4634   3.110   2.847  10.847  0.3360 -1.1537  0.2542
  304TMC3    H2 4635   2.963   2.806  11.257  0.3392 -0.8980  0.5891
  304TMC3    C7 4636   2.976   2.683  11.032 -0.1567 -0.8297 -0.1925
  304TMC3    C8 4637   2.823   3.035  11.221 -0.7448  0.1444  0.1616
  304TMC3    O1 4638   2.872   2.667  11.098 -0.3708 -0.3550 -0.0778
  304TMC3    O2 4639   2.795   3.155  11.237  0.0159  0.2463  0.3703
  305MPD2     C 4640   0.764   0.510  14.115  0.3367 -0.7439  0.2927
  305MPD2    C1 4641   0.897   0.476  14.105 -0.1504 -0.5751  0.0932
  305MPD2    C2 4642   0.937   0.409  13.992 -0.5633  0.0848 -0.7237
  305MPD2    C3 4643   0.851   0.388  13.883 -0.1156 -0.0791 -0.2238
  305MPD2    C4 4644   0.720   0.435  13.890 -0.7916  0.1723 -0.3400
  305MPD2    C5 4645   0.678   0.487  14.008  0.7124  0.2063  0.4118
  305MPD2     H 4646   1.041   0.378  13.993 -0.6589 -0.2326 -0.1258
  305MPD2    H1 4647   0.653   0.417  13.807 -2.0908  1.2728  0.4626
  305MPD2    H2 4648   0.727   0.543  14.211  2.1500 -1.2262  1.1475
  305MPD2    H3 4649   0.571   0.499  14.022  0.4428  0.0536 -1.4012
  305MPD2     N 4650   0.898   0.343  13.755  0.6148  0.2608  0.2374
  305MPD2    H5 4651   0.834   0.349  13.676  0.9533 -2.1677 -0.2063
  305MPD2    N1 4652   0.970   0.488  14.226  0.3938 -0.3153 -0.3851
  305MPD2    H7 4653   0.916   0.545  14.290  0.4618 -1.0982  0.3675
  306TMC3    C1 4654   1.130   0.497  14.383 -0.4868  0.1943  0.4539
  306TMC3    C2 4655   1.234   0.428  14.437  0.2491 -0.0648  0.0154
  306TMC3    C3 4656   1.281   0.470  14.554 -0.3199  0.5059  0.2215
  306TMC3    C4 4657   1.093   0.617  14.431  0.1626 -0.3665  0.2720
  306TMC3    C5 4658   1.147   0.665  14.545  1.1227 -0.1486 -0.2656
  306TMC3    C6 4659   1.236   0.588  14.611  0.4016  0.5910 -0.3538
  306TMC3     C 4660   1.101   0.470  14.245  0.9081  0.4922 -0.6727
  306TMC3     O 4661   1.183   0.419  14.168  0.3616  0.0278  0.3267
  306TMC3     H 4662   1.253   0.330  14.394 -0.5210 -0.2284  0.0361
  306TMC3    H1 4663   1.030   0.675  14.365  0.2395  0.2700  0.7669
  306TMC3    H2 4664   1.274   0.621  14.707  0.1767 -0.0323 -0.0535
  306TMC3    C7 4665   1.118   0.805  14.577  0.3239  0.2456 -0.2404
  306TMC3    C8 4666   1.387   0.391  14.613 -0.8234  0.1972  0.1570
  306TMC3    O1 4667   1.028   0.853  14.513 -0.1993 -0.1446  0.9370
  306TMC3    O2 4668   1.427   0.295  14.550 -0.1967  0.1440 -0.2659
  307MPD2     C 4669   4.257   3.728   0.889 -0.5510 -0.1130  0.5783
  307MPD2    C1 4670   4.170   3.823   0.864  0.0622  0.0454 -0.5561
  307MPD2    C2 4671   4.038   3.812   0.885 -0.3771 -0.6710 -0.7357
  307MPD2    C3 4672   3.989   3.695   0.937 -0.0963 -0.2702  0.6853
  307MPD2    C4 4673   4.073   3.592   0.961  0.1928  0.4753  0.2716
  307MPD2    C5 4674   4.206   3.605   0.932 -0.5053 -0.5714  0.1696
  307MPD2     H 4675   3.963   3.889   0.870 -0.6774 -1.0371 -1.0863
  307MPD2    H1 4676   4.044   3.494   0.997  2.9605  0.5128  2.5526
  307MPD2    H2 4677   4.364   3.739   0.883 -0.5848  0.0521  0.3000
  307MPD2    H3 4678   4.275   3.522   0.935 -1.0179 -1.0668 -1.5370
  307MPD2     N 4679   3.848   3.687   0.959  0.0841 -0.5140  0.3246
  307MPD2    H5 4680   3.786   3.761   0.928  1.2138  0.7021  1.0139
  307MPD2    N1 4681   4.210   3.951   0.812  0.0641 -0.3904  0.2731
  307MPD2    H7 4682   4.129   4.012   0.801  2.1757  2.2638 -0.5403
  308TMC3    C1 4683   3.426   3.526   0.992 -0.0479  0.0920 -0.8177
  308TMC3    C2 4684   3.374   3.652   1.014  0.3884 -0.4361 -0.5284
  308TMC3    C3 4685   3.459   3.753   1.051  0.1432 -0.3185 -0.1187
  308TMC3    C4 4686   3.558   3.500   1.006  0.3462 -0.3070  0.6154
  308TMC3    C5 4687   3.641   3.607   1.024 -0.0640  0.8172  0.2796
  308TMC3    C6 4688   3.595   3.734   1.052 -0.5428  0.3452 -1.1005
  308TMC3     C 4689   3.339   3.429   0.926 -0.1998 -0.7245 -0.1948
  308TMC3     O 4690   3.345   3.315   0.963  0.8338 -0.2247  0.1579
  308TMC3     H 4691   3.270   3.677   1.003  0.0945 -0.7750  1.4002
  308TMC3    H1 4692   3.604   3.410   0.967  2.8640  0.9771  0.6082
  308TMC3    H2 4693   3.654   3.820   1.084 -0.3557  0.1126 -0.8169
  308TMC3    C7 4694   3.782   3.580   1.021 -0.1984  0.6537  0.3851
  308TMC3    C8 4695   3.427   3.894   1.027 -0.0277 -0.0926  0.4406
  308TMC3    O1 4696   3.807   3.462   1.039 -0.8108  0.1725 -0.5568
  308TMC3    O2 4697   3.333   3.907   0.952  0.4532  0.5165 -0.1838
  309MPD2     C 4698   3.599   4.137  17.215  0.5540 -0.4924  0.5378
  309MPD2    C1 4699   3.529   4.165  17.095  0.4374 -0.0254  0.2415
  309MPD2    C2 4700   3.394   4.151  17.086 -0.3420 -0.3969 -0.6025
  309MPD2    C3 4701   3.319   4.089  17.186 -0.0686  0.2010  0.2836
  309MPD2    C4 4702   3.391   4.036  17.292 -0.6510  0.8575  0.4618
  309MPD2    C5 4703   3.525   4.068  17.316 -0.0669  0.3736 -0.4211
  309MPD2     H 4704   3.349   4.165  16.989 -2.7680  0.6560  0.6736
  309MPD2    H1 4705   3.341   3.979  17.369  0.7423  0.2966  0.9588
  309MPD2    H2 4706   3.707   4.147  17.223  0.2588  0.7129  3.1057
  309MPD2    H3 4707   3.567   4.031  17.408 -1.0394  1.6049  0.5123
  309MPD2     N 4708   3.185   4.074  17.181  0.3124  0.1822  0.2838
  309MPD2    H5 4709   3.138   4.028  17.259 -1.2713 -0.3532 -0.9884
  309MPD2    N1 4710   3.588   4.229  16.986  0.1871 -0.1409 -0.0787
  309MPD2    H7 4711   3.527   4.256  16.910  0.7616  0.4599 -0.3213
  310TMC3    C1 4712   3.751   4.318  16.840 -0.2020 -0.2606 -0.1751
  310TMC3    C2 4713   3.648   4.366  16.765  0.3691  0.4879  0.5887
  310TMC3    C3 4714   3.676   4.384  16.636 -0.2916 -0.1468 -0.4754
  310TMC3    C4 4715   3.874   4.290  16.792  1.0943  0.0881 -0.0991
  310TMC3    C5 4716   3.897   4.319  16.656 -0.1548  0.1351 -0.5550
  310TMC3    C6 4717   3.797   4.365  16.575 -0.1674  0.1191  0.1223
  310TMC3     C 4718   3.718   4.253  16.969 -0.0018 -0.5939  0.7000
  310TMC3     O 4719   3.809   4.204  17.035  0.0416  0.0310 -0.3928
  310TMC3     H 4720   3.557   4.398  16.814 -0.1005 -1.0760  0.7397
  310TMC3    H1 4721   3.942   4.238  16.859 -0.4716 -0.4990  1.0271
  310TMC3    H2 4722   3.815   4.377  16.468 -3.2075  0.2353 -0.3740
  310TMC3    C7 4723   4.009   4.236  16.590 -0.0143 -0.1375  0.2398
  310TMC3    C8 4724   3.571   4.440  16.547 -0.5096 -0.1549 -0.1778
  310TMC3    O1 4725   3.999   4.239  16.464 -0.3118  0.0739  0.1685
  310TMC3    O2 4726   3.453   4.427  16.579 -0.0063  0.5045 -0.3487
  311MPD2     C 4727   0.396   0.256  12.560  0.4771  0.2544  0.3735
  311MPD2    C1 4728   0.361   0.298  12.689  0.5917  0.0339 -0.5293
  311MPD2    C2 4729   0.229   0.313  12.723  1.1994 -0.1921 -0.8459
  311MPD2    C3 4730   0.128   0.267  12.638  0.2553  0.1978  0.2622
  311MPD2    C4 4731   0.167   0.208  12.511 -0.3738 -0.2670 -0.3356
  311MPD2    C5 4732   0.299   0.212  12.470  0.0088 -0.2177  0.0127
  311MPD2     H 4733   0.211   0.345  12.825 -0.2021 -0.0113 -1.1514
  311MPD2    H1 4734   0.094   0.174  12.438  0.3746 -0.4993 -0.9758
  311MPD2    H2 4735   0.501   0.257  12.533  0.5224 -0.4071  0.5285
  311MPD2    H3 4736   0.334   0.174  12.375 -1.2439 -1.1619 -0.0831
  311MPD2     N 4737   4.727   0.296  12.675  0.8598 -0.1898  0.2024
  311MPD2    H5 4738   4.716   0.347  12.763 -1.4323  2.2239 -1.4589
  311MPD2    N1 4739   0.459   0.327  12.783 -0.0605  0.4540 -0.5078
  311MPD2    H7 4740   0.423   0.374  12.866 -2.1439  0.1659 -1.2394
  312TMC3    C1 4741   4.497   0.280  12.679  0.4604  0.7591 -0.0542
  312TMC3    C2 4742   4.393   0.187  12.673 -0.0337 -0.0446  0.7662
  312TMC3    C3 4743   4.279   0.227  12.731 -0.4484  0.4142 -0.5861
  312TMC3    C4 4744   4.481   0.408  12.729  0.2480  0.0885 -0.2638
  312TMC3    C5 4745   4.363   0.440  12.785  0.1442 -0.3566 -0.0541
  312TMC3    C6 4746   4.256   0.352  12.788  0.7274 -0.3462  0.2763
  312TMC3     C 4747   4.619   0.250  12.605  0.1016 -0.4596  0.1900
  312TMC3     O 4748   4.602   0.190  12.498  0.7090 -0.8119  0.1370
  312TMC3     H 4749   4.387   0.088  12.629 -3.2855  0.4548  0.1323
  312TMC3    H1 4750   4.559   0.483  12.726  2.3879 -2.2422 -2.6542
  312TMC3    H2 4751   4.166   0.377  12.844  0.7741  0.2460  0.0906
  312TMC3    C7 4752   4.369   0.529  12.898  0.2299  0.2338 -0.4698
  312TMC3    C8 4753   4.162   0.143  12.714  0.1245  0.2587 -0.4261
  312TMC3    O1 4754   4.327   0.487  13.005  0.5730  0.0955 -0.3542
  312TMC3    O2 4755   4.174   0.021  12.712 -0.1905 -0.7687 -0.5682
  313MPD2     C 4756   3.222   4.414  11.324 -0.2713 -0.0823 -0.8462
  313MPD2    C1 4757   3.320   4.412  11.224 -0.0818  0.4243  0.1707
  313MPD2    C2 4758   3.397   4.301  11.217 -0.2803 -0.2695  0.0436
  313MPD2    C3 4759   3.374   4.187  11.301 -0.4950  0.3218  1.0711
  313MPD2    C4 4760   3.280   4.194  11.397  0.2640  0.9955  0.3180
  313MPD2    C5 4761   3.207   4.311  11.412 -0.9731 -0.0884 -0.1936
  313MPD2     H 4762   3.467   4.288  11.134 -0.8897  2.5987 -0.9217
  313MPD2    H1 4763   3.272   4.115  11.471  1.5509  0.7257  0.1773
  313MPD2    H2 4764   3.179   4.513  11.323 -1.6948 -0.7039 -0.5831
  313MPD2    H3 4765   3.148   4.334  11.500 -3.6625 -0.4787 -1.9163
  313MPD2     N 4766   3.455   4.076  11.275 -0.1124 -0.4007  0.8759
  313MPD2    H5 4767   3.523   4.088  11.201 -0.5465 -0.0657  0.5359
  313MPD2    N1 4768   3.336   4.513  11.125 -0.0903  0.6361 -0.6905
  313MPD2    H7 4769   3.392   4.501  11.041 -1.8613 -0.7614 -1.6827
  314TMC3    C1 4770   3.357   4.719  11.040 -1.2506  0.1654 -0.4470
  314TMC3    C2 4771   3.431   0.102  11.060 -0.6862 -0.1211 -0.3039
  314TMC3    C3 4772   3.520   0.133  10.957 -0.3461  0.2567 -0.6459
  314TMC3    C4 4773   3.356   4.652  10.922 -0.3236  0.3254  0.4184
  314TMC3    C5 4774   3.442   4.693  10.819 -0.3071  0.4651  0.6204
  314TMC3    C6 4775   3.533   0.054  10.845 -0.7161  0.2586 -0.2970
  314TMC3     C 4776   3.307   4.647  11.150 -0.3670  0.4964  0.0792
  314TMC3     O 4777   3.282   4.703  11.255  0.1225 -0.4113 -0.4438
  314TMC3     H 4778   3.417   0.155  11.153 -0.7836  1.9424 -1.4951
  314TMC3    H1 4779   3.284   4.573  10.903 -1.2348  1.3654 -0.4989
  314TMC3    H2 4780   3.616   0.067  10.776  0.6328  1.9621  1.6435
  314TMC3    C7 4781   3.497   4.569  10.757  0.9573  0.2666 -0.0094
  314TMC3    C8 4782   3.622   0.237  10.968 -0.4812 -0.5181 -0.4696
  314TMC3    O1 4783   3.496   4.474  10.837  0.0542  0.0407 -0.5693
  314TMC3    O2 4784   3.710   0.241  10.883 -0.3814 -0.0545 -0.2853
  315MPD2     C 4785   4.357   3.808   0.004 -0.0286 -0.1435  0.3608
  315MPD2    C1 4786   4.483   3.773   0.009  0.3729 -0.1471 -0.4305
  315MPD2    C2 4787   4.573   3.838  17.671 -0.0805 -0.0985  0.6417
  315MPD2    C3 4788   4.539   3.946  17.592 -0.7734  0.1457 -0.0992
  315MPD2    C4 4789   4.411   3.992  17.594  0.0965  0.3516  0.2537
  315MPD2    C5 4790   4.321   3.915  17.669 -0.8692 -0.3879 -0.4344
  315MPD2     H 4791   4.676   3.807  17.682 -0.1941 -0.5119  0.5484
  315MPD2    H1 4792   4.378   4.073  17.530 -4.3426 -0.8325  1.0412
  315MPD2    H2 4793   4.277   3.771   0.067 -1.3948  1.0067 -0.6936
  315MPD2    H3 4794   4.215   3.937  17.677 -1.1649 -1.7729 -0.5765
  315MPD2     N 4795   4.639   3.989  17.508 -0.6972 -0.0337  0.2004
  315MPD2    H5 4796   4.726   3.937  17.508  0.0628  1.2254  2.4246
  315MPD2    N1 4797   4.537   3.671   0.095 -0.2857 -0.1400  0.0340
  315MPD2    H7 4798   4.637   3.659   0.102 -0.2117  0.9586  0.8845
  316TMC3    C1 4799   0.035   4.130  17.365  0.6974  0.2183 -0.4866
  316TMC3    C2 4800   0.148   4.092  17.428  0.3091  0.1661  0.6567
  316TMC3    C3 4801   0.267   4.145  17.373 -0.4095 -0.3842 -0.4775
  316TMC3    C4 4802   0.035   4.198  17.245 -0.0809  0.0921  0.4024
  316TMC3    C5 4803   0.154   4.237  17.190 -0.8286 -0.0464 -0.4367
  316TMC3    C6 4804   0.266   4.212  17.255 -0.1203 -0.3104  0.3598
  316TMC3     C 4805   4.636   4.103  17.429 -0.5886  0.2490  0.2540
  316TMC3     O 4806   4.549   4.179  17.385 -0.0658 -0.4739 -0.5285
  316TMC3     H 4807   0.151   4.058  17.531 -2.9737 -0.1303  0.6638
  316TMC3    H1 4808   4.673   4.232  17.209  0.2714  3.6153  2.7930
  316TMC3    H2 4809   0.363   4.250  17.224 -0.3702  1.4706  1.8220
  316TMC3    C7 4810   0.167   4.263  17.048 -0.0843  0.4712  0.9006
  316TMC3    C8 4811   0.396   4.126  17.433 -0.4270 -0.5446 -0.3541
  316TMC3    O1 4812   0.260   4.213  16.988  0.2417  0.0148 -0.0861
  316TMC3    O2 4813   0.474   4.216  17.412 -0.0096  0.2298  0.0069
  317MPD2     C 4814   1.722   2.249  12.962 -0.2157 -0.0931  0.4958
  317MPD2    C1 4815   1.743   2.115  12.928 -0.6962  0.3407 -0.6584
  317MPD2    C2 4816   1.752   2.025  13.036  0.3873 -0.3796 -0.0471
  317MPD2    C3 4817   1.758   2.074  13.161  0.2202  0.3174  0.0880
  317MPD2    C4 4818   1.750   2.214  13.188 -0.1651 -0.4533  0.3716
  317MPD2    C5 4819   1.718   2.297  13.087  0.9946 -0.4129  0.2809
  317MPD2     H 4820   1.743   1.919  13.018  0.2344 -0.2103 -0.9512
  317MPD2    H1 4821   1.751   2.257  13.287 -0.1793  4.2959 -1.6945
  317MPD2    H2 4822   1.714   2.328  12.889  0.1631 -0.8109 -0.3193
  317MPD2    H3 4823   1.697   2.401  13.104  0.3564 -0.8653  2.3105
  317MPD2     N 4824   1.784   1.984  13.264 -0.4692 -0.3524 -0.1521
  317MPD2    H5 4825   1.792   1.885  13.241 -0.6565 -0.3639 -0.1641
  317MPD2    N1 4826   1.743   2.067  12.794 -0.5407  0.2163  0.3889
  317MPD2    H7 4827   1.766   1.969  12.787 -1.2401  0.2150 -2.1272
  318TMC3    C1 4828   1.846   1.899  13.479 -0.5788  0.0978 -0.0650
  318TMC3    C2 4829   1.774   1.784  13.452 -0.8680 -0.4498 -0.2807
  318TMC3    C3 4830   1.806   1.677  13.531 -0.1476 -0.5706  0.4095
  318TMC3    C4 4831   1.954   1.907  13.567 -0.6268 -0.4530 -0.1780
  318TMC3    C5 4832   1.989   1.787  13.629  0.0989 -0.2697 -0.0663
  318TMC3    C6 4833   1.913   1.668  13.614 -0.0369  0.0914  0.2884
  318TMC3     C 4834   1.823   2.019  13.396 -0.4168 -0.1697 -0.1258
  318TMC3     O 4835   1.864   2.129  13.439  0.0040 -0.7942 -0.1425
  318TMC3     H 4836   1.681   1.787  13.397 -1.3143 -0.2994  0.4871
  318TMC3    H1 4837   2.018   1.993  13.578  0.8126 -1.3648 -1.4423
  318TMC3    H2 4838   1.949   1.572  13.650 -2.6406 -0.7688  0.6165
  318TMC3    C7 4839   2.139   1.779  13.637  0.7991 -0.3112 -0.0745
  318TMC3    C8 4840   1.723   1.559  13.522  0.0150 -0.4934  0.2474
  318TMC3    O1 4841   2.204   1.867  13.574 -0.3494  0.0045 -0.4437
  318TMC3    O2 4842   1.741   1.467  13.596 -0.2241  0.5452 -0.3592
  319MPD2     C 4843   2.559   3.502  16.259 -0.4079 -0.6379 -0.4543
  319MPD2    C1 4844   2.513   3.448  16.384  0.7475  0.7098  0.3651
  319MPD2    C2 4845   2.424   3.352  16.378  0.1288  0.7647  0.6206
  319MPD2    C3 4846   2.367   3.311  16.256 -0.0722  0.5164 -0.2721
  319MPD2    C4 4847   2.424   3.356  16.135  0.0159 -0.0020 -0.0443
  319MPD2    C5 4848   2.521   3.454  16.138  0.6336 -0.5363 -0.4985
  319MPD2     H 4849   2.377   3.310  16.467  2.0807 -1.2817  0.6864
  319MPD2    H1 4850   2.381   3.318  16.043 -0.6293  0.9725 -0.1475
  319MPD2    H2 4851   2.637   3.578  16.253 -1.0379 -0.1033 -1.8587
  319MPD2    H3 4852   2.571   3.497  16.052  1.9610 -2.9232 -0.9331
  319MPD2     N 4853   2.258   3.219  16.256  0.2244 -0.0853 -0.2258
  319MPD2    H5 4854   2.218   3.205  16.164  0.2687 -2.0793  0.0466
  319MPD2    N1 4855   2.545   3.498  16.515 -0.3211 -0.1369 -0.3876
  319MPD2    H7 4856   2.520   3.443  16.596 -1.6758  1.4645  0.2798
  320TMC3    C1 4857   2.093   3.080  16.335 -0.1570 -0.0743  0.0239
  320TMC3    C2 4858   2.010   3.119  16.234  0.1584  0.5075  0.4381
  320TMC3    C3 4859   1.941   3.014  16.171 -0.3539  0.2554  0.0435
  320TMC3    C4 4860   2.098   2.952  16.390 -0.4364  0.7798  0.5433
  320TMC3    C5 4861   2.017   2.858  16.333  0.1037 -0.5340  0.5377
  320TMC3    C6 4862   1.938   2.881  16.222  0.4764  0.2899  0.3243
  320TMC3     C 4863   2.205   3.163  16.370 -0.1889  0.6199 -0.4885
  320TMC3     O 4864   2.237   3.154  16.485  0.7057 -0.1761 -0.2041
  320TMC3     H 4865   2.010   3.220  16.195  1.3736  0.0566 -0.7307
  320TMC3    H1 4866   2.176   2.925  16.460 -1.2557 -1.4358  0.5978
  320TMC3    H2 4867   1.889   2.798  16.173 -0.8205  0.6145  1.0686
  320TMC3    C7 4868   2.063   2.721  16.349  0.0346 -0.0336 -0.2853
  320TMC3    C8 4869   1.912   3.030  16.027 -0.2399 -0.7229 -0.0417
  320TMC3    O1 4870   2.017   2.636  16.274  0.4844  0.6494 -0.0365
  320TMC3    O2 4871   1.893   2.925  15.966  0.0439  0.2474  0.2256
  321TMC3    C1 4872   2.628   3.641  16.675 -0.2156 -0.0153 -0.4682
  321TMC3    C2 4873   2.522   3.622  16.758 -0.0902 -0.8305  0.2212
  321TMC3    C3 4874   2.535   3.668  16.885  0.2191 -0.0884  0.1310
  321TMC3    C4 4875   2.738   3.721  16.713  0.0110 -0.2113  0.0709
  321TMC3    C5 4876   2.734   3.776  16.841 -0.0031 -0.2558 -0.3676
  321TMC3    C6 4877   2.625   3.764  16.920  0.1129 -0.0742 -0.0666
  321TMC3     C 4878   2.624   3.611  16.536  0.3210  0.2795 -0.6160
  321TMC3     O 4879   2.687   3.679  16.458 -0.6515  0.1661  0.5167
  321TMC3     H 4880   2.445   3.549  16.737 -0.9364 -0.0984  0.8042
  321TMC3    H1 4881   2.827   3.721  16.651  0.6439  0.2136  0.9766
  321TMC3    H2 4882   2.628   3.797  17.023  1.5584 -0.5909  0.0462
  321TMC3    C7 4883   2.848   3.790  16.933  0.1290 -0.3043  0.4824
  321TMC3    C8 4884   2.507   3.567  16.991 -0.5171 -0.4357 -0.1179
  321TMC3    O1 4885   2.833   3.752  17.047  0.2119 -0.1878  0.0770
  321TMC3    O2 4886   2.422   3.481  16.966 -0.5169 -0.0557  0.2102
  322MPD2     C 4887   0.935   4.553  13.644  0.0212 -0.2799  0.2096
  322MPD2    C1 4888   1.005   4.497  13.751  0.1025 -0.7827  0.2014
  322MPD2    C2 4889   1.092   4.391  13.739  0.0789  0.3277  0.4045
  322MPD2    C3 4890   1.112   4.346  13.617 -0.1707  0.4523  0.3234
  322MPD2    C4 4891   1.056   4.407  13.502 -0.1858  0.4765  0.2044
  322MPD2    C5 4892   0.964   4.507  13.518  0.1620  0.8118  0.8748
  322MPD2     H 4893   1.144   4.347  13.823 -1.7943 -1.8947  0.4176
  322MPD2    H1 4894   1.090   4.385  13.401  1.2765 -0.2719  0.8717
  322MPD2    H2 4895   0.860   4.624  13.678  0.0680 -0.2032  0.1498
  322MPD2    H3 4896   0.905   4.549  13.437 -2.2537 -1.7782  1.3110
  322MPD2     N 4897   1.200   4.233  13.607 -0.1011  0.1104  0.6125
  322MPD2    H5 4898   1.237   4.209  13.699  1.0165 -0.1757  0.0763
  322MPD2    N1 4899   0.988   4.557  13.876 -0.4187 -0.0844  0.3109
  322MPD2    H7 4900   0.924   4.635  13.869  2.0177  1.8458 -0.5178
  323TMC3    C1 4901   1.051   4.643  14.081  0.1924  0.1533  0.1282
  323TMC3    C2 4902   1.133   0.010  14.031  0.4144  0.0976 -0.4612
  323TMC3    C3 4903   1.206   0.084  14.125 -0.3973 -0.3698 -0.1011
  323TMC3    C4 4904   1.048   4.609  14.214  0.1172 -0.3503  0.4062
  323TMC3    C5 4905   1.122   4.681  14.306 -0.0792  0.0077 -0.6848
  323TMC3    C6 4906   1.198   0.054  14.262 -0.1716 -0.4037 -0.0301
  323TMC3     C 4907   1.039   4.523  13.997 -0.3523 -0.6987  0.1809
  323TMC3     O 4908   1.102   4.431  14.040  0.1648  0.3610 -0.1447
  323TMC3     H 4909   1.129   0.026  13.924 -1.2275 -2.3715 -0.7817
  323TMC3    H1 4910   0.997   4.516  14.236  2.9939 -1.6356  1.6661
  323TMC3    H2 4911   1.261   0.111  14.329  0.1806  0.6363 -1.2543
  323TMC3    C7 4912   1.164   4.605  14.418  0.2707  0.1554  0.4424
  323TMC3    C8 4913   1.338   0.130  14.090  0.1137  0.2849 -0.3106
  323TMC3    O1 4914   1.107   4.501  14.437 -0.1583 -0.0787  0.0266
  323TMC3    O2 4915   1.423   0.113  14.174  0.3297 -0.3508 -0.3518
  324MPD2     C 4916   3.182   0.726  14.050  0.3676 -0.0530 -0.2238
  324MPD2    C1 4917   3.187   0.822  14.149  0.2730 -0.1045 -0.3233
  324MPD2    C2 4918   3.083   0.838  14.231 -0.4599  0.3233 -0.2755
  324MPD2    C3 4919   2.978   0.752  14.223  0.2352  0.3982  0.0037
  324MPD2    C4 4920   2.972   0.661  14.117 -0.0136  0.3028 -0.7128
  324MPD2    C5 4921   3.080   0.640  14.034 -0.7012  0.0902 -0.4216
  324MPD2     H 4922   3.079   0.923  14.298 -1.3324 -0.5741  0.7989
  324MPD2    H1 4923   2.895   0.585  14.119  1.3391 -0.9338  3.9685
  324MPD2    H2 4924   3.274   0.712  13.994  0.6755  0.6342  0.1031
  324MPD2    H3 4925   3.085   0.560  13.962 -1.6668 -0.2597 -0.1049
  324MPD2     N 4926   2.858   0.780  14.290 -0.3760 -0.0998  0.2226
  324MPD2    H5 4927   2.780   0.723  14.259 -1.7452  0.7126  2.1651
  324MPD2    N1 4928   3.305   0.900  14.185  0.1528  0.5919  0.2297
  324MPD2    H7 4929   3.314   0.938  14.278 -2.0968 -0.1309  0.7501
  325TMC3    C1 4930   2.692   0.862  14.445  0.5445 -0.0170 -0.1789
  325TMC3    C2 4931   2.598   0.862  14.345 -0.5498 -0.5881 -0.9051
  325TMC3    C3 4932   2.467   0.862  14.390 -0.5716 -0.6491 -0.3953
  325TMC3    C4 4933   2.670   0.888  14.575 -0.4741  0.2422  0.4350
  325TMC3    C5 4934   2.539   0.890  14.614 -0.1633 -0.5766 -0.1163
  325TMC3    C6 4935   2.434   0.882  14.521  0.0191 -0.2498  0.1443
  325TMC3     C 4936   2.830   0.862  14.402 -0.1328 -0.2089 -0.5901
  325TMC3     O 4937   2.910   0.932  14.466  0.0104 -0.2626 -0.0778
  325TMC3     H 4938   2.622   0.847  14.240 -1.2269  1.1472 -1.2964
  325TMC3    H1 4939   2.750   0.883  14.648 -0.7479  1.3742  0.8221
  325TMC3    H2 4940   2.331   0.879  14.554  0.0078 -0.2458  0.1092
  325TMC3    C7 4941   2.523   0.921  14.753 -0.0343 -0.0163 -0.3664
  325TMC3    C8 4942   2.378   0.806  14.298 -0.1897  0.1249 -0.3230
  325TMC3    O1 4943   2.605   0.885  14.835  0.2649 -0.2777 -0.4204
  325TMC3    O2 4944   2.406   0.827  14.181 -0.2241  0.6344  0.0975
  326MPD2     C 4945   3.596   2.010  11.240 -0.3508  0.4660 -0.4217
  326MPD2    C1 4946   3.537   2.039  11.122  0.9899  0.7309 -0.0238
  326MPD2    C2 4947   3.619   2.072  11.013 -0.1849 -0.1227 -0.2109
  326MPD2    C3 4948   3.759   2.085  11.030  0.5902  0.0137  0.4971
  326MPD2    C4 4949   3.812   2.037  11.150 -0.0169  0.2157 -0.0344
  326MPD2    C5 4950   3.732   1.989  11.250 -0.8342  0.6055 -0.3343
  326MPD2     H 4951   3.567   2.112  10.927  1.8061  0.8045 -0.9902
  326MPD2    H1 4952   3.919   2.031  11.169  0.1312  0.2938 -0.8152
  326MPD2    H2 4953   3.538   1.987  11.328 -1.9334 -2.6526 -2.2673
  326MPD2    H3 4954   3.776   1.969  11.347 -0.4973  0.3234 -0.5424
  326MPD2     N 4955   3.835   2.122  10.923 -0.2607  0.4556  0.1206
  326MPD2    H5 4956   3.787   2.144  10.836 -0.0400 -2.2339 -0.6780
  326MPD2    N1 4957   3.398   2.052  11.100 -0.1965 -0.0324  0.7009
  326MPD2    H7 4958   3.369   2.085  11.009  0.8988  0.2568  0.4632
  327TMC3    C1 4959   3.178   1.974  11.110 -0.4458 -0.8389  0.4906
  327TMC3    C2 4960   3.150   2.077  11.030  0.3571  0.2232 -0.0637
  327TMC3    C3 4961   3.097   2.045  10.905  0.4224  0.0152 -0.5581
  327TMC3    C4 4962   3.156   1.841  11.082  0.0180  0.1656  0.3693
  327TMC3    C5 4963   3.119   1.816  10.957 -0.0104 -0.4381  0.1997
  327TMC3    C6 4964   3.082   1.913  10.870 -0.1138  0.1242 -0.3576
  327TMC3     C 4965   3.306   1.985  11.176 -0.1320 -0.2191  0.6879
  327TMC3     O 4966   3.333   1.887  11.243  0.2480  0.4037  0.0638
  327TMC3     H 4967   3.173   2.180  11.055  4.7100 -0.7638 -0.0269
  327TMC3    H1 4968   3.179   1.769  11.160  1.3169 -0.3651 -0.5045
  327TMC3    H2 4969   3.050   1.882  10.771 -2.5857 -0.2454  0.5713
  327TMC3    C7 4970   3.204   1.712  10.888  0.7303  0.5662  0.3249
  327TMC3    C8 4971   3.156   2.123  10.792 -0.1374  0.3513 -0.3653
  327TMC3    O1 4972   3.206   1.718  10.765 -0.0558  0.1634  0.2449
  327TMC3    O2 4973   3.257   2.187  10.823 -0.1657  0.0698  0.2737
  328MPD2     C 4974   2.234   1.923  17.165 -0.5397  0.0122 -0.1292
  328MPD2    C1 4975   2.146   1.819  17.175  0.5489 -0.5563 -0.1324
  328MPD2    C2 4976   2.076   1.770  17.067 -0.2723 -0.4022 -0.2650
  328MPD2    C3 4977   2.086   1.840  16.949 -0.3264 -0.2963  0.0838
  328MPD2    C4 4978   2.177   1.945  16.936 -0.2650 -0.2158  0.5727
  328MPD2    C5 4979   2.251   1.986  17.043 -0.0743 -0.7803  0.7951
  328MPD2     H 4980   2.004   1.690  17.078  0.7154 -1.6625 -2.7981
  328MPD2    H1 4981   2.168   2.016  16.855 -0.1600 -0.1023  0.6615
  328MPD2    H2 4982   2.291   1.959  17.250  0.5141 -0.6540 -0.5556
  328MPD2    H3 4983   2.309   2.077  17.039  1.3899 -1.7421 -0.4368
  328MPD2     N 4984   1.992   1.823  16.844 -0.5431 -0.3980 -0.1494
  328MPD2    H5 4985   1.993   1.890  16.769 -2.7182  2.0777  2.0447
  328MPD2    N1 4986   2.134   1.764  17.307  0.2754  0.4797  0.3882
  328MPD2    H7 4987   2.167   1.817  17.386  2.7097  1.6443 -1.4215
  329TMC3    C1 4988   2.060   1.644  17.495  0.3531  0.1877 -0.3160
  329TMC3    C2 4989   2.070   1.754  17.571  0.3749  0.6528 -0.8638
  329TMC3    C3 4990   2.042   1.737  17.701 -0.4858  0.3020 -0.1600
  329TMC3    C4 4991   2.005   1.530  17.545 -0.1696 -0.5211  0.1511
  329TMC3    C5 4992   1.974   1.519  17.683  0.2757  0.4484 -0.1852
  329TMC3    C6 4993   1.999   1.622   0.027  0.0857  0.0906  0.3592
  329TMC3     C 4994   2.061   1.660  17.349 -0.2357 -0.0130  0.6590
  329TMC3     O 4995   2.021   1.567  17.287  0.4338  0.1755 -0.2469
  329TMC3     H 4996   2.093   1.856  17.543  1.8420  1.1993  2.2852
  329TMC3    H1 4997   1.976   1.451  17.477 -2.4268 -0.7104  1.3361
  329TMC3    H2 4998   1.978   1.614   0.133 -1.1602  1.2512  0.1915
  329TMC3    C7 4999   1.945   1.387   0.004  0.4358 -0.1725  0.1907
  329TMC3    C8 5000   2.105   1.833   0.049  0.5773  0.8299  0.1585
  329TMC3    O1 5001   1.953   1.387   0.127  0.2685  0.5039 -0.2207
  329TMC3    O2 5002   2.225   1.850   0.022 -0.0339  0.0219  0.0678
  330TMC3    C1 5003   4.199   1.445   9.733  0.7260 -0.0957  0.0176
  330TMC3    C2 5004   4.089   1.389   9.799  0.2231  0.8691 -0.3679
  330TMC3    C3 5005   4.103   1.376   9.934  0.1404 -0.1279  0.6115
  330TMC3    C4 5006   4.316   1.479   9.799  1.0920 -0.0166 -0.3292
  330TMC3    C5 5007   4.319   1.472   9.935  0.9795 -0.4278 -0.9000
  330TMC3    C6 5008   4.217   1.412  10.002  0.5291 -0.1543  0.0106
  330TMC3     C 5009   4.193   1.450   9.586  0.0215 -0.3947  0.0806
  330TMC3     O 5010   4.287   1.391   9.529 -0.6299 -0.7221 -0.3793
  330TMC3     H 5011   3.999   1.361   9.745  0.6172 -3.2710  1.0862
  330TMC3    H1 5012   4.394   1.533   9.748  0.3614  0.9373 -0.4421
  330TMC3    H2 5013   4.204   1.416  10.109  1.3410 -0.8183  0.1302
  330TMC3    C7 5014   4.450   1.490  10.003  0.2385  0.4942  0.7008
  330TMC3    C8 5015   3.987   1.335  10.004 -0.1809 -0.9297  0.1948
  330TMC3    O1 5016   4.517   1.574   9.944 -0.2639  0.4701 -0.2511
  330TMC3    O2 5017   3.969   1.385  10.116  0.4525 -0.7220  0.6792
  331MPD2     C 5018   2.460   0.485  12.899 -0.1793 -0.3069  0.0523
  331MPD2    C1 5019   2.384   0.382  12.850  0.5289 -0.0389  0.4887
  331MPD2    C2 5020   2.408   0.261  12.918  0.8153  0.4480  0.6282
  331MPD2    C3 5021   2.501   0.242  13.018  0.2433 -0.7664  0.5549
  331MPD2    C4 5022   2.566   0.356  13.068 -0.3033  0.5575 -0.0749
  331MPD2    C5 5023   2.537   0.478  13.007 -0.2564  0.7900  0.6226
  331MPD2     H 5024   2.341   0.177  12.903 -0.3093  1.0800  2.1571
  331MPD2    H1 5025   2.640   0.340  13.146 -0.2295  0.0597 -0.2439
  331MPD2    H2 5026   2.457   0.587  12.861 -1.1299  0.1591  1.3991
  331MPD2    H3 5027   2.585   0.568  13.044 -1.8835  1.2927  1.5081
  331MPD2     N 5028   2.515   0.111  13.062 -0.2347 -0.1877  0.2986
  331MPD2    H5 5029   2.451   0.044  13.022 -2.2554  0.8704  1.7467
  331MPD2    N1 5030   2.297   0.405  12.740 -1.0383 -0.2754 -0.7975
  331MPD2    H7 5031   2.298   0.496  12.694 -3.3399  0.4094  0.4920
  332TMC3    C1 5032   2.627   4.651  13.145  0.3406  0.4328 -0.1552
  332TMC3    C2 5033   2.510   4.584  13.131 -0.0287  0.0661 -0.0066
  332TMC3    C3 5034   2.521   4.447  13.122  0.0614  0.1428 -0.2940
  332TMC3    C4 5035   2.754   4.589  13.146 -0.0576  0.0455 -0.2185
  332TMC3    C5 5036   2.754   4.454  13.124 -0.1424 -0.3774 -0.2199
  332TMC3    C6 5037   2.639   4.384  13.115  0.4251  0.0670 -0.0417
  332TMC3     C 5038   2.627   0.059  13.125 -0.3545  0.3354  0.3439
  332TMC3     O 5039   2.729   0.121  13.158 -0.4429 -0.0162  0.6074
  332TMC3     H 5040   2.414   4.636  13.134  0.6265  1.2398  0.5417
  332TMC3    H1 5041   2.844   4.648  13.163 -1.2766  2.0832 -0.8332
  332TMC3    H2 5042   2.635   4.282  13.079  3.3222 -0.3844  0.9433
  332TMC3    C7 5043   2.874   4.392  13.098 -0.4239 -0.5695  0.2672
  332TMC3    C8 5044   2.396   4.380  13.072  0.3412 -0.4714 -0.3244
  332TMC3    O1 5045   2.970   4.464  13.086  0.0363  0.0405  0.3573
  332TMC3    O2 5046   2.414   4.294  12.986 -0.1393 -0.3637 -0.3280
  333MPD2     C 5047   1.991   0.326  11.063  0.3123  0.4854 -0.2198
  333MPD2    C1 5048   2.122   0.291  11.080 -0.0996 -0.6698  0.1324
  333MPD2    C2 5049   2.163   0.193  11.165  0.8499 -0.4729  0.4226
  333MPD2    C3 5050   2.073   0.110  11.228  0.3152  0.0404  0.3849
  333MPD2    C4 5051   1.940   0.131  11.203 -0.5225 -0.3295  0.4829
  333MPD2    C5 5052   1.901   0.243  11.129 -0.3938 -0.5040  0.3222
  333MPD2     H 5053   2.269   0.176  11.184  1.6188  0.7006 -2.7083
  333MPD2    H1 5054   1.854   0.075  11.237 -0.5790 -0.5941 -0.0886
  333MPD2    H2 5055   1.972   0.410  10.998 -2.1166 -0.1469 -0.3028
  333MPD2    H3 5056   1.796   0.270  11.124 -0.3944 -0.4544  0.5796
  333MPD2     N 5057   2.124   0.006  11.315 -0.1270 -0.1271 -0.1082
  333MPD2    H5 5058   2.223   4.718  11.313 -0.5421 -1.9598  0.3041
  333MPD2    N1 5059   2.219   0.365  11.011 -0.1708 -0.2414 -0.2697
  333MPD2    H7 5060   2.188   0.452  10.971  1.8218 -0.2512 -1.8046
  334TMC3    C1 5061   2.441   0.397  10.917 -0.4900 -0.4003  0.3712
  334TMC3    C2 5062   2.564   0.337  10.901 -0.0314 -0.4439 -0.4641
  334TMC3    C3 5063   2.664   0.399  10.833  0.9564 -0.0426  0.4613
  334TMC3    C4 5064   2.410   0.526  10.883  0.1533 -0.0654 -0.5343
  334TMC3    C5 5065   2.518   0.582  10.808 -0.4093  0.0737 -0.2287
  334TMC3    C6 5066   2.639   0.523  10.794 -0.1291 -0.5833 -0.4330
  334TMC3     C 5067   2.334   0.307  10.969  0.1524 -0.2072 -0.0327
  334TMC3     O 5068   2.365   0.185  10.970  0.0767  0.9323 -0.2554
  334TMC3     H 5069   2.577   0.235  10.935  0.9761  0.1185  0.8329
  334TMC3    H1 5070   2.309   0.565  10.884 -0.1738 -0.9247 -0.3505
  334TMC3    H2 5071   2.718   0.575  10.741 -1.7986  0.6879 -1.6811
  334TMC3    C7 5072   2.495   0.710  10.753  0.4344  0.2763  0.5273
  334TMC3    C8 5073   2.793   0.329  10.818 -0.3535 -0.0569  0.5082
  334TMC3    O1 5074   2.598   0.769  10.726  0.0775  0.4535 -0.7815
  334TMC3    O2 5075   2.822   0.240  10.898 -0.0612 -0.4050  0.6393
  335TMC3    C1 5076   3.039   2.512  17.500  0.7176 -0.3883  0.1774
  335TMC3    C2 5077   2.989   2.454  17.386 -0.3177 -0.3817 -0.0144
  335TMC3    C3 5078   3.025   2.506  17.261  0.0430  0.1133 -0.6089
  335TMC3    C4 5079   3.129   2.618  17.494 -0.5897 -0.0933  0.4571
  335TMC3    C5 5080   3.173   2.660  17.369  0.1244 -0.0886  0.0062
  335TMC3    C6 5081   3.112   2.610  17.256 -0.4428  0.0729 -0.8523
  335TMC3     C 5082   2.988   2.462  17.630 -1.0859  0.0618 -0.0822
  335TMC3     O 5083   2.947   2.346  17.623 -0.3147  0.2400  0.7399
  335TMC3     H 5084   2.919   2.373  17.404 -0.9692  0.1499 -0.1905
  335TMC3    H1 5085   3.193   2.640  17.579 -0.7132 -0.8571  0.7477
  335TMC3    H2 5086   3.148   2.632  17.156  0.5226 -0.9173 -0.7184
  335TMC3    C7 5087   3.310   2.707  17.354 -0.9258 -0.3464 -0.1973
  335TMC3    C8 5088   3.015   2.423  17.148  0.4590  0.0520  0.2813
  335TMC3    O1 5089   3.350   2.696  17.243 -0.7918  0.5335  0.1970
  335TMC3    O2 5090   3.102   2.434  17.059 -0.1502  0.3087  0.4135
  336MPD2     C 5091   2.377   4.658  16.127 -0.1446  0.3164  0.4156
  336MPD2    C1 5092   2.357   4.631  15.994 -0.7700 -0.3324 -0.3281
  336MPD2    C2 5093   2.373   4.504  15.940  0.2429  0.0434  0.4651
  336MPD2    C3 5094   2.441   4.405  16.003  0.3417  0.4208  0.4729
  336MPD2    C4 5095   2.459   4.433  16.139 -0.1081  0.0816 -0.3842
  336MPD2    C5 5096   2.420   4.552  16.200 -0.1269  0.5278  0.0006
  336MPD2     H 5097   2.347   4.496  15.834 -0.9235  2.3778  0.5636
  336MPD2    H1 5098   2.511   4.358  16.197  1.7366  0.8499 -1.0404
  336MPD2    H2 5099   2.354   0.017  16.177  1.0693 -0.1050  1.7477
  336MPD2    H3 5100   2.426   4.565  16.307 -0.3260  1.3796 -0.0870
  336MPD2     N 5101   2.481   4.275  15.965  0.1517  0.0438  0.5123
  336MPD2    H5 5102   2.519   4.228  16.046  2.0384  0.0207 -0.3808
  336MPD2    N1 5103   2.309   0.005  15.910  0.4786 -0.0066  0.3686
  336MPD2    H7 5104   2.259   4.718  15.824  2.3115 -1.8631 -0.2355
  337TMC3    C1 5105   2.238   0.228  15.868  0.0349 -0.1389 -0.5720
  337TMC3    C2 5106   2.109   0.197  15.838  0.1141 -0.4449 -0.9712
  337TMC3    C3 5107   2.027   0.305  15.831  0.3823  0.2014 -0.7286
  337TMC3    C4 5108   2.287   0.354  15.873 -0.2818 -0.9081  0.4152
  337TMC3    C5 5109   2.209   0.454  15.833 -0.5147 -0.3102  0.7183
  337TMC3    C6 5110   2.075   0.431  15.827  0.2880  0.6853 -0.2777
  337TMC3     C 5111   2.315   0.138  15.944 -0.5490 -0.2753 -0.0451
  337TMC3     O 5112   2.388   0.190  16.027 -0.2127 -0.0579  0.3247
  337TMC3     H 5113   2.077   0.095  15.856  2.7825 -1.0025  0.5694
  337TMC3    H1 5114   2.393   0.369  15.894 -0.6960 -1.5623  2.9956
  337TMC3    H2 5115   2.008   0.514  15.803  0.2958  1.2386  1.6494
  337TMC3    C7 5116   2.249   0.588  15.864 -0.2242 -0.3992 -0.0145
  337TMC3    C8 5117   1.887   0.273  15.819  0.2623  0.4566 -0.6186
  337TMC3    O1 5118   2.156   0.662  15.897  0.0228  0.3602 -0.8309
  337TMC3    O2 5119   1.830   0.285  15.924 -0.3672  0.0643  0.5548
  338MPD2     C 5120   2.683   4.067   0.844  0.4273  0.2325 -0.1764
  338MPD2    C1 5121   2.598   4.057   0.732  0.3770  0.4361 -0.1027
  338MPD2    C2 5122   2.492   4.146   0.719  0.3402  0.4731  0.3013
  338MPD2    C3 5123   2.479   4.240   0.820  0.6115  0.7428 -0.2678
  338MPD2    C4 5124   2.565   4.258   0.925 -0.0179 -0.3788 -1.1688
  338MPD2    C5 5125   2.675   4.171   0.931  0.0062 -0.0382  0.1316
  338MPD2     H 5126   2.414   4.136   0.644  1.0468  1.1346 -0.5250
  338MPD2    H1 5127   2.557   4.337   0.998  0.2721  0.5851 -2.1753
  338MPD2    H2 5128   2.766   3.997   0.848  1.1984  1.0733 -1.7510
  338MPD2    H3 5129   2.748   4.192   1.009  1.4003 -0.0550 -1.1834
  338MPD2     N 5130   2.367   4.327   0.800 -0.2851  0.4545 -0.0591
  338MPD2    H5 5131   2.311   4.312   0.717 -1.5715 -0.4900  0.9694
  338MPD2    N1 5132   2.634   3.952   0.642  0.3650  0.0059 -0.6461
  338MPD2    H7 5133   2.718   3.896   0.653  0.6253  0.5085 -0.0393
  339TMC3    C1 5134   2.181   4.435   0.873  1.0150  0.1593 -0.3452
  339TMC3    C2 5135   2.124   4.338   0.943 -0.4706  0.7067  0.4258
  339TMC3    C3 5136   2.040   4.253   0.887  0.8853 -0.6336  0.0712
  339TMC3    C4 5137   2.156   4.460   0.738  0.4864 -0.3033  0.5886
  339TMC3    C5 5138   2.055   4.378   0.678 -0.5305  0.2840 -0.0559
  339TMC3    C6 5139   2.002   4.277   0.756  0.0628 -0.6335 -0.4241
  339TMC3     C 5140   2.324   4.424   0.894 -0.0016 -0.5657  0.4622
  339TMC3     O 5141   2.369   4.449   1.002  0.2429  0.0224  0.4541
  339TMC3     H 5142   2.147   4.339   1.049  1.6911  1.3087 -0.0505
  339TMC3    H1 5143   2.214   4.527   0.675 -0.4328 -1.4035 -1.4415
  339TMC3    H2 5144   1.931   4.214   0.704  0.6622 -0.1532 -1.8283
  339TMC3    C7 5145   2.065   4.372   0.534 -0.0162 -0.2089  0.3424
  339TMC3    C8 5146   1.967   4.150   0.972  0.7571  0.4793 -0.3188
  339TMC3    O1 5147   2.074   4.479   0.472  0.0039 -0.2933  0.8338
  339TMC3    O2 5148   1.885   4.090   0.905  0.3774 -0.4910  0.0498
  340MPD2     C 5149   2.161   1.275  10.222 -0.3875 -0.0241 -0.1809
  340MPD2    C1 5150   2.170   1.231  10.091  0.7448  0.0118  0.1422
  340MPD2    C2 5151   2.243   1.118  10.061 -0.3682  0.9154 -0.0978
  340MPD2    C3 5152   2.348   1.078  10.142 -0.0756 -0.5253  0.0483
  340MPD2    C4 5153   2.342   1.122  10.269  0.8338  0.2482  0.6167
  340MPD2    C5 5154   2.253   1.220  10.306  0.7083  0.4610 -0.4094
  340MPD2     H 5155   2.233   1.090   9.956 -2.1669 -1.6192  0.7370
  340MPD2    H1 5156   2.412   1.086  10.344 -1.8130 -1.3316  2.3404
  340MPD2    H2 5157   2.107   1.362  10.256  1.0985  0.2158  1.5551
  340MPD2    H3 5158   2.280   1.267  10.400 -0.2670  1.0933 -0.4346
  340MPD2     N 5159   2.440   0.974  10.104  0.0456  0.4159 -0.1861
  340MPD2    H5 5160   2.508   0.951  10.177 -2.5674 -0.4645  1.9657
  340MPD2    N1 5161   2.106   1.289   9.980 -0.4322 -0.0769 -0.3419
  340MPD2    H7 5162   2.114   1.240   9.892 -2.1392 -1.2296  0.1458
  341TMC3    C1 5163   2.002   1.438   9.848 -0.6495 -0.3236 -0.4617
  341TMC3    C2 5164   1.964   1.322   9.793  0.0305  0.0761 -0.0163
  341TMC3    C3 5165   1.985   1.299   9.663 -0.0962 -0.2151 -0.1141
  341TMC3    C4 5166   2.069   1.535   9.775 -0.7983  0.4823  0.1872
  341TMC3    C5 5167   2.085   1.502   9.640  0.1476 -0.3145 -0.1939
  341TMC3    C6 5168   2.042   1.387   9.582 -0.3372 -0.4381 -0.5904
  341TMC3     C 5169   2.040   1.415   9.978 -0.9029 -0.3555  0.2257
  341TMC3     O 5170   2.043   1.509  10.053 -0.4512 -0.9751  0.4173
  341TMC3     H 5171   1.906   1.254   9.853 -0.9857 -1.1656 -2.4031
  341TMC3    H1 5172   2.117   1.614   9.832  2.9533 -2.5603  1.2000
  341TMC3    H2 5173   2.040   1.379   9.474 -3.7924 -1.2306 -0.4907
  341TMC3    C7 5174   2.152   1.597   9.554 -0.5101 -0.5850 -0.7269
  341TMC3    C8 5175   1.928   1.175   9.619 -0.7871 -0.0972 -0.8647
  341TMC3    O1 5176   2.179   1.562   9.442 -0.4301  0.3357  0.2383
  341TMC3    O2 5177   1.841   1.125   9.687  0.1174 -0.0844 -0.3619
  342MPD2     C 5178   0.915   4.617   0.077  0.0220  0.6275 -0.0318
  342MPD2    C1 5179   0.945   4.652  17.683 -0.2759 -0.4323  0.0844
  342MPD2    C2 5180   0.975   0.051  17.661  0.1050  0.2346  0.1242
  342MPD2    C3 5181   0.968   0.145   0.021 -0.8479  0.3545  0.8923
  342MPD2    C4 5182   0.944   0.108   0.151  0.3917 -0.3449  0.9316
  342MPD2    C5 5183   0.908   4.713   0.175 -0.0720  0.4694  0.0973
  342MPD2     H 5184   1.017   0.074  17.564 -0.2036  1.0132  0.1706
  342MPD2    H1 5185   0.940   0.169   0.241  1.5560 -0.8841  1.3532
  342MPD2    H2 5186   0.891   4.514   0.101 -1.0840  0.7076 -0.7651
  342MPD2    H3 5187   0.868   4.683   0.271  1.2974  3.2045  1.4902
  342MPD2     N 5188   0.978   0.279   0.002 -0.3600  0.4304  0.8033
  342MPD2    H5 5189   0.977   0.341   0.082 -0.0123  3.1522 -1.2547
  342MPD2    N1 5190   0.963   4.570  17.573 -0.5222  0.5522  0.3589
  342MPD2    H7 5191   1.013   4.615  17.497 -1.0471  3.7252  1.8962
  343TMC3    C1 5192   0.965   4.374  17.441 -0.1935  0.1396 -0.2351
  343TMC3    C2 5193   1.016   4.446  17.330 -0.7036  0.6533  0.1575
  343TMC3    C3 5194   1.050   4.377  17.217 -0.2555 -0.1251  0.4933
  343TMC3    C4 5195   0.930   4.241  17.434 -0.1441  0.8907 -0.6513
  343TMC3    C5 5196   0.955   4.182  17.308  0.1162  0.2700  0.6688
  343TMC3    C6 5197   1.016   4.241  17.199  0.2614  0.4116 -0.2645
  343TMC3     C 5198   0.933   4.437  17.570  0.4553 -0.7001 -0.1535
  343TMC3     O 5199   0.870   4.374  17.656 -0.0560 -0.0437  0.1261
  343TMC3     H 5200   1.037   4.552  17.338 -1.2191  0.8471 -1.1024
  343TMC3    H1 5201   0.862   4.196  17.505 -1.0597 -0.3455 -2.3291
  343TMC3    H2 5202   1.016   4.180  17.109  0.1927  1.7173 -1.1419
  343TMC3    C7 5203   0.912   4.042  17.291  0.4834 -0.7739  0.0714
  343TMC3    C8 5204   1.109   4.459  17.112  0.0192  0.2574 -0.2231
  343TMC3    O1 5205   0.900   4.005  17.179  0.0217  0.4431  0.2356
  343TMC3    O2 5206   1.102   4.581  17.119 -0.3351 -0.8442  0.5473
  344MPD2     C 5207   0.606   3.970  11.455  0.0255  0.0635 -0.2309
  344MPD2    C1 5208   0.584   3.919  11.329  0.2426 -0.4467  0.3379
  344MPD2    C2 5209   0.599   3.997  11.219  0.6585 -0.1855 -0.6727
  344MPD2    C3 5210   0.643   4.130  11.227 -0.4083  0.3635 -0.1264
  344MPD2    C4 5211   0.643   4.188  11.349 -0.5161  0.1031  0.2445
  344MPD2    C5 5212   0.634   4.106  11.458  0.2454 -0.2619  0.7084
  344MPD2     H 5213   0.587   3.950  11.122  1.8710 -1.7559 -0.0548
  344MPD2    H1 5214   0.659   4.294  11.362  1.7131 -0.1769 -0.2342
  344MPD2    H2 5215   0.621   3.910  11.544  2.0393  0.4958 -0.2867
  344MPD2    H3 5216   0.649   4.152  11.555 -0.5164 -0.9737  1.1680
  344MPD2     N 5217   0.680   4.212  11.119  0.1426  0.2321  0.2344
  344MPD2    H5 5218   0.697   4.310  11.142 -1.0060  0.5727 -0.3390
  344MPD2    N1 5219   0.536   3.792  11.311  0.0706  0.0056 -0.5271
  344MPD2    H7 5220   0.524   3.762  11.215  1.5015  0.8506 -0.9676
  345TMC3    C1 5221   0.711   4.294  10.898 -0.3720 -0.0062 -0.4923
  345TMC3    C2 5222   0.766   4.404  10.948 -0.0764  0.4632 -0.4064
  345TMC3    C3 5223   0.770   4.511  10.867  0.7260 -0.1220  0.1050
  345TMC3    C4 5224   0.688   4.273  10.763  0.2284  0.2077 -0.3104
  345TMC3    C5 5225   0.702   4.386  10.686 -0.6335 -0.1045 -0.2024
  345TMC3    C6 5226   0.732   4.508  10.738 -0.2967  0.4403  0.8315
  345TMC3     C 5227   0.671   4.180  10.983 -1.3644 -0.6699 -0.3011
  345TMC3     O 5228   0.624   4.084  10.926 -0.4099 -0.0932  0.4701
  345TMC3     H 5229   0.789   4.423  11.052  2.2629  0.2212 -0.8787
  345TMC3    H1 5230   0.649   4.178  10.727  2.6037 -0.9322  0.1289
  345TMC3    H2 5231   0.764   4.586  10.670 -1.0326  1.1070  1.2493
  345TMC3    C7 5232   0.718   4.379  10.544  0.2213 -0.6719  0.0514
  345TMC3    C8 5233   0.801   4.642  10.910 -0.0969  0.5265  0.4493
  345TMC3    O1 5234   0.708   4.483  10.486  0.0226  0.3899  0.5181
  345TMC3    O2 5235   0.760   0.001  10.842 -0.1901 -0.1761 -0.4491
  346MPD2     C 5236   1.259   1.417  14.403 -0.8615 -0.0142  0.1693
  346MPD2    C1 5237   1.371   1.338  14.395  0.1919 -0.2967  0.3723
  346MPD2    C2 5238   1.470   1.334  14.491  0.1094  0.0442  0.3992
  346MPD2    C3 5239   1.455   1.416  14.599 -0.1702 -0.0030 -0.5761
  346MPD2    C4 5240   1.344   1.497  14.607 -0.4249 -0.3651  0.2523
  346MPD2    C5 5241   1.251   1.498  14.511  0.0495 -0.8752  0.4013
  346MPD2     H 5242   1.556   1.273  14.468 -0.6015 -0.0507 -2.0160
  346MPD2    H1 5243   1.327   1.547  14.701 -0.8559 -0.7075  0.3568
  346MPD2    H2 5244   1.178   1.427  14.331 -0.4236  0.9348 -0.1943
  346MPD2    H3 5245   1.162   1.560  14.517  0.3544 -0.4153  0.2135
  346MPD2     N 5246   1.563   1.421  14.696  0.3638  0.3100  0.9299
  346MPD2    H5 5247   1.637   1.356  14.671 -0.3096 -0.1110  0.0337
  346MPD2    N1 5248   1.402   1.267  14.274  0.2908  1.1486 -0.0600
  346MPD2    H7 5249   1.494   1.225  14.278 -0.5588 -0.8667 -1.4826
  347TMC3    C1 5250   1.704   1.493  14.877 -0.3300 -0.2596  0.4652
  347TMC3    C2 5251   1.774   1.378  14.872  0.4598  0.0218  0.1455
  347TMC3    C3 5252   1.892   1.374  14.939 -0.8830 -0.0758  0.9909
  347TMC3    C4 5253   1.735   1.603  14.944 -0.4157 -0.8114  0.0241
  347TMC3    C5 5254   1.858   1.588  15.005  0.2643 -0.1882  0.7013
  347TMC3    C6 5255   1.936   1.483  15.009  0.2873 -0.0597  0.1925
  347TMC3     C 5256   1.572   1.495  14.810 -0.1650 -0.2156 -0.1770
  347TMC3     O 5257   1.494   1.570  14.865 -0.1648 -0.5394 -0.2914
  347TMC3     H 5258   1.743   1.297  14.807 -2.3241  1.8941 -0.8518
  347TMC3    H1 5259   1.662   1.682  14.962  1.4427  1.1901 -1.3067
  347TMC3    H2 5260   2.036   1.497  15.048  0.6508  0.8787 -1.0973
  347TMC3    C7 5261   1.913   1.710  15.055  0.0409  0.0569 -0.2712
  347TMC3    C8 5262   1.976   1.257  14.917 -1.1556 -0.3486  0.1480
  347TMC3    O1 5263   2.013   1.705  15.128  0.3541  0.2108  0.0186
  347TMC3    O2 5264   1.942   1.176  14.832  0.2639 -0.1680 -0.3750
  348MPD2     C 5265   0.175   0.782  11.780 -0.2181 -0.1134 -0.1790
  348MPD2    C1 5266   0.046   0.765  11.723 -0.1993 -0.1355 -0.6051
  348MPD2    C2 5267   4.722   0.870  11.653  0.1619 -1.0865 -0.1083
  348MPD2    C3 5268   0.042   0.999  11.656 -0.2776  0.8413 -0.4538
  348MPD2    C4 5269   0.170   1.007  11.712 -0.5173 -0.2284 -0.3074
  348MPD2    C5 5270   0.230   0.906  11.783 -0.0875  0.2836  0.7888
  348MPD2     H 5271   4.625   0.867  11.604  0.4834  2.9318 -0.9901
  348MPD2    H1 5272   0.236   1.092  11.710  0.9892 -1.4002 -0.0662
  348MPD2    H2 5273   0.222   0.703  11.837  1.3433  0.6122 -0.4625
  348MPD2    H3 5274   0.330   0.916  11.823 -0.1459 -0.3172  1.0864
  348MPD2     N 5275   4.712   1.108  11.599  0.6640  0.4976  0.3134
  348MPD2    H5 5276   4.643   1.087  11.528  0.1337 -2.7450  1.7611
  348MPD2    N1 5277   4.713   0.644  11.731  0.1361  0.1504  0.3309
  348MPD2    H7 5278   4.622   0.651  11.688  0.1029  1.8978  0.7036
  349TMC3    C1 5279   4.663   0.417  11.785 -0.3912 -0.3177  0.1824
  349TMC3    C2 5280   4.700   0.292  11.827 -0.7633 -0.6466  0.3206
  349TMC3    C3 5281   4.605   0.212  11.892 -0.4217  0.0734 -0.3907
  349TMC3    C4 5282   4.532   0.456  11.792  0.1782 -0.0440  0.5017
  349TMC3    C5 5283   4.441   0.379  11.855 -0.2290 -0.9513  0.2629
  349TMC3    C6 5284   4.478   0.256  11.900  0.2098  0.2232  0.3789
  349TMC3     C 5285   0.025   0.528  11.786  0.3338 -0.0700 -0.4302
  349TMC3     O 5286   0.133   0.489  11.820 -0.5963  0.0746 -0.2492
  349TMC3     H 5287   0.061   0.245  11.808 -0.6556 -0.9476  1.5994
  349TMC3    H1 5288   4.498   0.554  11.760 -1.8851 -0.5115  1.2597
  349TMC3    H2 5289   4.406   0.201  11.959 -1.2999 -1.1792 -2.7956
  349TMC3    C7 5290   4.298   0.405  11.808  0.3889 -0.0236  0.1930
  349TMC3    C8 5291   4.660   0.127  11.992 -0.2547 -0.5365  0.3739
  349TMC3    O1 5292   4.200   0.372  11.872  0.3979  0.0289 -0.2113
  349TMC3    O2 5293   0.044   0.145  12.016 -0.2847 -0.0507  0.2017
  350MPD2     C 5294   3.970   3.623  10.526 -0.4592 -0.9612  0.6453
  350MPD2    C1 5295   3.851   3.558  10.531  0.4803  0.1047 -0.6034
  350MPD2    C2 5296   3.760   3.594  10.633 -0.1195 -0.1307 -0.5256
  350MPD2    C3 5297   3.795   3.684  10.732 -0.2707  0.4594  0.1738
  350MPD2    C4 5298   3.920   3.737  10.735  0.0517  0.4919  0.1282
  350MPD2    C5 5299   4.005   3.713  10.630  0.0576  0.5253  0.0304
  350MPD2     H 5300   3.660   3.553  10.617 -0.1901 -0.1557 -0.0166
  350MPD2    H1 5301   3.957   3.801  10.815 -2.7715  2.1924  0.0763
  350MPD2    H2 5302   4.058   3.602  10.467 -1.6079  0.4522 -1.5753
  350MPD2    H3 5303   4.104   3.758  10.635  0.6837 -0.6382 -1.9959
  350MPD2     N 5304   3.703   3.704  10.840  0.0950  0.6975 -0.5097
  350MPD2    H5 5305   3.616   3.652  10.832 -0.1679  0.6825  2.4569
  350MPD2    N1 5306   3.814   3.451  10.442  0.0868  0.9364  0.1354
  350MPD2    H7 5307   3.725   3.406  10.456  0.8610  0.5243  3.8238
  351TMC3    C1 5308   3.824   3.334  10.235  0.0046  0.0039  0.1646
  351TMC3    C2 5309   3.905   3.295  10.134  0.8673 -0.3855 -0.1640
  351TMC3    C3 5310   3.854   3.219  10.038  0.3020  0.3712  0.0027
  351TMC3    C4 5311   3.690   3.306  10.231  0.1896  0.9667  0.3548
  351TMC3    C5 5312   3.638   3.236  10.130 -0.5710  1.4339  0.0062
  351TMC3    C6 5313   3.724   3.177  10.034  0.0464 -0.5596 -0.0648
  351TMC3     C 5314   3.881   3.431  10.327 -0.3567 -0.4866 -0.4893
  351TMC3     O 5315   3.970   3.498  10.281 -0.1925 -0.7727 -0.6128
  351TMC3     H 5316   4.012   3.314  10.135  0.6408  0.9618 -2.0432
  351TMC3    H1 5317   3.620   3.358  10.296  0.1965 -0.3002  1.3733
  351TMC3    H2 5318   3.693   3.100   9.963  0.1665 -1.5641  0.9786
  351TMC3    C7 5319   3.499   3.196  10.136 -0.0973 -0.1636 -0.1413
  351TMC3    C8 5320   3.947   3.147   9.953 -0.5426 -0.2645 -0.3805
  351TMC3    O1 5321   3.430   3.225  10.236  0.5125  0.0429  0.3683
  351TMC3    O2 5322   4.067   3.160   9.976  0.3063  0.2109  0.8778
  352MPD2     C 5323   2.982   1.203   1.486 -0.0280  0.2645  0.2868
  352MPD2    C1 5324   2.879   1.156   1.403 -0.3050  0.2805 -0.0378
  352MPD2    C2 5325   2.888   1.030   1.338  0.0813 -0.2286  1.4745
  352MPD2    C3 5326   3.000   0.948   1.353 -0.0544  0.3974 -0.1310
  352MPD2    C4 5327   3.097   1.001   1.435  0.1128 -0.4038 -0.0698
  352MPD2    C5 5328   3.090   1.121   1.502  0.3954 -0.3157  0.1023
  352MPD2     H 5329   2.806   0.996   1.274  0.8367 -0.1171  0.4430
  352MPD2    H1 5330   3.184   0.943   1.462  0.3458  0.4820  1.0809
  352MPD2    H2 5331   2.972   1.300   1.535  2.3807  0.2241  0.8636
  352MPD2    H3 5332   3.164   1.151   1.575 -1.1750 -0.3550  1.7048
  352MPD2     N 5333   3.015   0.822   1.295  0.0717 -0.5028  0.2033
  352MPD2    H5 5334   3.108   0.785   1.311  1.2313  2.1731 -0.4177
  352MPD2    N1 5335   2.760   1.239   1.402 -0.6944 -0.7175  0.2036
  352MPD2    H7 5336   2.765   1.325   1.456  1.2751 -3.1957  3.9932
  353TMC3    C1 5337   2.966   0.623   1.179  0.7380 -1.0152  0.6625
  353TMC3    C2 5338   3.077   0.564   1.227 -0.1957  0.1876  0.2237
  353TMC3    C3 5339   3.120   0.442   1.181 -0.4851  0.2431 -0.8459
  353TMC3    C4 5340   2.890   0.561   1.083 -0.6462  0.2007  0.0480
  353TMC3    C5 5341   2.934   0.436   1.037  0.1197  0.5697  0.3494
  353TMC3    C6 5342   3.043   0.370   1.090  0.5505  0.2229 -0.9214
  353TMC3     C 5343   2.921   0.756   1.216  0.6482  0.2075 -0.8189
  353TMC3     O 5344   2.810   0.799   1.181  0.0941 -0.3894 -0.4133
  353TMC3     H 5345   3.121   0.613   1.313  2.4104  0.0415 -1.0558
  353TMC3    H1 5346   2.809   0.615   1.035 -1.6556  0.1009  1.6563
  353TMC3    H2 5347   3.056   0.268   1.056  2.9266 -0.6440  2.5694
  353TMC3    C7 5348   2.851   0.357   0.955 -0.2440  0.3011  0.3616
  353TMC3    C8 5349   3.220   0.372   1.245 -0.4803 -0.4774 -0.3575
  353TMC3    O1 5350   2.900   0.267   0.893 -0.0074  0.4278  0.4954
  353TMC3    O2 5351   3.303   0.432   1.304  0.7148 -0.9503 -0.5622
  354TMC3    C1 5352   4.387   2.234  13.578 -0.4817  0.0107 -0.2287
  354TMC3    C2 5353   4.300   2.319  13.521 -0.1388 -0.0939 -0.0076
  354TMC3    C3 5354   4.246   2.289  13.404  0.1069 -0.6276  0.7891
  354TMC3    C4 5355   4.427   2.119  13.515  1.0294 -0.1410 -0.5148
  354TMC3    C5 5356   4.368   2.102  13.393 -0.0908  0.0092  0.7682
  354TMC3    C6 5357   4.276   2.181  13.330 -0.0744  0.3627 -0.4601
  354TMC3     C 5358   4.393   2.222  13.721  0.0119  0.5370  0.1604
  354TMC3     O 5359   4.279   2.223  13.769 -0.0892  0.6106 -0.0602
  354TMC3     H 5360   4.274   2.406  13.581 -2.0180 -0.1874 -0.6906
  354TMC3    H1 5361   4.484   2.046  13.570 -0.9033  0.6148  2.4793
  354TMC3    H2 5362   4.230   2.143  13.239 -0.2521  1.3302 -0.7736
  354TMC3    C7 5363   4.403   1.986  13.313 -0.7992 -0.6511  0.2679
  354TMC3    C8 5364   4.164   2.404  13.350  0.1348 -0.0687 -0.2186
  354TMC3    O1 5365   4.437   1.880  13.371  0.2655  0.7142  0.3829
  354TMC3    O2 5366   4.148   2.506  13.412  0.0661  0.4265 -0.4541
  355MPD2     C 5367   3.887   2.890  11.540 -0.2331  0.5338 -0.3263
  355MPD2    C1 5368   3.949   2.924  11.415 -0.9924 -0.2868  0.3512
  355MPD2    C2 5369   4.078   2.964  11.422  0.8839  0.3353  0.2543
  355MPD2    C3 5370   4.143   2.990  11.543 -0.2152  0.2164 -0.3614
  355MPD2    C4 5371   4.076   2.970  11.663 -0.8916  0.6212  0.2845
  355MPD2    C5 5372   3.952   2.910  11.656 -0.0576 -0.2350  0.2761
  355MPD2     H 5373   4.135   2.979  11.331 -1.8335 -2.0566 -1.8449
  355MPD2    H1 5374   4.118   2.988  11.761  1.3909 -1.8663 -0.2414
  355MPD2    H2 5375   3.788   2.846  11.533 -0.3976  0.5409  2.1842
  355MPD2    H3 5376   3.903   2.893  11.751  2.4658  0.2306  1.6474
  355MPD2     N 5377   4.282   3.025  11.551  0.5994 -0.8849  0.0007
  355MPD2    H5 5378   4.323   3.040  11.642 -2.2459  0.5637  1.0504
  355MPD2    N1 5379   3.870   2.910  11.297  0.1877  0.2620  0.3375
  355MPD2    H7 5380   3.788   2.851  11.298 -0.1416  0.7258  0.5101
  356TMC3    C1 5381   4.504   3.061  11.490 -0.4360 -0.1266 -0.5112
  356TMC3    C2 5382   4.589   3.104  11.387 -0.4590  0.1080  0.6091
  356TMC3    C3 5383   4.703   3.177  11.420 -1.0892 -0.0896  0.4790
  356TMC3    C4 5384   4.527   3.103  11.621  0.0161  0.0257  0.3560
  356TMC3    C5 5385   4.628   3.191  11.648  0.9428 -0.0610 -0.2075
  356TMC3    C6 5386   4.717   3.231  11.548  0.2718  0.0157 -0.3269
  356TMC3     C 5387   4.373   3.034  11.447 -0.3039  0.1062  0.6158
  356TMC3     O 5388   4.365   3.007  11.328 -0.4835  0.0142 -0.2056
  356TMC3     H 5389   4.569   3.084  11.282 -1.0276  0.3642  0.6638
  356TMC3    H1 5390   4.471   3.077  11.710 -0.2045 -1.2791 -0.1757
  356TMC3    H2 5391   0.075   3.281  11.574  0.3346 -0.6393  0.7186
  356TMC3    C7 5392   4.643   3.227  11.784  0.2571  0.2273 -0.2578
  356TMC3    C8 5393   0.035   3.253  11.314  0.3492  0.3568  1.4000
  356TMC3    O1 5394   4.570   3.170  11.866 -0.0685  0.4407  0.7686
  356TMC3    O2 5395   0.036   3.198  11.203  0.9254  0.3872  0.1191
  357MPD2     C 5396   3.519   2.684   1.016  0.5856 -0.1951 -0.1690
  357MPD2    C1 5397   3.569   2.752   1.127  0.1489  0.4094 -0.1580
  357MPD2    C2 5398   3.480   2.790   1.230 -0.2584  0.3567  0.5062
  357MPD2    C3 5399   3.342   2.766   1.224 -0.1859  0.0142  0.4265
  357MPD2    C4 5400   3.293   2.690   1.118 -0.1406 -0.2999 -0.0752
  357MPD2    C5 5401   3.382   2.646   1.022  0.1705 -0.4982 -0.2684
  357MPD2     H 5402   3.508   2.846   1.319 -1.0745 -0.0952  1.0439
  357MPD2    H1 5403   3.190   2.657   1.129 -0.2624  1.1427  3.0908
  357MPD2    H2 5404   3.591   2.642   0.947  0.8901  0.2609 -0.1225
  357MPD2    H3 5405   3.339   2.583   0.945  1.0598  0.1836 -1.3410
  357MPD2     N 5406   3.254   2.781   1.334 -0.1105 -0.4846  0.2214
  357MPD2    H5 5407   3.164   2.735   1.327 -0.5824  0.3610  0.7896
  357MPD2    N1 5408   3.706   2.764   1.139 -0.0315 -0.4165  0.0574
  357MPD2    H7 5409   3.766   2.730   1.064  0.8045  0.9548  0.1030
  358TMC3    C1 5410   3.913   2.817   1.249  0.3727 -0.7449 -0.0716
  358TMC3    C2 5411   3.985   2.799   1.137 -0.1480 -0.5119 -0.5881
  358TMC3    C3 5412   4.121   2.785   1.153 -0.5686 -0.9757  0.3331
  358TMC3    C4 5413   3.969   2.816   1.371  0.1781 -0.1125  0.2094
  358TMC3    C5 5414   4.101   2.794   1.379  0.5393 -0.0772  0.4545
  358TMC3    C6 5415   4.186   2.788   1.273 -0.0610  0.2210  0.0288
  358TMC3     C 5416   3.771   2.817   1.246 -0.7880 -0.2024 -0.1436
  358TMC3     O 5417   3.725   2.843   1.353  1.0235 -0.2331 -0.2113
  358TMC3     H 5418   3.938   2.810   1.040  0.5908 -0.2597 -0.9153
  358TMC3    H1 5419   3.909   2.825   1.461 -0.5699  2.2844 -0.5449
  358TMC3    H2 5420   4.291   2.764   1.277 -0.1118  0.1716  1.2216
  358TMC3    C7 5421   4.172   2.786   1.501 -0.5389  0.6911 -1.1935
  358TMC3    C8 5422   4.212   2.802   1.029 -0.2456  0.4283  0.3896
  358TMC3    O1 5423   4.291   2.748   1.496  0.2823  0.2390 -0.3368
  358TMC3    O2 5424   4.319   2.850   1.064  0.4410  0.6311 -0.1404
  359MPD2     C 5425   4.611   1.781  12.411 -0.2290 -0.0218  0.6972
  359MPD2    C1 5426   4.558   1.745  12.292 -0.7501  0.6337 -0.6982
  359MPD2    C2 5427   4.481   1.827  12.227  0.0458  0.5683  0.0451
  359MPD2    C3 5428   4.460   1.959  12.270 -0.0694  0.0195  0.6494
  359MPD2    C4 5429   4.521   1.998  12.387  0.4576 -0.1041  0.7030
  359MPD2    C5 5430   4.596   1.908  12.448 -0.3216 -0.6145 -0.7268
  359MPD2     H 5431   4.428   1.789  12.140 -0.0007  0.8069 -0.0305
  359MPD2    H1 5432   4.503   2.092  12.436  0.3439  0.7595 -0.9810
  359MPD2    H2 5433   4.678   1.727  12.477 -0.1065  0.0553  0.6344
  359MPD2    H3 5434   4.644   1.929  12.544  0.9670  0.1916 -1.5472
  359MPD2     N 5435   4.369   2.052  12.211  0.3155  0.5494  0.2343
  359MPD2    H5 5436   4.362   2.143  12.254 -0.2863 -0.9978  3.4039
  359MPD2    N1 5437   4.576   1.615  12.243  0.0582  0.0758 -0.1921
  359MPD2    H7 5438   4.541   1.589  12.152 -1.6806  3.7331 -0.5620
  360TMC3    C1 5439   4.675   1.407  12.210 -0.5326 -0.4635 -0.4187
  360TMC3    C2 5440   0.060   1.340  12.223  0.4739 -0.1988 -0.4757
  360TMC3    C3 5441   0.084   1.249  12.122 -0.2450  0.0199  0.1620
  360TMC3    C4 5442   4.582   1.386  12.108 -0.0447 -0.1433 -0.0267
  360TMC3    C5 5443   4.605   1.281  12.028 -0.3105 -0.1480 -0.3721
  360TMC3    C6 5444   4.724   1.217  12.027 -0.5948  0.1941 -0.0201
  360TMC3     C 5445   4.648   1.510  12.302 -0.3992 -0.7580  0.2913
  360TMC3     O 5446   4.722   1.505  12.400  0.0366  0.5372  0.3579
  360TMC3     H 5447   0.138   1.378  12.288  0.8586  1.0519 -1.6844
  360TMC3    H1 5448   4.488   1.440  12.109  0.9657  1.6616 -2.4277
  360TMC3    H2 5449   0.009   1.137  11.956 -2.0393 -0.4829  0.3247
  360TMC3    C7 5450   4.505   1.279  11.909 -0.9983 -0.8046  0.1082
  360TMC3    C8 5451   0.221   1.252  12.081 -0.2607  0.3974 -0.4006
  360TMC3    O1 5452   4.450   1.387  11.883 -0.3575  0.1708 -0.3735
  360TMC3    O2 5453   0.297   1.283  12.174 -0.2421  0.1190  0.2147
  361MPD2     C 5454   1.804   1.042  17.100  0.4602  1.0332 -0.0689
  361MPD2    C1 5455   1.805   0.932  17.013 -0.5942 -0.3959  0.3286
  361MPD2    C2 5456   1.873   0.817  17.047 -0.5191  0.7316 -0.7990
  361MPD2    C3 5457   1.950   0.814  17.161  0.2660  0.4581 -0.2085
  361MPD2    C4 5458   1.951   0.922  17.249  0.6456  0.2744  0.3806
  361MPD2    C5 5459   1.873   1.032  17.220 -0.4878  0.0358  0.0146
  361MPD2     H 5460   1.883   0.733  16.980 -0.4037  0.2476 -0.1639
  361MPD2    H1 5461   2.007   0.921  17.342  3.0283 -4.9033 -1.1461
  361MPD2    H2 5462   1.749   1.129  17.067 -2.0959 -0.3403  0.6295
  361MPD2    H3 5463   1.871   1.116  17.289 -0.6216  0.7697 -0.8887
  361MPD2     N 5464   2.037   0.707  17.204 -0.2041  0.4154  0.1111
  361MPD2    H5 5465   2.102   0.726  17.280  0.4530 -0.7854 -0.1556
  361MPD2    N1 5466   1.715   0.935  16.903 -0.4397 -0.0980 -0.2133
  361MPD2    H7 5467   1.647   1.011  16.905 -0.8729 -0.4117 -3.7456
  362TMC3    C1 5468   1.565   0.831  16.760  0.4221 -0.1386  0.7518
  362TMC3    C2 5469   1.468   0.791  16.856 -0.1180 -0.2804  0.3550
  362TMC3    C3 5470   1.380   0.695  16.813  0.3898  0.5493  0.4820
  362TMC3    C4 5471   1.567   0.781  16.634  0.2555 -0.2125 -0.9497
  362TMC3    C5 5472   1.467   0.701  16.594 -1.0563 -0.7678 -0.2829
  362TMC3    C6 5473   1.370   0.652  16.683  0.0482 -0.2664  0.1899
  362TMC3     C 5474   1.696   0.832  16.812  0.4579  0.4795 -0.2352
  362TMC3     O 5475   1.758   0.722  16.807 -0.3825  0.2360 -0.4250
  362TMC3     H 5476   1.472   0.817  16.962 -0.8312  1.0965  0.0459
  362TMC3    H1 5477   1.655   0.797  16.574  0.2842  0.9302 -0.5988
  362TMC3    H2 5478   1.285   0.594  16.650 -0.0890 -0.5107  0.9691
  362TMC3    C7 5479   1.420   0.732  16.461 -0.4151 -0.9734  0.3362
  362TMC3    C8 5480   1.282   0.632  16.900  0.0013 -0.1923  0.7889
  362TMC3    O1 5481   1.465   0.833  16.405 -0.2882  0.6789 -0.6635
  362TMC3    O2 5482   1.242   0.521  16.868 -0.6285 -0.5476 -0.6268
  363TMC3    C1 5483   4.040   2.980   9.007 -0.1190 -0.2751  0.7171
  363TMC3    C2 5484   4.160   2.989   9.077  0.0875  0.4565 -0.3791
  363TMC3    C3 5485   4.157   3.068   9.189  0.3170 -0.1858  0.0653
  363TMC3    C4 5486   3.927   3.039   9.058  0.2214  0.0413  0.3065
  363TMC3    C5 5487   3.938   3.118   9.165  0.4452  0.0896  0.8751
  363TMC3    C6 5488   4.056   3.144   9.228 -0.4264  0.1548  0.4863
  363TMC3     C 5489   4.046   2.908   8.881 -0.3704  0.3750  0.5754
  363TMC3     O 5490   4.142   2.835   8.869 -0.2898 -0.1988 -0.5125
  363TMC3     H 5491   4.250   2.946   9.035 -0.2943  1.1586 -1.9153
  363TMC3    H1 5492   3.828   3.005   9.028 -0.3765  1.5336  0.5585
  363TMC3    H2 5493   4.056   3.197   9.323 -0.0790 -0.9381  1.0956
  363TMC3    C7 5494   3.822   3.184   9.216  0.9507 -0.1352 -0.6003
  363TMC3    C8 5495   4.278   3.093   9.265  0.8699 -0.4237 -0.2262
  363TMC3    O1 5496   3.816   3.227   9.331  0.4629  0.2148  0.0557
  363TMC3    O2 5497   4.304   3.206   9.306  0.7758 -0.3220 -0.3908
  364MPD2     C 5498   3.187   2.257  10.308 -0.0252 -0.0913  0.5064
  364MPD2    C1 5499   3.245   2.312  10.420  0.6406  0.2720 -0.2577
  364MPD2    C2 5500   3.216   2.255  10.544  0.1930 -0.4902 -0.9484
  364MPD2    C3 5501   3.137   2.148  10.549  0.5646 -0.4864 -0.5044
  364MPD2    C4 5502   3.065   2.108  10.440  0.4884  0.2516 -0.4298
  364MPD2    C5 5503   3.086   2.163  10.320 -0.3867  0.6692 -0.1015
  364MPD2     H 5504   3.267   2.299  10.629 -1.5782  0.0994 -0.1858
  364MPD2    H1 5505   3.011   2.014  10.437  0.7940  0.0685 -0.0516
  364MPD2    H2 5506   3.200   2.299  10.209 -0.1787  0.8641  0.8927
  364MPD2    H3 5507   3.027   2.124  10.238 -1.1696 -0.5315  1.0379
  364MPD2     N 5508   3.100   2.085  10.672 -0.6989  0.1287 -0.6623
  364MPD2    H5 5509   3.020   2.024  10.683 -1.4536  1.4401  1.2081
  364MPD2    N1 5510   3.328   2.423  10.400  0.0341  0.2759  0.7415
  364MPD2    H7 5511   3.332   2.456  10.304 -1.3514 -0.3208  0.4728
  365TMC3    C1 5512   3.422   2.629  10.457 -0.1712 -0.0623 -0.2393
  365TMC3    C2 5513   3.457   2.647  10.328 -0.5462  0.0154 -0.1816
  365TMC3    C3 5514   3.505   2.780  10.301  0.3075  0.0942  0.3151
  365TMC3    C4 5515   3.420   2.731  10.552  0.1394 -0.2026 -0.5788
  365TMC3    C5 5516   3.472   2.857  10.512 -0.3716  0.3924  0.6259
  365TMC3    C6 5517   3.506   2.885  10.387 -0.8835 -0.0118  0.1162
  365TMC3     C 5518   3.376   2.507  10.504 -0.3426  0.0163  0.5852
  365TMC3     O 5519   3.369   2.492  10.625 -0.3785  0.6412 -0.0620
  365TMC3     H 5520   3.482   2.564  10.264  0.1602  0.4957 -0.5241
  365TMC3    H1 5521   3.404   2.713  10.657  0.0115 -0.8414 -0.7102
  365TMC3    H2 5522   3.533   2.984  10.354  0.0314 -0.1883  0.3253
  365TMC3    C7 5523   3.473   2.970  10.605 -0.1850  0.6041 -0.0488
  365TMC3    C8 5524   3.562   2.812  10.174  0.2409 -0.1402 -0.5601
  365TMC3    O1 5525   3.509   3.082  10.571 -0.4461 -0.1471 -0.2517
  365TMC3    O2 5526   3.652   2.892  10.163 -0.6208 -0.1605 -0.5469
  366MPD2     C 5527   2.245   3.443  15.066  0.0641  0.6411  0.4338
  366MPD2    C1 5528   2.352   3.530  15.078  0.5847  1.0159 -0.0516
  366MPD2    C2 5529   2.479   3.488  15.035 -0.0740 -0.0641  0.5159
  366MPD2    C3 5530   2.498   3.377  14.953 -0.2086  0.3658 -0.7314
  366MPD2    C4 5531   2.389   3.296  14.928  0.7144  0.6062  0.0130
  366MPD2    C5 5532   2.263   3.330  14.981 -0.1066  0.5750  0.1886
  366MPD2     H 5533   2.563   3.552  15.059 -0.0225 -0.1755  0.6324
  366MPD2    H1 5534   2.393   3.210  14.863  1.2524  1.6249 -1.2976
  366MPD2    H2 5535   2.150   3.462  15.113  2.3213  0.6922  4.9459
  366MPD2    H3 5536   2.189   3.252  14.965  0.6980 -0.4505  1.4472
  366MPD2     N 5537   2.620   3.346  14.891  0.4150  0.9190 -0.1397
  366MPD2    H5 5538   2.620   3.245  14.877 -0.0655  0.9806 -0.5772
  366MPD2    N1 5539   2.333   3.657  15.136  0.3551  0.4165 -0.4010
  366MPD2    H7 5540   2.244   3.695  15.165  2.2130  0.6598  5.1047
  367TMC3    C1 5541   2.376   3.889  15.202  0.0767  0.2776 -0.0772
  367TMC3    C2 5542   2.477   3.974  15.249 -0.0793  0.4548 -0.2135
  367TMC3    C3 5543   2.431   4.102  15.271  0.1219 -0.5326  0.6407
  367TMC3    C4 5544   2.248   3.928  15.165  0.1878 -0.4703 -0.0649
  367TMC3    C5 5545   2.212   4.057  15.201  0.4932  0.5607  0.2498
  367TMC3    C6 5546   2.303   4.143  15.248  0.7114  0.9766 -0.4059
  367TMC3     C 5547   2.427   3.750  15.179 -0.4072 -0.8936 -0.2866
  367TMC3     O 5548   2.544   3.723  15.199 -0.2882  0.0871  0.0416
  367TMC3     H 5549   2.569   3.942  15.296 -0.1742  1.5610  0.7507
  367TMC3    H1 5550   2.178   3.853  15.130  0.8395 -0.9015 -0.4314
  367TMC3    H2 5551   2.274   4.242  15.281 -2.9744  0.5398 -2.3055
  367TMC3    C7 5552   2.082   4.107  15.198  0.2070 -0.0215  0.3974
  367TMC3    C8 5553   2.505   4.174  15.372 -0.1996 -0.1789 -0.5028
  367TMC3    O1 5554   2.063   4.227  15.215 -0.1373  0.2651 -0.0104
  367TMC3    O2 5555   2.574   4.110  15.451 -0.1470 -0.2460 -0.0531
  368MPD2     C 5556   2.928   0.907  12.283  0.1068  0.8610  0.6062
  368MPD2    C1 5557   2.967   0.999  12.379 -0.2183  0.0141 -0.6084
  368MPD2    C2 5558   3.071   1.091  12.349 -0.7500 -1.0262  0.6569
  368MPD2    C3 5559   3.132   1.091  12.220 -0.0350  0.3438 -0.7144
  368MPD2    C4 5560   3.095   0.994  12.131  0.2304  0.5178 -0.1383
  368MPD2    C5 5561   2.999   0.898  12.162  1.0434  0.8004  0.9448
  368MPD2     H 5562   3.112   1.144  12.434 -0.8169 -0.0727  0.1019
  368MPD2    H1 5563   3.149   0.972  12.040 -1.2872  0.7604 -1.1098
  368MPD2    H2 5564   2.864   0.823  12.306 -1.8056  3.4142  4.6503
  368MPD2    H3 5565   2.976   0.811  12.102 -1.4103  1.7128  0.5713
  368MPD2     N 5566   3.231   1.182  12.183 -0.1729  0.8941  0.5087
  368MPD2    H5 5567   3.246   1.183  12.083  1.3354 -0.8451  0.7096
  368MPD2    N1 5568   2.918   1.004  12.510  0.3734 -0.6836  0.6099
  368MPD2    H7 5569   2.959   1.076  12.570  1.5056 -1.4339  0.7441
  369TMC3    C1 5570   2.779   0.960  12.695 -0.2567 -0.3642 -0.1261
  369TMC3    C2 5571   2.860   1.048  12.763  0.0621  0.1236 -0.1547
  369TMC3    C3 5572   2.814   1.093  12.884 -0.1624 -0.1672 -0.1634
  369TMC3    C4 5573   2.660   0.922  12.742 -0.3288 -0.6081  0.6289
  369TMC3    C5 5574   2.612   0.976  12.856 -0.1634 -0.6402 -0.3991
  369TMC3    C6 5575   2.693   1.051  12.937  0.2136 -0.1809  0.1018
  369TMC3     C 5576   2.811   0.935  12.559  0.3693 -0.4901 -0.1744
  369TMC3     O 5577   2.740   0.856  12.501  0.1109  0.5508  0.2770
  369TMC3     H 5578   2.955   1.090  12.731 -0.0288  0.1412 -0.4005
  369TMC3    H1 5579   2.594   0.856  12.686  0.7106 -0.2197 -1.0328
  369TMC3    H2 5580   2.653   1.096  13.027 -2.3681  2.0624 -2.1471
  369TMC3    C7 5581   2.514   0.902  12.930 -0.0932  0.0895  0.4929
  369TMC3    C8 5582   2.853   1.228  12.923 -0.2560 -0.5593 -0.3096
  369TMC3    O1 5583   2.542   0.865  13.044  0.1604  0.4986 -0.0499
  369TMC3    O2 5584   2.765   1.312  12.943 -0.4346 -0.6462 -0.4130
  370TMC3    C1 5585   3.232   1.900  16.044 -1.0459 -0.9299  0.3426
  370TMC3    C2 5586   3.159   1.870  16.161  0.9310 -0.2009 -0.8332
  370TMC3    C3 5587   3.102   1.744  16.161  0.1864  0.2571 -0.6224
  370TMC3    C4 5588   3.245   1.812  15.941  0.7078 -0.2303  0.2440
  370TMC3    C5 5589   3.177   1.702  15.936 -0.2996  0.1061 -0.4511
  370TMC3    C6 5590   3.108   1.664  16.047  0.3728 -0.3114 -0.0501
  370TMC3     C 5591   3.297   2.026  16.040  1.1888 -0.3122 -0.1439
  370TMC3     O 5592   3.327   2.066  15.926 -0.5916 -0.3799 -0.0178
  370TMC3     H 5593   3.137   1.948  16.233  1.6962 -0.0199 -0.7926
  370TMC3    H1 5594   3.316   1.841  15.865 -0.2249  0.6341 -0.2870
  370TMC3    H2 5595   3.066   1.564  16.051  1.2925 -0.6630  0.7330
  370TMC3    C7 5596   3.223   1.607  15.834  0.3032  0.3549 -0.0024
  370TMC3    C8 5597   3.027   1.694  16.279  0.9469  0.7750 -0.1371
  370TMC3    O1 5598   3.283   1.651  15.734  0.7030 -0.6979 -0.2248
  370TMC3    O2 5599   2.955   1.598  16.257  0.0482  0.5765  0.1746
  371TMC3    C1 5600   3.970   4.710  15.268 -0.1652 -0.3882 -0.2879
  371TMC3    C2 5601   3.849   4.680  15.321 -0.4108  0.1939 -0.1577
  371TMC3    C3 5602   3.750   0.039  15.299  0.0691 -0.7533 -0.6027
  371TMC3    C4 5603   3.996   0.092  15.203 -0.6007 -0.0680 -0.1780
  371TMC3    C5 5604   3.894   0.182  15.184  0.0146  0.8096  0.3713
  371TMC3    C6 5605   3.770   0.159  15.232  0.3579 -0.5078 -0.5624
  371TMC3     C 5606   4.084   4.620  15.282  0.3929 -0.0064 -0.4887
  371TMC3     O 5607   4.180   4.645  15.210  0.1083 -0.3946 -0.1247
  371TMC3     H 5608   3.830   4.587  15.373 -0.1935  1.4778  2.2477
  371TMC3    H1 5609   4.090   0.106  15.149 -0.7267  1.7370  0.0811
  371TMC3    H2 5610   3.698   0.237  15.214  1.2286  0.8039  1.6593
  371TMC3    C7 5611   3.927   0.319  15.162 -0.0484 -0.3835  0.0562
  371TMC3    C8 5612   3.635   0.027  15.391  0.1834  0.0549 -0.1983
  371TMC3    O1 5613   3.835   0.398  15.171 -0.3272 -0.1816  0.1253
  371TMC3    O2 5614   3.601   4.644  15.409 -0.2940 -0.6057 -0.5995
  372MPD2     C 5615   2.991   0.166  13.396 -0.1971  0.3010  0.1910
  372MPD2    C1 5616   3.121   0.149  13.444 -0.4569  0.2001 -0.7649
  372MPD2    C2 5617   3.140   0.067  13.558 -0.6529  0.0955 -0.3898
  372MPD2    C3 5618   3.032   4.730  13.611  0.1030 -0.6306  0.4046
  372MPD2    C4 5619   2.904   0.014  13.560 -0.1279 -0.3935  0.6151
  372MPD2    C5 5620   2.890   0.090  13.450  0.3078 -0.3223 -0.4733
  372MPD2     H 5621   3.238   0.041  13.596  1.3814  1.9209 -4.3675
  372MPD2    H1 5622   2.809   4.709  13.594  0.5435 -2.7978 -0.2802
  372MPD2    H2 5623   2.969   0.226  13.309  1.2595 -0.5938 -0.7879
  372MPD2    H3 5624   2.792   0.095  13.404 -0.2340 -0.6284  0.6576
  372MPD2     N 5625   3.061   4.633  13.711 -0.2265  0.0058 -0.3816
  372MPD2    H5 5626   3.159   4.610  13.719  0.2885  1.7726 -1.6117
  372MPD2    N1 5627   3.234   0.210  13.385  0.6719  0.4469  0.0603
  372MPD2    H7 5628   3.321   0.187  13.431  0.3384 -1.3068 -0.1759
  373TMC3    C1 5629   3.048   4.458  13.864 -0.1335 -0.5384  0.3291
  373TMC3    C2 5630   3.065   4.475  13.998 -0.0447  0.3640 -0.2331
  373TMC3    C3 5631   3.165   4.424  14.074 -0.0971  0.1061 -0.6441
  373TMC3    C4 5632   3.135   4.378  13.795  0.1647 -0.6004 -0.4642
  373TMC3    C5 5633   3.232   4.327  13.870  0.5189  0.6342  0.0411
  373TMC3    C6 5634   3.259   4.352  14.006 -0.4495 -0.3699  0.9376
  373TMC3     C 5635   2.975   4.566  13.797 -0.3483  0.3395  0.3970
  373TMC3     O 5636   2.865   4.613  13.827  0.2787  0.4312  0.5850
  373TMC3     H 5637   2.991   4.540  14.044  3.3964  3.3521  1.0049
  373TMC3    H1 5638   3.136   4.359  13.688  0.5434 -1.5076 -0.3026
  373TMC3    H2 5639   3.355   4.316  14.042  0.2440  0.9958  0.4474
  373TMC3    C7 5640   3.336   4.255  13.796  0.0037 -0.2499  0.4575
  373TMC3    C8 5641   3.214   4.501  14.185  0.2106  0.4857 -0.4313
  373TMC3    O1 5642   3.373   4.293  13.685 -0.0990  0.0001 -0.0188
  373TMC3    O2 5643   3.334   4.498  14.199 -1.0154 -0.5882  0.2032
  374TMC3    C1 5644   3.490   1.445   9.909  0.3315 -0.3364 -0.1919
  374TMC3    C2 5645   3.602   1.527   9.910  0.4982  0.1992 -0.1942
  374TMC3    C3 5646   3.689   1.510   9.803 -0.1664 -0.4135 -0.4127
  374TMC3    C4 5647   3.479   1.344   9.820  0.8233 -0.1032  0.5752
  374TMC3    C5 5648   3.577   1.331   9.720  0.3566 -0.6027  0.6830
  374TMC3    C6 5649   3.674   1.417   9.706 -0.0353 -0.0552 -0.3909
  374TMC3     C 5650   3.374   1.470   9.996  0.5610  0.2242 -0.0088
  374TMC3     O 5651   3.320   1.367  10.031  0.3011  0.7048  0.4954
  374TMC3     H 5652   3.601   1.615   9.974 -0.4752  0.1746 -0.1642
  374TMC3    H1 5653   3.392   1.282   9.835 -0.1217  1.6421  2.2986
  374TMC3    H2 5654   3.745   1.411   9.625  0.4016 -1.1087  0.0645
  374TMC3    C7 5655   3.571   1.223   9.622 -0.6527 -0.5306 -0.4187
  374TMC3    C8 5656   3.807   1.600   9.788  0.5300  0.2101 -0.3170
  374TMC3    O1 5657   3.631   1.239   9.515 -0.4216  0.6391  0.5040
  374TMC3    O2 5658   3.858   1.624   9.677 -0.2419 -0.0279 -1.0808
  375MPD2     C 5659   4.559   2.232  17.365 -0.6064  0.8396  0.2272
  375MPD2    C1 5660   4.473   2.257  17.255 -0.0316  0.3277 -0.6390
  375MPD2    C2 5661   4.480   2.169  17.145 -0.1591  0.4868  0.5983
  375MPD2    C3 5662   4.569   2.059  17.142  0.2885 -0.0947 -0.2013
  375MPD2    C4 5663   4.654   2.040  17.249 -0.0945 -0.1441 -0.0497
  375MPD2    C5 5664   4.644   2.124  17.354 -0.4872 -0.8702 -0.0619
  375MPD2     H 5665   4.404   2.183  17.069  0.3169  1.9755  0.3920
  375MPD2    H1 5666   4.730   1.962  17.245 -0.5297 -0.4864 -1.5940
  375MPD2    H2 5667   4.560   2.301  17.449  1.3692 -1.4658  2.1105
  375MPD2    H3 5668   4.717   2.104  17.432 -0.5039  0.1166  0.2096
  375MPD2     N 5669   4.571   1.956  17.041 -0.4798  0.3357 -0.1927
  375MPD2    H5 5670   4.643   1.884  17.045  1.6252  2.3640 -1.4277
  375MPD2    N1 5671   4.383   2.365  17.246 -0.5643 -0.4047 -0.9560
  375MPD2    H7 5672   4.349   2.378  17.151 -2.9697  0.2616  0.0169
  376TMC3    C1 5673   4.506   1.867  16.825  0.5427  0.0934 -0.6956
  376TMC3    C2 5674   4.632   1.821  16.799  0.1191  0.0420 -0.2909
  376TMC3    C3 5675   4.662   1.787  16.672 -0.8106  0.2471  0.6147
  376TMC3    C4 5676   4.406   1.859  16.734 -0.0703 -0.0878  0.1992
  376TMC3    C5 5677   4.435   1.829  16.602 -0.6818  0.1383 -0.5993
  376TMC3    C6 5678   4.567   1.793  16.573  0.3519 -0.2654 -0.1795
  376TMC3     C 5679   4.483   1.960  16.932  0.2440  0.4730  0.0293
  376TMC3     O 5680   4.392   2.039  16.912 -0.0563 -0.2710 -0.1445
  376TMC3     H 5681   4.702   1.812  16.881 -1.1322  1.3497  0.9175
  376TMC3    H1 5682   4.309   1.893  16.769  0.4726  1.1624  0.4699
  376TMC3    H2 5683   4.599   1.770  16.472 -0.5824  1.2688 -0.8240
  376TMC3    C7 5684   4.385   1.918  16.499  0.2982  0.2655 -0.1207
  376TMC3    C8 5685   0.067   1.771  16.633 -0.0787 -0.5856 -0.0991
  376TMC3    O1 5686   4.435   1.916  16.386 -0.1436  0.0852 -0.0614
  376TMC3    O2 5687   0.091   1.790  16.518  0.1799 -0.2143 -0.0471
  377MPD2     C 5688   2.437   1.215  13.140  0.1157 -0.1197 -0.3909
  377MPD2    C1 5689   2.300   1.190  13.102  0.4205 -0.2277  0.1143
  377MPD2    C2 5690   2.217   1.111  13.182  0.3628  0.4242 -0.5502
  377MPD2    C3 5691   2.265   1.056  13.300  0.3273  0.3317  0.1751
  377MPD2    C4 5692   2.394   1.095  13.343  0.7448  0.2177  0.4204
  377MPD2    C5 5693   2.475   1.160  13.255  0.0655 -0.6038  0.1161
  377MPD2     H 5694   2.116   1.091  13.149  0.8435  0.6763 -2.2115
  377MPD2    H1 5695   2.438   1.065  13.437 -1.2644 -0.8732  1.0128
  377MPD2    H2 5696   2.500   1.263  13.065  0.8856 -0.1971  0.2108
  377MPD2    H3 5697   2.580   1.159  13.283  0.2870  2.3811 -0.6563
  377MPD2     N 5698   2.192   0.981  13.395  0.3732 -0.4242  0.0006
  377MPD2    H5 5699   2.233   0.956  13.485  2.6300  2.2118 -0.2927
  377MPD2    N1 5700   2.265   1.228  12.974  0.2176  0.2152  0.1697
  377MPD2    H7 5701   2.335   1.273  12.915 -0.9103  0.7236 -0.7733
  378TMC3    C1 5702   2.104   1.302  12.568  0.1297  0.7597 -1.0817
  378TMC3    C2 5703   2.068   1.258  12.694 -0.1406 -0.4826 -0.0982
  378TMC3    C3 5704   2.166   1.207  12.772  0.4510 -0.0343  0.0235
  378TMC3    C4 5705   2.232   1.294  12.521 -0.0525  0.0448 -0.0878
  378TMC3    C5 5706   2.324   1.241  12.605  0.1698 -0.9942  0.1800
  378TMC3    C6 5707   2.295   1.191  12.733  0.3689 -0.0503 -0.3709
  378TMC3     C 5708   2.013   1.370  12.476  0.0249 -0.4906  0.0788
  378TMC3     O 5709   2.016   1.349  12.359 -0.2229 -0.3871 -0.4280
  378TMC3     H 5710   1.965   1.250  12.728 -0.3600 -2.6213 -1.3010
  378TMC3    H1 5711   2.265   1.344  12.430 -0.1546  2.0275  0.9687
  378TMC3    H2 5712   2.374   1.136  12.783 -0.9299 -0.2760  1.4476
  378TMC3    C7 5713   2.455   1.255  12.582 -0.5188 -0.4084  0.4121
  378TMC3    C8 5714   2.146   1.194  12.916 -0.1983  0.0488 -0.2712
  378TMC3    O1 5715   2.527   1.255  12.678  0.2629  0.2358 -0.2585
  378TMC3    O2 5716   2.033   1.198  12.964  0.5597  0.1367  0.1700
  379MPD2     C 5717   3.423   4.657  16.105  0.2353  0.2541  0.4473
  379MPD2    C1 5718   3.361   4.555  16.175 -0.2411  0.4930 -0.3082
  379MPD2    C2 5719   3.421   4.513  16.289 -0.4115 -0.2067 -0.6004
  379MPD2    C3 5720   3.541   4.562  16.334  0.1053 -0.4805  0.4494
  379MPD2    C4 5721   3.595   4.668  16.261  0.4007 -0.5213  0.0945
  379MPD2    C5 5722   3.536   4.715  16.148  0.2293  0.1755 -0.1514
  379MPD2     H 5723   3.373   4.432  16.343 -2.2632  0.6284 -0.9735
  379MPD2    H1 5724   3.693   4.697  16.298  0.1751  0.4006 -0.0127
  379MPD2    H2 5725   3.368   4.697  16.021  0.9466 -0.3423 -0.2907
  379MPD2    H3 5726   3.573   0.056  16.080 -1.5885  0.0670 -1.2535
  379MPD2     N 5727   3.614   4.518  16.439 -0.3257  0.6617 -0.9695
  379MPD2    H5 5728   3.710   4.553  16.438  0.3472 -1.1493 -0.0438
  379MPD2    N1 5729   3.232   4.516  16.130 -0.3033  0.4689  0.1243
  379MPD2    H7 5730   3.196   4.561  16.047 -1.2970  1.9964  1.3808
  380TMC3    C1 5731   3.038   4.385  16.096  0.2184 -0.4611 -0.2900
  380TMC3    C2 5732   2.992   4.253  16.109  0.4976  0.8879 -0.1141
  380TMC3    C3 5733   2.879   4.215  16.037  0.3071  0.0778 -0.3019
  380TMC3    C4 5734   2.988   4.477  16.014  0.5083 -0.3991 -0.3412
  380TMC3    C5 5735   2.879   4.432  15.939  0.1528  0.4405 -0.2481
  380TMC3    C6 5736   2.812   4.307  15.951  0.0238 -0.6015 -0.6463
  380TMC3     C 5737   3.154   4.415  16.177 -0.8003  0.4012  0.8236
  380TMC3     O 5738   3.192   4.336  16.263 -0.6660  0.5521  0.5123
  380TMC3     H 5739   3.035   4.193  16.188  0.6542  0.9349 -0.1630
  380TMC3    H1 5740   3.016   4.580  15.999  0.2647 -0.6916 -2.7273
  380TMC3    H2 5741   2.730   4.278  15.886 -0.3457  0.1458 -0.5157
  380TMC3    C7 5742   2.848   4.508  15.822 -0.2196  0.0860  0.0585
  380TMC3    C8 5743   2.814   4.084  16.055 -0.3430  0.6140 -0.4771
  380TMC3    O1 5744   2.860   4.630  15.828  0.6897 -0.2763  0.4028
  380TMC3    O2 5745   2.703   4.089  16.110 -0.1370  0.0620 -0.6558
  381TMC3    C1 5746   2.836   0.974  16.095 -0.0194  0.3529  0.2605
  381TMC3    C2 5747   2.922   1.081  16.083 -0.8139  0.5139 -0.7118
  381TMC3    C3 5748   2.910   1.188  16.169  0.9701 -0.0848  0.4277
  381TMC3    C4 5749   2.753   0.981  16.198  0.3183 -0.1779 -0.2011
  381TMC3    C5 5750   2.748   1.076  16.287  0.3286  0.5777  0.9084
  381TMC3    C6 5751   2.831   1.183  16.285  0.0204 -0.0378  0.2208
  381TMC3     C 5752   2.845   0.855  16.011  0.0361 -0.0596  0.4104
  381TMC3     O 5753   2.796   0.749  16.050 -0.5585  0.2375  0.0259
  381TMC3     H 5754   3.007   1.080  16.016 -0.5062 -0.2885 -0.3072
  381TMC3    H1 5755   2.680   0.902  16.213 -2.6428  2.5415 -0.4184
  381TMC3    H2 5756   2.826   1.268  16.353 -2.5327  1.0250 -1.2526
  381TMC3    C7 5757   2.657   1.056  16.400  0.2972 -0.5298  0.0442
  381TMC3    C8 5758   3.012   1.288  16.159  0.0201  0.6712 -0.3312
  381TMC3    O1 5759   2.614   0.945  16.414 -0.1357 -0.0908  0.1222
  381TMC3    O2 5760   3.050   1.322  16.046  0.4494  0.6951  0.5401
  382MPD2     C 5761   1.706   2.772  16.470  0.4008 -0.1917 -0.4839
  382MPD2    C1 5762   1.760   2.826  16.583  0.2247 -0.2723  0.0706
  382MPD2    C2 5763   1.824   2.740  16.673  0.3800  0.1690  0.1274
  382MPD2    C3 5764   1.840   2.606  16.642 -0.4034 -0.0267  0.1043
  382MPD2    C4 5765   1.802   2.558  16.523  0.0645 -0.2858  0.1767
  382MPD2    C5 5766   1.734   2.642  16.433 -0.0583  0.1470  0.2211
  382MPD2     H 5767   1.860   2.778  16.767  1.2743  2.3338 -1.1028
  382MPD2    H1 5768   1.814   2.453  16.499 -0.9045 -0.2165 -0.6271
  382MPD2    H2 5769   1.651   2.829  16.397  1.8562 -0.2268 -1.5977
  382MPD2    H3 5770   1.690   2.610  16.338 -0.8428  0.3274  0.5225
  382MPD2     N 5771   1.911   2.518  16.732 -0.1319  0.2149 -0.1354
  382MPD2    H5 5772   1.913   2.422  16.697  0.1577 -0.3870  1.5440
  382MPD2    N1 5773   1.770   2.965  16.610  0.3016 -0.3334  0.4929
  382MPD2    H7 5774   1.824   2.983  16.694  1.7574  1.4753 -0.8365
  383TMC3    C1 5775   2.033   2.436  16.920  0.2309 -0.0182  0.3654
  383TMC3    C2 5776   1.978   2.314  16.893 -0.1195  0.5763  0.1677
  383TMC3    C3 5777   1.958   2.231  17.002 -0.0042  0.1815 -0.1206
  383TMC3    C4 5778   2.085   2.467  17.045  0.0692 -0.0728 -0.4000
  383TMC3    C5 5779   2.070   2.379  17.141  0.2829  0.5315 -0.3001
  383TMC3    C6 5780   2.008   2.254  17.124  0.0861 -0.2699  0.0479
  383TMC3     C 5781   1.985   2.551  16.840  0.0630 -0.1215  0.0847
  383TMC3     O 5782   2.021   2.662  16.871  0.0024  0.8681 -0.2118
  383TMC3     H 5783   1.939   2.291  16.795  0.9086  1.9941 -0.5704
  383TMC3    H1 5784   2.094   2.574  17.062 -1.5544 -0.0486  0.3451
  383TMC3    H2 5785   2.001   2.180  17.203  1.2356 -1.9134 -1.3799
  383TMC3    C7 5786   2.114   2.418  17.274  0.5291  0.1223 -0.8149
  383TMC3    C8 5787   1.875   2.117  16.989 -0.1747  0.0106 -0.8472
  383TMC3    O1 5788   2.204   2.503  17.279 -0.1530  0.0171  0.0866
  383TMC3    O2 5789   1.843   2.091  16.875 -0.3010  0.4863 -0.1848
  384MPD2     C 5790   3.113   4.144  12.309 -0.1426  0.1161  0.4120
  384MPD2    C1 5791   3.187   4.057  12.387 -0.5602 -0.5668  0.4318
  384MPD2    C2 5792   3.290   3.982  12.324  1.1332  0.3530 -0.8848
  384MPD2    C3 5793   3.330   4.017  12.199 -0.1891  0.3938  0.3432
  384MPD2    C4 5794   3.248   4.102  12.125 -0.0870  0.7813  0.6491
  384MPD2    C5 5795   3.135   4.153  12.180  0.3820 -0.0816  0.2868
  384MPD2     H 5796   3.353   3.911  12.376 -0.9430 -0.8467 -0.0318
  384MPD2    H1 5797   3.272   4.141  12.026 -3.6213 -0.6908 -0.7957
  384MPD2    H2 5798   3.025   4.190  12.352  0.6470  0.2044  1.9640
  384MPD2    H3 5799   3.071   4.216  12.118 -0.8384 -2.7181 -1.1557
  384MPD2     N 5800   3.447   3.960  12.152 -1.0546  0.1226 -0.0080
  384MPD2    H5 5801   3.489   3.894  12.217 -2.5103  0.2851  1.0950
  384MPD2    N1 5802   3.142   4.028  12.516 -0.2296  0.3462 -0.1167
  384MPD2    H7 5803   3.063   4.086  12.543  0.1874 -0.1949  2.3166
  385TMC3    C1 5804   3.652   3.934  12.046 -0.0361 -0.0560 -0.2233
  385TMC3    C2 5805   3.666   3.843  11.943  0.0987 -0.4906  0.1645
  385TMC3    C3 5806   3.712   3.716  11.975 -0.3468  0.6105  0.0849
  385TMC3    C4 5807   3.678   3.896  12.170 -0.2372  0.0454  0.3873
  385TMC3    C5 5808   3.713   3.767  12.204 -0.3869 -0.6733 -0.5200
  385TMC3    C6 5809   3.738   3.680  12.105  0.0050  0.4852  0.1582
  385TMC3     C 5810   3.515   3.995  12.043  0.3147 -0.0544  0.5085
  385TMC3     O 5811   3.479   4.068  11.952 -0.2277 -0.5947 -0.0261
  385TMC3     H 5812   3.637   3.879  11.845 -0.1825 -1.7749 -0.2158
  385TMC3    H1 5813   3.681   3.975  12.243 -0.3350  1.6727 -1.3576
  385TMC3    H2 5814   3.781   3.584  12.131 -0.4522  0.2280 -0.0384
  385TMC3    C7 5815   3.643   3.728  12.325 -0.5365  0.1128  0.2883
  385TMC3    C8 5816   3.774   3.643  11.867  0.0153 -0.6366 -0.1089
  385TMC3    O1 5817   3.578   3.820  12.372  0.1238  0.7763 -0.5047
  385TMC3    O2 5818   3.851   3.712  11.799 -0.3377  0.1637  0.5695
  386TMC3    C1 5819   3.468   1.326  11.539 -0.1269  0.0067  0.4016
  386TMC3    C2 5820   3.447   1.338  11.406  0.4954  0.5100  0.5396
  386TMC3    C3 5821   3.340   1.415  11.367  0.6534  0.9556 -0.2886
  386TMC3    C4 5822   3.378   1.371  11.632  0.2873  0.1892  0.2890
  386TMC3    C5 5823   3.273   1.442  11.587 -0.0008  0.1133 -0.1344
  386TMC3    C6 5824   3.260   1.479  11.456 -0.4805  0.5384 -0.0180
  386TMC3     C 5825   3.578   1.236  11.571  0.6274  0.6638  0.1408
  386TMC3     O 5826   3.661   1.208  11.485 -0.1591 -0.4471  0.3787
  386TMC3     H 5827   3.510   1.274  11.345 -2.6006 -2.8132  0.8207
  386TMC3    H1 5828   3.373   1.362  11.740  1.2719 -1.5015  0.1858
  386TMC3    H2 5829   3.184   1.543  11.413  1.5321  2.0056 -1.4018
  386TMC3    C7 5830   3.176   1.479  11.682  0.4831  0.3362 -0.4809
  386TMC3    C8 5831   3.301   1.409  11.230 -0.0549  0.4270 -0.0111
  386TMC3    O1 5832   3.196   1.470  11.801 -0.5393 -0.4382  0.0529
  386TMC3    O2 5833   3.217   1.493  11.197  0.3305 -0.2226  0.2300
  387MPD2     C 5834   0.610   0.645   9.742 -0.1978 -0.0697 -0.7520
  387MPD2    C1 5835   0.681   0.619   9.856  0.3211 -0.2895 -0.5306
  387MPD2    C2 5836   0.743   0.496   9.875  0.1824 -0.4292 -0.3907
  387MPD2    C3 5837   0.731   0.395   9.781  0.5622 -0.2219  0.5227
  387MPD2    C4 5838   0.660   0.427   9.665 -0.3143  0.0188 -0.6589
  387MPD2    C5 5839   0.605   0.551   9.648  0.4204  0.4132 -0.5805
  387MPD2     H 5840   0.793   0.469   9.967 -1.4892  2.1288  1.2628
  387MPD2    H1 5841   0.657   0.353   9.586 -1.6984  0.3097 -0.8878
  387MPD2    H2 5842   0.545   0.732   9.736  1.1183  0.8442 -1.8123
  387MPD2    H3 5843   0.548   0.584   9.562  1.1558  0.5360 -1.0219
  387MPD2     N 5844   0.808   0.283   9.808 -0.3138  0.3563 -0.3424
  387MPD2    H5 5845   0.853   0.286   9.898 -3.5631 -1.7401  1.3472
  387MPD2    N1 5846   0.710   0.712   9.958 -0.1246  0.5842 -0.1056
  387MPD2    H7 5847   0.764   0.672  10.034  1.4316 -0.0411 -1.5457
  388TMC3    C1 5848   0.787   0.909  10.055  0.1133  0.3077 -0.4716
  388TMC3    C2 5849   0.766   1.038  10.101 -0.2838 -0.0429  0.9516
  388TMC3    C3 5850   0.872   1.096  10.165 -0.3534  0.1241  0.0941
  388TMC3    C4 5851   0.905   0.845  10.084 -0.5201  0.3166 -0.1753
  388TMC3    C5 5852   0.994   0.902  10.171 -1.0077  0.2837  0.4212
  388TMC3    C6 5853   0.983   1.028  10.214  0.5850 -0.3898 -0.8853
  388TMC3     C 5854   0.690   0.847   9.962  0.8928  0.6895 -0.7256
  388TMC3     O 5855   0.595   0.897   9.907 -0.1160  0.2822 -0.1960
  388TMC3     H 5856   0.679   1.093  10.066 -2.0873 -3.3278  0.2653
  388TMC3    H1 5857   0.934   0.759  10.025  3.7689  0.4389  1.7465
  388TMC3    H2 5858   1.045   1.068  10.293 -1.4297  1.9336 -0.4939
  388TMC3    C7 5859   1.093   0.819  10.238  0.0928  0.6864 -0.1464
  388TMC3    C8 5860   0.887   1.238  10.163  0.0802  0.2197 -0.5333
  388TMC3    O1 5861   1.191   0.875  10.291  0.0854  0.0224 -0.7662
  388TMC3    O2 5862   0.990   1.287  10.211  0.2296  0.0752 -0.1726
  389MPD2     C 5863   0.405   4.540  10.740 -0.5246 -0.1424  0.5709
  389MPD2    C1 5864   0.350   4.430  10.684  0.0433  0.0515 -0.4103
  389MPD2    C2 5865   0.276   4.343  10.762  0.4015 -0.7351 -0.7050
  389MPD2    C3 5866   0.267   4.367  10.903 -0.7608 -0.6527  0.2892
  389MPD2    C4 5867   0.347   4.457  10.958  0.1711  0.2943  0.0061
  389MPD2    C5 5868   0.410   4.548  10.880 -0.4438 -0.3022 -0.4679
  389MPD2     H 5869   0.199   4.277  10.723  0.5629 -1.2352 -0.1673
  389MPD2    H1 5870   0.346   4.463  11.066  0.3862  0.0093  0.0222
  389MPD2    H2 5871   0.472   4.612  10.693  0.6584 -0.4415  1.7878
  389MPD2    H3 5872   0.471   4.628  10.919 -1.4273 -1.1463  2.7913
  389MPD2     N 5873   0.171   4.297  10.989  0.3776 -0.0721 -0.3835
  389MPD2    H5 5874   0.168   4.324  11.087 -0.7929  0.2787 -0.5160
  389MPD2    N1 5875   0.385   4.404  10.554 -0.2959  0.1880 -0.8913
  389MPD2    H7 5876   0.429   4.480  10.502 -0.5146  0.9316  0.0046
  390TMC3    C1 5877   4.710   4.167  11.047  0.3419 -0.3923  0.1942
  390TMC3    C2 5878   4.644   4.045  11.037 -0.1707  0.7625 -0.8158
  390TMC3    C3 5879   4.563   4.019  11.144 -0.1977 -0.2293  0.2212
  390TMC3    C4 5880   4.686   4.256  11.149  0.1329  0.3852  0.1640
  390TMC3    C5 5881   4.612   4.217  11.258 -0.2047 -0.5469  0.1624
  390TMC3    C6 5882   4.547   4.096  11.259 -0.7852 -0.6784  0.4290
  390TMC3     C 5883   0.089   4.189  10.954  0.3495  0.2765 -0.1604
  390TMC3     O 5884   0.119   4.102  10.871 -0.7659  0.1004  0.4990
  390TMC3     H 5885   4.667   3.962  10.971 -3.3716 -1.0025  0.2505
  390TMC3    H1 5886   4.732   4.354  11.161  1.2694 -0.1974  0.5699
  390TMC3    H2 5887   4.474   4.065  11.333  0.4521 -3.0198  0.6902
  390TMC3    C7 5888   4.634   4.290  11.383  0.2482 -0.3931  1.0511
  390TMC3    C8 5889   4.512   3.875  11.146  0.3234  0.6217 -0.3687
  390TMC3    O1 5890   4.733   4.362  11.383 -0.0189 -0.2805  0.4052
  390TMC3    O2 5891   4.491   3.824  11.038 -0.0581  0.2462 -0.5845
  391MPD2     C 5892   4.348   1.121  11.095 -0.5978  0.2471  0.3878
  391MPD2    C1 5893   4.413   1.246  11.119 -0.0832  0.0128 -0.6934
  391MPD2    C2 5894   4.441   1.327  11.007  0.1282 -0.3609 -0.1095
  391MPD2    C3 5895   4.382   1.303  10.882  0.2960 -0.1332 -0.2041
  391MPD2    C4 5896   4.328   1.173  10.855 -0.3365 -0.1008 -0.4173
  391MPD2    C5 5897   4.316   1.091  10.966 -0.0007  0.3086 -0.1826
  391MPD2     H 5898   4.488   1.422  11.030  0.3719 -0.5818  0.3076
  391MPD2    H1 5899   4.311   1.138  10.754  1.2170 -1.9630 -0.0383
  391MPD2    H2 5900   4.341   1.045  11.171  2.3802 -0.1817  0.2198
  391MPD2    H3 5901   4.287   0.988  10.949  1.7990  0.0081 -1.3399
  391MPD2     N 5902   4.394   1.409  10.790  0.1482 -0.2067  0.4690
  391MPD2    H5 5903   4.434   1.496  10.825  1.0499  0.0666 -1.2297
  391MPD2    N1 5904   4.463   1.281  11.243 -0.4490  0.0602  0.4690
  391MPD2    H7 5905   4.481   1.208  11.312  1.6844  0.5886  0.4895
  392TMC3    C1 5906   4.357   1.522  10.578  0.3261  0.2191 -0.1786
  392TMC3    C2 5907   4.258   1.560  10.496 -0.6306 -0.2430 -0.0851
  392TMC3    C3 5908   4.289   1.653  10.402 -0.3137  0.1716  0.1561
  392TMC3    C4 5909   4.483   1.579  10.570  0.2533 -0.5281 -0.7989
  392TMC3    C5 5910   4.512   1.681  10.484 -0.4323 -0.4210  0.2592
  392TMC3    C6 5911   4.416   1.718  10.387  0.1269  0.7264  0.4830
  392TMC3     C 5912   4.334   1.407  10.667  0.1290 -0.4853 -0.5720
  392TMC3     O 5913   4.271   1.318  10.611 -0.4814 -0.0282  0.3953
  392TMC3     H 5914   4.164   1.506  10.499 -0.5821 -0.3483 -0.3970
  392TMC3    H1 5915   4.555   1.544  10.643  1.0425 -0.9957 -1.8026
  392TMC3    H2 5916   4.427   1.804  10.322  0.3514  0.1932 -0.1942
  392TMC3    C7 5917   4.642   1.742  10.501  0.6797  0.0029 -0.3343
  392TMC3    C8 5918   4.181   1.670  10.308 -0.4267 -0.4614 -0.2215
  392TMC3    O1 5919   4.690   1.725  10.613  0.4416  0.4337  0.0282
  392TMC3    O2 5920   4.073   1.621  10.338 -0.0421 -0.5526  0.0314
  393TMC3    C1 5921   2.688   3.786  10.715  0.0403 -0.0052 -0.0865
  393TMC3    C2 5922   2.618   3.686  10.646 -0.0895 -0.2391 -0.5908
  393TMC3    C3 5923   2.603   3.566  10.712 -0.2550  0.0051  0.3824
  393TMC3    C4 5924   2.752   3.762  10.829  0.6609  0.5947 -0.6874
  393TMC3    C5 5925   2.743   3.635  10.882 -0.5252  0.3362  0.1635
  393TMC3    C6 5926   2.668   3.535  10.827  0.1033 -0.4116  0.7338
  393TMC3     C 5927   2.735   3.906  10.652 -0.4825  0.1318  0.0141
  393TMC3     O 5928   2.744   3.905  10.533 -0.4288  0.2459  0.0649
  393TMC3     H 5929   2.575   3.708  10.549 -0.4134 -1.3805 -0.7042
  393TMC3    H1 5930   2.820   3.830  10.879  0.2243  1.0967 -0.7836
  393TMC3    H2 5931   2.668   3.433  10.862  2.3081 -0.5493  0.3068
  393TMC3    C7 5932   2.864   3.610  10.970  1.0946  0.3083  0.1014
  393TMC3    C8 5933   2.520   3.460  10.649  0.2718 -0.1464 -0.1113
  393TMC3    O1 5934   2.958   3.688  10.956  0.1115  0.2422  0.4505
  393TMC3    O2 5935   2.496   3.360  10.712  0.0359 -0.0402 -0.8408
  394TMC3    C1 5936   0.440   4.283  10.357 -0.1024  0.2442  0.1025
  394TMC3    C2 5937   0.474   4.166  10.302 -0.0802  0.0466  0.0960
  394TMC3    C3 5938   0.522   4.171  10.172 -0.4782  0.3355  0.7451
  394TMC3    C4 5939   0.470   4.403  10.294 -0.6809 -0.3885  0.3375
  394TMC3    C5 5940   0.508   4.405  10.160 -0.4964 -1.3127 -0.1296
  394TMC3    C6 5941   0.537   4.284  10.100 -0.1207 -0.2644  0.0140
  394TMC3     C 5942   0.387   4.279  10.495  0.2685  0.3101 -0.0942
  394TMC3     O 5943   0.360   4.166  10.537  0.2487  0.2038 -0.1474
  394TMC3     H 5944   0.468   4.074  10.360  0.4645 -0.8376 -1.2467
  394TMC3    H1 5945   0.455   4.502  10.334 -3.0658 -0.7599  0.4089
  394TMC3    H2 5946   0.572   4.277   9.997 -0.8822  1.0641 -0.3380
  394TMC3    C7 5947   0.524   4.531  10.090 -0.3557  0.5038  0.4028
  394TMC3    C8 5948   0.531   4.047  10.100 -0.2910  0.2721  0.2723
  394TMC3    O1 5949   0.548   4.624  10.162  0.3812 -0.1095 -0.2084
  394TMC3    O2 5950   0.571   4.046   9.985  0.2663  0.3291 -0.1339
  395TMC3    C1 5951   0.228   1.846  14.546 -0.0612 -0.4266  0.2285
  395TMC3    C2 5952   0.101   1.896  14.569 -0.2673  0.0887  0.3054
  395TMC3    C3 5953   0.079   2.035  14.558 -0.2297 -0.3487  0.3743
  395TMC3    C4 5954   0.338   1.923  14.524 -1.0075 -0.4548 -0.5533
  395TMC3    C5 5955   0.310   2.061  14.522 -0.1502  0.6120 -0.9855
  395TMC3    C6 5956   0.189   2.116  14.535 -0.0095  0.3076 -0.1180
  395TMC3     C 5957   0.258   1.720  14.611 -0.1730 -0.6099  0.1255
  395TMC3     O 5958   0.322   1.638  14.547 -0.1121  0.3218 -0.2047
  395TMC3     H 5959   0.018   1.829  14.585 -0.9929  1.1618  1.0081
  395TMC3    H1 5960   0.437   1.879  14.521  0.9479  3.8130  0.7467
  395TMC3    H2 5961   0.176   2.224  14.532  1.0934  0.3492 -2.9441
  395TMC3    C7 5962   0.420   2.154  14.508  0.0196  0.7456  0.3254
  395TMC3    C8 5963   4.717   2.098  14.645 -0.0663 -0.9652 -0.3312
  395TMC3    O1 5964   0.409   2.270  14.547  0.4512  0.6351  0.0885
  395TMC3    O2 5965   4.731   2.216  14.670  0.5736  0.0442  0.6073
  396MPD2     C 5966   0.004   2.967  16.939 -0.6748  0.4990  0.0366
  396MPD2    C1 5967   0.132   2.978  17.003  0.0922 -0.0027  0.5745
  396MPD2    C2 5968   0.232   3.048  16.940 -0.8997 -0.4606  0.8214
  396MPD2    C3 5969   0.215   3.101  16.810  0.3355 -0.5359  0.3992
  396MPD2    C4 5970   0.087   3.104  16.765 -0.5929  0.3787  0.4625
  396MPD2    C5 5971   4.722   3.038  16.822  0.1025  0.1635  0.8172
  396MPD2     H 5972   0.333   3.034  16.977 -0.5781  2.7999  1.1516
  396MPD2    H1 5973   0.065   3.160  16.675  0.0765  1.6041  1.0500
  396MPD2    H2 5974   4.648   2.928  16.983  1.1164 -2.4313  1.1080
  396MPD2    H3 5975   4.624   3.041  16.775  0.3021  2.1061  0.5388
  396MPD2     N 5976   0.329   3.170  16.753  0.3387 -0.1917  0.2114
  396MPD2    H5 5977   0.419   3.150  16.796  1.6514  0.5096 -2.2120
  396MPD2    N1 5978   0.149   2.918  17.134 -1.2210  0.2723 -0.1736
  396MPD2    H7 5979   0.068   2.904  17.193 -2.1349 -0.9638 -1.7129
  397TMC3    C1 5980   0.245   2.881  17.346 -0.7916  0.0715 -0.3327
  397TMC3    C2 5981   0.343   2.795  17.385 -0.1915 -0.4387 -0.2431
  397TMC3    C3 5982   0.311   2.689  17.463  0.3932 -0.6867 -0.1867
  397TMC3    C4 5983   0.121   2.859  17.377 -0.0728  0.0437 -0.4445
  397TMC3    C5 5984   0.097   2.774  17.481  0.2076 -0.7045 -0.0331
  397TMC3    C6 5985   0.189   2.682  17.524  0.0830  0.2575 -0.1553
  397TMC3     C 5986   0.269   2.916  17.206  0.7706  0.3395  0.2748
  397TMC3     O 5987   0.383   2.944  17.174  0.5905  0.3143  0.2976
  397TMC3     H 5988   0.436   2.798  17.330  0.0720  1.9957  0.3160
  397TMC3    H1 5989   0.043   2.933  17.359 -1.5987 -1.2894  0.6321
  397TMC3    H2 5990   0.167   2.609  17.601  2.1367 -0.9729 -0.7347
  397TMC3    C7 5991   4.694   2.753  17.525  0.6788  1.1102  0.2604
  397TMC3    C8 5992   0.354   2.561  17.428 -1.0521 -0.5488 -0.3832
  397TMC3    O1 5993   4.602   2.796  17.457 -0.0124  0.4605  0.2269
  397TMC3    O2 5994   0.273   2.470  17.438  0.4202 -1.1782 -0.1067
  398MPD2     C 5995   2.993   3.716   0.081 -0.4628 -0.0249 -1.1225
  398MPD2    C1 5996   3.059   3.695   0.199 -0.3277  0.3731 -0.4585
  398MPD2    C2 5997   3.118   3.807   0.250  0.5156 -0.3057 -0.1572
  398MPD2    C3 5998   3.105   3.935   0.190  0.3584 -0.3730 -0.0663
  398MPD2    C4 5999   3.037   3.947   0.072  0.2206  0.0622  0.6273
  398MPD2    C5 6000   2.970   3.838   0.027 -0.6426  0.4460 -0.0997
  398MPD2     H 6001   3.181   3.791   0.337 -0.8539 -0.1413  0.8670
  398MPD2    H1 6002   3.014   4.038   0.018 -3.9022  1.6661  5.0423
  398MPD2    H2 6003   2.932   3.634   0.045 -0.1609 -0.0573 -1.5547
  398MPD2    H3 6004   2.897   3.848  17.685 -2.6420  1.6774  1.8762
  398MPD2     N 6005   3.178   4.043   0.246 -0.2297 -0.4991  0.0521
  398MPD2    H5 6006   3.225   4.012   0.331 -0.2597 -0.9442 -0.0920
  398MPD2    N1 6007   3.085   3.571   0.255  0.1480 -1.1155  0.6266
  398MPD2    H7 6008   3.152   3.574   0.330  0.9266  1.8192 -0.1921
  399TMC3    C1 6009   3.092   3.341   0.292  0.5006 -0.3014  0.0999
  399TMC3    C2 6010   3.199   3.358   0.384 -0.1202 -0.4955  0.0130
  399TMC3    C3 6011   3.247   3.253   0.454 -0.1828 -0.7318 -0.3799
  399TMC3    C4 6012   3.039   3.215   0.273  0.2681  0.2488 -0.2075
  399TMC3    C5 6013   3.078   3.112   0.355  0.9777 -0.1469 -0.1758
  399TMC3    C6 6014   3.181   3.133   0.440  0.1081  0.1004  0.0500
  399TMC3     C 6015   3.026   3.447   0.222  0.5941 -0.5603 -0.2685
  399TMC3     O 6016   2.950   3.416   0.130 -0.1207  0.3307 -0.1708
  399TMC3     H 6017   3.254   3.452   0.384  1.0471 -1.1749  1.0815
  399TMC3    H1 6018   2.961   3.204   0.198  1.3752  0.1076 -1.3299
  399TMC3    H2 6019   3.217   3.059   0.511  0.0559 -1.0226 -1.0873
  399TMC3    C7 6020   2.983   3.010   0.390 -0.2152 -0.5637  0.1889
  399TMC3    C8 6021   3.368   3.257   0.525  0.1577 -0.0879 -0.4091
  399TMC3    O1 6022   3.006   2.945   0.495  0.2279 -0.2142 -0.0831
  399TMC3    O2 6023   3.413   3.146   0.541  0.5337  0.2526 -0.1340
  400TMC3    C1 6024   1.789   1.749  16.725 -0.4776  0.1048  0.9660
  400TMC3    C2 6025   1.693   1.653  16.714  0.3214 -0.5802  0.2498
  400TMC3    C3 6026   1.573   1.671  16.652  0.1115  0.2855  0.0970
  400TMC3    C4 6027   1.761   1.880  16.675  0.5401  0.1308 -0.3129
  400TMC3    C5 6028   1.641   1.895  16.605  0.1522  0.4956  0.5575
  400TMC3    C6 6029   1.551   1.792  16.592 -0.4608  0.0471 -0.2584
  400TMC3     C 6030   1.891   1.729  16.836 -0.0119  0.4429  0.2019
  400TMC3     O 6031   1.868   1.633  16.908  0.5463  0.8526  0.3866
  400TMC3     H 6032   1.721   1.559  16.759  0.7063 -1.2457 -1.3849
  400TMC3    H1 6033   1.829   1.963  16.682  0.8821 -0.2023  0.2997
  400TMC3    H2 6034   1.450   1.806  16.555 -0.2348  0.1704 -0.8296
  400TMC3    C7 6035   1.578   2.029  16.599 -0.1473  0.1931  0.3220
  400TMC3    C8 6036   1.463   1.584  16.664  0.4386 -0.1935  0.0510
  400TMC3    O1 6037   1.477   2.031  16.528  0.2477 -0.7144 -0.2375
  400TMC3    O2 6038   1.448   1.545  16.778 -0.1577 -0.2506 -0.5383
  401MPD2     C 6039   0.601   0.638   0.706 -0.2266 -0.6463  0.5949
  401MPD2    C1 6040   0.684   0.569   0.788 -0.1754  0.0738  0.4913
  401MPD2    C2 6041   0.697   0.433   0.781  0.2307  0.0662  0.0392
  401MPD2    C3 6042   0.633   0.358   0.689  0.5982 -1.1648  0.0138
  401MPD2    C4 6043   0.555   0.430   0.596 -0.2023  0.1415 -0.3457
  401MPD2    C5 6044   0.543   0.568   0.600  0.1364  0.3044 -0.1342
  401MPD2     H 6045   0.757   0.377   0.852  2.6423  1.8485 -0.5812
  401MPD2    H1 6046   0.511   0.373   0.515  0.0226 -1.3633  0.5737
  401MPD2    H2 6047   0.581   0.743   0.725  0.8964  0.2822 -3.4476
  401MPD2    H3 6048   0.478   0.620   0.531 -0.5530 -0.5777 -0.1438
  401MPD2     N 6049   0.652   0.217   0.688 -0.6591 -0.2481 -0.6888
  401MPD2    H5 6050   0.719   0.180   0.755 -0.5666 -0.7640 -1.0669
  401MPD2    N1 6051   0.752   0.631   0.897 -0.1458  0.4028 -0.2323
  401MPD2    H7 6052   0.789   0.567   0.967  2.1502  0.3884 -1.4738
  402TMC3    C1 6053   0.637   4.723   0.632 -0.0550 -0.2647  0.0694
  402TMC3    C2 6054   0.638   4.690   0.761  0.3201 -0.2940 -0.0542
  402TMC3    C3 6055   0.661   4.557   0.789  0.6152  0.6698  0.1099
  402TMC3    C4 6056   0.666   4.637   0.523 -0.4310 -0.0973  0.2188
  402TMC3    C5 6057   0.698   4.509   0.558 -0.1809 -0.5832  0.1441
  402TMC3    C6 6058   0.692   4.464   0.691  0.1707 -0.1008 -0.2558
  402TMC3     C 6059   0.605   0.123   0.593 -0.1046 -0.6174  0.3355
  402TMC3     O 6060   0.547   0.138   0.487  1.1225  0.3692  0.3069
  402TMC3     H 6061   0.584   0.021   0.828  0.5327 -0.6103  0.4266
  402TMC3    H1 6062   0.680   4.680   0.424  0.9630  0.9632  0.8696
  402TMC3    H2 6063   0.719   4.362   0.715 -1.6109 -0.7189 -0.8572
  402TMC3    C7 6064   0.746   4.421   0.448  0.1362 -0.0418 -0.1224
  402TMC3    C8 6065   0.706   4.513   0.919 -0.0651 -0.2470 -0.5716
  402TMC3    O1 6066   0.707   4.457   0.340 -0.9833  0.0503  0.2672
  402TMC3    O2 6067   0.725   4.391   0.940 -0.4385  0.5614 -0.3832
  403MPD2     C 6068   2.907   3.487  13.161 -0.6389  0.5989  0.2179
  403MPD2    C1 6069   2.842   3.529  13.276  0.0101 -0.5696  0.3734
  403MPD2    C2 6070   2.915   3.562  13.384  0.2878 -0.2249  0.0748
  403MPD2    C3 6071   3.058   3.563  13.383  0.8610  0.2160  0.1369
  403MPD2    C4 6072   3.121   3.524  13.262  0.2644 -0.7154  0.9262
  403MPD2    C5 6073   3.041   3.489  13.155  0.1710  0.3793 -0.7192
  403MPD2     H 6074   2.868   3.586  13.478  1.6016  0.0764  0.6605
  403MPD2    H1 6075   3.227   3.511  13.244  0.3310  1.0562  0.0375
  403MPD2    H2 6076   2.841   3.466  13.077  0.9862 -0.9414 -0.6863
  403MPD2    H3 6077   3.095   3.459  13.066  1.7035 -0.7187  0.5825
  403MPD2     N 6078   3.120   3.587  13.506 -0.2775  0.3732 -0.3265
  403MPD2    H5 6079   3.064   3.593  13.591 -1.8964 -1.5998 -1.2542
  403MPD2    N1 6080   2.705   3.491  13.277 -0.1053 -0.0305 -0.1729
  403MPD2    H7 6081   2.668   3.451  13.191 -2.9501  0.2623  0.9159
  404TMC3    C1 6082   2.489   3.433  13.380 -0.7767  0.2531 -0.8204
  404TMC3    C2 6083   2.492   3.339  13.481 -0.3681  0.3186  0.5920
  404TMC3    C3 6084   2.468   3.206  13.444  0.5510  0.1292 -0.7773
  404TMC3    C4 6085   2.460   3.393  13.253 -0.2733 -0.8624  0.4564
  404TMC3    C5 6086   2.435   3.262  13.222 -0.6817 -0.4058 -0.1572
  404TMC3    C6 6087   2.437   3.164  13.315  0.4189  0.2682 -0.1315
  404TMC3     C 6088   2.621   3.507  13.386 -0.2845 -0.0151  0.1327
  404TMC3     O 6089   2.643   3.553  13.495  0.1930 -0.1392 -0.1761
  404TMC3     H 6090   2.540   3.359  13.576  3.7076  1.5678 -1.7444
  404TMC3    H1 6091   2.451   3.467  13.174  1.5145 -1.0083  0.1327
  404TMC3    H2 6092   2.418   3.062  13.285  2.0047 -0.1631  0.3637
  404TMC3    C7 6093   2.393   3.228  13.088 -0.5491 -0.2703 -1.0611
  404TMC3    C8 6094   2.541   3.100  13.518  0.3680  0.5111  0.4154
  404TMC3    O1 6095   2.306   3.305  13.044  0.3921 -0.4242  0.2697
  404TMC3    O2 6096   2.581   3.013  13.439 -0.1916  0.2450  0.6769
  405MPD2     C 6097   3.340   0.108  15.209 -0.0301  0.6234  0.9073
  405MPD2    C1 6098   3.327   4.732  15.124  0.9477 -0.1708  0.2390
  405MPD2    C2 6099   3.246   0.005  15.014 -0.6431  0.0483  0.3023
  405MPD2    C3 6100   3.160   0.103  15.004 -0.2898 -0.0376  0.6395
  405MPD2    C4 6101   3.167   0.214  15.079 -0.1552 -0.4636 -0.1393
  405MPD2    C5 6102   3.255   0.214  15.182 -0.2318  0.0719  0.1390
  405MPD2     H 6103   3.241   4.652  14.950 -3.0539  0.0807  0.4648
  405MPD2    H1 6104   3.098   0.297  15.091  2.1215  1.7163 -2.1205
  405MPD2    H2 6105   3.400   0.107  15.299  0.0425 -3.2361  0.8102
  405MPD2    H3 6106   3.257   0.297  15.252 -2.1550  0.6064 -0.4548
  405MPD2     N 6107   3.066   0.089  14.907 -0.2421  0.1094 -0.1073
  405MPD2    H5 6108   3.066   0.001  14.856  3.2470  1.4839 -2.4890
  405MPD2    N1 6109   3.391   4.610  15.168 -0.4012 -0.4662  0.1236
  405MPD2    H7 6110   3.447   4.618  15.253  0.5772  0.5659 -0.6148
  406TMC3    C1 6111   2.761   0.113  14.564 -0.5504 -0.1946 -0.1514
  406TMC3    C2 6112   2.741   4.713  14.583 -0.5181  0.2146 -0.1512
  406TMC3    C3 6113   2.800   4.648  14.690  0.6559 -0.3311 -0.0780
  406TMC3    C4 6114   2.840   0.175  14.657  0.5374 -0.7495  0.6478
  406TMC3    C5 6115   2.894   0.107  14.769 -0.1501 -0.5067  0.5576
  406TMC3    C6 6116   2.869   4.707  14.786 -0.1066  0.2260  0.3279
  406TMC3     C 6117   2.656   0.187  14.503 -0.1447 -0.3393 -0.9603
  406TMC3     O 6118   2.655   0.306  14.522 -0.5851 -0.0348  0.2771
  406TMC3     H 6119   2.697   4.643  14.512 -2.6835  0.5193  0.8880
  406TMC3    H1 6120   2.847   0.283  14.662  2.8160 -0.8965  0.4556
  406TMC3    H2 6121   2.897   4.659  14.879  1.1466  1.5507  0.6374
  406TMC3    C7 6122   2.979   0.181  14.859  0.2112  0.5778 -0.7347
  406TMC3    C8 6123   2.796   4.503  14.696 -0.5029 -0.0734 -1.1051
  406TMC3    O1 6124   2.981   0.302  14.871 -0.0928 -0.8641 -0.2808
  406TMC3    O2 6125   2.742   4.434  14.613 -0.2346  0.2859 -0.4358
  407MPD2     C 6126   0.326   1.102   9.547  0.1105 -0.1697 -0.4516
  407MPD2    C1 6127   0.417   1.104   9.646 -0.4648  0.6003 -1.0598
  407MPD2    C2 6128   0.402   1.188   9.756  0.1902 -0.3445 -0.1361
  407MPD2    C3 6129   0.288   1.265   9.766  0.4751 -0.4965  1.1954
  407MPD2    C4 6130   0.203   1.279   9.665  0.1429  0.9481 -0.0771
  407MPD2    C5 6131   0.222   1.192   9.562  0.6466  0.1930  0.0713
  407MPD2     H 6132   0.482   1.198   9.828 -1.3108  0.1363  1.4334
  407MPD2    H1 6133   0.113   1.339   9.671  1.0930  2.2119  1.8054
  407MPD2    H2 6134   0.340   1.050   9.453  1.3097  0.2592 -0.5077
  407MPD2    H3 6135   0.151   1.217   9.485  0.5445 -1.5022 -0.3879
  407MPD2     N 6136   0.270   1.348   9.880  1.0120  0.7371  0.7489
  407MPD2    H5 6137   0.193   1.413   9.888 -0.3897 -1.0455  1.6609
  407MPD2    N1 6138   0.542   1.040   9.638 -0.1023  0.5301  0.2099
  407MPD2    H7 6139   0.600   1.073   9.714 -0.0947 -0.0195  0.4412
  408TMC3    C1 6140   0.721   0.905   9.565 -0.5450 -0.3954 -0.3153
  408TMC3    C2 6141   0.771   0.838   9.456  0.1776  0.7905 -0.4632
  408TMC3    C3 6142   0.905   0.821   9.453 -0.3992  0.1907  0.0015
  408TMC3    C4 6143   0.794   0.966   9.661 -0.2020 -0.1254 -0.2263
  408TMC3    C5 6144   0.927   0.963   9.644 -0.5262 -0.1209 -0.1255
  408TMC3    C6 6145   0.988   0.883   9.546  0.2285 -0.3677 -0.1195
  408TMC3     C 6146   0.577   0.936   9.558 -0.1193  1.0705 -0.3642
  408TMC3     O 6147   0.512   0.878   9.472  0.0295  0.1871 -0.1574
  408TMC3     H 6148   0.710   0.800   9.376  1.3774 -2.6724  0.2534
  408TMC3    H1 6149   0.753   1.014   9.750  2.3784  1.3264  0.1635
  408TMC3    H2 6150   1.094   0.861   9.555  0.5232  1.2216  0.2512
  408TMC3    C7 6151   1.007   1.013   9.744  0.6181  0.0040  0.2012
  408TMC3    C8 6152   0.972   0.745   9.342 -0.0243  0.0631 -0.6607
  408TMC3    O1 6153   0.979   1.125   9.782  0.0941 -0.5447  0.3106
  408TMC3    O2 6154   0.910   0.662   9.277 -0.5596  0.3297 -0.1268
  409MPD2     C 6155   0.628   1.360  16.883  0.5276  0.0338  0.0464
  409MPD2    C1 6156   0.737   1.393  16.952 -0.2428  0.1893 -0.4861
  409MPD2    C2 6157   0.828   1.481  16.897  0.6231  0.1874  0.5154
  409MPD2    C3 6158   0.813   1.543  16.768  0.3329 -0.0563  0.1543
  409MPD2    C4 6159   0.703   1.506  16.697  0.4001 -0.1208 -0.4683
  409MPD2    C5 6160   0.615   1.415  16.751 -0.1954 -0.2543 -0.2544
  409MPD2     H 6161   0.911   1.502  16.964  2.1228 -1.6898 -0.7746
  409MPD2    H1 6162   0.681   1.551  16.601 -2.0075 -2.7212 -1.1447
  409MPD2    H2 6163   0.563   1.278  16.913  1.2974 -0.8592 -0.7332
  409MPD2    H3 6164   0.525   1.392  16.697  0.0257  1.2439 -1.2525
  409MPD2     N 6165   0.902   1.639  16.720  0.3760 -0.2918  0.3967
  409MPD2    H5 6166   0.893   1.670  16.623 -0.1521 -1.0243  0.2058
  409MPD2    N1 6167   0.759   1.333  17.075 -0.1759 -0.2988 -0.6906
  409MPD2    H7 6168   0.845   1.358  17.123 -0.2334 -0.9650 -0.2400
  410TMC3    C1 6169   1.103   1.764  16.712  0.4010  0.0399  0.0192
  410TMC3    C2 6170   1.231   1.773  16.776  0.2153  1.0135 -0.4236
  410TMC3    C3 6171   1.292   1.899  16.774 -0.2298 -0.6915  0.2237
  410TMC3    C4 6172   1.046   1.871  16.649 -0.1873  0.1308 -0.3521
  410TMC3    C5 6173   1.102   1.993  16.663  0.0189  0.5907  0.0991
  410TMC3    C6 6174   1.226   2.012  16.719 -0.3857  0.1998 -0.1192
  410TMC3     C 6175   1.012   1.685  16.786  0.5177 -0.4487 -0.2815
  410TMC3     O 6176   1.046   1.670  16.902  0.4724 -0.3250 -0.5147
  410TMC3     H 6177   1.277   1.690  16.828 -0.2478  1.4122  0.6252
  410TMC3    H1 6178   0.947   1.859  16.607  0.4581 -0.6943 -1.6339
  410TMC3    H2 6179   1.271   2.110  16.709 -1.0845  0.5586  0.2524
  410TMC3    C7 6180   1.072   2.090  16.564 -1.0903  0.4330  0.0113
  410TMC3    C8 6181   1.397   1.930  16.868  0.4737 -0.1135  0.3577
  410TMC3    O1 6182   1.054   2.044  16.451 -0.7882  0.0119  0.2948
  410TMC3    O2 6183   1.425   2.044  16.902  0.7518  0.2003 -0.6954
  411MPD2     C 6184   1.315   3.067  14.470  0.4520 -0.1535  0.1313
  411MPD2    C1 6185   1.207   3.098  14.546  0.6498 -0.0385 -0.5792
  411MPD2    C2 6186   1.102   3.006  14.549 -0.3753  0.4473 -0.1711
  411MPD2    C3 6187   1.098   2.902  14.459 -0.4809 -0.4312 -0.7770
  411MPD2    C4 6188   1.199   2.882  14.369  0.0783  0.5467 -0.1490
  411MPD2    C5 6189   1.307   2.962  14.383 -0.2670  0.4817  0.5917
  411MPD2     H 6190   1.020   3.027  14.617  0.4009  1.9108  0.3048
  411MPD2    H1 6191   1.207   2.786  14.317 -2.3056 -0.3574  1.1560
  411MPD2    H2 6192   1.402   3.132  14.471 -0.9392  1.6909  1.6795
  411MPD2    H3 6193   1.395   2.945  14.322 -1.3806 -0.4982 -0.7518
  411MPD2     N 6194   0.995   2.803  14.447  0.5741  0.0595  0.2060
  411MPD2    H5 6195   1.016   2.724  14.387  2.7306 -0.1127  1.1651
  411MPD2    N1 6196   1.223   3.219  14.619 -0.3143  0.2628  0.2157
  411MPD2    H7 6197   1.307   3.273  14.602  0.2595 -0.5676  0.3700
  412TMC3    C1 6198   0.767   2.730  14.463 -0.1342  0.7770 -0.0679
  412TMC3    C2 6199   0.645   2.736  14.522  0.0132  0.1108 -0.0495
  412TMC3    C3 6200   0.546   2.641  14.493  0.1916 -0.1039 -0.1562
  412TMC3    C4 6201   0.792   2.636  14.368 -0.3731 -0.3441  0.0972
  412TMC3    C5 6202   0.692   2.546  14.337  0.4890 -0.4462 -0.6353
  412TMC3    C6 6203   0.572   2.544  14.404 -0.0325 -0.2500  0.0307
  412TMC3     C 6204   0.877   2.809  14.518  0.0524 -0.5010 -0.2810
  412TMC3     O 6205   0.851   2.887  14.606 -0.6003  0.1214  0.8475
  412TMC3     H 6206   0.625   2.818  14.590 -0.4716  1.3709 -1.7183
  412TMC3    H1 6207   0.892   2.616  14.334 -0.6755 -0.6520 -0.6126
  412TMC3    H2 6208   0.486   2.485  14.374  0.5629 -0.9489 -0.2976
  412TMC3    C7 6209   0.678   2.515  14.201 -0.4667 -0.2362 -0.5244
  412TMC3    C8 6210   0.420   2.699  14.459  0.3967 -0.6061  0.0796
  412TMC3    O1 6211   0.573   2.455  14.174 -0.1742 -0.4086 -0.3282
  412TMC3    O2 6212   0.432   2.798  14.382 -0.0152 -0.0891  0.0263
  413MPD2     C 6213   2.140   1.003  15.532  0.5482 -0.3618 -0.0813
  413MPD2    C1 6214   2.103   0.975  15.402 -0.3562 -0.3945  0.6334
  413MPD2    C2 6215   2.177   0.882  15.332  0.8474  0.0316  0.1946
  413MPD2    C3 6216   2.290   0.827  15.388 -0.0240 -0.5048  0.5671
  413MPD2    C4 6217   2.320   0.855  15.516 -0.0270  0.1165  0.2234
  413MPD2    C5 6218   2.240   0.938  15.595 -0.3213 -0.4297  0.3316
  413MPD2     H 6219   2.167   0.863  15.226  0.7031 -1.8081  0.5432
  413MPD2    H1 6220   2.409   0.809  15.559 -2.0555 -1.0125  3.2668
  413MPD2    H2 6221   2.071   1.064  15.590 -0.0228 -2.3612  1.3286
  413MPD2    H3 6222   2.259   0.954  15.700 -1.1446  2.4535  0.0548
  413MPD2     N 6223   2.381   0.759  15.304 -0.2159 -0.5602  0.3093
  413MPD2    H5 6224   2.345   0.760  15.209  0.3136  1.4584  0.1273
  413MPD2    N1 6225   1.988   1.041  15.345 -0.0317  0.0453  0.0219
  413MPD2    H7 6226   1.938   1.107  15.404 -2.5260  0.4174 -2.5218
  414TMC3    C1 6227   2.570   0.621  15.229  0.9132  0.9000 -0.9326
  414TMC3    C2 6228   2.648   0.524  15.274 -0.1229  0.1328 -0.0714
  414TMC3    C3 6229   2.723   0.447  15.176 -0.1728 -0.3851 -0.0596
  414TMC3    C4 6230   2.558   0.658  15.095  0.0711  0.3415  0.5021
  414TMC3    C5 6231   2.637   0.591  15.002  0.5018 -0.2954  0.5931
  414TMC3    C6 6232   2.711   0.483  15.040  0.4266  0.8229 -0.0485
  414TMC3     C 6233   2.499   0.694  15.338  0.3512  0.2538 -0.1830
  414TMC3     O 6234   2.549   0.682  15.449 -0.0257 -1.0651  0.3683
  414TMC3     H 6235   2.639   0.488  15.376  2.0689  0.2512  0.1708
  414TMC3    H1 6236   2.493   0.743  15.077 -0.2907  0.4730  2.4544
  414TMC3    H2 6237   2.757   0.424  14.962 -0.7917 -1.9411  1.3329
  414TMC3    C7 6238   2.579   0.585  14.866  0.3183  0.8238 -0.7975
  414TMC3    C8 6239   2.790   0.323  15.206  0.9823  0.7419  0.2970
  414TMC3    O1 6240   2.461   0.611  14.867  0.3452  0.2560 -0.2135
  414TMC3    O2 6241   2.804   0.239  15.120 -0.6039  0.4391 -0.1379
  415TMC3    C1 6242   2.615   3.216  10.318 -0.1395  0.6508 -0.0421
  415TMC3    C2 6243   2.656   3.280  10.206  0.3540 -0.1358 -0.8187
  415TMC3    C3 6244   2.581   3.243  10.098 -0.0981  0.4780 -0.2439
  415TMC3    C4 6245   2.513   3.126  10.326  0.1377 -0.0370  0.1497
  415TMC3    C5 6246   2.445   3.090  10.212 -0.1359 -0.0815  0.0988
  415TMC3    C6 6247   2.473   3.152  10.092  1.2381  0.3688  0.3121
  415TMC3     C 6248   2.708   3.213  10.428 -0.5099  0.3258  0.2908
  415TMC3     O 6249   2.688   3.132  10.518  0.1071  0.0542 -0.2019
  415TMC3     H 6250   2.749   3.335  10.197 -1.9090  3.6113 -1.2580
  415TMC3    H1 6251   2.472   3.095  10.421 -0.5227  0.5297  0.0542
  415TMC3    H2 6252   2.408   3.139  10.007 -0.4981  0.4766  1.6253
  415TMC3    C7 6253   2.329   2.996  10.217 -0.0061  0.1291  0.7352
  415TMC3    C8 6254   2.607   3.303   9.965 -0.3633  0.3471 -0.5791
  415TMC3    O1 6255   2.278   2.975  10.104 -0.4720  0.8925  0.1251
  415TMC3    O2 6256   2.531   3.273   9.876  0.2462 -0.0127  0.1677
  416MPD2     C 6257   4.302   2.141  11.625 -0.3420  0.4634  0.0770
  416MPD2    C1 6258   4.175   2.120  11.581  0.2740 -0.5800  0.0737
  416MPD2    C2 6259   4.145   1.992  11.538  0.6261 -0.6989 -0.1313
  416MPD2    C3 6260   4.235   1.892  11.536  0.6854  0.1544  0.9811
  416MPD2    C4 6261   4.362   1.913  11.588  0.6875  0.1794  0.4637
  416MPD2    C5 6262   4.394   2.042  11.629  0.2544  0.0231 -0.2707
  416MPD2     H 6263   4.049   1.973  11.492  0.8952 -0.0386 -0.9513
  416MPD2    H1 6264   4.450   1.851  11.579  1.3701  1.1943  0.1207
  416MPD2    H2 6265   4.341   2.239  11.653 -1.0086  1.0315 -0.9686
  416MPD2    H3 6266   4.494   2.056  11.667  1.2314 -1.4360 -2.2562
  416MPD2     N 6267   4.193   1.770  11.487  0.4855  0.2636 -0.1792
  416MPD2    H5 6268   4.254   1.691  11.506 -0.4359 -1.1428 -2.9871
  416MPD2    N1 6269   4.087   2.241  11.578  0.1349  0.0617  0.2156
  416MPD2    H7 6270   4.126   2.329  11.613  0.1449 -0.1562  0.7570
  417TMC3    C1 6271   3.882   2.361  11.543 -0.0262 -0.5704 -0.1320
  417TMC3    C2 6272   3.908   2.434  11.655  0.4562 -0.4980 -0.7306
  417TMC3    C3 6273   3.820   2.534  11.677  0.3415 -0.0004 -0.1398
  417TMC3    C4 6274   3.780   2.389  11.454 -0.5003 -0.6933 -0.1017
  417TMC3    C5 6275   3.698   2.497  11.476 -0.3805  0.7371  1.3307
  417TMC3    C6 6276   3.721   2.568  11.585  0.2957  0.0021 -0.8815
  417TMC3     C 6277   3.967   2.242  11.508 -0.1105  0.3919  0.9239
  417TMC3     O 6278   3.925   2.162  11.428  0.3278 -0.2238 -0.1955
  417TMC3     H 6279   3.983   2.401  11.726 -0.0371  0.7018  0.3670
  417TMC3    H1 6280   3.762   2.329  11.366 -2.0587  1.4890 -1.2550
  417TMC3    H2 6281   3.657   2.652  11.611  1.6273  1.2803 -1.7221
  417TMC3    C7 6282   3.659   2.577  11.357  0.9020  1.1740 -0.3223
  417TMC3    C8 6283   3.844   2.594  11.809 -0.1103  0.8569 -0.0274
  417TMC3    O1 6284   3.673   2.699  11.369 -0.4436 -0.4636  0.3824
  417TMC3    O2 6285   3.957   2.600  11.853 -0.0724  0.4848 -0.1738
  418TMC3    C1 6286   3.428   4.414   0.320 -0.0912  0.3401 -1.0437
  418TMC3    C2 6287   3.346   4.340   0.234 -0.4152 -0.2837 -0.1646
  418TMC3    C3 6288   3.262   4.250   0.291 -0.0727 -0.0392  0.4772
  418TMC3    C4 6289   3.430   4.386   0.451 -0.3780 -0.1973 -0.3756
  418TMC3    C5 6290   3.343   4.287   0.505 -0.3615 -0.6060 -0.0340
  418TMC3    C6 6291   3.260   4.216   0.425  0.4775  0.1620  0.1141
  418TMC3     C 6292   3.550   4.475   0.258 -0.0877  0.0079  0.1472
  418TMC3     O 6293   3.549   4.523   0.146  0.7028  0.2721 -0.4524
  418TMC3     H 6294   3.347   4.353   0.126  0.5854 -0.3733 -0.1676
  418TMC3    H1 6295   3.502   4.440   0.511 -0.8196 -0.8579  0.7448
  418TMC3    H2 6296   3.190   4.144   0.465 -0.6011  0.6096 -0.9980
  418TMC3    C7 6297   3.348   4.244   0.641 -0.2345  0.1093  1.3189
  418TMC3    C8 6298   3.193   4.168   0.196 -0.0841 -0.2567 -0.5362
  418TMC3    O1 6299   3.309   4.130   0.657  0.1283  0.2020  0.5997
  418TMC3    O2 6300   3.165   4.206   0.081  0.7808  0.0404  0.2643
  419MPD2     C 6301   1.333   2.001  12.266  0.2623  0.1308  0.3376
  419MPD2    C1 6302   1.310   2.135  12.288 -0.2157  0.2766  0.0451
  419MPD2    C2 6303   1.248   2.169  12.406  0.2754  0.3935 -0.6564
  419MPD2    C3 6304   1.211   2.073  12.504  0.5090  0.6648 -0.2935
  419MPD2    C4 6305   1.248   1.946  12.482 -0.3687 -0.2211 -0.4241
  419MPD2    C5 6306   1.315   1.908  12.366  0.1626  0.8843 -0.2013
  419MPD2     H 6307   1.215   2.271  12.420 -0.3718  0.1653 -0.5150
  419MPD2    H1 6308   1.211   1.869  12.549  1.4701 -0.2978  0.5044
  419MPD2    H2 6309   1.376   1.965  12.174 -1.1042 -0.3234 -0.1159
  419MPD2    H3 6310   1.336   1.805  12.340  0.7042  0.6358  1.2356
  419MPD2     N 6311   1.131   2.120  12.604  0.7247 -0.2247 -0.3595
  419MPD2    H5 6312   1.099   2.215  12.595  0.1322 -0.4995 -1.0766
  419MPD2    N1 6313   1.334   2.244  12.195  0.2288 -0.2084 -1.1404
  419MPD2    H7 6314   1.320   2.335  12.238  1.0531 -0.5789 -0.0639
  420TMC3    C1 6315   1.015   2.153  12.790  0.7439  0.0659  0.7048
  420TMC3    C2 6316   0.974   2.260  12.724  0.1854  0.0765 -0.2418
  420TMC3    C3 6317   0.951   2.376  12.787  0.6840 -0.5822  0.2949
  420TMC3    C4 6318   1.070   2.160  12.916  0.2348 -0.0289  0.5152
  420TMC3    C5 6319   1.056   2.281  12.977 -0.5100  1.1519 -0.0374
  420TMC3    C6 6320   0.992   2.389  12.918  0.5627  0.2038  0.6909
  420TMC3     C 6321   1.083   2.059  12.713  0.2650  0.5700  0.3259
  420TMC3     O 6322   1.131   1.955  12.758 -0.1656  0.4572 -0.5040
  420TMC3     H 6323   0.904   2.240  12.643  0.6245 -0.7564 -0.4166
  420TMC3    H1 6324   1.094   2.074  12.977 -1.1103  0.7175  2.1331
  420TMC3    H2 6325   0.975   2.480  12.975 -0.8252 -0.2004  0.9292
  420TMC3    C7 6326   1.153   2.314  13.082  0.0028  0.0289  0.1273
  420TMC3    C8 6327   0.873   2.477  12.715 -0.0779  0.3316  0.6191
  420TMC3    O1 6328   1.195   2.212  13.131  0.2417 -0.7490 -0.3284
  420TMC3    O2 6329   0.823   2.432  12.613  0.3859 -0.1065  0.1330
  421TMC3    C1 6330   3.299   3.589  13.668  0.0875 -0.7765  0.3258
  421TMC3    C2 6331   3.230   3.671  13.753  0.4109 -0.7588 -0.5791
  421TMC3    C3 6332   3.273   3.677  13.881  0.0025 -0.3658  0.0193
  421TMC3    C4 6333   3.417   3.536  13.700  0.0841  0.2937 -0.1149
  421TMC3    C5 6334   3.468   3.565  13.820 -0.6584  0.1553  0.0826
  421TMC3    C6 6335   3.399   3.637  13.914  0.0177 -0.0949 -0.0642
  421TMC3     C 6336   3.262   3.585  13.529 -0.7637 -0.2924 -0.6508
  421TMC3     O 6337   3.354   3.567  13.448  0.0051  0.7687  0.7304
  421TMC3     H 6338   3.127   3.699  13.736  1.0647  2.2867  0.6065
  421TMC3    H1 6339   3.469   3.478  13.624 -1.1564 -0.7919 -0.1269
  421TMC3    H2 6340   3.439   3.665  14.011  0.3784 -1.0570  0.0642
  421TMC3    C7 6341   3.598   3.520  13.848  0.3279 -1.2076 -0.3083
  421TMC3    C8 6342   3.210   3.763  13.976 -0.5554 -1.0660  0.1898
  421TMC3    O1 6343   3.642   3.561  13.959  0.4449 -0.1970 -0.3522
  421TMC3    O2 6344   3.232   3.735  14.092  0.3399  0.4587  0.2853
  422TMC3    C1 6345   0.919   0.374  12.863 -0.5190 -1.2313  0.1591
  422TMC3    C2 6346   0.900   0.494  12.918 -1.0129  1.1775  0.2790
  422TMC3    C3 6347   0.775   0.546  12.941 -0.4172 -0.2349  0.3126
  422TMC3    C4 6348   0.805   0.292  12.861  1.0323  0.0537  0.5960
  422TMC3    C5 6349   0.679   0.343  12.876  1.3187  0.3039  0.2663
  422TMC3    C6 6350   0.659   0.475  12.916  0.3187 -0.0488 -0.4826
  422TMC3     C 6351   0.964   0.394  12.725  0.3836  0.8497  0.1488
  422TMC3     O 6352   1.048   0.481  12.709 -0.1032  0.2091 -0.0725
  422TMC3     H 6353   0.984   0.562  12.920  0.0288 -0.1252  0.7365
  422TMC3    H1 6354   0.826   0.193  12.821  1.9484  0.4075  0.2034
  422TMC3    H2 6355   0.567   0.532  12.911 -0.3696 -1.1816 -0.7080
  422TMC3    C7 6356   0.594   0.290  12.775 -0.1857  0.3624  0.1034
  422TMC3    C8 6357   0.762   0.695  12.932 -0.3787 -0.1770 -0.6193
  422TMC3    O1 6358   0.651   0.215  12.698 -0.8255 -0.1246 -0.4059
  422TMC3    O2 6359   0.838   0.761  13.005 -0.3272  0.5971 -0.0712
  423MPD2     C 6360   2.175   1.435   0.843  0.7055 -0.7649 -0.2018
  423MPD2    C1 6361   2.305   1.418   0.853 -0.2593 -0.4473 -0.0609
  423MPD2    C2 6362   2.377   1.380   0.738  0.1339 -0.4243  0.1751
  423MPD2    C3 6363   2.310   1.362   0.623 -0.2604  0.2188  0.0654
  423MPD2    C4 6364   2.171   1.363   0.618  0.0539  0.3157 -0.0050
  423MPD2    C5 6365   2.110   1.405   0.731 -0.2748  0.1490 -0.0671
  423MPD2     H 6366   2.483   1.360   0.748 -0.0073 -0.5854  1.4510
  423MPD2    H1 6367   2.111   1.332   0.533 -1.4335  0.6048  0.9295
  423MPD2    H2 6368   2.110   1.458   0.927  0.0012 -0.3526 -0.8547
  423MPD2    H3 6369   2.003   1.411   0.720 -0.1984  0.7882 -0.4533
  423MPD2     N 6370   2.377   1.324   0.507 -0.0332 -0.4707 -0.5324
  423MPD2    H5 6371   2.318   1.279   0.437 -0.4498 -1.4773  0.4723
  423MPD2    N1 6372   2.378   1.440   0.973  0.1735 -0.1955  0.5859
  423MPD2    H7 6373   2.476   1.420   0.958 -0.0877  0.1608 -1.6365
  424TMC3    C1 6374   2.408   1.463   1.198  0.8988  0.7821  0.0471
  424TMC3    C2 6375   2.491   1.359   1.198  0.2744 -0.1440 -0.1920
  424TMC3    C3 6376   2.557   1.328   1.310  0.3147 -0.2061 -0.1683
  424TMC3    C4 6377   2.384   1.535   1.312  0.8915 -0.1192  0.7653
  424TMC3    C5 6378   2.455   1.499   1.426  0.0405 -0.3357  0.2733
  424TMC3    C6 6379   2.544   1.398   1.427 -0.2598  1.4315  0.7168
  424TMC3     C 6380   2.324   1.476   1.091 -0.5632 -0.6538  0.4463
  424TMC3     O 6381   2.207   1.513   1.116 -0.3426  0.0598  0.0998
  424TMC3     H 6382   2.508   1.295   1.112 -1.7712 -0.5843 -0.2755
  424TMC3    H1 6383   2.313   1.616   1.310  0.3775 -0.5936 -0.2997
  424TMC3    H2 6384   2.583   1.367   1.523 -0.4517 -0.5106  0.1830
  424TMC3    C7 6385   2.428   1.573   1.543  0.8466 -0.4262  0.5772
  424TMC3    C8 6386   2.654   1.225   1.315 -0.5177  0.0162  0.0099
  424TMC3    O1 6387   2.525   1.586   1.617  0.1963  0.1720 -0.3279
  424TMC3    O2 6388   2.639   1.145   1.223 -0.3982 -0.4469 -0.1964
  425MPD2     C 6389   1.611   0.622  17.131  0.2789  0.6137  0.0734
  425MPD2    C1 6390   1.541   0.509  17.168  0.7133  0.0230  0.3878
  425MPD2    C2 6391   1.440   0.521  17.262  0.1512 -0.7297 -0.2144
  425MPD2    C3 6392   1.409   0.636  17.322 -1.1700 -1.0916 -0.1204
  425MPD2    C4 6393   1.477   0.752  17.288 -0.2057  0.3649 -0.2625
  425MPD2    C5 6394   1.590   0.738  17.208  0.3969 -0.5867  0.2261
  425MPD2     H 6395   1.377   0.436  17.286  0.4253 -0.5627  1.0968
  425MPD2    H1 6396   1.454   0.847  17.335  3.2962  1.7779 -1.3628
  425MPD2    H2 6397   1.692   0.619  17.060 -0.1330 -1.0414 -0.3277
  425MPD2    H3 6398   1.652   0.825  17.189 -1.1862  0.1350 -1.6504
  425MPD2     N 6399   1.306   0.627  17.418  0.9436  0.2397 -0.2084
  425MPD2    H5 6400   1.262   0.536  17.426 -1.6706  1.6105  1.0277
  425MPD2    N1 6401   1.555   0.392  17.088 -0.2833  0.4702 -0.6774
  425MPD2    H7 6402   1.630   0.387  17.020 -1.0857  0.3861 -1.5616
  426TMC3    C1 6403   1.544   0.170  17.019  0.7511  0.6965  0.3774
  426TMC3    C2 6404   1.616   0.195  16.906 -0.8770  0.6344  0.1256
  426TMC3    C3 6405   1.673   0.089  16.835  0.1860 -0.4483  0.4058
  426TMC3    C4 6406   1.531   0.040  17.075 -0.1237  0.2880  0.1879
  426TMC3    C5 6407   1.598   4.677  17.009  0.4383 -0.0589 -0.1361
  426TMC3    C6 6408   1.660   4.698  16.889 -0.3047  0.8859  0.6032
  426TMC3     C 6409   1.479   0.284  17.095 -0.0446 -0.3494 -0.0271
  426TMC3     O 6410   1.383   0.248  17.167  0.3708 -0.3737 -0.1253
  426TMC3     H 6411   1.607   0.290  16.855 -0.6065 -0.8337 -2.6495
  426TMC3    H1 6412   1.467   0.028  17.162 -0.1425  0.7158  0.2339
  426TMC3    H2 6413   1.719   4.618  16.845  0.7029  2.7332 -1.4015
  426TMC3    C7 6414   1.566   4.541  17.062  0.1511 -0.4510  0.1142
  426TMC3    C8 6415   1.721   0.101  16.696 -0.3158  0.3309  0.3265
  426TMC3    O1 6416   1.593   4.438  16.999 -0.2465  0.8105 -1.0186
  426TMC3    O2 6417   1.762   4.730  16.645  0.3148  0.1966 -0.2091
  427MPD2     C 6418   0.142   2.777  14.729 -0.4986  0.3889  0.6859
  427MPD2    C1 6419   0.109   2.766  14.859 -0.2825  0.7354 -1.0645
  427MPD2    C2 6420   4.709   2.790  14.894 -0.5238  0.1761 -0.0642
  427MPD2    C3 6421   4.608   2.823  14.800  0.0050  0.1892 -0.2360
  427MPD2    C4 6422   4.655   2.836  14.675  0.3723  0.2201  0.6212
  427MPD2    C5 6423   0.048   2.819  14.637  0.6131  0.5670 -0.3233
  427MPD2     H 6424   4.684   2.782  14.999  0.5693  1.2975  0.2770
  427MPD2    H1 6425   4.588   2.885  14.604 -1.0421 -1.2360  0.9518
  427MPD2    H2 6426   0.243   2.759  14.695  0.3916  3.3732  1.7728
  427MPD2    H3 6427   0.076   2.821  14.533  0.5535  0.9044 -0.3328
  427MPD2     N 6428   4.470   2.867  14.837 -0.6118 -0.3603  0.0892
  427MPD2    H5 6429   4.410   2.905  14.765  0.0409  1.3090  0.4195
  427MPD2    N1 6430   0.197   2.726  14.958  1.0206 -0.5213  0.0038
  427MPD2    H7 6431   0.156   2.697  15.046 -0.2223 -0.3841 -0.5235
  428TMC3    C1 6432   0.404   2.678  15.055  0.0523 -0.4273  0.0610
  428TMC3    C2 6433   0.327   2.608  15.148 -0.7661 -0.2908  0.4503
  428TMC3    C3 6434   0.383   2.580  15.273  0.8037 -0.0281  0.3191
  428TMC3    C4 6435   0.531   2.723  15.092 -0.0822  0.3155 -0.0163
  428TMC3    C5 6436   0.584   2.686  15.213 -0.0846 -0.5636  0.7478
  428TMC3    C6 6437   0.511   2.610  15.301 -1.1542 -1.0193 -1.0121
  428TMC3     C 6438   0.334   2.727  14.938  0.3586  0.2184  0.0589
  428TMC3     O 6439   0.403   2.779  14.849  0.5408 -0.0958 -0.0921
  428TMC3     H 6440   0.227   2.569  15.130  0.2428 -1.4820 -2.6922
  428TMC3    H1 6441   0.582   2.800  15.036  0.7955 -0.2930 -0.0559
  428TMC3    H2 6442   0.553   2.577  15.396 -0.2769 -0.9096 -1.3651
  428TMC3    C7 6443   0.713   2.744  15.248 -0.3693  0.4599 -0.0995
  428TMC3    C8 6444   0.329   2.473  15.350 -0.7301 -0.1571  0.0890
  428TMC3    O1 6445   0.735   2.738  15.365 -0.2017  0.6220 -0.4590
  428TMC3    O2 6446   0.243   2.404  15.300  0.2847 -0.2084 -0.5110
  429MPD2     C 6447   1.709   2.389   0.203  0.6127 -0.9377 -0.2940
  429MPD2    C1 6448   1.657   2.311   0.100 -0.6673 -0.5934  0.6305
  429MPD2    C2 6449   1.677   2.347  17.713  0.1767  0.5459  0.1907
  429MPD2    C3 6450   1.748   2.466  17.680  0.1614  0.4483  0.0333
  429MPD2    C4 6451   1.810   2.530   0.044 -0.0573  0.6056 -0.3876
  429MPD2    C5 6452   1.791   2.496   0.174  0.0225 -0.4475  0.4931
  429MPD2     H 6453   1.645   2.284  17.631  0.3694 -0.2980  0.7631
  429MPD2    H1 6454   1.881   2.609   0.021 -0.2969  0.9674  0.1171
  429MPD2    H2 6455   1.698   2.361   0.308 -1.1087  0.2212 -0.1746
  429MPD2    H3 6456   1.854   2.532   0.255  1.9036  0.3029 -1.2812
  429MPD2     N 6457   1.754   2.512  17.545  0.1610 -0.1685  0.0154
  429MPD2    H5 6458   1.689   2.461  17.486 -2.5119  1.7332  1.3152
  429MPD2    N1 6459   1.581   2.191   0.126 -0.3497  0.9866  0.2571
  429MPD2    H7 6460   1.526   2.154   0.050  1.9957 -0.6298 -0.6633
  430TMC3    C1 6461   1.783   2.659  17.364  0.1046  1.2411  0.0640
  430TMC3    C2 6462   1.766   2.789  17.333  0.3089  0.6487  0.0952
  430TMC3    C3 6463   1.738   2.819  17.203 -0.5110 -0.9813 -0.1662
  430TMC3    C4 6464   1.772   2.557  17.274  0.4666 -0.8059 -0.3415
  430TMC3    C5 6465   1.727   2.593  17.140  0.5247  0.2905 -0.0328
  430TMC3    C6 6466   1.725   2.725  17.100  0.3046  0.1574 -0.1112
  430TMC3     C 6467   1.801   2.629  17.506 -0.2955 -0.5764  0.7577
  430TMC3     O 6468   1.835   2.724  17.582 -0.0775  0.7114 -0.4125
  430TMC3     H 6469   1.777   2.869  17.405  1.6664 -1.1275  1.8687
  430TMC3    H1 6470   1.775   2.455  17.309 -0.8494 -0.3213  1.1592
  430TMC3    H2 6471   1.701   2.750  16.997 -2.0900  2.4549  0.9979
  430TMC3    C7 6472   1.705   2.491  17.042 -1.1489 -1.0430  0.0276
  430TMC3    C8 6473   1.638   2.922  17.182 -0.3592  0.3609 -0.4112
  430TMC3    O1 6474   1.729   2.379  17.069 -0.5631  0.4456  0.2538
  430TMC3    O2 6475   1.622   2.949  17.067  0.3816 -1.1544 -0.4976
  431MPD2     C 6476   1.515   3.030  12.490 -1.0672 -0.5708 -0.2253
  431MPD2    C1 6477   1.594   3.020  12.374 -1.0041 -0.1433 -0.1364
  431MPD2    C2 6478   1.563   2.931  12.272 -0.6412  0.2939  0.4903
  431MPD2    C3 6479   1.455   2.848  12.284 -0.1244  0.0139  0.3385
  431MPD2    C4 6480   1.364   2.872  12.386  0.2372 -0.9109 -0.0586
  431MPD2    C5 6481   1.396   2.960  12.482  0.0803  0.8370  0.0770
  431MPD2     H 6482   1.633   2.927  12.190  0.4326  0.8284  1.3727
  431MPD2    H1 6483   1.283   2.806  12.413  0.0681 -1.3898 -1.7080
  431MPD2    H2 6484   1.540   3.089  12.577 -2.0237 -1.9877  1.0188
  431MPD2    H3 6485   1.332   2.971  12.569 -2.0255  0.1306 -1.3811
  431MPD2     N 6486   1.438   2.733  12.198  0.8837 -0.3040  0.3004
  431MPD2    H5 6487   1.352   2.679  12.204 -0.0606  1.1650 -0.0635
  431MPD2    N1 6488   1.714   3.092  12.357  0.6818 -0.4458 -0.4477
  431MPD2    H7 6489   1.770   3.075  12.275  0.1635 -0.1512 -0.8619
  432TMC3    C1 6490   1.490   2.586  12.009 -0.0722 -0.0832 -0.1233
  432TMC3    C2 6491   1.549   2.572  11.885 -0.0193  0.3678  0.4961
  432TMC3    C3 6492   1.518   2.459  11.818 -0.9140 -0.1130 -0.5239
  432TMC3    C4 6493   1.426   2.484  12.066 -0.1850 -0.0960 -0.0755
  432TMC3    C5 6494   1.419   2.366  12.004  0.5197 -0.4093 -0.1716
  432TMC3    C6 6495   1.461   2.345  11.874  0.0131 -0.1669  0.2979
  432TMC3     C 6496   1.529   2.692  12.100 -0.5075 -0.1993 -0.0488
  432TMC3     O 6497   1.638   2.738  12.071 -0.3851  0.0267  1.0104
  432TMC3     H 6498   1.602   2.657  11.844 -1.3307  1.6321  1.4453
  432TMC3    H1 6499   1.390   2.481  12.169 -0.5349  2.6495 -0.1176
  432TMC3    H2 6500   1.445   2.251  11.821  2.3424 -0.6287  0.4396
  432TMC3    C7 6501   1.400   2.239  12.076  0.4169  0.1278  0.3599
  432TMC3    C8 6502   1.626   2.427  11.730 -0.7118  0.0160  0.4642
  432TMC3    O1 6503   1.434   2.139  12.011 -0.0757 -0.1096  0.4494
  432TMC3    O2 6504   1.600   2.340  11.647  0.1496  0.0737 -0.7493
  433MPD2     C 6505   4.727   0.978  10.721 -0.0508  0.4155 -0.2271
  433MPD2    C1 6506   0.128   0.972  10.716  0.3214 -0.0467 -0.2094
  433MPD2    C2 6507   0.214   1.057  10.786 -0.6565  0.6834 -0.8431
  433MPD2    C3 6508   0.155   1.147  10.866  0.2332  0.4827  0.3166
  433MPD2    C4 6509   0.015   1.164  10.864  0.2701 -0.2200  0.5553
  433MPD2    C5 6510   4.669   1.080  10.788 -0.0919 -0.2912  0.3715
  433MPD2     H 6511   0.322   1.062  10.776 -0.2622 -1.2278  2.3686
  433MPD2    H1 6512   4.701   1.251  10.906 -1.9287 -0.4107 -1.6149
  433MPD2    H2 6513   4.664   0.908  10.667 -1.1633  1.5699 -0.3938
  433MPD2    H3 6514   4.561   1.081  10.781 -0.2162  1.6313  2.4593
  433MPD2     N 6515   0.238   1.225  10.947 -0.4046 -0.4707 -0.2963
  433MPD2    H5 6516   0.337   1.203  10.938 -0.4784 -0.4176 -1.2411
  433MPD2    N1 6517   0.178   0.869  10.636 -0.4950  0.4976  0.5716
  433MPD2    H7 6518   0.110   0.807  10.594 -1.3055  1.5909  0.2979
  434TMC3    C1 6519   0.317   0.684  10.594 -0.0452 -0.3475 -0.3105
  434TMC3    C2 6520   0.429   0.627  10.626 -0.3691 -0.1210  0.0582
  434TMC3    C3 6521   0.441   0.500  10.591  0.2175 -0.0084 -0.6163
  434TMC3    C4 6522   0.226   0.635  10.499 -0.8481  0.0840 -0.1729
  434TMC3    C5 6523   0.252   0.510  10.451 -0.4118  0.6153 -0.2728
  434TMC3    C6 6524   0.353   0.439  10.503 -0.2720  0.2027  0.1065
  434TMC3     C 6525   0.303   0.814  10.654  0.1719 -0.5920 -0.0474
  434TMC3     O 6526   0.395   0.860  10.719  0.0183  0.1093 -0.8630
  434TMC3     H 6527   0.499   0.666  10.699 -0.9583  1.6424 -0.3156
  434TMC3    H1 6528   0.140   0.693  10.466  0.8559  1.0622 -2.8837
  434TMC3    H2 6529   0.377   0.339  10.470 -0.0503  0.7135 -1.2921
  434TMC3    C7 6530   0.189   0.487  10.322  0.2658  0.3493  0.4216
  434TMC3    C8 6531   0.530   0.435  10.677  0.5716  0.5757 -0.7699
  434TMC3    O1 6532   0.128   0.579  10.271 -0.4421  0.3125 -0.0684
  434TMC3    O2 6533   0.639   0.496  10.684  0.4756 -0.4255 -0.1845
  435MPD2     C 6534   3.247   2.023  15.327  0.2158  0.5518 -0.8191
  435MPD2    C1 6535   3.207   1.991  15.454 -0.3480 -0.2296 -0.3292
  435MPD2    C2 6536   3.289   1.910  15.526  0.1865 -0.2134 -0.3817
  435MPD2    C3 6537   3.411   1.865  15.486  0.4353 -0.4320 -0.1043
  435MPD2    C4 6538   3.455   1.897  15.362 -0.1116  0.7222 -0.6291
  435MPD2    C5 6539   3.369   1.981  15.285 -0.3038 -0.9271  0.5523
  435MPD2     H 6540   3.254   1.898  15.628 -0.2400  0.3487 -0.4572
  435MPD2    H1 6541   3.549   1.862  15.321  0.3225 -0.0002  0.9855
  435MPD2    H2 6542   3.189   2.102  15.279 -0.4745  1.0574  0.8732
  435MPD2    H3 6543   3.401   2.019  15.188  1.5908 -0.2758  1.4371
  435MPD2     N 6544   3.474   1.795  15.582  0.2394 -0.0184 -0.1537
  435MPD2    H5 6545   3.417   1.777  15.664 -0.1097  4.1710  0.5536
  435MPD2    N1 6546   3.089   2.043  15.518  0.2240  0.2738 -0.1822
  435MPD2    H7 6547   3.063   2.024  15.614  1.9924 -1.6501 -0.1093
  436TMC3    C1 6548   2.888   2.151  15.803 -0.3286  0.0425 -0.7271
  436TMC3    C2 6549   2.971   2.172  15.693 -0.0133  0.5792  0.3996
  436TMC3    C3 6550   2.909   2.180  15.566 -0.3329 -0.1871 -0.2078
  436TMC3    C4 6551   2.751   2.150  15.786 -0.0362 -0.6573  0.5597
  436TMC3    C5 6552   2.695   2.150  15.660  0.0585 -0.2123 -0.6717
  436TMC3    C6 6553   2.778   2.172  15.547 -0.4558 -0.3730  0.0453
  436TMC3     C 6554   2.953   2.183  15.928  0.0662  0.3561 -0.2581
  436TMC3     O 6555   3.040   2.266  15.924 -0.0920 -0.2365 -0.2931
  436TMC3     H 6556   3.078   2.183  15.706 -0.2570  0.7604  2.2221
  436TMC3    H1 6557   2.688   2.140  15.874 -1.4648 -0.2510 -0.4165
  436TMC3    H2 6558   2.739   2.156  15.447 -0.0838 -0.2197 -0.1245
  436TMC3    C7 6559   2.554   2.118  15.627  0.4116 -0.6692  0.2491
  436TMC3    C8 6560   2.999   2.128  15.462 -0.1166 -0.0697 -0.8707
  436TMC3    O1 6561   2.513   2.134  15.512 -0.3260  0.0544  0.1490
  436TMC3    O2 6562   2.991   2.160  15.341  0.2858 -0.7135 -0.2895
  437TMC3    C1 6563   1.122   3.680  12.254 -0.8292 -0.4774  0.0389
  437TMC3    C2 6564   1.225   3.736  12.178 -0.6261  0.2930 -0.3586
  437TMC3    C3 6565   1.350   3.730  12.233  0.2418 -0.0176  0.4450
  437TMC3    C4 6566   1.142   3.620  12.375  0.9730  0.5946  0.0343
  437TMC3    C5 6567   1.266   3.626  12.431  0.4635 -0.0927  0.0408
  437TMC3    C6 6568   1.373   3.676  12.358  0.3093  0.3466 -0.2295
  437TMC3     C 6569   0.991   3.654  12.206 -0.9694 -0.1659  0.4173
  437TMC3     O 6570   0.987   3.645  12.085  0.0823 -0.2635 -0.5764
  437TMC3     H 6571   1.194   3.794  12.092  2.4862 -1.2182 -2.5092
  437TMC3    H1 6572   1.067   3.574  12.439  2.6833  0.1364  1.7390
  437TMC3    H2 6573   1.471   3.691  12.401  0.0184 -0.6860  0.8024
  437TMC3    C7 6574   1.296   3.517  12.529 -0.0049 -0.0609  0.2956
  437TMC3    C8 6575   1.467   3.745  12.146 -0.3289  0.1826 -0.4907
  437TMC3    O1 6576   1.202   3.447  12.567  0.2967 -0.3502  1.2469
  437TMC3    O2 6577   1.564   3.680  12.188 -0.2311  0.2481  0.4149
  438MPD2     C 6578   4.161   4.520  16.649 -0.0637 -0.1172 -0.9020
  438MPD2    C1 6579   4.264   4.453  16.716  0.6015 -0.7464  0.5247
  438MPD2    C2 6580   4.278   4.472  16.851 -0.9167  0.1204  0.5560
  438MPD2    C3 6581   4.186   4.551  16.921 -0.7089 -0.2367  0.4785
  438MPD2    C4 6582   4.094   4.629  16.852  0.0998 -0.6273 -0.0291
  438MPD2    C5 6583   4.091   4.606  16.716 -0.6210  0.6299 -0.6700
  438MPD2     H 6584   4.359   4.414  16.893  1.2716  2.7250 -0.0614
  438MPD2    H1 6585   4.025   4.701  16.895  0.3852  0.5811 -1.5842
  438MPD2    H2 6586   4.138   4.511  16.543  0.3454  1.8618 -1.1710
  438MPD2    H3 6587   4.012   4.655  16.660 -0.1662  1.0612 -0.9343
  438MPD2     N 6588   4.185   4.569  17.064  0.4587  0.2378 -0.3800
  438MPD2    H5 6589   4.112   4.629  17.100 -0.4243 -0.0180 -1.7169
  438MPD2    N1 6590   4.361   4.370  16.645  0.4746 -0.0736  0.8362
  438MPD2    H7 6591   4.434   4.326  16.700  1.2465 -0.1447 -0.2333
  439TMC3    C1 6592   4.473   4.258  16.468 -0.1488  0.1697  0.0118
  439TMC3    C2 6593   4.536   4.293  16.348  0.0223  0.0316 -0.2528
  439TMC3    C3 6594   4.654   4.243  16.321  0.3685 -0.0424  0.0805
  439TMC3    C4 6595   4.532   4.172  16.557  0.0240  0.2378  0.2230
  439TMC3    C5 6596   4.648   4.117  16.521 -0.9130  0.3158  0.4017
  439TMC3    C6 6597   4.709   4.150  16.408  0.6653 -0.5998  0.9146
  439TMC3     C 6598   4.361   4.337  16.513 -0.5756 -0.5920 -0.1554
  439TMC3     O 6599   4.295   4.381  16.422 -0.6029 -0.3965 -0.0457
  439TMC3     H 6600   4.489   4.365  16.281 -1.2556 -0.9677 -0.4331
  439TMC3    H1 6601   4.482   4.142  16.649  1.1857  0.0054  0.7848
  439TMC3    H2 6602   0.067   4.102  16.378  1.2020  1.1451 -0.2257
  439TMC3    C7 6603   4.699   3.996  16.587  0.3177 -0.6115 -0.1721
  439TMC3    C8 6604   4.661   4.191  16.184 -0.2796 -0.3673  0.5717
  439TMC3    O1 6605   0.024   4.008  16.694 -0.4476 -0.8146  0.0237
  439TMC3    O2 6606   4.688   4.074  16.159 -0.1514 -0.4080 -0.1437
  440MPD2     C 6607   2.435   4.372  14.814 -0.4299 -0.6749  0.0665
  440MPD2    C1 6608   2.500   4.473  14.872  0.0004  0.1013 -0.0757
  440MPD2    C2 6609   2.597   4.445  14.964 -0.1513 -0.1305 -0.4602
  440MPD2    C3 6610   2.642   4.317  14.997 -0.1958 -0.1547 -0.3404
  440MPD2    C4 6611   2.571   4.216  14.946 -0.0447 -0.1917 -0.2906
  440MPD2    C5 6612   2.476   4.245  14.847 -0.7459 -0.1473 -0.1715
  440MPD2     H 6613   2.638   4.528  15.020  1.1363 -1.9309  1.2918
  440MPD2    H1 6614   2.586   4.110  14.959 -1.3438  0.0293  2.9182
  440MPD2    H2 6615   2.359   4.389  14.739  2.0311 -0.1370 -2.2732
  440MPD2    H3 6616   2.420   4.162  14.805 -4.4924  1.9459  0.7002
  440MPD2     N 6617   2.755   4.295  15.089 -0.0676 -0.1086 -0.0241
  440MPD2    H5 6618   2.787   4.200  15.106 -2.1691 -0.8485 -0.2610
  440MPD2    N1 6619   2.458   4.608  14.863 -0.2139  0.4135  0.1300
  440MPD2    H7 6620   2.508   4.672  14.923  0.8787 -0.1606 -0.1771
  441TMC3    C1 6621   2.943   4.335  15.234 -0.2555  0.0896  0.0291
  441TMC3    C2 6622   3.046   4.421  15.253 -0.4628  0.9049  0.3232
  441TMC3    C3 6623   3.124   4.410  15.364  0.0983 -0.3896 -0.6816
  441TMC3    C4 6624   2.915   4.235  15.327 -0.2096  0.6500 -0.1262
  441TMC3    C5 6625   3.005   4.227  15.433  0.2917  0.2045 -0.0492
  441TMC3    C6 6626   3.106   4.313  15.454  0.1834 -0.4355 -0.8107
  441TMC3     C 6627   2.834   4.389  15.153  0.2581  0.3620  0.2437
  441TMC3     O 6628   2.832   4.511  15.151  0.0955  0.1586  0.0385
  441TMC3     H 6629   3.054   4.509  15.189 -1.5166  0.0066 -1.0277
  441TMC3    H1 6630   2.816   4.191  15.331  0.1027  0.2673  2.7472
  441TMC3    H2 6631   3.159   4.311  15.548  1.5073 -2.3211 -1.6030
  441TMC3    C7 6632   2.979   4.144  15.549  0.0256 -0.0934  0.2241
  441TMC3    C8 6633   3.154   4.539  15.426 -1.1448 -0.3225 -0.7284
  441TMC3    O1 6634   2.868   4.164  15.599 -0.0345  0.2474  0.1111
  441TMC3    O2 6635   3.240   4.542  15.516  0.3300  0.3227  0.2113
  442MPD2     C 6636   1.159   0.143  16.193  0.5148  0.2252 -0.8238
  442MPD2    C1 6637   1.093   0.049  16.261 -0.4697 -0.1230  0.1287
  442MPD2    C2 6638   1.054   4.668  16.195 -0.3438  0.3071 -0.3879
  442MPD2    C3 6639   1.085   4.653  16.057  0.3028 -1.0376  0.0457
  442MPD2    C4 6640   1.134   0.023  15.989  0.5436 -0.2217 -0.2855
  442MPD2    C5 6641   1.184   0.132  16.057  0.2523 -0.3029  0.1951
  442MPD2     H 6642   0.996   4.593  16.248 -1.0874  1.7571  0.8625
  442MPD2    H1 6643   1.152   0.018  15.883  0.8018 -0.1147 -0.2474
  442MPD2    H2 6644   1.217   0.223  16.239 -0.9029 -0.3091  1.8947
  442MPD2    H3 6645   1.245   0.207  16.008 -0.9447  1.4579  1.3718
  442MPD2     N 6646   1.053   4.539  15.980  0.1552 -0.1367  0.3712
  442MPD2    H5 6647   1.071   4.538  15.880 -1.0616 -1.8078  0.1657
  442MPD2    N1 6648   1.062   0.050  16.401 -0.0653 -0.2333  0.0249
  442MPD2    H7 6649   1.013   4.705  16.440 -1.0002  0.4521  0.2446
  443TMC3    C1 6650   1.016   0.163  16.608 -0.3344 -0.3287  0.0209
  443TMC3    C2 6651   0.991   0.286  16.671 -0.3603 -0.4542 -0.0222
  443TMC3    C3 6652   0.890   0.283  16.762  0.2875 -0.7723  0.2448
  443TMC3    C4 6653   0.971   0.042  16.665 -0.5321 -0.6141 -0.0841
  443TMC3    C5 6654   0.894   0.048  16.781 -0.0423 -0.7224 -0.2344
  443TMC3    C6 6655   0.839   0.168  16.817 -0.2717  0.3800 -0.2916
  443TMC3     C 6656   1.090   0.157  16.481  0.6023  0.9394  0.1509
  443TMC3     O 6657   1.149   0.260  16.448  0.6540 -0.5689 -0.0333
  443TMC3     H 6658   1.038   0.380  16.647 -0.4782 -0.3940 -0.0148
  443TMC3    H1 6659   1.005   4.681  16.626 -0.1142 -0.8207  0.7908
  443TMC3    H2 6660   0.761   0.176  16.892  0.0568  0.8211  0.0014
  443TMC3    C7 6661   0.828   4.657  16.817 -0.2760 -0.0269 -0.8304
  443TMC3    C8 6662   0.860   0.405  16.832 -0.3768 -0.1947  0.2184
  443TMC3    O1 6663   0.819   4.569  16.733 -0.1569 -0.0261  0.4401
  443TMC3    O2 6664   0.825   0.391  16.947 -0.6099  0.3376 -0.8314
  444MPD2     C 6665   1.249   4.570  16.875 -0.3193 -0.1315  0.3192
  444MPD2    C1 6666   1.233   4.434  16.898 -0.1024 -0.5431  0.2698
  444MPD2    C2 6667   1.286   4.340  16.810 -0.4982  0.3713  0.7845
  444MPD2    C3 6668   1.358   4.376  16.701 -0.2579 -0.0920 -0.4473
  444MPD2    C4 6669   1.383   4.514  16.686  0.6141  0.1331  0.2419
  444MPD2    C5 6670   1.332   4.608  16.774 -0.0807  0.0003  0.6734
  444MPD2     H 6671   1.273   4.233  16.823 -0.4604  0.3193  0.4028
  444MPD2    H1 6672   1.437   4.557  16.602 -1.0915 -1.1788 -1.5491
  444MPD2    H2 6673   1.203   4.646  16.938  2.5988  1.5784  0.3674
  444MPD2    H3 6674   1.353   4.710  16.746  0.9556 -1.2343 -3.1391
  444MPD2     N 6675   1.405   4.273  16.610  0.4761 -0.2335  0.6732
  444MPD2    H5 6676   1.357   4.184  16.622  0.8408 -0.7118 -1.4497
  444MPD2    N1 6677   1.161   4.387  17.006 -0.6553  0.3699 -0.6607
  444MPD2    H7 6678   1.157   4.287  17.019 -0.1770  0.0942 -2.7000
  445TMC3    C1 6679   1.541   4.168  16.450 -0.1030  0.0601  0.3672
  445TMC3    C2 6680   1.443   4.069  16.441 -0.2262  0.5042 -0.1485
  445TMC3    C3 6681   1.483   3.962  16.373  0.2975 -1.0304 -0.6817
  445TMC3    C4 6682   1.671   4.151  16.413 -0.1532 -0.0592  0.1016
  445TMC3    C5 6683   1.706   4.030  16.362  0.2256  0.4314 -0.0133
  445TMC3    C6 6684   1.609   3.940  16.332  0.2781 -0.3231 -0.0748
  445TMC3     C 6685   1.510   4.286  16.523 -0.1034  0.6182  0.7673
  445TMC3     O 6686   1.596   4.377  16.520  0.0649 -0.0108 -0.1634
  445TMC3     H 6687   1.339   4.086  16.467 -0.5630 -1.1601 -0.3578
  445TMC3    H1 6688   1.749   4.222  16.440  1.4068 -2.1668  1.1358
  445TMC3    H2 6689   1.631   3.851  16.273  2.8720 -0.2904  0.8387
  445TMC3    C7 6690   1.848   4.001  16.335 -0.1110  0.2249 -0.1665
  445TMC3    C8 6691   1.391   3.848  16.361 -0.2711  0.0389 -0.3097
  445TMC3    O1 6692   1.932   4.087  16.317 -0.1233  0.1951  0.0337
  445TMC3    O2 6693   1.423   3.761  16.277 -0.2581 -0.0098 -0.0643
  446MPD2     C 6694   0.051   0.584  11.153 -0.0688  0.4409  0.0578
  446MPD2    C1 6695   0.054   0.618  11.017  0.4271  0.3797  0.6772
  446MPD2    C2 6696   0.171   0.683  10.963  0.0548  0.2173  0.2056
  446MPD2    C3 6697   0.284   0.698  11.039  0.2873 -0.8656 -0.6200
  446MPD2    C4 6698   0.287   0.658  11.166 -0.0946  0.5109  0.1044
  446MPD2    C5 6699   0.170   0.603  11.224  0.0013  0.1678 -0.4466
  446MPD2     H 6700   0.180   0.713  10.860 -1.8081 -1.0352 -0.3364
  446MPD2    H1 6701   0.375   0.673  11.228  0.0487  0.3351 -0.0586
  446MPD2    H2 6702   4.705   0.542  11.211  1.2815 -1.3194  0.7014
  446MPD2    H3 6703   0.180   0.559  11.323 -0.2746  1.6867  0.2508
  446MPD2     N 6704   0.402   0.737  10.976 -0.2991  0.1219 -0.5405
  446MPD2    H5 6705   0.396   0.794  10.892  0.6475 -0.4387 -0.9869
  446MPD2    N1 6706   4.671   0.603  10.947 -0.5043 -0.3592 -0.7160
  446MPD2    H7 6707   4.667   0.650  10.857 -0.8433 -1.3838 -1.2423
  447TMC3    C1 6708   0.625   0.788  10.963 -0.1748  0.1316 -0.0117
  447TMC3    C2 6709   0.596   0.921  10.929  0.1201 -0.2515  0.8459
  447TMC3    C3 6710   0.689   1.000  10.870  0.3190  0.0701 -0.3499
  447TMC3    C4 6711   0.747   0.734  10.946 -0.5873  0.2208 -0.2548
  447TMC3    C5 6712   0.840   0.813  10.884 -0.8446  0.6943 -0.1800
  447TMC3    C6 6713   0.807   0.941  10.841 -0.0327  0.7085 -0.1565
  447TMC3     C 6714   0.528   0.702  11.020  0.1479  0.0832  0.3437
  447TMC3     O 6715   0.562   0.606  11.085 -0.3908  0.3494 -0.1590
  447TMC3     H 6716   0.494   0.957  10.936  0.4424  0.8507 -0.1476
  447TMC3    H1 6717   0.769   0.636  10.988 -2.0706  0.5793  1.3622
  447TMC3    H2 6718   0.884   0.997  10.791  0.8112  1.4646  1.9766
  447TMC3    C7 6719   0.979   0.789  10.934  0.0953  0.3718 -0.6163
  447TMC3    C8 6720   0.653   1.117  10.804  0.1423  0.0844 -0.6878
  447TMC3    O1 6721   0.996   0.683  10.994 -0.1820  0.5930 -0.1047
  447TMC3    O2 6722   0.534   1.153  10.809  0.0910  0.4141 -0.5062
  448TMC3    C1 6723   3.731   0.346  17.626  0.1523  0.1026  0.3257
  448TMC3    C2 6724   3.736   0.369  17.491  0.7767  0.1850 -0.1063
  448TMC3    C3 6725   3.863   0.392  17.441  0.1201  0.1991  0.5535
  448TMC3    C4 6726   3.839   0.303  17.696 -0.0333 -0.0689  0.1783
  448TMC3    C5 6727   3.961   0.317  17.640  0.3106 -0.1164  0.4046
  448TMC3    C6 6728   3.978   0.371  17.514  0.0966  0.0721 -0.3587
  448TMC3     C 6729   3.602   0.381  17.687  0.3233 -0.6856 -0.0437
  448TMC3     O 6730   3.510   0.406  17.611  0.5776 -0.3257  0.8203
  448TMC3     H 6731   3.646   0.391  17.433  2.2949  3.2581 -1.3029
  448TMC3    H1 6732   3.828   0.270   0.061  3.5189 -1.8678 -0.0409
  448TMC3    H2 6733   4.074   0.365  17.466  0.1219 -0.5806 -0.2296
  448TMC3    C7 6734   4.075   0.233  17.686 -0.1775 -0.3056  0.1986
  448TMC3    C8 6735   3.880   0.377  17.303 -0.1622 -0.4938  0.6454
  448TMC3    O1 6736   4.157   0.199  17.601  0.0668  0.0678  0.3536
  448TMC3    O2 6737   3.995   0.334  17.277  0.0232  0.0986 -0.5324
  449MPD2     C 6738   0.788   3.704  13.902 -0.0063  0.3560  0.6540
  449MPD2    C1 6739   0.660   3.666  13.866  0.2615 -0.8983 -0.1655
  449MPD2    C2 6740   0.558   3.686  13.957 -0.0606 -0.4626  0.7012
  449MPD2    C3 6741   0.581   3.733  14.080 -0.7853 -0.0750 -0.1561
  449MPD2    C4 6742   0.702   3.775  14.113  0.5197 -0.4334 -0.4648
  449MPD2    C5 6743   0.805   3.762  14.027  0.4045  0.1791  0.2030
  449MPD2     H 6744   0.465   3.640  13.926 -1.8682  1.9704  2.5672
  449MPD2    H1 6745   0.729   3.830  14.203 -0.2068 -2.3304  0.9044
  449MPD2    H2 6746   0.873   3.692  13.835  0.4018  0.4248  1.1568
  449MPD2    H3 6747   0.899   3.798  14.069  0.9336  1.4778 -2.0881
  449MPD2     N 6748   0.474   3.736  14.171  0.1024  0.3247  0.5200
  449MPD2    H5 6749   0.385   3.710  14.131 -0.6141 -0.4760  2.6227
  449MPD2    N1 6750   0.622   3.601  13.746 -0.0329 -0.1527 -0.4328
  449MPD2    H7 6751   0.525   3.572  13.741  0.2143 -1.6522  3.1592
  450TMC3    C1 6752   0.629   3.512  13.540  0.1969 -0.3595 -0.0521
  450TMC3    C2 6753   0.650   3.584  13.427 -0.0611 -0.4745 -0.0782
  450TMC3    C3 6754   0.537   3.617  13.351  0.2525  0.3870  0.1495
  450TMC3    C4 6755   0.500   3.485  13.572  0.4958  0.7281 -0.1539
  450TMC3    C5 6756   0.390   3.554  13.515  0.8969  0.1276 -0.1089
  450TMC3    C6 6757   0.415   3.627  13.406  0.2949  0.7508 -0.2270
  450TMC3     C 6758   0.709   3.561  13.647 -0.1875  0.7480 -0.5691
  450TMC3     O 6759   0.825   3.588  13.632 -0.4571 -0.3108  0.3043
  450TMC3     H 6760   0.754   3.601  13.401  0.8039  0.2996  3.8343
  450TMC3    H1 6761   0.484   3.412  13.651 -0.8062  1.1544 -0.0158
  450TMC3    H2 6762   0.334   3.647  13.336  0.7100 -1.5606 -1.3666
  450TMC3    C7 6763   0.299   3.609  13.615 -0.0813  0.1151 -0.8679
  450TMC3    C8 6764   0.546   3.683  13.226  0.6110 -0.5776 -0.9671
  450TMC3    O1 6765   0.305   3.557  13.729  0.0616 -0.6019 -0.4638
  450TMC3    O2 6766   0.471   3.783  13.216  0.3164  0.1137 -0.1863
  451MPD2     C 6767   2.200   2.370   1.283  0.5651  0.8236  0.3816
  451MPD2    C1 6768   2.257   2.442   1.186  0.4226  0.2267  0.3381
  451MPD2    C2 6769   2.376   2.397   1.123  0.1775  0.3035  0.0599
  451MPD2    C3 6770   2.431   2.275   1.156  0.1572  0.2442  0.3102
  451MPD2    C4 6771   2.370   2.210   1.262 -0.2702  0.0060  0.7647
  451MPD2    C5 6772   2.258   2.259   1.320  0.3648  0.5869 -0.6707
  451MPD2     H 6773   2.433   2.448   1.045  0.9244 -0.3587  0.1775
  451MPD2    H1 6774   2.420   2.124   1.306  2.7897  0.8771 -1.0552
  451MPD2    H2 6775   2.103   2.382   1.328 -0.0310 -1.7264 -0.2128
  451MPD2    H3 6776   2.216   2.201   1.401 -0.8237  2.2366 -0.1196
  451MPD2     N 6777   2.547   2.214   1.097 -0.1378  0.1585  0.8549
  451MPD2    H5 6778   2.564   2.118   1.124  0.1807  0.4685  1.7362
  451MPD2    N1 6779   2.177   2.548   1.135 -0.1461 -0.0235  0.4142
  451MPD2    H7 6780   2.084   2.559   1.176  0.4468 -0.8265  1.9529
  452TMC3    C1 6781   2.724   2.174   0.947 -0.9357 -0.5544  0.2639
  452TMC3    C2 6782   2.746   2.058   1.015  0.0287  0.1654  0.2558
  452TMC3    C3 6783   2.781   1.947   0.946 -0.5519  0.1786 -0.3118
  452TMC3    C4 6784   2.724   2.169   0.810 -0.4721  0.0171 -0.4959
  452TMC3    C5 6785   2.755   2.057   0.741 -0.0221  0.4632 -0.6191
  452TMC3    C6 6786   2.782   1.942   0.809 -0.1148  0.3121 -0.2549
  452TMC3     C 6787   2.645   2.275   1.015 -0.2358 -0.1112  0.2110
  452TMC3     O 6788   2.637   2.384   0.966 -0.1449 -0.4096 -0.0087
  452TMC3     H 6789   2.740   2.064   1.123 -0.9350 -2.3562  0.3412
  452TMC3    H1 6790   2.693   2.260   0.761 -1.3807 -0.2503 -0.4164
  452TMC3    H2 6791   2.813   1.849   0.764 -0.0503  0.8338 -1.2955
  452TMC3    C7 6792   2.675   2.038   0.623  0.0479 -0.2490 -0.0617
  452TMC3    C8 6793   2.808   1.825   1.017 -0.3641 -0.5219 -0.1205
  452TMC3    O1 6794   2.614   2.135   0.581 -0.5217 -0.2562 -0.2436
  452TMC3    O2 6795   2.910   1.771   0.975  0.0689  0.2233  0.2271
  453TMC3    C1 6796   2.739   0.170  12.391  0.0255  0.0559 -0.1174
  453TMC3    C2 6797   2.729   0.044  12.437  0.4158 -0.8266 -0.0262
  453TMC3    C3 6798   2.604   4.727  12.437 -0.1575 -0.6365 -0.5359
  453TMC3    C4 6799   2.640   0.257  12.357  0.3878  0.3085 -0.6090
  453TMC3    C5 6800   2.518   0.201  12.367 -0.0711 -0.7177 -0.0011
  453TMC3    C6 6801   2.498   0.075  12.407  0.2627 -0.5854 -0.3518
  453TMC3     C 6802   2.861   0.228  12.351  0.0234  0.3001  0.0779
  453TMC3     O 6803   2.922   0.154  12.275 -0.4468  0.0287 -0.2821
  453TMC3     H 6804   2.819   4.722  12.457 -0.8444 -2.8504 -0.0811
  453TMC3    H1 6805   2.657   0.356  12.315 -0.2631 -0.5321 -2.8449
  453TMC3    H2 6806   2.398   0.035  12.406 -0.1554  0.4105  1.1073
  453TMC3    C7 6807   2.416   0.257  12.288 -1.2012 -0.2175 -0.4650
  453TMC3    C8 6808   2.595   4.585  12.406  0.3718  0.0564  0.3521
  453TMC3    O1 6809   2.345   0.185  12.225 -0.1527 -0.1251  0.2164
  453TMC3    O2 6810   2.702   4.525  12.397  0.8770  0.1950  0.0542
  454MPD2     C 6811   2.114   4.155  15.922  0.2011 -0.4826  0.0827
  454MPD2    C1 6812   2.051   4.193  15.809 -0.4192  0.4575 -0.4628
  454MPD2    C2 6813   2.002   4.318  15.788 -0.0651 -0.0117 -0.5177
  454MPD2    C3 6814   2.011   4.415  15.885 -0.0315 -0.0357 -0.2286
  454MPD2    C4 6815   2.080   4.379  16.001  0.0687  0.4450  0.2037
  454MPD2    C5 6816   2.127   4.248  16.017  0.6820 -0.3661 -0.3875
  454MPD2     H 6817   1.933   4.334  15.706 -1.3694 -0.9550  0.3974
  454MPD2    H1 6818   2.100   4.454  16.076  1.1496 -1.8711  2.1984
  454MPD2    H2 6819   2.148   4.055  15.945  0.1064 -0.4472  0.3752
  454MPD2    H3 6820   2.176   4.219  16.109  0.7270  0.0693 -0.2715
  454MPD2     N 6821   1.938   4.534  15.888  0.7211  0.3743  0.1691
  454MPD2    H5 6822   1.925   4.575  15.980 -0.2155 -0.4768  0.4122
  454MPD2    N1 6823   2.012   4.100  15.711 -0.1553  0.1428 -0.0780
  454MPD2    H7 6824   1.961   4.131  15.629 -0.3181 -1.6586 -0.6636
  455TMC3    C1 6825   1.739   4.629  15.842 -0.1967 -0.9185 -0.8165
  455TMC3    C2 6826   1.753   4.713  15.955 -0.3678  0.7882  0.3208
  455TMC3    C3 6827   1.654   4.707  16.046 -0.0582 -0.5913  0.5639
  455TMC3    C4 6828   1.638   4.540  15.833  0.4732 -0.6005 -0.8889
  455TMC3    C5 6829   1.541   4.535  15.927 -0.1223 -0.1659 -0.3012
  455TMC3    C6 6830   1.559   4.613  16.041 -0.2981  0.1188  0.7927
  455TMC3     C 6831   1.860   4.575  15.789  0.5336 -0.1631  0.4254
  455TMC3     O 6832   1.872   4.561  15.665  0.3690 -0.5697 -0.2659
  455TMC3     H 6833   1.845   0.033  15.974 -0.9389  1.8224  0.1346
  455TMC3    H1 6834   1.640   4.455  15.766  2.4262 -0.7369 -0.6510
  455TMC3    H2 6835   1.481   4.597  16.114  0.4988 -1.5784  1.2710
  455TMC3    C7 6836   1.522   4.391  15.938 -0.5465  0.1323  0.4088
  455TMC3    C8 6837   1.672   0.031  16.177 -1.1195 -0.6160  0.2291
  455TMC3    O1 6838   1.414   4.343  15.895  0.3888 -0.5774  0.0562
  455TMC3    O2 6839   1.633   4.697  16.273 -0.4296 -0.0729  0.0339
  456MPD2     C 6840   4.356   4.725  15.906  0.8548  0.0744  0.2917
  456MPD2    C1 6841   4.472   0.018  15.979  0.1661  0.8878 -0.9407
  456MPD2    C2 6842   4.464   0.037  16.116 -0.1912 -0.2340  0.0126
  456MPD2    C3 6843   4.334   0.041  16.178 -0.4812 -0.4968 -0.1445
  456MPD2    C4 6844   4.217   0.018  16.110 -0.1994 -0.5085  0.2751
  456MPD2    C5 6845   4.226   4.727  15.970  0.6140 -0.4122 -0.8403
  456MPD2     H 6846   4.558   0.050  16.167 -0.4628  4.3772 -0.7128
  456MPD2    H1 6847   4.117   0.036  16.147  1.1881  2.2032  2.6034
  456MPD2    H2 6848   4.366   4.713  15.799  0.7113 -0.3067  0.3196
  456MPD2    H3 6849   4.138   4.717  15.909 -0.6231  1.0966  0.7095
  456MPD2     N 6850   4.338   0.062  16.316 -0.0984 -0.9658  0.0850
  456MPD2    H5 6851   4.432   0.072  16.352 -0.7641  1.0382  1.2102
  456MPD2    N1 6852   4.592   0.032  15.904 -0.9185 -0.1057  0.4831
  456MPD2    H7 6853   4.583   0.040  15.803 -0.1317 -0.9844  0.3509
  457TMC3    C1 6854   4.274   0.111  16.543 -0.3001 -0.0424  0.1659
  457TMC3    C2 6855   4.196   0.195  16.615  0.1759  0.1555  0.4807
  457TMC3    C3 6856   4.231   0.210  16.749  0.9475  0.5111  0.5600
  457TMC3    C4 6857   4.381   0.038  16.590  0.0373 -0.4304 -0.8994
  457TMC3    C5 6858   4.409   0.062  16.721  0.6678  0.0914 -0.3644
  457TMC3    C6 6859   4.343   0.146  16.799  0.0260  0.6003 -0.5309
  457TMC3     C 6860   4.235   0.091  16.401  0.1376 -0.6586 -0.4382
  457TMC3     O 6861   4.115   0.107  16.386 -0.0459  0.1594 -0.3094
  457TMC3     H 6862   4.128   0.262  16.563 -0.4317 -0.3908  0.5720
  457TMC3    H1 6863   4.434   4.699  16.530 -1.4689 -0.0524 -2.6885
  457TMC3    H2 6864   4.372   0.156  16.903  0.2506 -3.7053 -0.1956
  457TMC3    C7 6865   4.510   4.719  16.780  0.3407 -0.3836  0.2016
  457TMC3    C8 6866   4.132   0.252  16.851  0.0093 -0.1297  0.0825
  457TMC3    O1 6867   4.523   4.712  16.902 -0.3148 -0.0997 -0.0355
  457TMC3    O2 6868   4.162   0.235  16.972  0.0977 -0.9640  0.4095
  458MPD2     C 6869   1.550   3.306  12.925 -0.1606 -0.3853  0.2887
  458MPD2    C1 6870   1.621   3.422  12.889 -0.4084  0.3672  0.0500
  458MPD2    C2 6871   1.571   3.487  12.779 -0.4093 -0.1781 -0.4005
  458MPD2    C3 6872   1.455   3.446  12.710 -0.3126  0.6190  0.0153
  458MPD2    C4 6873   1.396   3.322  12.737  0.2889  0.4866 -0.4025
  458MPD2    C5 6874   1.445   3.259  12.852 -0.4129  0.5549  0.5610
  458MPD2     H 6875   1.614   3.580  12.744  0.8746 -0.9870 -0.9557
  458MPD2    H1 6876   1.339   3.259  12.669  1.5133  0.6364 -1.5592
  458MPD2    H2 6877   1.569   3.250  13.016  0.9647 -1.5045 -0.6397
  458MPD2    H3 6878   1.400   3.161  12.862 -0.7139  0.6469  0.1218
  458MPD2     N 6879   1.417   3.525  12.594  0.2093  0.4145  0.3015
  458MPD2    H5 6880   1.479   3.602  12.574  1.9301 -0.7227  1.2081
  458MPD2    N1 6881   1.736   3.458  12.963  0.3454 -0.4181 -0.1299
  458MPD2    H7 6882   1.754   3.397  13.042 -1.7187  0.4856  1.0581
  459TMC3    C1 6883   1.954   3.525  13.005  0.4526  0.4638 -0.0530
  459TMC3    C2 6884   2.072   3.578  12.954  0.4245  0.2113  0.1949
  459TMC3    C3 6885   2.169   3.609  13.044  0.0428  0.1734  0.3966
  459TMC3    C4 6886   1.934   3.495  13.140  0.2301 -0.2832  0.7063
  459TMC3    C5 6887   2.036   3.524  13.222  0.7291  0.0321  0.7908
  459TMC3    C6 6888   2.154   3.585  13.177  0.5874  0.0965  0.1560
  459TMC3     C 6889   1.842   3.534  12.920  0.2694  0.3987 -0.4124
  459TMC3     O 6890   1.857   3.581  12.808  0.5371  0.1401  0.5483
  459TMC3     H 6891   2.082   3.594  12.847 -0.2223 -0.8876 -0.0375
  459TMC3    H1 6892   1.838   3.479  13.186 -0.5230  1.2316 -0.3277
  459TMC3    H2 6893   2.232   3.601  13.251 -1.3784  1.8150  1.8449
  459TMC3    C7 6894   2.025   3.450  13.351  0.1610  1.0041  0.0942
  459TMC3    C8 6895   2.290   3.677  13.006 -0.3655 -0.7513  0.0761
  459TMC3    O1 6896   1.939   3.365  13.359  0.1258 -0.2682  0.0421
  459TMC3    O2 6897   2.384   3.663  13.080 -0.3598  0.0315 -0.1053
  460MPD2     C 6898   0.886   1.391  10.701  0.0978  0.4266 -0.0064
  460MPD2    C1 6899   0.762   1.323  10.714  0.3041  0.1466  0.0147
  460MPD2    C2 6900   0.657   1.356  10.635  0.0174  0.0196 -0.4487
  460MPD2    C3 6901   0.669   1.457  10.542 -0.8024  0.5004  0.1350
  460MPD2    C4 6902   0.790   1.524  10.529  0.0261  0.2473 -0.2188
  460MPD2    C5 6903   0.891   1.493  10.612 -0.5788 -0.1482  0.0126
  460MPD2     H 6904   0.556   1.316  10.631  0.4549 -1.0342 -0.6326
  460MPD2    H1 6905   0.810   1.606  10.461  2.1552  0.9746  1.2884
  460MPD2    H2 6906   0.981   1.362  10.744 -1.2552 -1.8650  1.4199
  460MPD2    H3 6907   0.987   1.543  10.604 -0.3409 -0.6730 -0.4771
  460MPD2     N 6908   0.561   1.481  10.444  0.2991 -0.3637  0.4050
  460MPD2    H5 6909   0.489   1.410  10.450 -0.6997  0.5233 -1.0462
  460MPD2    N1 6910   0.762   1.203  10.793  0.0741 -0.2383  0.3709
  460MPD2    H7 6911   0.845   1.174  10.844 -0.7427 -1.1421  1.1875
  461TMC3    C1 6912   0.454   1.580  10.258  0.9000  0.6848  0.5294
  461TMC3    C2 6913   0.404   1.462  10.209 -0.0428 -0.4463  0.3046
  461TMC3    C3 6914   0.326   1.458  10.092  0.2752 -0.0708 -1.0035
  461TMC3    C4 6915   0.425   1.696  10.193  0.1494 -0.1781  0.4754
  461TMC3    C5 6916   0.353   1.691  10.077 -0.9820 -0.2402 -0.4546
  461TMC3    C6 6917   0.300   1.574  10.025 -0.2634 -0.0109  0.7159
  461TMC3     C 6918   0.568   1.580  10.346 -0.3236 -0.3511 -0.9248
  461TMC3     O 6919   0.634   1.679  10.347 -0.2244  0.0383  0.1717
  461TMC3     H 6920   0.443   1.370  10.251 -0.7141 -0.3996  1.0399
  461TMC3    H1 6921   0.478   1.788  10.217  1.6894 -1.5499  2.2925
  461TMC3    H2 6922   0.269   1.574   9.921  1.8156  0.1309  0.1077
  461TMC3    C7 6923   0.351   1.806   9.988 -0.1212 -0.3483  0.4921
  461TMC3    C8 6924   0.343   1.343  10.004 -0.1113  0.4912  0.4611
  461TMC3    O1 6925   0.264   1.813   9.903  0.0687 -0.6184 -0.3340
  461TMC3    O2 6926   0.425   1.254  10.038 -0.3127 -0.3517 -0.6047
  462TMC3    C1 6927   1.604   2.555   0.601  0.0150 -0.3932 -0.2057
  462TMC3    C2 6928   1.728   2.502   0.593 -0.0901  0.2418  0.1246
  462TMC3    C3 6929   1.744   2.367   0.589 -0.4506  0.8980  0.3390
  462TMC3    C4 6930   1.490   2.478   0.582  0.5927  0.4345  0.2180
  462TMC3    C5 6931   1.508   2.343   0.569  0.2512  0.2678 -0.2244
  462TMC3    C6 6932   1.628   2.292   0.588  0.2639  0.0333 -0.2368
  462TMC3     C 6933   1.593   2.699   0.619  0.9662 -0.8189 -0.0043
  462TMC3     O 6934   1.685   2.757   0.676 -0.1299 -0.2440 -0.3132
  462TMC3     H 6935   1.817   2.561   0.610 -1.5184  2.0317  1.4099
  462TMC3    H1 6936   1.392   2.525   0.586  0.1596 -0.5096  0.5688
  462TMC3    H2 6937   1.636   2.184   0.579 -1.8294 -0.1785  0.4961
  462TMC3    C7 6938   1.404   2.257   0.523  0.3302 -0.0978 -0.0470
  462TMC3    C8 6939   1.875   2.318   0.540 -0.5386 -0.1190  0.3028
  462TMC3    O1 6940   1.398   2.142   0.560 -0.6749  0.4124  0.5163
  462TMC3    O2 6941   1.969   2.397   0.553  0.3785  0.0694 -0.0004
  463MPD2     C 6942   3.287   0.818   1.664 -0.3295 -0.1401  0.0079
  463MPD2    C1 6943   3.164   0.837   1.725  0.1040 -0.8010 -0.0592
  463MPD2    C2 6944   3.150   0.947   1.810 -0.0785  0.0956  0.0423
  463MPD2    C3 6945   3.255   1.028   1.837 -0.1981  0.1976  0.3360
  463MPD2    C4 6946   3.373   1.004   1.774 -0.7057  0.7483 -0.0311
  463MPD2    C5 6947   3.387   0.893   1.701  0.7362 -0.0038  0.3611
  463MPD2     H 6948   3.051   0.980   1.839  0.3676  1.0379  0.4983
  463MPD2    H1 6949   3.463   1.061   1.797 -0.3869  0.8975 -1.6960
  463MPD2    H2 6950   3.302   0.738   1.592  0.0019  0.6723 -0.8324
  463MPD2    H3 6951   3.481   0.874   1.650 -0.4907 -0.3570 -1.8014
  463MPD2     N 6952   3.260   1.132   1.933  0.0738 -0.1447 -0.0717
  463MPD2    H5 6953   3.350   1.177   1.946  0.8877 -2.1590  1.1974
  463MPD2    N1 6954   3.048   0.758   1.694 -0.4232 -0.0553 -0.2074
  463MPD2    H7 6955   2.963   0.804   1.725 -0.3637  0.0180 -0.1544
  464TMC3    C1 6956   2.914   0.593   1.585 -0.1453  0.4713 -0.1223
  464TMC3    C2 6957   2.827   0.693   1.546 -0.5505 -0.5312 -0.6382
  464TMC3    C3 6958   2.717   0.652   1.480  0.7063 -1.0459 -0.9939
  464TMC3    C4 6959   2.901   0.465   1.542 -0.2008 -0.6086 -0.0975
  464TMC3    C5 6960   2.790   0.424   1.471  0.2554  0.0708  0.1702
  464TMC3    C6 6961   2.697   0.520   1.441 -0.1796  0.3918 -0.2185
  464TMC3     C 6962   3.047   0.636   1.634  0.3791  0.1544 -0.1546
  464TMC3     O 6963   3.140   0.561   1.609  0.1542  0.0895  1.1146
  464TMC3     H 6964   2.846   0.798   1.562 -0.9863 -0.3763 -1.1298
  464TMC3    H1 6965   2.986   0.401   1.561  1.2030  0.9188 -1.2718
  464TMC3    H2 6966   2.607   0.468   1.410 -0.1996  1.3981 -1.8116
  464TMC3    C7 6967   2.800   0.307   1.385 -0.2619 -0.1407  0.1607
  464TMC3    C8 6968   2.609   0.750   1.437  0.1750 -0.1218  0.6159
  464TMC3    O1 6969   2.912   0.269   1.355 -0.3242  0.1272  0.0921
  464TMC3    O2 6970   2.524   0.718   1.352  0.8474 -0.0920 -0.3514
  465MPD2     C 6971   3.727   4.701  16.924 -0.4853  0.3021  0.1231
  465MPD2    C1 6972   3.595   4.656  16.944  0.5910  0.5351 -0.2875
  465MPD2    C2 6973   3.508   4.675  16.841  0.1817  0.1975 -0.6551
  465MPD2    C3 6974   3.539   0.018  16.729  0.0128  0.3680 -0.1221
  465MPD2    C4 6975   3.660   0.062  16.709  0.5553 -0.4546 -0.2444
  465MPD2    C5 6976   3.755   0.041  16.808 -0.7737  0.1189  0.2552
  465MPD2     H 6977   3.408   4.632  16.836  0.3574 -0.2590 -0.2558
  465MPD2    H1 6978   3.699   0.108  16.619 -0.8388 -0.3331 -0.7959
  465MPD2    H2 6979   3.809   4.681  16.991 -1.4202 -0.3545  1.0741
  465MPD2    H3 6980   3.858   0.071  16.789 -1.0984  0.4250 -1.0097
  465MPD2     N 6981   3.441   0.019  16.628 -0.7636 -0.4645  0.1785
  465MPD2    H5 6982   3.358   4.699  16.652 -1.1441 -1.4682 -3.4674
  465MPD2    N1 6983   3.560   4.573  17.054  0.3069  0.1952  0.1053
  465MPD2    H7 6984   3.461   4.549  17.051 -0.1996  1.9794  1.8528
  466TMC3    C1 6985   3.109   0.028  16.381 -0.1872  0.2993  0.2580
  466TMC3    C2 6986   3.086   0.143  16.302  0.2276  0.3645 -0.1103
  466TMC3    C3 6987   3.187   0.234  16.295 -0.7980 -0.2486  0.6001
  466TMC3    C4 6988   3.228   0.009  16.442 -0.2863  0.1122 -0.5931
  466TMC3    C5 6989   3.329   0.098  16.431 -0.5021  0.8695  0.0673
  466TMC3    C6 6990   3.308   0.213  16.353  0.0578  0.7559 -0.3776
  466TMC3     C 6991   2.994   0.003  16.474 -0.3845  0.0992 -0.0910
  466TMC3     O 6992   3.025   4.709  16.587  0.3725  0.0892 -0.1744
  466TMC3     H 6993   2.994   0.171  16.253 -0.8087  0.4866  1.9302
  466TMC3    H1 6994   3.237   4.670  16.521 -1.8456 -0.8105 -1.2645
  466TMC3    H2 6995   3.387   0.285  16.336  0.5284 -0.0546 -1.6917
  466TMC3    C7 6996   3.447   0.098  16.516 -0.9227 -0.2342  0.8481
  466TMC3    C8 6997   3.171   0.364  16.234  0.1674 -0.2284 -0.1709
  466TMC3    O1 6998   3.515   0.199  16.502  0.8636 -0.4127  0.5694
  466TMC3    O2 6999   3.136   0.371  16.116 -0.2395 -0.0484 -0.3170
  467TMC3    C1 7000   4.028   2.850  13.349 -0.0102 -0.5697 -0.4309
  467TMC3    C2 7001   4.088   2.887  13.233  0.3139 -0.1673  0.0149
  467TMC3    C3 7002   4.058   3.012  13.186 -0.1915  0.5438 -0.9390
  467TMC3    C4 7003   3.918   2.924  13.398  0.0537  0.0268 -0.5318
  467TMC3    C5 7004   3.886   3.040  13.339  0.0516  0.7169  0.3286
  467TMC3    C6 7005   3.961   3.088  13.237 -0.3779 -0.1085  0.3805
  467TMC3     C 7006   4.130   2.850  13.453 -0.2157 -0.2996 -0.8606
  467TMC3     O 7007   4.139   2.957  13.509  0.0284  0.2550 -0.2287
  467TMC3     H 7008   4.185   2.844  13.211 -0.8223 -2.4337 -0.5883
  467TMC3    H1 7009   3.863   2.888  13.484 -0.5523  3.5277  0.5394
  467TMC3    H2 7010   3.923   3.174  13.183 -0.5107 -0.3810  0.0439
  467TMC3    C7 7011   3.769   3.114  13.376 -0.1677 -0.0271  0.2023
  467TMC3    C8 7012   4.164   3.094  13.131 -0.1278 -0.7676  0.4724
  467TMC3    O1 7013   3.769   3.231  13.345 -0.6180 -0.6816  0.2878
  467TMC3    O2 7014   4.174   3.206  13.179  0.2126  0.1153  0.0959
  468MPD2     C 7015   2.242   1.148  10.652 -0.1370  0.8680 -0.0440
  468MPD2    C1 7016   2.377   1.113  10.643  0.5446 -0.3503 -0.2929
  468MPD2    C2 7017   2.417   0.985  10.673 -0.3061  0.0782  0.5133
  468MPD2    C3 7018   2.333   0.888  10.719 -0.0605  0.6655  0.4583
  468MPD2    C4 7019   2.200   0.914  10.726 -0.1505 -0.9319  0.4428
  468MPD2    C5 7020   2.161   1.043  10.686  0.1106 -0.3358 -0.0925
  468MPD2     H 7021   2.523   0.967  10.678 -0.6553 -1.2482  2.8136
  468MPD2    H1 7022   2.123   0.838  10.736 -1.5878  0.2368 -1.5837
  468MPD2    H2 7023   2.197   1.245  10.632  1.9467  1.7637 -0.4274
  468MPD2    H3 7024   2.056   1.066  10.675 -0.2778 -0.7800  2.5972
  468MPD2     N 7025   2.367   0.753  10.750  0.1690 -0.1514 -0.1343
  468MPD2    H5 7026   2.290   0.689  10.763 -0.6827  0.7542 -0.7038
  468MPD2    N1 7027   2.486   1.199  10.614  0.0392 -0.0521  0.0782
  468MPD2    H7 7028   2.579   1.163  10.635  0.5394  1.3584  0.2922
  469TMC3    C1 7029   2.606   1.409  10.610  0.1266 -0.2373 -0.4888
  469TMC3    C2 7030   2.711   1.329  10.631  0.4940 -0.2556  0.3025
  469TMC3    C3 7031   2.815   1.385  10.699 -0.1514  0.4906  0.2830
  469TMC3    C4 7032   2.596   1.533  10.666 -0.2670  0.3103 -0.4267
  469TMC3    C5 7033   2.690   1.575  10.753 -0.5109 -0.8184  0.0245
  469TMC3    C6 7034   2.809   1.508  10.760 -0.1033  0.4192 -0.5672
  469TMC3     C 7035   2.476   1.342  10.597 -0.4856 -0.2844  0.1268
  469TMC3     O 7036   2.370   1.404  10.595 -0.2604 -0.1853  0.2943
  469TMC3     H 7037   2.732   1.239  10.575 -1.1531 -2.8506  3.8788
  469TMC3    H1 7038   2.501   1.584  10.653 -0.8792  0.1003  3.0095
  469TMC3    H2 7039   2.895   1.566  10.790 -1.0655  0.6420  1.7978
  469TMC3    C7 7040   2.678   1.707  10.821 -0.5764 -0.1616 -0.7926
  469TMC3    C8 7041   2.941   1.312  10.701  0.3529  0.1451 -0.2592
  469TMC3    O1 7042   2.594   1.786  10.774  1.0734  0.2348  0.4196
  469TMC3    O2 7043   2.959   1.230  10.612  0.4525  0.6393  0.4085
  470TMC3    C1 7044   0.701   1.971   0.832  0.3431 -0.0398  0.0465
  470TMC3    C2 7045   0.811   2.053   0.852  0.1338  0.1444 -0.2710
  470TMC3    C3 7046   0.798   2.137   0.957 -0.5619 -0.3155 -0.2375
  470TMC3    C4 7047   0.597   1.971   0.912  0.1006  0.0396 -0.2402
  470TMC3    C5 7048   0.585   2.052   1.030 -0.0636 -0.0983  0.3303
  470TMC3    C6 7049   0.693   2.139   1.047  0.0450 -0.4353 -0.3179
  470TMC3     C 7050   0.697   1.888   0.717 -0.3616  0.2498  0.4164
  470TMC3     O 7051   0.749   1.925   0.612 -0.1609  0.0717 -0.0349
  470TMC3     H 7052   0.885   2.077   0.776  0.7970 -2.2514 -0.4055
  470TMC3    H1 7053   0.509   1.915   0.884  1.2262 -0.7794 -2.1281
  470TMC3    H2 7054   0.699   2.214   1.125  1.5653  0.3850 -1.2121
  470TMC3    C7 7055   0.452   2.098   1.078 -0.4951 -0.0303 -0.1541
  470TMC3    C8 7056   0.882   2.254   0.967  0.0919  0.5627  0.2730
  470TMC3    O1 7057   0.355   2.087   1.003  0.4389  0.4644  0.0678
  470TMC3    O2 7058   0.825   2.349   1.006 -0.4140  0.2535 -0.0529
  471MPD2     C 7059   1.165   3.049  17.306 -0.2194 -0.7349 -0.3653
  471MPD2    C1 7060   1.229   3.026  17.185  0.2976  0.5927 -0.6724
  471MPD2    C2 7061   1.360   2.997  17.182 -0.0568 -0.6782  0.3926
  471MPD2    C3 7062   1.437   2.996  17.301  0.3488  0.0110  0.1203
  471MPD2    C4 7063   1.373   3.021  17.422  0.4604 -0.4801  0.6261
  471MPD2    C5 7064   1.243   3.057  17.421  0.4878 -0.0141 -0.1015
  471MPD2     H 7065   1.401   2.973  17.085 -0.3052  0.1426  0.0809
  471MPD2    H1 7066   1.426   3.020  17.517 -1.0452  0.2483  1.4756
  471MPD2    H2 7067   1.057   3.054  17.316  0.0866  0.7510  2.1234
  471MPD2    H3 7068   1.190   3.073  17.514  3.2158 -1.2543  1.6707
  471MPD2     N 7069   1.573   2.963  17.298  0.2028 -0.7083  0.2471
  471MPD2    H5 7070   1.608   2.941  17.391 -2.1024 -2.0540  0.7898
  471MPD2    N1 7071   1.158   3.016  17.068 -0.3187  0.0007  0.4583
  471MPD2    H7 7072   1.222   3.006  16.990  0.4054 -1.7993  1.3043
  472TMC3    C1 7073   0.964   2.973  16.937 -0.2089 -0.0003 -0.3160
  472TMC3    C2 7074   0.831   2.968  16.920  0.5861  0.3221 -0.5175
  472TMC3    C3 7075   0.771   2.903  16.814 -0.4004  0.9013 -0.0663
  472TMC3    C4 7076   1.042   2.911  16.843  0.2459 -0.2450  0.8540
  472TMC3    C5 7077   0.984   2.850  16.737  0.0541 -0.3325 -0.8188
  472TMC3    C6 7078   0.847   2.844  16.713  0.7707 -0.3205  0.6157
  472TMC3     C 7079   1.019   3.038  17.054 -0.0020  1.1382  0.8257
  472TMC3     O 7080   0.933   3.068  17.139  0.8681 -0.4258 -0.4959
  472TMC3     H 7081   0.769   3.023  16.990 -1.3262 -1.4309 -0.8471
  472TMC3    H1 7082   1.149   2.901  16.855 -0.0637 -1.6975  2.4469
  472TMC3    H2 7083   0.813   2.785  16.629  0.6007 -0.4759  0.7930
  472TMC3    C7 7084   1.053   2.734  16.689 -0.0596  0.2791 -0.5167
  472TMC3    C8 7085   0.631   2.881  16.819  0.4792 -0.8000 -0.3770
  472TMC3    O1 7086   1.132   2.678  16.761 -0.4999 -0.3867 -0.5221
  472TMC3    O2 7087   0.556   2.972  16.856 -0.2324  0.2517 -0.1396
  473MPD2     C 7088   0.392   0.657  13.632 -0.2625 -0.1713 -0.2782
  473MPD2    C1 7089   0.319   0.768  13.586  0.0910 -0.5426  0.2266
  473MPD2    C2 7090   0.322   0.875  13.670 -0.6735  1.0332 -0.1525
  473MPD2    C3 7091   0.398   0.868  13.793  0.5941  0.5894  0.2490
  473MPD2    C4 7092   0.454   0.751  13.834  0.1209  0.2393 -0.3595
  473MPD2    C5 7093   0.448   0.645  13.754  0.1922  0.4146  0.0909
  473MPD2     H 7094   0.268   0.964  13.641  0.7740  1.5936 -1.1276
  473MPD2    H1 7095   0.499   0.740  13.931 -1.7102 -2.4271  0.1916
  473MPD2    H2 7096   0.410   0.567  13.574  0.1226 -0.1923 -0.1258
  473MPD2    H3 7097   0.492   0.552  13.788  1.5018  1.1605  0.4499
  473MPD2     N 7098   0.418   0.979  13.879  0.3319  0.2221 -0.2007
  473MPD2    H5 7099   0.470   0.968  13.965 -1.6730 -0.0538  0.9796
  473MPD2    N1 7100   0.256   0.772  13.459 -0.6227 -0.4217 -0.4868
  473MPD2    H7 7101   0.195   0.851  13.439  0.3592  0.3164 -0.5477
  474TMC3    C1 7102   0.426   1.208  13.951  0.3335 -0.2633  0.7581
  474TMC3    C2 7103   0.461   1.320  13.889 -0.8518 -0.2320  0.2597
  474TMC3    C3 7104   0.519   1.420  13.963  0.1061 -0.0773 -0.3833
  474TMC3    C4 7105   0.446   1.188  14.082  0.3786  0.3359  0.5365
  474TMC3    C5 7106   0.514   1.282  14.157 -1.2003 -0.7853 -0.4605
  474TMC3    C6 7107   0.547   1.404  14.094 -0.0289  0.0779 -0.0801
  474TMC3     C 7108   0.361   1.109  13.862 -0.4672 -0.7224 -0.5692
  474TMC3     O 7109   0.289   1.156  13.773 -0.2887  0.1960  0.2646
  474TMC3     H 7110   0.453   1.332  13.782 -0.2305 -2.8768 -0.0776
  474TMC3    H1 7111   0.418   1.095  14.130  1.2699 -0.2806 -0.1165
  474TMC3    H2 7112   0.579   1.496  14.140  1.7387 -1.1055  1.0732
  474TMC3    C7 7113   0.511   1.262  14.302 -0.1885 -0.1333  0.0440
  474TMC3    C8 7114   0.529   1.549  13.899  0.3569 -0.1611 -0.8184
  474TMC3    O1 7115   0.450   1.169  14.350 -0.0476  0.6680  0.2499
  474TMC3    O2 7116   0.448   1.564  13.814  0.0625  0.2307 -0.0295
  475MPD2     C 7117   3.107   3.490  11.401 -0.3066 -0.1919  0.3983
  475MPD2    C1 7118   3.159   3.534  11.283 -0.3264  0.0703  0.1183
  475MPD2    C2 7119   3.073   3.541  11.175  0.6010  0.4071 -0.2272
  475MPD2    C3 7120   2.937   3.511  11.182  0.6100  0.1634 -0.0822
  475MPD2    C4 7121   2.897   3.452  11.300  0.5799  0.0848 -0.4852
  475MPD2    C5 7122   2.979   3.435  11.409 -0.0476  0.1506 -0.2223
  475MPD2     H 7123   3.116   3.583  11.085  0.8226 -1.2154 -0.8692
  475MPD2    H1 7124   2.796   3.414  11.309 -0.1753  1.5450 -2.8040
  475MPD2    H2 7125   3.177   3.484  11.483 -0.7525  0.9740  0.8615
  475MPD2    H3 7126   2.937   3.394  11.500 -1.5004 -1.5796 -1.6632
  475MPD2     N 7127   2.846   3.515  11.068  0.2417 -0.3337  0.9085
  475MPD2    H5 7128   2.758   3.466  11.072 -0.6251  0.9406 -2.5878
  475MPD2    N1 7129   3.300   3.547  11.277  0.7083 -0.6275  0.4052
  475MPD2    H7 7130   3.350   3.538  11.365 -2.2368  1.2904  2.2569
  476TMC3    C1 7131   3.506   3.621  11.196  0.3562 -0.3265  0.7139
  476TMC3    C2 7132   3.558   3.654  11.069  0.0463 -0.0881  0.1687
  476TMC3    C3 7133   3.608   3.778  11.042 -0.3252  0.0136 -0.1646
  476TMC3    C4 7134   3.496   3.724  11.287 -0.1242 -0.6043 -0.1857
  476TMC3    C5 7135   3.526   3.848  11.254 -0.6510 -0.5812  0.1751
  476TMC3    C6 7136   3.594   3.875  11.134 -0.2678  0.5507  0.2318
  476TMC3     C 7137   3.376   3.559  11.163  0.7950  0.1035 -0.0009
  476TMC3     O 7138   3.340   3.541  11.045 -0.3943 -0.0963 -0.0427
  476TMC3     H 7139   3.567   3.573  10.998  0.5267  0.9519 -0.9475
  476TMC3    H1 7140   3.460   3.712  11.389 -1.2569 -0.3163 -0.5570
  476TMC3    H2 7141   3.633   3.975  11.117  0.9196  0.2007  0.8624
  476TMC3    C7 7142   3.453   3.955  11.332 -0.5708  0.6354 -0.5731
  476TMC3    C8 7143   3.715   3.792  10.945 -0.6642 -0.0975  0.3680
  476TMC3    O1 7144   3.385   3.925  11.430  0.4012  0.0220 -0.3325
  476TMC3    O2 7145   3.798   3.886  10.968  0.1716  0.2430  0.4680
  477MPD2     C 7146   1.482   0.591  11.714  0.3777 -0.0278 -0.0689
  477MPD2    C1 7147   1.390   0.490  11.704  0.4025 -0.7080  0.8658
  477MPD2    C2 7148   1.377   0.394  11.805 -0.1728  0.3141  0.0968
  477MPD2    C3 7149   1.458   0.398  11.915 -0.3890  0.0766 -0.0401
  477MPD2    C4 7150   1.548   0.504  11.919 -0.0666 -0.4651  0.0157
  477MPD2    C5 7151   1.555   0.594  11.823 -0.1398 -0.2991 -0.0885
  477MPD2     H 7152   1.298   0.320  11.807 -0.6256  0.7672 -1.3731
  477MPD2    H1 7153   1.612   0.531  12.002 -0.4790 -1.1226  0.5432
  477MPD2    H2 7154   1.501   0.654  11.628 -0.5313 -1.3691 -1.2620
  477MPD2    H3 7155   1.631   0.671  11.831  0.9564 -1.5479  1.5198
  477MPD2     N 7156   1.443   0.298  12.014  0.6867 -0.8433 -0.5573
  477MPD2    H5 7157   1.383   0.220  11.988 -0.3726  0.8297 -3.1399
  477MPD2    N1 7158   1.311   0.495  11.585  0.4982 -0.4377  0.3478
  477MPD2    H7 7159   1.326   0.571  11.520 -0.2654 -1.3818 -0.9181
  478TMC3    C1 7160   1.125   0.451  11.443 -0.4960 -0.6576  0.1989
  478TMC3    C2 7161   1.107   0.588  11.429 -0.3967  0.6711 -0.3112
  478TMC3    C3 7162   1.000   0.633  11.357  0.1595 -0.2930  0.4689
  478TMC3    C4 7163   1.040   0.366  11.378  0.7000  0.0665  0.1002
  478TMC3    C5 7164   0.954   0.417  11.287 -0.0276 -0.0716  0.2902
  478TMC3    C6 7165   0.925   0.549  11.275  0.7468 -0.5180  0.7614
  478TMC3     C 7166   1.217   0.403  11.550  0.1745 -0.5768  0.2968
  478TMC3     O 7167   1.170   0.308  11.609  0.1081 -0.5432 -0.0034
  478TMC3     H 7168   1.155   0.661  11.493 -2.3112  1.7328 -0.1092
  478TMC3    H1 7169   1.059   0.259  11.382  1.5174  0.2979  2.4133
  478TMC3    H2 7170   0.865   0.592  11.195  1.1745  0.7704  1.1462
  478TMC3    C7 7171   0.863   0.318  11.241 -0.2115  0.3512 -0.3987
  478TMC3    C8 7172   1.027   0.765  11.306 -0.0250 -0.1830  0.2686
  478TMC3    O1 7173   0.845   0.223  11.318 -0.7287 -0.1029 -0.4732
  478TMC3    O2 7174   1.145   0.790  11.312 -0.1341 -0.0503 -0.6087
  479MPD2     C 7175   0.954   2.935  15.059 -0.0039 -0.4620  0.9043
  479MPD2    C1 7176   0.909   2.869  15.171 -0.0404  0.0061  0.4888
  479MPD2    C2 7177   0.970   2.882  15.297 -0.0876  0.3697  0.0219
  479MPD2    C3 7178   1.058   2.988  15.312  0.4881 -0.7950  0.0485
  479MPD2    C4 7179   1.096   3.061  15.199 -0.4688 -0.4651  0.1633
  479MPD2    C5 7180   1.052   3.027  15.072  0.1003  0.5292 -0.0775
  479MPD2     H 7181   0.930   2.838  15.387  0.6747  0.9761  0.6565
  479MPD2    H1 7182   1.172   3.138  15.204  1.7574 -2.5298 -1.8833
  479MPD2    H2 7183   0.913   2.911  14.961  0.5647 -0.8777  0.7721
  479MPD2    H3 7184   1.102   3.072  14.987 -0.4653  0.9502 -0.1844
  479MPD2     N 7185   1.074   3.047  15.444 -0.0126  0.4642  0.5533
  479MPD2    H5 7186   1.099   3.145  15.444  1.1734  0.1668 -0.5883
  479MPD2    N1 7187   0.792   2.790  15.148 -0.2414  0.0935  0.6159
  479MPD2    H7 7188   0.765   2.775  15.052  0.1261  0.4969  0.4501
  480TMC3    C1 7189   0.861   2.979  15.845  0.5871  0.9238  0.3500
  480TMC3    C2 7190   0.751   3.046  15.801 -0.5451 -0.6555 -0.5166
  480TMC3    C3 7191   0.757   3.101  15.677  0.0134 -1.0632  0.8573
  480TMC3    C4 7192   0.976   2.977  15.775  0.6199  0.4741  0.0086
  480TMC3    C5 7193   0.987   3.050  15.663 -0.1977 -0.5629  0.8403
  480TMC3    C6 7194   0.876   3.111  15.606 -0.2790  0.7976 -0.2931
  480TMC3     C 7195   0.850   2.891  15.958  0.1233  0.0339 -0.9257
  480TMC3     O 7196   0.909   2.785  15.955  0.4345 -0.0014  0.3304
  480TMC3     H 7197   0.660   3.025  15.856 -0.0646  2.7112  1.5647
  480TMC3    H1 7198   1.056   2.911  15.805  0.4831  1.0323  1.6248
  480TMC3    H2 7199   0.883   3.177  15.520 -0.6286  0.8098 -0.3125
  480TMC3    C7 7200   1.063   2.977  15.559  0.1431 -0.3240  0.7841
  480TMC3    C8 7201   0.656   3.046  15.587  0.3983 -0.7600 -0.5244
  480TMC3    O1 7202   1.061   2.857  15.584 -0.1780 -0.1222  0.0484
  480TMC3    O2 7203   0.550   3.005  15.634  0.1090 -0.0568  0.4381
  481MPD2     C 7204   2.229   2.075  13.843  0.4169  0.0524  0.2431
  481MPD2    C1 7205   2.114   2.036  13.911  0.1779  0.0440  0.3377
  481MPD2    C2 7206   2.116   1.935  14.003 -0.6807  0.0452 -0.0585
  481MPD2    C3 7207   2.234   1.894  14.054  0.1915 -0.7580  0.1131
  481MPD2    C4 7208   2.348   1.927  13.986 -0.4070 -0.3025 -0.2079
  481MPD2    C5 7209   2.344   2.010  13.877  0.9545  0.6667  0.8758
  481MPD2     H 7210   2.017   1.916  14.043  0.0101  1.3277  2.2201
  481MPD2    H1 7211   2.448   1.898  14.017  0.2093  1.6112 -0.3960
  481MPD2    H2 7212   2.239   2.151  13.767  0.1589 -1.4636 -1.3021
  481MPD2    H3 7213   2.440   2.026  13.828  0.1292 -1.3601 -1.4309
  481MPD2     N 7214   2.248   1.825  14.177 -0.1874  0.2088 -0.2562
  481MPD2    H5 7215   2.338   1.790  14.208  0.4229  0.5900 -1.6334
  481MPD2    N1 7216   1.988   2.080  13.869  0.1551 -0.1656  0.0327
  481MPD2    H7 7217   1.908   2.026  13.901 -1.2384  3.0895  2.0690
  482TMC3    C1 7218   1.828   2.222  13.767 -0.7679 -0.3631  0.2517
  482TMC3    C2 7219   1.729   2.146  13.813  0.9043  0.3312  0.6824
  482TMC3    C3 7220   1.621   2.136  13.740  0.0509  0.2379 -0.3130
  482TMC3    C4 7221   1.812   2.311  13.662 -0.2771 -0.2149 -0.1318
  482TMC3    C5 7222   1.692   2.296  13.593  0.3843 -0.0579 -0.4741
  482TMC3    C6 7223   1.595   2.209  13.625 -0.2709  0.4041  0.2246
  482TMC3     C 7224   1.965   2.202  13.809  0.7396  0.0257  0.2229
  482TMC3     O 7225   2.044   2.288  13.779  0.3740  0.0460  0.2751
  482TMC3     H 7226   1.738   2.074  13.894 -0.6751  1.6734  2.0543
  482TMC3    H1 7227   1.889   2.380  13.631 -2.8755  1.9187 -1.7454
  482TMC3    H2 7228   1.505   2.202  13.564  0.9970  1.3177 -1.7419
  482TMC3    C7 7229   1.662   2.407  13.503 -0.4721  0.2497 -0.5850
  482TMC3    C8 7230   1.578   2.000  13.740 -0.1194 -0.0215 -0.0100
  482TMC3    O1 7231   1.741   2.503  13.507  0.0305 -0.3507 -0.4230
  482TMC3    O2 7232   1.657   1.913  13.773 -0.5279 -0.7437  0.3997
  483TMC3    C1 7233   0.866   0.800   1.017 -0.7659 -0.5742  0.5467
  483TMC3    C2 7234   0.860   0.928   1.067 -0.6877 -1.3333 -0.5617
  483TMC3    C3 7235   0.926   0.962   1.183  0.0744  0.5154 -0.3839
  483TMC3    C4 7236   0.950   0.707   1.061 -0.1765 -0.6402  0.1206
  483TMC3    C5 7237   1.028   0.746   1.170 -0.4685 -0.0077 -0.0368
  483TMC3    C6 7238   1.010   0.862   1.240  0.5157 -0.3754 -0.1440
  483TMC3     C 7239   0.765   0.770   0.918  0.2433 -0.1150  0.7497
  483TMC3     O 7240   0.696   0.862   0.875  0.2512 -0.5297  0.0284
  483TMC3     H 7241   0.793   1.001   1.024 -0.0495 -0.5464 -0.2156
  483TMC3    H1 7242   0.972   0.614   1.011 -0.1759 -0.3803 -0.3564
  483TMC3    H2 7243   1.058   0.891   1.333 -1.8692  0.1386  0.9234
  483TMC3    C7 7244   1.132   0.650   1.199 -0.2023  0.0662  0.1781
  483TMC3    C8 7245   0.960   1.101   1.211  0.3620  0.5069  0.1864
  483TMC3    O1 7246   1.154   0.557   1.120 -0.2767  0.0218  0.2550
  483TMC3    O2 7247   1.021   1.124   1.315 -0.4423 -0.5877 -0.0808
  484MPD2     C 7248   2.310   3.949  12.767 -0.2268 -0.3195  0.4964
  484MPD2    C1 7249   2.366   3.844  12.841  0.0118 -0.1001 -0.4783
  484MPD2    C2 7250   2.499   3.827  12.841 -0.3576 -0.4847 -0.0406
  484MPD2    C3 7251   2.583   3.907  12.762  0.1183  0.2393  0.0589
  484MPD2    C4 7252   2.527   4.010  12.698 -1.0461  0.1559  0.0199
  484MPD2    C5 7253   2.390   4.035  12.701  0.0737 -0.8595  0.0739
  484MPD2     H 7254   2.541   3.749  12.903  0.4954 -0.6333 -0.8091
  484MPD2    H1 7255   2.586   4.078  12.639 -1.2226 -1.1250 -1.6239
  484MPD2    H2 7256   2.203   3.965  12.769  0.4059  3.6233  2.4967
  484MPD2    H3 7257   2.349   4.124  12.653  1.4181  0.2026  0.8713
  484MPD2     N 7258   2.723   3.886  12.746 -0.5539 -0.5312  0.0984
  484MPD2    H5 7259   2.774   3.944  12.680  1.7163 -0.7513  1.6551
  484MPD2    N1 7260   2.269   3.762  12.899 -0.2596 -0.9381  1.0577
  484MPD2    H7 7261   2.175   3.768  12.861  0.9288  0.7567 -1.6299
  485TMC3    C1 7262   2.934   3.782  12.775  0.3601  0.3118  0.5655
  485TMC3    C2 7263   3.007   3.680  12.834  0.3116 -0.4259  0.0411
  485TMC3    C3 7264   3.141   3.698  12.844 -0.4811  0.0618 -0.4317
  485TMC3    C4 7265   2.995   3.887  12.713  0.8353 -0.3618 -0.2633
  485TMC3    C5 7266   3.130   3.912  12.736 -0.6739  0.2046  0.3426
  485TMC3    C6 7267   3.201   3.818  12.810 -0.0271 -0.4006 -0.4332
  485TMC3     C 7268   2.792   3.786  12.805  0.4141 -0.2907 -0.1087
  485TMC3     O 7269   2.754   3.698  12.875 -0.1598 -0.4832  0.0670
  485TMC3     H 7270   2.968   3.592  12.884 -0.4962  0.0050  0.1792
  485TMC3    H1 7271   2.944   3.952  12.643 -2.5444 -1.7057  0.9296
  485TMC3    H2 7272   3.304   3.841  12.837  0.2552 -1.3401 -0.6934
  485TMC3    C7 7273   3.206   3.950  12.615  0.3363 -0.4943  0.0163
  485TMC3    C8 7274   3.222   3.581  12.808  0.3484  0.2936 -0.7025
  485TMC3    O1 7275   3.319   3.895  12.614  0.2030  0.2280  0.4247
  485TMC3    O2 7276   3.186   3.475  12.854 -1.0616 -0.3459  0.2406
  486MPD2     C 7277   0.265   2.856  12.573  0.0638 -1.1905  0.5582
  486MPD2    C1 7278   0.150   2.782  12.565  0.4448 -0.4689 -0.1957
  486MPD2    C2 7279   0.027   2.849  12.549 -0.1922 -0.1937  0.7052
  486MPD2    C3 7280   0.031   2.991  12.528 -0.3560 -0.2952 -0.8234
  486MPD2    C4 7281   0.151   3.053  12.506 -0.1013 -0.3182  0.9615
  486MPD2    C5 7282   0.265   2.985  12.538 -0.2082 -0.1557  0.6738
  486MPD2     H 7283   4.670   2.794  12.567 -0.8293  1.1888  1.6596
  486MPD2    H1 7284   0.153   3.159  12.486 -1.3397 -0.1027  1.9965
  486MPD2    H2 7285   0.363   2.815  12.595  1.1908  3.4265  4.3685
  486MPD2    H3 7286   0.362   3.033  12.534  0.1880 -1.1108 -0.7166
  486MPD2     N 7287   4.642   3.059  12.519  0.4515 -0.4054  0.0608
  486MPD2    H5 7288   4.559   3.000  12.520 -0.2901  0.6413 -0.0498
  486MPD2    N1 7289   0.158   2.644  12.595  0.2461  0.0041  0.5992
  486MPD2    H7 7290   0.245   2.604  12.629  1.0997  2.3971  1.2380
  487TMC3    C1 7291   0.093   2.434  12.663  0.0009 -0.7106  0.3859
  487TMC3    C2 7292   0.019   2.322  12.625 -0.0330 -0.4360  0.3418
  487TMC3    C3 7293   0.058   2.201  12.673  0.1458 -0.1978  0.0085
  487TMC3    C4 7294   0.178   2.429  12.764 -0.2017  0.5334  0.2564
  487TMC3    C5 7295   0.207   2.308  12.818  0.2727  0.3573  0.1931
  487TMC3    C6 7296   0.167   2.188  12.762 -0.9545  0.1346 -0.0011
  487TMC3     C 7297   0.050   2.558  12.595 -0.0711  0.2554 -0.4598
  487TMC3     O 7298   4.674   2.561  12.542 -0.5479  0.2123  0.3338
  487TMC3     H 7299   4.670   2.337  12.558  1.8650 -2.3936 -2.4798
  487TMC3    H1 7300   0.210   2.520  12.813 -0.5755  0.7948  0.0185
  487TMC3    H2 7301   0.181   2.094  12.814 -1.1908 -0.1183 -0.3916
  487TMC3    C7 7302   0.194   2.319  12.966  0.0338 -0.7196  0.5078
  487TMC3    C8 7303   4.676   2.138  12.730  0.2464 -1.1110  0.3460
  487TMC3    O1 7304   0.185   2.428  13.014  0.4203 -0.2705 -0.6493
  487TMC3    O2 7305   4.579   2.210  12.755 -0.5287  0.0607  0.2874
  488MPD2     C 7306   0.387   4.327  16.143 -0.1553  0.1072  0.5075
  488MPD2    C1 7307   0.467   4.382  16.235 -0.0734 -0.6069 -0.2975
  488MPD2    C2 7308   0.483   4.325  16.358  0.0776 -0.2390  0.3607
  488MPD2    C3 7309   0.418   4.203  16.385 -0.6547  0.8361 -0.1154
  488MPD2    C4 7310   0.339   4.145  16.288 -0.5875 -0.6330 -0.4356
  488MPD2    C5 7311   0.333   4.203  16.163  0.8707 -0.0622 -0.8339
  488MPD2     H 7312   0.551   4.371  16.428 -0.4583  1.7842 -0.4542
  488MPD2    H1 7313   0.298   4.044  16.295  0.3555 -0.9046  1.1863
  488MPD2    H2 7314   0.371   4.372  16.046 -0.9246  0.8059  0.9599
  488MPD2    H3 7315   0.284   4.169  16.073 -1.9278 -1.7665  1.3501
  488MPD2     N 7316   0.453   4.137  16.512  0.2040 -0.0257  0.4248
  488MPD2    H5 7317   0.513   4.192  16.573  0.3198 -1.0571  1.2252
  488MPD2    N1 7318   0.527   4.507  16.218  0.0885 -0.0854 -0.0827
  488MPD2    H7 7319   0.589   4.539  16.291 -0.4307 -1.1584  0.8163
  489TMC3    C1 7320   0.439   3.997  16.698  0.5063 -0.4211 -0.0204
  489TMC3    C2 7321   0.566   4.030  16.733  0.6739 -0.0336  0.5074
  489TMC3    C3 7322   0.600   4.025  16.872 -1.0266  0.2943 -0.2088
  489TMC3    C4 7323   0.350   3.947  16.788 -0.6086 -0.2545  0.6090
  489TMC3    C5 7324   0.396   3.925  16.915 -0.6802 -0.1519 -0.3616
  489TMC3    C6 7325   0.519   3.977  16.968 -0.1825  0.6889  0.5822
  489TMC3     C 7326   0.392   4.027  16.569  0.5217 -0.2852  0.5730
  489TMC3     O 7327   0.301   3.961  16.524 -0.1813  1.0594 -0.0240
  489TMC3     H 7328   0.644   4.051  16.660 -0.6440  1.1162 -0.5693
  489TMC3    H1 7329   0.247   3.932  16.755  0.5644 -0.6177 -2.8951
  489TMC3    H2 7330   0.568   3.953  17.062 -0.4415  0.2848  0.6164
  489TMC3    C7 7331   0.303   3.882  17.017 -0.1104 -1.4945  0.5407
  489TMC3    C8 7332   0.686   4.131  16.905  0.4430  0.6374  0.9466
  489TMC3    O1 7333   0.352   3.850  17.126  0.0750  0.3397 -0.0621
  489TMC3    O2 7334   0.746   4.183  16.810  0.0545  0.4779  0.3521
  490MPD2     C 7335   1.955   3.492  17.188 -0.4271  0.3464  0.2819
  490MPD2    C1 7336   1.864   3.528  17.279  0.3844 -0.0140 -0.8982
  490MPD2    C2 7337   1.907   3.574  17.400  0.6076  0.5964 -0.0755
  490MPD2    C3 7338   2.043   3.607  17.417  1.2702 -0.1959  0.0227
  490MPD2    C4 7339   2.135   3.566  17.323  0.2262 -0.6202  0.5547
  490MPD2    C5 7340   2.088   3.517  17.204  0.5734 -0.2439  0.1470
  490MPD2     H 7341   1.832   3.598  17.475  1.8040  0.7534  1.0598
  490MPD2    H1 7342   2.242   3.576  17.331 -0.0623 -0.5033  4.3206
  490MPD2    H2 7343   1.926   3.438  17.098  2.9723  0.3400 -0.8336
  490MPD2    H3 7344   2.163   3.496  17.128 -0.4003 -0.0718 -0.8637
  490MPD2     N 7345   2.092   3.680  17.529 -0.0833  0.2754 -0.0809
  490MPD2    H5 7346   2.182   3.648  17.563  0.0853  1.2179  0.3570
  490MPD2    N1 7347   1.726   3.498  17.267  0.4081  0.9907  0.3618
  490MPD2    H7 7348   1.663   3.542  17.334 -0.8739  1.1637 -0.9577
  491TMC3    C1 7349   1.529   3.396  17.190  0.4732  0.3365 -0.5070
  491TMC3    C2 7350   1.479   3.402  17.315  0.2464  0.3454  0.0441
  491TMC3    C3 7351   1.342   3.395  17.319  0.2481  0.1895  0.0411
  491TMC3    C4 7352   1.457   3.376  17.075  0.1105 -0.1256  0.0575
  491TMC3    C5 7353   1.322   3.379  17.088  0.5403  0.7390  0.0816
  491TMC3    C6 7354   1.263   3.393  17.209  0.4668  0.5756 -0.0977
  491TMC3     C 7355   1.665   3.429  17.171 -0.1631  0.7299  0.1584
  491TMC3     O 7356   1.714   3.365  17.077 -0.2042  0.1002  0.0937
  491TMC3     H 7357   1.542   3.403  17.403  2.4899  1.2938 -1.5654
  491TMC3    H1 7358   1.508   3.374  16.979 -0.3258 -1.9743 -0.1274
  491TMC3    H2 7359   1.158   3.367  17.216  0.5212  0.6239  0.8352
  491TMC3    C7 7360   1.234   3.345  16.979 -0.8014 -0.2276 -0.1671
  491TMC3    C8 7361   1.271   3.410  17.442 -0.6024 -1.1936  0.1005
  491TMC3    O1 7362   1.114   3.373  16.996 -0.1386 -0.1621  0.2096
  491TMC3    O2 7363   1.152   3.445  17.446  0.1403 -0.5158 -0.2755
  492MPD2     C 7364   0.380   3.296  11.897  0.0197  0.5559 -0.2933
  492MPD2    C1 7365   0.342   3.235  11.777 -0.4770 -0.6872 -0.0748
  492MPD2    C2 7366   0.267   3.116  11.781 -0.4479 -0.1994 -0.0812
  492MPD2    C3 7367   0.226   3.060  11.895  0.4650  0.5997  0.5083
  492MPD2    C4 7368   0.264   3.126  12.009 -0.3887 -0.8144 -0.3619
  492MPD2    C5 7369   0.344   3.239  12.016  0.2003  1.2568 -0.6407
  492MPD2     H 7370   0.243   3.066  11.688  1.1748 -1.8496  0.4017
  492MPD2    H1 7371   0.232   3.099  12.109  0.3709  0.1121  0.1179
  492MPD2    H2 7372   0.427   3.392  11.881 -0.4990  0.4876 -2.1940
  492MPD2    H3 7373   0.363   3.276  12.116 -0.8565  2.8877 -1.0436
  492MPD2     N 7374   0.166   2.940  11.906 -1.1612  0.0243 -0.4921
  492MPD2    H5 7375   0.145   2.903  11.998  1.3316  0.3932  0.2368
  492MPD2    N1 7376   0.373   3.304  11.658 -0.0826  0.4894  0.5995
  492MPD2    H7 7377   0.435   3.384  11.656  1.0845 -0.4303 -0.5896
  493TMC3    C1 7378   0.401   3.350  11.422 -0.2624 -0.7769  0.6185
  493TMC3    C2 7379   0.424   3.476  11.461  0.1002  0.2959 -0.2579
  493TMC3    C3 7380   0.465   3.565  11.364  0.5315 -0.2877 -0.6180
  493TMC3    C4 7381   0.419   3.301  11.297  0.3158  0.5647  0.7827
  493TMC3    C5 7382   0.466   3.382  11.208  0.1908  0.6500 -0.0355
  493TMC3    C6 7383   0.496   3.516  11.240  0.4607  0.3997  0.0681
  493TMC3     C 7384   0.347   3.263  11.525  0.2403  0.0842  0.4963
  493TMC3     O 7385   0.297   3.162  11.486  0.0933 -0.4039 -0.2328
  493TMC3     H 7386   0.372   3.518  11.545  1.9243 -0.4286  1.2444
  493TMC3    H1 7387   0.386   3.200  11.279 -0.1227  0.7087  0.7831
  493TMC3    H2 7388   0.544   3.583  11.170 -2.6475  1.3860 -1.1261
  493TMC3    C7 7389   0.477   3.328  11.073  0.4478 -0.1093 -0.1140
  493TMC3    C8 7390   0.512   3.698  11.409 -0.0764 -0.7399  0.4608
  493TMC3    O1 7391   0.496   3.410  10.985  0.0269 -0.2424 -0.2436
  493TMC3    O2 7392   0.517   3.703  11.531 -0.6601 -0.1000  0.2337
  494TMC3    C1 7393   2.206   0.850   0.236 -0.2788 -0.3277  0.1062
  494TMC3    C2 7394   2.160   0.737   0.180  0.5654 -0.8372  0.4884
  494TMC3    C3 7395   2.144   0.724   0.048 -0.1247 -0.1059 -0.6939
  494TMC3    C4 7396   2.218   0.962   0.162  0.2764  0.4534  0.1444
  494TMC3    C5 7397   2.190   0.959   0.024  0.5292 -0.9096  0.0492
  494TMC3    C6 7398   2.154   0.840  17.704 -0.0303  0.2072 -0.1672
  494TMC3     C 7399   2.202   0.866   0.381  0.4777 -1.7062  0.8472
  494TMC3     O 7400   2.146   0.970   0.417  0.2442 -0.5646 -0.4240
  494TMC3     H 7401   2.142   0.654   0.248  1.2680 -0.0622  1.6260
  494TMC3    H1 7402   2.233   1.051   0.222  1.9729  1.4901 -1.8171
  494TMC3    H2 7403   2.148   0.840  17.596  1.9250 -2.3013 -0.2840
  494TMC3    C7 7404   2.212   1.077  17.681 -0.0753  0.1775 -0.1697
  494TMC3    C8 7405   2.125   0.595  17.725  0.6467  0.0564 -0.5248
  494TMC3    O1 7406   2.231   1.057  17.561 -0.1041 -0.2011  0.4479
  494TMC3    O2 7407   2.108   0.590  17.603  0.4145 -0.2372 -0.3182
  495TMC3    C1 7408   1.006   3.262  14.725 -0.2730 -0.2019  0.1764
  495TMC3    C2 7409   0.927   3.245  14.609 -0.1750  0.0984  0.3212
  495TMC3    C3 7410   0.793   3.224  14.627 -0.2286  0.0105  0.3973
  495TMC3    C4 7411   0.943   3.276  14.846  0.1297 -0.2719  0.4871
  495TMC3    C5 7412   0.809   3.269  14.856  0.1522  0.3076 -0.3176
  495TMC3    C6 7413   0.731   3.244  14.745  0.6619  0.9187  0.1312
  495TMC3     C 7414   1.152   3.285  14.717  0.1603 -0.4875 -0.6956
  495TMC3     O 7415   1.195   3.375  14.786  0.5550 -0.3142 -0.3080
  495TMC3     H 7416   0.976   3.243  14.512 -0.4261  0.0341  0.1968
  495TMC3    H1 7417   1.012   3.318  14.918 -2.2824  1.8632  1.5509
  495TMC3    H2 7418   0.623   3.254  14.754  0.6901  0.6172  0.7948
  495TMC3    C7 7419   0.759   3.262  14.993 -0.3191 -0.6029  0.0556
  495TMC3    C8 7420   0.703   3.203  14.520  0.7920  0.9204 -0.5672
  495TMC3    O1 7421   0.835   3.304  15.078  0.0289 -0.0107 -0.6896
  495TMC3    O2 7422   0.605   3.270  14.523 -0.6022  0.1397 -0.1090
  496MPD2     C 7423   2.401   2.976  15.030  0.7247  0.4626  0.3662
  496MPD2    C1 7424   2.489   2.952  15.135 -0.1589 -0.0953 -0.0290
  496MPD2    C2 7425   2.449   2.912  15.262  0.1765 -0.2109  0.1596
  496MPD2    C3 7426   2.315   2.885  15.281  0.1729 -0.0331 -0.6394
  496MPD2    C4 7427   2.223   2.915  15.184  0.8369 -0.2102  0.3376
  496MPD2    C5 7428   2.266   2.960  15.059 -0.4958 -0.0026 -0.5679
  496MPD2     H 7429   2.521   2.887  15.338 -0.3028 -0.7916  0.4316
  496MPD2    H1 7430   2.116   2.909  15.199  1.3310 -0.7324  3.8875
  496MPD2    H2 7431   2.440   2.996  14.931  2.0285  0.1744  0.8196
  496MPD2    H3 7432   2.186   2.968  14.987 -1.6679 -2.0218  0.5086
  496MPD2     N 7433   2.255   2.839  15.401  0.8094  1.0150  0.0526
  496MPD2    H5 7434   2.157   2.814  15.401  0.6127  1.7528  1.7441
  496MPD2    N1 7435   2.632   2.969  15.124  0.1062  0.3902  0.5752
  496MPD2    H7 7436   2.688   2.950  15.205  0.2215  1.8157  0.8380
  497TMC3    C1 7437   2.239   2.769  15.622 -0.3627 -0.2530  0.0353
  497TMC3    C2 7438   2.106   2.741  15.601  0.1008  0.1413 -0.5419
  497TMC3    C3 7439   2.038   2.705  15.715  0.0965  0.5234  0.0297
  497TMC3    C4 7440   2.294   2.770  15.747 -0.0688  0.5268 -0.0510
  497TMC3    C5 7441   2.222   2.727  15.853  0.5751  0.3170  0.2262
  497TMC3    C6 7442   2.091   2.679  15.839 -1.0005  0.2280  0.1233
  497TMC3     C 7443   2.323   2.813  15.517  0.6017  0.1374 -0.7047
  497TMC3     O 7444   2.443   2.829  15.538 -0.5977 -0.4625  0.2976
  497TMC3     H 7445   2.055   2.749  15.505 -0.3604 -0.9450 -0.3809
  497TMC3    H1 7446   2.400   2.792  15.753  0.2287 -1.1849  1.2551
  497TMC3    H2 7447   2.045   2.645  15.931 -2.2854  2.6569  0.3815
  497TMC3    C7 7448   2.283   2.693  15.975 -0.1947 -0.6750  0.7896
  497TMC3    C8 7449   1.894   2.682  15.697  0.0945  0.2081  0.1757
  497TMC3    O1 7450   2.246   2.596  16.037  0.1222  0.4712  0.4140
  497TMC3    O2 7451   1.855   2.663  15.582  0.3000 -0.0479 -0.2490
  498MPD2     C 7452   2.922   3.530   9.636 -0.1244 -0.4420 -0.3449
  498MPD2    C1 7453   2.933   3.605   9.751 -0.1378  0.4436  0.1712
  498MPD2    C2 7454   2.854   3.560   9.855 -0.8033 -0.0529 -0.5536
  498MPD2    C3 7455   2.766   3.451   9.848 -0.5488  0.6303 -0.4110
  498MPD2    C4 7456   2.751   3.394   9.724 -0.2862  0.2538 -0.0493
  498MPD2    C5 7457   2.831   3.434   9.618  0.0206  0.2568 -0.8194
  498MPD2     H 7458   2.853   3.621   9.944  0.3479  0.0653 -0.6311
  498MPD2    H1 7459   2.695   3.303   9.705 -0.7451  0.4398  0.4348
  498MPD2    H2 7460   2.978   3.569   9.551  0.9888 -0.7210  0.2631
  498MPD2    H3 7461   2.819   3.382   9.524 -1.1767  0.6111 -0.8538
  498MPD2     N 7462   2.699   3.403   9.966  0.7068 -0.1294  0.2809
  498MPD2    H5 7463   2.739   3.438  10.052  0.0730  3.2364 -0.7961
  498MPD2    N1 7464   3.012   3.716   9.771 -0.0489 -0.8511  0.4514
  498MPD2    H7 7465   3.000   3.778   9.851 -1.4983  1.5077 -1.6096
  499TMC3    C1 7466   3.170   3.869   9.717 -0.4689  0.4132 -0.2590
  499TMC3    C2 7467   3.282   3.900   9.649  0.2273 -0.1736 -0.1914
  499TMC3    C3 7468   3.337   4.019   9.669  0.0053  0.3203  0.1366
  499TMC3    C4 7469   3.114   3.957   9.806  0.0214 -0.8287 -0.0454
  499TMC3    C5 7470   3.180   4.072   9.828 -0.0415  0.2989  0.1789
  499TMC3    C6 7471   3.297   4.100   9.767  0.1365  0.0216  0.2154
  499TMC3     C 7472   3.121   3.740   9.699  0.7002 -0.5443 -0.2882
  499TMC3     O 7473   3.185   3.665   9.626 -0.3247  0.5453 -0.3524
  499TMC3     H 7474   3.325   3.826   9.582 -0.2868  0.7272 -1.5332
  499TMC3    H1 7475   3.011   3.956   9.839  0.6196  0.6459  1.8251
  499TMC3    H2 7476   3.351   4.192   9.785  0.3577 -0.2236  0.7955
  499TMC3    C7 7477   3.126   4.180   9.914  0.3670  0.2722 -0.2970
  499TMC3    C8 7478   3.422   4.067   9.564  0.3460 -0.4458 -0.0040
  499TMC3    O1 7479   3.178   4.290   9.897 -0.3856  0.3467  0.0844
  499TMC3    O2 7480   3.453   3.993   9.470 -0.2112 -0.0239  0.3705
  500MPD2     C 7481   4.418   4.098   9.645  0.7335 -0.0090 -0.1715
  500MPD2    C1 7482   4.414   4.225   9.703 -0.1124 -0.1155 -0.2493
  500MPD2    C2 7483   4.292   4.294   9.707  0.1626  0.1438 -0.5242
  500MPD2    C3 7484   4.173   4.230   9.677 -0.2429 -0.5966  0.5146
  500MPD2    C4 7485   4.182   4.103   9.626  0.2228 -0.6894  0.6063
  500MPD2    C5 7486   4.300   4.047   9.602  0.4966 -0.4908 -0.5902
  500MPD2     H 7487   4.292   4.392   9.752  0.0353 -1.1135  2.2189
  500MPD2    H1 7488   4.093   4.048   9.599 -0.8540  0.8919  0.9577
  500MPD2    H2 7489   4.514   4.050   9.627  2.2469  2.4969  1.2114
  500MPD2    H3 7490   4.294   3.947   9.560  0.8493  0.5131 -3.0773
  500MPD2     N 7491   4.048   4.289   9.694 -0.8677  0.5284  0.4210
  500MPD2    H5 7492   3.974   4.219   9.701 -0.8920  0.5383  0.2732
  500MPD2    N1 7493   4.521   4.278   9.774 -0.1751  0.0277 -0.8077
  500MPD2    H7 7494   4.515   4.375   9.802  0.2475 -0.0553 -0.4311
  501TMC3    C1 7495   0.003   4.296   9.865  0.0807  0.4679 -0.2640
  501TMC3    C2 7496   4.730   4.429   9.824  0.4838 -0.9864  0.0097
  501TMC3    C3 7497   0.086   4.513   9.886  0.0766  0.1792  0.3218
  501TMC3    C4 7498   0.077   4.250   9.969 -0.3837 -0.4529  0.6055
  501TMC3    C5 7499   0.145   4.342  10.043  0.4708 -0.0632 -0.0766
  501TMC3    C6 7500   0.155   4.472   9.994  0.1552  0.4300  0.8563
  501TMC3     C 7501   4.631   4.205   9.813 -0.5275 -1.4571  0.5802
  501TMC3     O 7502   4.650   4.081   9.812 -0.1676 -0.2026 -1.2600
  501TMC3     H 7503   4.667   4.471   9.746 -1.9625 -2.5434  1.1664
  501TMC3    H1 7504   0.083   4.148  10.004 -2.7243 -0.1325  1.9269
  501TMC3    H2 7505   0.229   4.538  10.040  1.1790  1.1217 -1.8089
  501TMC3    C7 7506   0.113   4.351  10.183  0.0307  1.2745  0.3455
  501TMC3    C8 7507   0.063   4.654   9.878 -0.0452  0.2444 -0.6648
  501TMC3    O1 7508   0.144   4.463  10.222 -0.0992  0.3650 -0.1198
  501TMC3    O2 7509   0.030   4.699   9.770 -0.4909  0.4238 -0.5480
  502TMC3    C1 7510   0.141   3.431  14.725  0.9097 -0.1099 -0.6265
  502TMC3    C2 7511   0.132   3.519  14.620 -0.3116  0.0504 -0.1513
  502TMC3    C3 7512   0.034   3.615  14.623 -0.9625  0.0847 -0.1181
  502TMC3    C4 7513   0.039   3.420  14.812 -0.1554  0.3178 -0.0937
  502TMC3    C5 7514   4.676   3.514  14.804  0.2500  0.5795 -0.0904
  502TMC3    C6 7515   4.657   3.606  14.704  0.1676  0.1824 -0.4645
  502TMC3     C 7516   0.270   3.440  14.797  0.1504 -0.4075 -0.1328
  502TMC3     O 7517   0.366   3.444  14.722 -0.3699 -0.1097  0.0503
  502TMC3     H 7518   0.195   3.523  14.531  1.4455  1.8078  1.2042
  502TMC3    H1 7519   0.044   3.355  14.899 -0.3084 -1.2692 -1.2574
  502TMC3    H2 7520   4.588   3.689  14.696  0.0671 -0.0715 -2.1594
  502TMC3    C7 7521   4.621   3.539  14.928  0.4408  0.0162 -0.2072
  502TMC3    C8 7522   0.100   3.745  14.630 -0.4306 -0.4770 -0.4524
  502TMC3    O1 7523   4.687   3.513  15.029  0.5925  0.0211 -0.0733
  502TMC3    O2 7524   0.025   3.841  14.654 -0.0302 -0.6413  0.5199
  503MPD2     C 7525   2.356   4.688  16.900 -0.2707 -0.2022 -0.2580
  503MPD2    C1 7526   2.385   4.695  17.033 -0.5714  0.3373  0.1438
  503MPD2    C2 7527   2.463   4.597  17.092  0.6610 -0.3574  0.8571
  503MPD2    C3 7528   2.511   4.493  17.012 -0.2895  0.2090 -0.0743
  503MPD2    C4 7529   2.495   4.497  16.870 -0.0351  0.3068  0.2249
  503MPD2    C5 7530   2.414   4.598  16.821 -0.5090 -0.7523 -0.1412
  503MPD2     H 7531   2.485   4.587  17.198  2.7241 -1.4207  0.3273
  503MPD2    H1 7532   2.535   4.420  16.806 -1.1767 -0.2387  0.1705
  503MPD2    H2 7533   2.297   0.020  16.838 -0.0673  1.2707  1.1117
  503MPD2    H3 7534   2.387   4.603  16.716 -1.0046 -0.2195  0.0129
  503MPD2     N 7535   2.581   4.382  17.067 -0.0269  0.5321 -0.0012
  503MPD2    H5 7536   2.575   4.375  17.168 -0.4074  0.0682 -0.0579
  503MPD2    N1 7537   2.344   0.072  17.110 -0.1518  0.3798  0.2727
  503MPD2    H7 7538   2.369   0.073  17.208  1.0052  0.9676 -0.0273
  504TMC3    C1 7539   2.749   4.227  17.075  0.4254 -0.1298 -0.1847
  504TMC3    C2 7540   2.691   4.139  17.164 -0.0937 -0.4168  0.1466
  504TMC3    C3 7541   2.770   4.037  17.207 -0.0181  0.4649  0.0446
  504TMC3    C4 7542   2.886   4.232  17.052  0.2001 -0.3254  0.1130
  504TMC3    C5 7543   2.963   4.139  17.113 -0.6160  0.9508 -0.0193
  504TMC3    C6 7544   2.902   4.036  17.182 -0.2787  0.9737  0.3076
  504TMC3     C 7545   2.669   4.313  16.996  0.4716 -0.9149 -0.5932
  504TMC3     O 7546   2.707   4.308  16.880 -0.1177  0.1341 -0.2693
  504TMC3     H 7547   2.584   4.149  17.179 -0.2445 -1.2707 -0.3267
  504TMC3    H1 7548   2.929   4.317  17.001  0.3487 -1.5004 -1.7099
  504TMC3    H2 7549   2.949   3.942  17.210  0.4711  1.9142  2.1444
  504TMC3    C7 7550   3.106   4.141  17.087  0.3971  0.0498 -0.2002
  504TMC3    C8 7551   2.717   3.946  17.307 -0.7118  0.2199  0.8482
  504TMC3    O1 7552   3.139   4.221  17.007  0.9364  0.4315  0.0477
  504TMC3    O2 7553   2.799   3.900  17.387  0.9893 -0.0096  0.0049
  505MPD2     C 7554   2.336   2.870  11.232 -0.4312  0.6656 -0.0692
  505MPD2    C1 7555   2.420   2.778  11.181  0.4437  0.0777 -0.2320
  505MPD2    C2 7556   2.550   2.797  11.169 -0.0284 -0.5465  0.2932
  505MPD2    C3 7557   2.610   2.916  11.207 -0.1642 -0.8019 -0.6566
  505MPD2    C4 7558   2.531   3.014  11.268  0.6524  0.3092 -0.3328
  505MPD2    C5 7559   2.397   2.989  11.279 -0.3287  0.1186  0.6027
  505MPD2     H 7560   2.607   2.729  11.106  1.1836  1.2081 -0.5070
  505MPD2    H1 7561   2.571   3.106  11.309 -0.0964 -0.9003  3.1242
  505MPD2    H2 7562   2.233   2.839  11.245 -0.1075 -0.0318  0.8005
  505MPD2    H3 7563   2.341   3.070  11.324 -0.1360  1.0383 -0.8017
  505MPD2     N 7564   2.750   2.923  11.191  0.1602  0.7040 -0.2299
  505MPD2    H5 7565   2.799   2.841  11.155  1.1189  0.4970  1.5592
  505MPD2    N1 7566   2.356   2.663  11.132  1.0442  0.3890 -0.0882
  505MPD2    H7 7567   2.255   2.649  11.140  1.1202 -0.2608 -0.3028
  506TMC3    C1 7568   2.342   2.458  11.009 -0.8420 -0.0023 -0.0705
  506TMC3    C2 7569   2.263   2.509  10.913  0.0276 -0.0793 -0.2423
  506TMC3    C3 7570   2.251   2.437  10.801  0.2899 -0.2310 -0.2345
  506TMC3    C4 7571   2.403   2.330  10.994 -0.1042  0.0113  0.1361
  506TMC3    C5 7572   2.396   2.264  10.873 -0.1439  0.5125  0.6421
  506TMC3    C6 7573   2.298   2.306  10.783  0.5755 -0.1226  0.4877
  506TMC3     C 7574   2.419   2.549  11.082 -0.1414 -0.6210  0.5212
  506TMC3     O 7575   2.532   2.522  11.076 -0.1064 -0.4293 -0.7055
  506TMC3     H 7576   2.224   2.610  10.925 -0.3977 -0.0667 -1.8285
  506TMC3    H1 7577   2.483   2.301  11.061 -0.5971 -0.6493  0.4385
  506TMC3    H2 7578   2.291   2.247  10.692 -1.2160  0.6220  0.1437
  506TMC3    C7 7579   2.525   2.256  10.808  0.7443 -0.5419  0.2620
  506TMC3    C8 7580   2.165   2.476  10.699  0.3639  0.2433  0.4448
  506TMC3    O1 7581   2.526   2.189  10.704  0.2739  1.2065  0.3098
  506TMC3    O2 7582   2.120   2.386  10.629 -0.4687  0.7253  0.2147
  507TMC3    C1 7583   3.436   4.242  15.319 -0.4643  0.9210  0.9678
  507TMC3    C2 7584   3.410   4.138  15.234  0.5708 -0.8043 -0.3153
  507TMC3    C3 7585   3.430   4.161  15.098 -0.1244 -0.3646 -0.3032
  507TMC3    C4 7586   3.470   4.371  15.276 -0.1674  0.8025  1.1608
  507TMC3    C5 7587   3.474   4.389  15.135 -0.1468 -0.1577 -0.0608
  507TMC3    C6 7588   3.469   4.280  15.048  0.4977  0.5798 -0.1163
  507TMC3     C 7589   3.435   4.211  15.461 -0.6276 -0.4779 -0.1995
  507TMC3     O 7590   3.391   4.102  15.492  0.3922  0.1687  0.2551
  507TMC3     H 7591   3.377   4.041  15.268  3.2389 -2.5099 -2.6382
  507TMC3    H1 7592   3.458   4.455  15.343  0.9137  2.8563 -1.2040
  507TMC3    H2 7593   3.463   4.294  14.941 -1.1630  2.6088  0.2382
  507TMC3    C7 7594   3.410   4.512  15.080  0.2638 -1.1669 -0.6537
  507TMC3    C8 7595   3.320   4.100  15.018  0.4626  0.1447 -0.5765
  507TMC3    O1 7596   3.355   4.479  14.974  0.0366  0.3894 -0.1744
  507TMC3    O2 7597   3.301   3.978  15.028 -0.3274 -0.0879 -0.3130
  508MPD2     C 7598   4.155   2.212  16.563  0.1501  0.0765 -0.1621
  508MPD2    C1 7599   4.222   2.118  16.486  0.4080  0.0722  0.7565
  508MPD2    C2 7600   4.202   2.122  16.354 -0.1850 -0.0210 -0.5816
  508MPD2    C3 7601   4.125   2.218  16.297  0.1559 -0.2501 -0.0807
  508MPD2    C4 7602   4.067   2.319  16.373 -0.0235 -0.5031  1.0859
  508MPD2    C5 7603   4.081   2.312  16.511 -0.3814  0.5561  0.8518
  508MPD2     H 7604   4.248   2.047  16.291  0.1290  0.7359 -1.2510
  508MPD2    H1 7605   3.997   2.393  16.336 -1.4384 -0.9916  2.7791
  508MPD2    H2 7606   4.174   2.206  16.669  1.1596  0.6685 -0.3147
  508MPD2    H3 7607   4.040   2.388  16.576  1.1233 -0.4632  2.9807
  508MPD2     N 7608   4.122   2.220  16.158  0.0480  0.2926  0.2643
  508MPD2    H5 7609   4.192   2.162  16.114 -1.9484 -0.4959 -1.8654
  508MPD2    N1 7610   4.296   2.013  16.550 -0.0647  0.4378 -0.5528
  508MPD2    H7 7611   4.274   2.002  16.649 -1.4763 -1.5499 -1.0889
  509TMC3    C1 7612   4.014   2.403  15.750  0.1016  0.0584  0.7279
  509TMC3    C2 7613   4.149   2.428  15.727  0.5250 -0.4936 -0.1565
  509TMC3    C3 7614   4.241   2.374  15.810  0.6347  0.0875 -0.0118
  509TMC3    C4 7615   3.972   2.327  15.855  0.1300  0.0583 -0.2474
  509TMC3    C5 7616   4.065   2.277  15.945  0.4096 -0.8147 -0.5690
  509TMC3    C6 7617   4.201   2.295  15.919  0.2841  0.1544 -0.0036
  509TMC3     C 7618   3.902   2.447  15.667 -0.0519  0.4910  0.6774
  509TMC3     O 7619   3.806   2.369  15.665  0.0160 -0.1300  0.0118
  509TMC3     H 7620   4.182   2.469  15.632  0.5547  1.5166  0.7330
  509TMC3    H1 7621   3.866   2.328  15.881  0.2884  2.3174  0.3124
  509TMC3    H2 7622   4.274   2.246  15.983  0.5035  0.3318 -0.1186
  509TMC3    C7 7623   4.025   2.282  16.088 -0.3674  0.4705  0.3744
  509TMC3    C8 7624   4.381   2.391  15.771 -0.1521 -0.4655 -0.1676
  509TMC3    O1 7625   3.914   2.321  16.123  0.4682  0.1122  0.3141
  509TMC3    O2 7626   4.453   2.303  15.809 -0.2333  0.2171 -0.4324
  510MPD2     C 7627   2.044   3.197  14.731 -0.9911 -0.9003 -0.1033
  510MPD2    C1 7628   2.070   3.064  14.732 -0.1683  0.4206 -0.2069
  510MPD2    C2 7629   2.181   3.015  14.674 -0.6705 -0.8277  0.7009
  510MPD2    C3 7630   2.264   3.102  14.614 -0.2668 -1.1385 -0.1333
  510MPD2    C4 7631   2.223   3.231  14.590  0.2839  0.5489  0.4257
  510MPD2    C5 7632   2.109   3.283  14.642 -0.2207 -0.2354  0.2172
  510MPD2     H 7633   2.207   2.911  14.686  1.2044 -0.4015  0.2312
  510MPD2    H1 7634   2.288   3.310  14.552  0.4098  0.6613  0.8744
  510MPD2    H2 7635   1.946   3.231  14.763 -0.4158 -0.0579  0.7670
  510MPD2    H3 7636   2.093   3.390  14.636 -1.3427 -0.3926  0.4176
  510MPD2     N 7637   2.390   3.052  14.574  0.3194  0.2491  0.1713
  510MPD2    H5 7638   2.430   2.969  14.616  0.2034  1.2319  2.1908
  510MPD2    N1 7639   1.971   2.989  14.805 -0.2215 -0.4481  0.5728
  510MPD2    H7 7640   1.894   3.043  14.842  0.5544  1.4008 -0.5258
  511TMC3    C1 7641   1.832   2.811  14.885 -0.3594  0.3485  0.7209
  511TMC3    C2 7642   1.782   2.897  14.975  0.1448  0.3439  1.1200
  511TMC3    C3 7643   1.667   2.858  15.039 -0.3817 -0.3249 -0.1575
  511TMC3    C4 7644   1.768   2.701  14.837  0.7290 -1.0783  0.5199
  511TMC3    C5 7645   1.649   2.668  14.901  0.3455 -0.0758  0.3764
  511TMC3    C6 7646   1.600   2.746  15.003 -0.1683 -0.0088 -0.4625
  511TMC3     C 7647   1.952   2.852  14.813 -0.1604 -0.0973  0.2002
  511TMC3     O 7648   2.019   2.758  14.768  0.2476 -0.2017  0.2405
  511TMC3     H 7649   1.833   2.983  15.018  2.3199  0.2082 -1.1830
  511TMC3    H1 7650   1.821   2.637  14.768  0.1681  1.5653 -2.3221
  511TMC3    H2 7651   1.498   2.739  15.038  0.4547 -3.2281  0.7085
  511TMC3    C7 7652   1.578   2.560  14.851 -0.8330 -0.6468 -0.1836
  511TMC3    C8 7653   1.619   2.948  15.135 -0.1522 -0.3159 -0.0821
  511TMC3    O1 7654   1.616   2.509  14.747 -0.5914  0.6508  0.2000
  511TMC3    O2 7655   1.666   3.061  15.144  0.3810 -0.5669 -0.1715
  512TMC3    C1 7656   0.535   2.717  13.055 -0.7845  0.3468  0.1215
  512TMC3    C2 7657   0.631   2.724  13.157 -0.3518 -0.0309 -0.4142
  512TMC3    C3 7658   0.700   2.605  13.174 -0.4500  0.2077 -0.0742
  512TMC3    C4 7659   0.508   2.604  12.984 -0.3770  0.3146 -0.5267
  512TMC3    C5 7660   0.576   2.487  13.012 -0.7224  0.3059 -0.0714
  512TMC3    C6 7661   0.677   2.485  13.107  0.3934 -0.6202  0.3096
  512TMC3     C 7662   0.469   2.831  13.000  0.0943  0.2532  0.2035
  512TMC3     O 7663   0.355   2.811  12.960  0.0837 -0.4858  0.1704
  512TMC3     H 7664   0.649   2.819  13.208  0.0186  0.1536 -0.8902
  512TMC3    H1 7665   0.437   2.602  12.902 -2.9050 -4.2905  1.8411
  512TMC3    H2 7666   0.733   2.393  13.122 -0.7569 -1.3155  0.3532
  512TMC3    C7 7667   0.558   2.374  12.921  0.1636 -0.3779  0.0792
  512TMC3    C8 7668   0.820   2.599  13.256  0.7741  1.0660  0.5509
  512TMC3    O1 7669   0.513   2.397  12.811 -0.3380 -0.0641  0.8738
  512TMC3    O2 7670   0.890   2.497  13.238 -0.1987 -0.3519 -0.5430
  513MPD2     C 7671   2.251   2.382  13.559  0.1376  0.0287 -0.0639
  513MPD2    C1 7672   2.274   2.284  13.467  0.0480  0.3222  0.0722
  513MPD2    C2 7673   2.388   2.209  13.472 -0.4951 -0.3903  0.0676
  513MPD2    C3 7674   2.480   2.225  13.573 -0.1701  0.3017  0.2494
  513MPD2    C4 7675   2.463   2.330  13.660 -0.4621 -0.1580  0.3244
  513MPD2    C5 7676   2.344   2.399  13.661  0.5958 -0.0501 -0.2462
  513MPD2     H 7677   2.410   2.118  13.418 -0.8549  0.6411 -1.7988
  513MPD2    H1 7678   2.525   2.345  13.748  1.0676 -0.7453 -0.6528
  513MPD2    H2 7679   2.160   2.441  13.567 -1.0485 -1.7147 -0.5797
  513MPD2    H3 7680   2.328   2.470  13.741 -1.1567 -0.5374 -0.1670
  513MPD2     N 7681   2.592   2.140  13.574 -0.3062 -0.7609 -0.1803
  513MPD2    H5 7682   2.594   2.066  13.505  1.8726 -0.6739 -0.2035
  513MPD2    N1 7683   2.177   2.263  13.365  0.4651  0.4245 -0.2551
  513MPD2    H7 7684   2.089   2.314  13.365  0.4415  0.4027  1.1558
  514TMC3    C1 7685   2.096   2.188  13.156 -0.0573 -0.1455  0.1924
  514TMC3    C2 7686   2.076   2.302  13.083 -0.1626 -0.2303  0.2696
  514TMC3    C3 7687   2.060   2.286  12.952  0.2431 -0.1294  0.7581
  514TMC3    C4 7688   2.115   2.070  13.095 -0.5211  0.3858  0.1841
  514TMC3    C5 7689   2.136   2.065  12.959 -0.5635 -0.2138 -0.1849
  514TMC3    C6 7690   2.099   2.172  12.881  0.0850  0.0234  0.4632
  514TMC3     C 7691   2.197   2.190  13.255 -0.3512  0.4875 -0.2888
  514TMC3     O 7692   2.297   2.132  13.211 -0.2319  0.3696  0.1376
  514TMC3     H 7693   2.063   2.398  13.132 -3.3688 -0.2980 -0.4046
  514TMC3    H1 7694   2.142   1.979  13.147  0.6056  2.1061  2.5907
  514TMC3    H2 7695   2.089   2.162  12.773 -1.3525 -0.7690  0.6760
  514TMC3    C7 7696   2.250   1.991  12.906  0.2004 -0.4543  0.2597
  514TMC3    C8 7697   2.039   2.414  12.891  0.1036 -0.1367  0.2917
  514TMC3    O1 7698   2.261   1.983  12.784 -0.1570 -0.0450  0.2383
  514TMC3    O2 7699   1.989   2.506  12.961  0.7174  0.2934  0.9636
  515MPD2     C 7700   0.728   4.711  14.853 -0.0509 -0.9300  0.2568
  515MPD2    C1 7701   0.787   4.587  14.834 -0.0831 -0.1035  0.0333
  515MPD2    C2 7702   0.919   4.570  14.873  0.8294 -0.7258  0.3533
  515MPD2    C3 7703   0.976   4.663  14.955 -0.3736 -0.4611  0.3228
  515MPD2    C4 7704   0.911   0.048  14.979  0.7678 -0.2186 -1.2470
  515MPD2    C5 7705   0.786   0.074  14.921  0.5291  0.5097  0.0440
  515MPD2     H 7706   0.968   4.477  14.847  0.0590 -1.1143  0.2905
  515MPD2    H1 7707   0.953   0.126  15.042 -0.2112 -0.1860 -0.6344
  515MPD2    H2 7708   0.627   4.733  14.821  0.4603 -0.3104 -0.9138
  515MPD2    H3 7709   0.735   0.169  14.929  3.5863  2.1148  0.6062
  515MPD2     N 7710   1.115   4.657  15.000 -0.6004  0.4050 -0.5657
  515MPD2    H5 7711   1.135   4.733  15.064 -1.2407  0.7584 -0.7884
  515MPD2    N1 7712   0.726   4.486  14.761  0.1932 -0.1294  0.0549
  515MPD2    H7 7713   0.777   4.399  14.750 -1.6507 -1.0103 -1.7234
  516TMC3    C1 7714   0.593   4.374  14.607 -0.2745 -0.0004  0.6737
  516TMC3    C2 7715   0.533   4.377  14.481  0.3697 -0.0739 -0.2846
  516TMC3    C3 7716   0.546   4.257  14.412  0.3328  0.2374  0.3058
  516TMC3    C4 7717   0.653   4.253  14.654 -0.4952  0.1971  0.4582
  516TMC3    C5 7718   0.664   4.144  14.578  0.3946 -0.8524  0.9608
  516TMC3    C6 7719   0.613   4.146  14.450 -0.3529  0.1313  0.1814
  516TMC3     C 7720   0.613   4.495  14.686 -0.4576  0.3313  0.3145
  516TMC3     O 7721   0.543   4.593  14.663  0.4479 -0.1339  1.0106
  516TMC3     H 7722   0.524   4.476  14.438 -0.5543 -0.0611 -0.0689
  516TMC3    H1 7723   0.667   4.243  14.760  2.2469 -0.7477 -0.0078
  516TMC3    H2 7724   0.612   4.059  14.386 -0.0654  0.4434 -0.2436
  516TMC3    C7 7725   0.749   4.038  14.628  1.6765 -0.7705  0.8696
  516TMC3    C8 7726   0.478   4.260  14.283  0.4822 -0.3172  0.7035
  516TMC3    O1 7727   0.845   4.071  14.703 -0.2491 -0.8697 -0.1700
  516TMC3    O2 7728   0.433   4.367  14.247 -0.3509 -0.1426  0.3042
  517MPD2     C 7729   0.704   1.046   0.001 -0.3062 -0.1558  0.3839
  517MPD2    C1 7730   0.819   1.021   0.076  0.1722 -0.1318 -0.6180
  517MPD2    C2 7731   0.884   1.125   0.147  0.0552  0.2594 -0.3759
  517MPD2    C3 7732   0.828   1.252   0.148 -0.0950  0.1677  0.1660
  517MPD2    C4 7733   0.703   1.271   0.085  1.0167  0.0131 -0.5888
  517MPD2    C5 7734   0.653   1.173  17.737 -0.0412  0.7090  0.1195
  517MPD2     H 7735   0.981   1.102   0.189  0.4411  1.7432 -0.4537
  517MPD2    H1 7736   0.657   1.369   0.094  0.4366 -0.2811 -0.3257
  517MPD2    H2 7737   0.667   0.967  17.674  0.9052 -1.3128  1.1174
  517MPD2    H3 7738   0.569   1.203  17.675 -0.0354  0.0670 -0.2096
  517MPD2     N 7739   0.890   1.365   0.214 -0.2699  0.5148 -0.2279
  517MPD2    H5 7740   0.851   1.455   0.190  1.2468  0.7189 -1.8420
  517MPD2    N1 7741   0.889   0.899   0.069 -0.6804 -0.3265  0.2321
  517MPD2    H7 7742   0.981   0.915   0.107 -0.4934  1.7565 -1.0734
  518TMC3    C1 7743   0.959   0.693  17.722 -0.0458 -0.3571 -0.2623
  518TMC3    C2 7744   0.925   0.564  17.701 -0.4430 -0.1529  0.1984
  518TMC3    C3 7745   1.014   0.488  17.639  0.2310 -0.0993 -0.4777
  518TMC3    C4 7746   1.072   0.752  17.665  0.5567  0.2339  0.4009
  518TMC3    C5 7747   1.145   0.672  17.581 -0.3717 -0.4643  1.0593
  518TMC3    C6 7748   1.123   0.540  17.572 -0.1544  1.1198  0.5085
  518TMC3     C 7749   0.844   0.780   0.014 -0.2594  0.1321 -0.2267
  518TMC3     O 7750   0.729   0.741  17.730  0.4170  0.2866  0.1281
  518TMC3     H 7751   0.836   0.526   0.013 -0.4557 -0.4529 -0.0526
  518TMC3    H1 7752   1.094   0.858  17.673  2.2254 -0.3095  2.7865
  518TMC3    H2 7753   1.203   0.470  17.554 -0.4814 -0.0040  3.4407
  518TMC3    C7 7754   1.248   0.725  17.487  0.4235 -0.0832  1.1629
  518TMC3    C8 7755   0.990   0.344  17.618 -1.0429  0.1694 -0.2540
  518TMC3    O1 7756   1.278   0.845  17.493  0.6623 -0.4261  0.1797
  518TMC3    O2 7757   1.000   0.297  17.503  0.3389  0.4221  0.2172
  519MPD2     C 7758   2.249   4.061  14.487  0.0285 -0.7195 -0.5495
  519MPD2    C1 7759   2.184   4.091  14.365 -0.7402  0.2228 -0.2993
  519MPD2    C2 7760   2.254   4.073  14.248 -0.4812  0.5218  0.3719
  519MPD2    C3 7761   2.385   4.016  14.240  0.0541  0.0835  0.0618
  519MPD2    C4 7762   2.446   3.978  14.362 -0.7368 -0.0095 -0.1336
  519MPD2    C5 7763   2.374   4.003  14.480  0.0251  0.0135  0.3665
  519MPD2     H 7764   2.205   4.086  14.152 -1.7362  1.3815  1.1430
  519MPD2    H1 7765   2.544   3.931  14.364 -0.5981  0.2757 -0.2592
  519MPD2    H2 7766   2.194   4.060  14.581 -0.1548 -2.3034 -0.6749
  519MPD2    H3 7767   2.410   3.970  14.576 -0.0209  1.4937  0.8966
  519MPD2     N 7768   2.459   4.001  14.119 -0.3670  0.0976 -0.1386
  519MPD2    H5 7769   2.551   3.958  14.128 -0.4941 -0.1225  0.1433
  519MPD2    N1 7770   2.044   4.131  14.382  0.7304 -0.1558 -0.4770
  519MPD2    H7 7771   2.010   4.109  14.475 -1.1783  1.9929 -0.6547
  520TMC3    C1 7772   2.500   4.009  13.878  0.5313  0.7517 -0.2908
  520TMC3    C2 7773   2.419   3.983  13.767 -0.0212 -0.4516  0.1094
  520TMC3    C3 7774   2.461   3.885  13.687  1.2363 -0.6646  0.0569
  520TMC3    C4 7775   2.609   3.930  13.902  0.5941  0.2354 -0.3809
  520TMC3    C5 7776   2.648   3.825  13.815 -0.1480  0.3069 -0.5128
  520TMC3    C6 7777   2.570   3.798  13.706  0.2485  0.4228 -0.5396
  520TMC3     C 7778   2.422   4.052  13.993  0.0439  0.4220 -0.5196
  520TMC3     O 7779   2.325   4.125  13.965  0.0843 -0.3610 -0.3674
  520TMC3     H 7780   2.326   4.036  13.753  0.4734  0.0706 -1.1276
  520TMC3    H1 7781   2.673   3.956  13.986  0.5052 -0.0834 -0.2132
  520TMC3    H2 7782   2.601   3.735  13.624  1.2311  0.6489 -0.3412
  520TMC3    C7 7783   2.749   3.734  13.862 -0.4896 -0.2106  0.2359
  520TMC3    C8 7784   2.392   3.866  13.564 -0.8979 -0.1140  0.4014
  520TMC3    O1 7785   2.816   3.771  13.958 -0.3894 -0.1114 -0.0440
  520TMC3    O2 7786   2.463   3.861  13.463 -0.4232 -0.1382 -0.1756
  521MPD2     C 7787   3.499   2.895  17.603 -0.0571  0.2961  0.6793
  521MPD2    C1 7788   3.482   2.811  17.495  0.4309 -0.7591 -0.3123
  521MPD2    C2 7789   3.588   2.748  17.430  0.2678  0.2005 -0.1690
  521MPD2    C3 7790   3.716   2.772  17.481  0.6365 -0.4100  0.6270
  521MPD2    C4 7791   3.730   2.862  17.588  0.5970  0.7342 -0.4200
  521MPD2    C5 7792   3.624   2.919  17.647  0.3617  0.3356 -0.6557
  521MPD2     H 7793   3.573   2.682  17.346  0.1558 -0.1511  0.1262
  521MPD2    H1 7794   3.831   2.887  17.619  1.0859 -0.8999 -0.6627
  521MPD2    H2 7795   3.417   2.953  17.644 -0.8960  0.1777 -0.8003
  521MPD2    H3 7796   3.641   2.987  17.730 -2.2481 -2.2116  1.9795
  521MPD2     N 7797   3.821   2.716  17.409  0.5005 -0.9236 -0.0558
  521MPD2    H5 7798   3.797   2.657  17.329 -0.7930 -2.4549  1.4776
  521MPD2    N1 7799   3.345   2.784  17.462 -0.4038  0.0747  0.5835
  521MPD2    H7 7800   3.280   2.818  17.533 -0.8019 -0.2409  0.3718
  522TMC3    C1 7801   4.048   2.665  17.339 -0.5891  0.2797  0.1657
  522TMC3    C2 7802   4.159   2.592  17.382 -0.6531 -0.3616 -0.3624
  522TMC3    C3 7803   4.235   2.532  17.286 -0.0756 -0.5716 -0.2119
  522TMC3    C4 7804   4.018   2.677  17.206  0.0655  0.0045 -1.0257
  522TMC3    C5 7805   4.101   2.618  17.112  0.5327 -0.5161  0.4713
  522TMC3    C6 7806   4.206   2.541  17.152  0.1275 -0.4258  0.0190
  522TMC3     C 7807   3.950   2.713  17.442 -0.4822  0.2408  0.2522
  522TMC3     O 7808   4.000   2.737  17.549  0.1355  0.2029  0.3938
  522TMC3     H 7809   4.194   2.613  17.483 -1.8172  0.8958 -0.2156
  522TMC3    H1 7810   3.948   2.752  17.173 -1.5973 -0.8672  0.5120
  522TMC3    H2 7811   4.261   2.483  17.079 -0.4069 -0.5158 -0.3112
  522TMC3    C7 7812   4.067   2.614  16.969  0.4289  0.4866 -0.0161
  522TMC3    C8 7813   4.335   2.446  17.345  0.0581 -0.4174 -0.7772
  522TMC3    O1 7814   4.162   2.578  16.900  1.0075 -0.4784  0.0715
  522TMC3    O2 7815   4.366   2.460  17.465  0.2143 -0.0362  0.4552
  523MPD2     C 7816   0.589   2.093   9.950 -0.2642  0.3254  0.3157
  523MPD2    C1 7817   0.472   2.019   9.933 -0.2890 -0.4505  0.5096
  523MPD2    C2 7818   0.373   2.068   9.856  0.5465 -0.4438 -0.8969
  523MPD2    C3 7819   0.392   2.182   9.787  0.3889 -0.2293  0.0630
  523MPD2    C4 7820   0.512   2.249   9.788 -0.2108 -0.5663 -0.1064
  523MPD2    C5 7821   0.613   2.198   9.870 -0.8466  0.5730  0.1655
  523MPD2     H 7822   0.276   2.019   9.854 -0.3975  1.3352  0.6682
  523MPD2    H1 7823   0.541   2.338   9.735  0.8699  0.2364  1.8245
  523MPD2    H2 7824   0.657   2.063  10.029  0.3119 -1.4773 -0.8829
  523MPD2    H3 7825   0.709   2.243   9.893 -0.3772 -0.1351 -0.4516
  523MPD2     N 7826   0.290   2.243   9.708  0.1835 -1.0718 -0.4823
  523MPD2    H5 7827   0.316   2.325   9.655  0.9632 -0.5168  0.7324
  523MPD2    N1 7828   0.462   1.891   9.997 -0.3902  0.4682 -0.2636
  523MPD2    H7 7829   0.542   1.859  10.050  0.7391  0.9708 -1.6374
  524TMC3    C1 7830   0.116   2.274   9.578 -0.1600  0.2734 -0.5183
  524TMC3    C2 7831   0.050   2.207   9.480 -0.0797 -0.1517  0.1624
  524TMC3    C3 7832   4.728   2.282   9.381 -0.0130 -0.0950  0.5272
  524TMC3    C4 7833   0.136   2.409   9.571  0.2786 -0.4191  0.0083
  524TMC3    C5 7834   0.063   2.474   9.471 -0.2259 -0.1602 -0.0287
  524TMC3    C6 7835   4.721   2.419   9.375  0.4160 -0.4479 -0.6985
  524TMC3     C 7836   0.165   2.199   9.687 -0.2221 -0.1979  0.3379
  524TMC3     O 7837   0.118   2.088   9.716 -0.0713 -0.6737  0.4172
  524TMC3     H 7838   0.011   2.107   9.499 -0.2708  0.1878  1.5004
  524TMC3    H1 7839   0.191   2.463   9.647 -3.2372 -0.3789  2.5678
  524TMC3    H2 7840   4.699   2.459   9.277 -0.5819 -0.1113 -0.3362
  524TMC3    C7 7841   0.043   2.615   9.499  1.1773  0.1779  0.5038
  524TMC3    C8 7842   4.644   2.220   9.283 -0.5076  0.4632 -0.1499
  524TMC3    O1 7843   0.128   2.676   9.562 -0.9168 -0.0448  0.1798
  524TMC3    O2 7844   4.557   2.284   9.231  0.3254  0.0917  0.3863
  525MPD2     C 7845   3.663   3.630  14.427 -0.3888  0.0468  1.3095
  525MPD2    C1 7846   3.788   3.640  14.484  0.2345  0.9360  0.1830
  525MPD2    C2 7847   3.860   3.749  14.442  0.2723  0.3243  0.2384
  525MPD2    C3 7848   3.808   3.843  14.357  0.1064  0.4677  0.1651
  525MPD2    C4 7849   3.680   3.833  14.304  0.4991 -1.0880 -0.0201
  525MPD2    C5 7850   3.611   3.722  14.335  0.0204 -0.0715 -0.3359
  525MPD2     H 7851   3.964   3.765  14.469 -0.5519  1.6906  2.5991
  525MPD2    H1 7852   3.630   3.906  14.241 -1.5459 -1.4079  1.2100
  525MPD2    H2 7853   3.593   3.549  14.444 -0.6335 -0.2748 -1.3100
  525MPD2    H3 7854   3.509   3.704  14.302 -0.3281 -1.5044  1.5182
  525MPD2     N 7855   3.889   3.951  14.308 -0.1047 -0.0994 -0.4873
  525MPD2    H5 7856   3.834   4.023  14.262  0.3552 -0.6566 -1.9091
  525MPD2    N1 7857   3.844   3.554  14.581 -0.7675  0.1721  0.5035
  525MPD2    H7 7858   3.928   3.587  14.629  0.0549  2.0051 -2.2478
  526TMC3    C1 7859   3.845   3.400  14.755 -0.6996 -0.0536 -0.2052
  526TMC3    C2 7860   3.761   3.377  14.856 -0.4384 -0.1092  0.4105
  526TMC3    C3 7861   3.808   3.365  14.984 -0.9960  0.8327  0.9375
  526TMC3    C4 7862   3.979   3.396  14.763  0.1495 -0.5102  0.3403
  526TMC3    C5 7863   4.025   3.367  14.888 -0.0750 -0.2653 -0.1034
  526TMC3    C6 7864   3.945   3.354  14.998  0.8968 -0.1494 -1.0735
  526TMC3     C 7865   3.781   3.447  14.637 -0.0142  0.1801 -0.3151
  526TMC3     O 7866   3.669   3.398  14.609 -0.3441 -0.3308 -0.4149
  526TMC3     H 7867   3.655   3.383  14.834  0.1402  1.7511 -1.9088
  526TMC3    H1 7868   4.046   3.408  14.679  0.7620 -0.4036  0.8452
  526TMC3    H2 7869   3.995   3.347  15.094  0.3093  0.3264 -0.7406
  526TMC3    C7 7870   4.160   3.318  14.908  0.6655 -0.2089  0.3279
  526TMC3    C8 7871   3.732   3.391  15.100 -0.4430 -0.5409 -0.2231
  526TMC3    O1 7872   4.184   3.292  15.023 -0.0087 -0.2523 -0.4214
  526TMC3    O2 7873   3.777   3.358  15.207 -0.7333 -0.9941  0.0388
  527MPD2     C 7874   2.234   1.990   1.774 -0.4444 -0.6122  0.3187
  527MPD2    C1 7875   2.159   1.961   1.663  0.2819  0.4708  0.1762
  527MPD2    C2 7876   2.181   1.842   1.596 -0.5093  0.8539  0.7454
  527MPD2    C3 7877   2.283   1.756   1.629  0.0277  0.0240  0.2106
  527MPD2    C4 7878   2.360   1.792   1.736  0.0771 -0.3789  0.0837
  527MPD2    C5 7879   2.332   1.904   1.804 -0.0291  0.1731  0.0048
  527MPD2     H 7880   2.119   1.820   1.510  1.1506 -0.5395 -0.0986
  527MPD2    H1 7881   2.440   1.737   1.783 -1.2896 -0.9513  1.7513
  527MPD2    H2 7882   2.220   2.083   1.828 -0.7966 -1.1707  1.1892
  527MPD2    H3 7883   2.404   1.928   1.882 -1.5089  2.4924  0.6667
  527MPD2     N 7884   2.310   1.646   1.544 -0.1217 -0.0142  0.0750
  527MPD2    H5 7885   2.239   1.626   1.474  1.3431 -1.0417 -1.1259
  527MPD2    N1 7886   2.051   2.041   1.616 -0.1316 -0.0703  0.3619
  527MPD2    H7 7887   1.998   2.004   1.537  0.6878 -1.0047  0.2480
  528TMC3    C1 7888   1.913   2.223   1.588  0.3525 -0.3078 -0.4382
  528TMC3    C2 7889   1.915   2.217   1.452 -0.1301  0.4526  0.3721
  528TMC3    C3 7890   1.808   2.280   1.388 -0.0897  0.2034  0.4154
  528TMC3    C4 7891   1.824   2.298   1.654  0.1345 -0.0381 -0.0974
  528TMC3    C5 7892   1.723   2.364   1.585  0.0176  0.0033 -0.5038
  528TMC3    C6 7893   1.716   2.350   1.448  0.1449  0.0946  0.3293
  528TMC3     C 7894   2.013   2.163   1.664  0.1926 -0.2959  0.5687
  528TMC3     O 7895   2.048   2.212   1.771 -0.0196 -0.2748 -0.5938
  528TMC3     H 7896   1.990   2.161   1.396  0.9093  0.6495  1.5693
  528TMC3    H1 7897   1.823   2.304   1.762  3.7211  1.7501 -0.1624
  528TMC3    H2 7898   1.643   2.400   1.386 -2.5916  0.7351  4.0416
  528TMC3    C7 7899   1.614   2.430   1.652 -0.1576 -0.4959 -0.9486
  528TMC3    C8 7900   1.802   2.260   1.242  0.0577 -0.2305 -0.0746
  528TMC3    O1 7901   1.513   2.439   1.583 -0.4208 -0.0439 -0.1089
  528TMC3    O2 7902   1.914   2.256   1.191 -0.8221  0.4548 -0.1408
  529MPD2     C 7903   3.986   4.065   1.117 -0.3230  0.2263 -0.3677
  529MPD2    C1 7904   4.117   4.107   1.134  0.3298 -0.0299  0.5537
  529MPD2    C2 7905   4.146   4.232   1.082  0.7986 -0.0455 -0.6746
  529MPD2    C3 7906   4.060   4.309   1.016 -0.0630 -0.3768  1.2649
  529MPD2    C4 7907   3.930   4.264   0.991  0.3743 -0.1122 -0.5069
  529MPD2    C5 7908   3.896   4.146   1.044 -0.6108 -0.4338 -0.3482
  529MPD2     H 7909   4.249   4.262   1.096  0.7406 -0.1685 -0.0134
  529MPD2    H1 7910   3.857   4.326   0.941  0.0500 -0.4022 -0.3923
  529MPD2    H2 7911   3.956   3.965   1.145 -0.9284  0.7426  0.8177
  529MPD2    H3 7912   3.798   4.101   1.041 -0.7751  0.3219 -4.8690
  529MPD2     N 7913   4.087   4.448   0.981 -0.5481  0.1690 -0.4002
  529MPD2    H5 7914   4.017   4.509   0.942  0.2269  1.0450 -0.4212
  529MPD2    N1 7915   4.215   4.036   1.212  0.0388  0.2121 -0.0883
  529MPD2    H7 7916   4.307   4.079   1.213 -0.4454  1.1944  1.1939
  530TMC3    C1 7917   4.294   3.868   1.371 -0.8767 -0.2311 -0.4780
  530TMC3    C2 7918   4.418   3.902   1.342 -0.2054  0.0741  0.3441
  530TMC3    C3 7919   4.520   3.874   1.430 -0.4387  0.1644 -0.7962
  530TMC3    C4 7920   4.264   3.807   1.490  0.3888 -0.1198  0.4482
  530TMC3    C5 7921   4.370   3.791   1.584  0.0992  0.4194 -0.0036
  530TMC3    C6 7922   4.497   3.818   1.556 -0.7537  0.2423  0.1837
  530TMC3     C 7923   4.185   3.928   1.301  0.4068  0.2730  0.8075
  530TMC3     O 7924   4.069   3.890   1.323  0.4453  0.5344  0.6094
  530TMC3     H 7925   4.442   3.935   1.241  1.8016 -0.7442  0.5547
  530TMC3    H1 7926   4.159   3.786   1.504  0.1672  1.5820  1.3691
  530TMC3    H2 7927   4.571   3.793   1.631 -1.1402 -1.4847 -0.0053
  530TMC3    C7 7928   4.338   3.721   1.714  0.7222  0.6652  0.1996
  530TMC3    C8 7929   4.634   3.966   1.435  0.1317 -0.4739  0.0092
  530TMC3    O1 7930   4.424   3.695   1.796  0.1124 -0.0520 -0.3648
  530TMC3    O2 7931   4.628   4.077   1.382 -0.4893  0.7254 -0.8518
  531MPD2     C 7932   2.729   1.860  12.973 -0.1231  0.3358  0.1505
  531MPD2    C1 7933   2.672   1.886  13.095  0.3719 -0.7367  0.2236
  531MPD2    C2 7934   2.537   1.923  13.104  0.2917 -0.3857 -0.2348
  531MPD2    C3 7935   2.468   1.938  12.985  0.6272  0.1952  0.1797
  531MPD2    C4 7936   2.523   1.899  12.862 -0.2159  0.5381  0.5423
  531MPD2    C5 7937   2.658   1.864  12.856  0.1047  0.1054 -0.1134
  531MPD2     H 7938   2.497   1.966  13.194 -1.7004 -0.3094 -1.1537
  531MPD2    H1 7939   2.469   1.874  12.771 -1.1669  2.3505  0.6099
  531MPD2    H2 7940   2.833   1.836  12.956 -0.4822 -1.5858  0.6653
  531MPD2    H3 7941   2.702   1.841  12.760  1.8865  1.0216  0.4741
  531MPD2     N 7942   2.338   1.973  13.004 -0.1413  0.0486 -0.0875
  531MPD2    H5 7943   2.304   2.013  13.091  0.9718  0.4358  0.1643
  531MPD2    N1 7944   2.748   1.867  13.215 -0.0434  0.4377  0.0591
  531MPD2    H7 7945   2.847   1.848  13.203  0.4800  4.7869 -2.4710
  532TMC3    C1 7946   2.806   1.877  13.448 -0.7803  0.0543  0.5554
  532TMC3    C2 7947   2.746   1.935  13.555  0.1022 -0.3009  0.7114
  532TMC3    C3 7948   2.803   2.049  13.609 -0.7822 -0.5562  0.2591
  532TMC3    C4 7949   2.935   1.905  13.419  0.0351 -1.0772 -0.8001
  532TMC3    C5 7950   2.981   2.023  13.470  0.2523  1.0103 -0.3473
  532TMC3    C6 7951   2.918   2.107  13.562  0.0020 -0.5515 -0.0269
  532TMC3     C 7952   2.703   1.874  13.343  0.2798 -0.4116 -0.2273
  532TMC3     O 7953   2.585   1.898  13.382 -0.2972  0.0534 -0.2549
  532TMC3     H 7954   2.648   1.903  13.586  0.6330 -3.0656 -0.4192
  532TMC3    H1 7955   2.972   1.865  13.326  1.0458 -3.1334  0.4943
  532TMC3    H2 7956   2.963   2.195  13.607  3.0215 -2.1246  0.0231
  532TMC3    C7 7957   3.117   2.055  13.438 -0.6410  0.2195 -0.3532
  532TMC3    C8 7958   2.703   2.144  13.653  0.4704  0.5029 -1.2074
  532TMC3    O1 7959   3.154   2.171  13.427  0.2541  0.1934  0.5039
  532TMC3    O2 7960   2.726   2.216  13.749 -0.2370 -0.6272  0.3063
  533TMC3    C1 7961   4.057   4.112  14.304 -0.2787 -0.4003 -0.3824
  533TMC3    C2 7962   4.188   4.148  14.285 -0.0910 -0.2248  0.0654
  533TMC3    C3 7963   4.224   4.275  14.323 -0.3864 -0.6978  0.3252
  533TMC3    C4 7964   3.965   4.201  14.362 -0.3405 -0.1999  0.4663
  533TMC3    C5 7965   4.007   4.323  14.399  0.2638  0.3401 -0.0950
  533TMC3    C6 7966   4.131   4.363  14.368 -0.1686 -0.3582  0.2287
  533TMC3     C 7967   4.027   3.972  14.319  0.0504  0.4029  0.3859
  533TMC3     O 7968   4.119   3.893  14.341 -0.3186 -0.0608 -0.0444
  533TMC3     H 7969   4.266   4.076  14.261  1.4690  1.1291  1.0593
  533TMC3    H1 7970   3.863   4.169  14.381 -0.1165 -0.3425  1.4249
  533TMC3    H2 7971   4.161   4.461  14.402  0.2692  0.5900 -2.9499
  533TMC3    C7 7972   3.929   4.380  14.504  0.1639 -0.1567  0.6875
  533TMC3    C8 7973   4.365   4.311  14.321 -0.3139 -0.6962 -0.9183
  533TMC3    O1 7974   3.809   4.355  14.504 -0.9897 -0.1003 -0.0982
  533TMC3    O2 7975   4.443   4.220  14.349 -0.4931  0.5327 -0.6143
  534MPD2     C 7976   2.751   0.091   1.183  0.6582  0.5823  0.2891
  534MPD2    C1 7977   2.651   0.150   1.266  0.0142  0.2225 -0.5218
  534MPD2    C2 7978   2.517   0.104   1.251 -0.3229  0.1031 -0.1139
  534MPD2    C3 7979   2.485   0.007   1.159 -0.5364  0.3015 -0.1537
  534MPD2    C4 7980   2.588   4.686   1.082 -0.8901 -0.4607  0.1069
  534MPD2    C5 7981   2.714   0.004   1.086 -0.1580  0.1763  0.1588
  534MPD2     H 7982   2.443   0.148   1.317 -2.0003 -1.1571 -1.1533
  534MPD2    H1 7983   2.560   4.616   1.005  1.2330 -1.9185  0.6611
  534MPD2    H2 7984   2.855   0.119   1.177  0.9252 -0.8850 -1.9807
  534MPD2    H3 7985   2.786   4.692   1.019 -2.5267 -0.7875 -1.7454
  534MPD2     N 7986   2.348   4.697   1.145 -0.5232 -0.5400 -0.1190
  534MPD2    H5 7987   2.333   4.620   1.080 -0.7265 -0.4542 -0.1736
  534MPD2    N1 7988   2.677   0.253   1.358  0.4595  0.0846  0.1600
  534MPD2    H7 7989   2.604   0.283   1.422  1.2846  0.3527  0.9823
  535TMC3    C1 7990   2.120   4.684   1.166 -0.3228 -0.2237  0.4747
  535TMC3    C2 7991   2.036   4.597   1.236  0.1173  0.6122  0.0466
  535TMC3    C3 7992   1.933   4.542   1.165 -0.3033 -0.6897  0.2384
  535TMC3    C4 7993   2.102   4.724   1.039 -0.1211 -0.4453  0.0070
  535TMC3    C5 7994   1.992   4.679   0.982 -0.2223 -0.2652 -0.1718
  535TMC3    C6 7995   1.906   4.589   1.037 -0.4812 -0.1769  0.1329
  535TMC3     C 7996   2.243   4.724   1.229  0.4848 -0.5724  0.6644
  535TMC3     O 7997   2.230   0.065   1.324 -0.0205 -0.2317  0.1343
  535TMC3     H 7998   2.067   4.576   1.338  2.9495 -0.1669 -0.9897
  535TMC3    H1 7999   2.174   0.053   0.987  0.1396 -0.2380  0.6126
  535TMC3    H2 8000   1.824   4.551   0.977 -1.2701  2.5653 -0.5203
  535TMC3    C7 8001   1.949   4.733   0.853 -0.3489 -0.2575 -0.5355
  535TMC3    C8 8002   1.854   4.430   1.217 -0.2564 -0.7123 -0.8158
  535TMC3    O1 8003   1.880   4.666   0.783 -0.0569 -0.3365  0.5183
  535TMC3    O2 8004   1.744   4.419   1.163  0.0765  0.2320 -0.1329
  536MPD2     C 8005   0.811   3.629  16.081  0.1415 -0.5805  0.2327
  536MPD2    C1 8006   0.690   3.576  16.117  0.3959  1.0301  0.2091
  536MPD2    C2 8007   0.575   3.605  16.044 -0.1829  0.8959  0.6171
  536MPD2    C3 8008   0.591   3.671  15.920 -0.0748 -0.3142  0.7403
  536MPD2    C4 8009   0.714   3.724  15.887  0.3556 -0.4820  0.1677
  536MPD2    C5 8010   0.825   3.701  15.964 -0.3402  0.1947  0.3244
  536MPD2     H 8011   0.474   3.572  16.068  0.9060 -1.2165  2.2643
  536MPD2    H1 8012   0.732   3.794  15.806  0.1006  0.5841  1.0231
  536MPD2    H2 8013   0.897   3.608  16.144  1.0315  0.9638 -0.4676
  536MPD2    H3 8014   0.920   3.746  15.938  0.0149  0.2174  1.6234
  536MPD2     N 8015   0.482   3.708  15.838 -0.7490 -0.2213 -0.0619
  536MPD2    H5 8016   0.509   3.753  15.751 -0.6977  0.0268  0.0837
  536MPD2    N1 8017   0.683   3.505  16.239  0.0486 -0.1619  0.6225
  536MPD2    H7 8018   0.770   3.509  16.291  0.4838  3.6274 -0.3743
  537TMC3    C1 8019   0.586   3.367  16.414  0.2051  1.0899 -0.5898
  537TMC3    C2 8020   0.701   3.327  16.473  0.3859 -0.5739 -0.0057
  537TMC3    C3 8021   0.695   3.257  16.585  0.7771  0.1615 -0.3508
  537TMC3    C4 8022   0.462   3.342  16.470  0.2309  0.4987  0.0595
  537TMC3    C5 8023   0.464   3.260  16.582 -0.0688 -0.0575  0.0264
  537TMC3    C6 8024   0.579   3.228  16.648  0.2655 -0.2432  0.8016
  537TMC3     C 8025   0.573   3.431  16.283  0.7257 -0.2084 -1.0343
  537TMC3     O 8026   0.480   3.382  16.218 -0.8005  0.0408 -0.1052
  537TMC3     H 8027   0.794   3.362  16.429  1.1981 -1.2351  1.1971
  537TMC3    H1 8028   0.368   3.368  16.422 -1.1247 -1.2618  1.7633
  537TMC3    H2 8029   0.579   3.157  16.730  0.9049  1.2161  2.0709
  537TMC3    C7 8030   0.328   3.236  16.635 -0.1482  0.9234  0.3947
  537TMC3    C8 8031   0.821   3.235  16.654 -1.1895 -0.3796 -0.3341
  537TMC3    O1 8032   0.230   3.230  16.556  0.0690 -0.5368  0.7700
  537TMC3    O2 8033   0.811   3.222  16.776  0.1136 -0.3629 -0.1231
  538TMC3    C1 8034   1.719   1.298  10.888 -0.0921 -0.5194  0.8754
  538TMC3    C2 8035   1.764   1.262  10.761  0.7341  0.0405  0.0112
  538TMC3    C3 8036   1.709   1.326  10.656 -0.2611 -0.8716  0.1778
  538TMC3    C4 8037   1.624   1.394  10.911 -0.3322 -0.8387 -0.5752
  538TMC3    C5 8038   1.568   1.440  10.798 -0.0695 -0.2330 -0.6424
  538TMC3    C6 8039   1.614   1.418  10.669  0.4541  0.1709 -0.0916
  538TMC3     C 8040   1.794   1.252  11.003  0.7257 -0.3701  0.3465
  538TMC3     O 8041   1.905   1.205  10.979 -0.3056 -0.1267 -0.0926
  538TMC3     H 8042   1.844   1.190  10.755  1.1425  0.5701 -0.9427
  538TMC3    H1 8043   1.609   1.434  11.011  2.0629 -0.4648 -0.3548
  538TMC3    H2 8044   1.561   1.471  10.591  2.1129 -0.1903 -1.4515
  538TMC3    C7 8045   1.471   1.544  10.816  0.2434  0.5835  0.4993
  538TMC3    C8 8046   1.740   1.282  10.524  0.4049 -0.0059  0.8887
  538TMC3    O1 8047   1.390   1.528  10.904  0.2961  0.1564  0.0946
  538TMC3    O2 8048   1.772   1.163  10.506 -0.3215  0.3801 -0.0478
  539MPD2     C 8049   1.050   1.036  11.192  0.2581 -0.2452 -0.2883
  539MPD2    C1 8050   0.929   0.970  11.218  0.0391  0.6182  0.7463
  539MPD2    C2 8051   0.810   1.039  11.191 -0.3603 -0.2098  0.0704
  539MPD2    C3 8052   0.803   1.171  11.155 -0.2794  0.0639 -0.1849
  539MPD2    C4 8053   0.923   1.232  11.130  0.1679 -0.6234  0.3033
  539MPD2    C5 8054   1.040   1.168  11.150  0.0312  0.5076  0.2514
  539MPD2     H 8055   0.714   0.991  11.207 -0.4087 -0.5159 -1.0994
  539MPD2    H1 8056   0.933   1.327  11.078  0.3362 -1.0104 -0.3635
  539MPD2    H2 8057   1.147   0.989  11.205  0.4276  0.0770 -0.3960
  539MPD2    H3 8058   1.129   1.230  11.145 -0.5320  1.3279  0.4409
  539MPD2     N 8059   0.679   1.236  11.133  0.8650 -0.0561  0.3089
  539MPD2    H5 8060   0.601   1.172  11.140  0.7182  0.2282  1.2342
  539MPD2    N1 8061   0.920   0.840  11.264  0.8542  0.1584 -0.4416
  539MPD2    H7 8062   0.825   0.812  11.283  0.6700  0.4257 -0.9679
  540TMC3    C1 8063   0.536   1.427  11.152  0.0071  0.3722 -0.0911
  540TMC3    C2 8064   0.431   1.402  11.070 -0.2962 -0.6072 -0.3879
  540TMC3    C3 8065   0.312   1.369  11.128 -0.8283 -1.8877  0.2395
  540TMC3    C4 8066   0.524   1.428  11.289  0.5440  0.0509 -0.3716
  540TMC3    C5 8067   0.405   1.398  11.343  0.3584 -0.0650 -0.1919
  540TMC3    C6 8068   0.294   1.377  11.267  0.3986  0.3927 -1.0423
  540TMC3     C 8069   0.661   1.367  11.104 -0.2638 -0.5943 -0.0799
  540TMC3     O 8070   0.739   1.452  11.066 -0.1867  0.2572 -0.6971
  540TMC3     H 8071   0.459   1.387  10.967  0.4798  1.9400 -0.5289
  540TMC3    H1 8072   0.613   1.419  11.350  0.6038 -1.2132 -0.6516
  540TMC3    H2 8073   0.197   1.339  11.299  0.1604  1.4403 -0.5441
  540TMC3    C7 8074   0.405   1.347  11.482  0.8653  0.1780  0.3293
  540TMC3    C8 8075   0.206   1.311  11.053 -0.0595  1.0015 -0.4106
  540TMC3    O1 8076   0.317   1.262  11.498 -0.1129 -0.9322 -0.0809
  540TMC3    O2 8077   0.092   1.326  11.100 -0.0179 -0.3406 -0.0462
  541MPD2     C 8078   3.963   2.559  13.201 -0.7451  0.0375 -0.2405
  541MPD2    C1 8079   4.061   2.477  13.144  0.3311  0.4584  0.0243
  541MPD2    C2 8080   4.068   2.456  13.010  0.1808 -0.3488 -0.6392
  541MPD2    C3 8081   3.999   2.539  12.924 -0.1053  0.1987 -0.4674
  541MPD2    C4 8082   3.909   2.627  12.981 -0.3151  1.1995 -0.4443
  541MPD2    C5 8083   3.886   2.634  13.114 -0.1545 -0.1932  0.3696
  541MPD2     H 8084   4.130   2.375  12.974  0.2361  0.6878 -2.8794
  541MPD2    H1 8085   3.845   2.683  12.913 -0.0298  2.2664  0.1712
  541MPD2    H2 8086   3.946   2.567  13.308  2.2636 -0.0723  0.2355
  541MPD2    H3 8087   3.801   2.687  13.155 -1.7086 -2.8642  0.5531
  541MPD2     N 8088   4.015   2.531  12.784  0.8714 -0.0229  0.0208
  541MPD2    H5 8089   3.961   2.601  12.733 -1.6238 -0.9707  1.3531
  541MPD2    N1 8090   4.138   2.389  13.218 -0.0506 -0.5790  0.2072
  541MPD2    H7 8091   4.184   2.314  13.167  0.5756  0.4730 -0.7784
  542TMC3    C1 8092   4.123   2.500  12.573  0.3916  0.2600  0.1173
  542TMC3    C2 8093   4.052   2.611  12.526  0.7042  0.2597 -0.2542
  542TMC3    C3 8094   4.109   2.668  12.419 -0.1123  0.1858 -0.5086
  542TMC3    C4 8095   4.235   2.449  12.516  0.1795  0.5265 -0.1888
  542TMC3    C5 8096   4.288   2.515  12.412  0.1284 -0.0498 -0.0732
  542TMC3    C6 8097   4.230   2.628  12.367 -1.3940  0.1677 -0.2440
  542TMC3     C 8098   4.089   2.448  12.705  0.6526 -0.3614  0.4213
  542TMC3     O 8099   4.125   2.336  12.739  0.3144 -0.5338 -0.1556
  542TMC3     H 8100   3.958   2.637  12.572  0.3226  2.7216 -2.4488
  542TMC3    H1 8101   4.282   2.361  12.559 -0.5041  1.1757  1.8885
  542TMC3    H2 8102   4.267   2.684  12.281 -0.4145 -0.3755 -0.1803
  542TMC3    C7 8103   4.377   2.440  12.327 -0.4444 -0.3958 -0.5858
  542TMC3    C8 8104   4.020   2.715  12.312  0.2607 -0.1067  0.7652
  542TMC3    O1 8105   4.394   2.321  12.356 -0.6067  0.0986 -0.1847
  542TMC3    O2 8106   4.076   2.764  12.216  0.1107 -0.4577 -0.2823
  543TMC3    C1 8107   4.227   4.539  17.298 -0.4599 -0.0098 -0.2083
  543TMC3    C2 8108   4.328   4.503  17.387  0.1818  0.0128 -0.1442
  543TMC3    C3 8109   4.282   4.501  17.516  0.1207 -0.5657  0.3136
  543TMC3    C4 8110   4.094   4.556  17.329 -0.1815  0.0234  0.2709
  543TMC3    C5 8111   4.065   4.556  17.458  0.1373 -0.2854 -0.0838
  543TMC3    C6 8112   4.153   4.528  17.555 -0.9233 -0.6932 -0.3496
  543TMC3     C 8113   4.267   4.515  17.158  0.2507 -0.1141  0.0292
  543TMC3     O 8114   4.376   4.455  17.143  0.3758 -0.2781  0.2814
  543TMC3     H 8115   4.425   4.469  17.352  0.4411  1.6206 -1.0130
  543TMC3    H1 8116   4.016   4.554  17.253  0.0779  0.0176  0.0034
  543TMC3    H2 8117   4.127   4.534  17.660  3.0121 -0.2320  0.5954
  543TMC3    C7 8118   3.932   4.600  17.499  0.1528  0.5632  0.1288
  543TMC3    C8 8119   4.367   4.453  17.623 -0.3176  0.3671  0.3714
  543TMC3    O1 8120   3.893   4.588  17.613  0.1609 -0.3446  0.0057
  543TMC3    O2 8121   4.320   4.449  17.735  0.3574 -0.1219 -0.2466
  544MPD2     C 8122   0.085   4.259   0.020 -0.0399  0.4051 -0.2538
  544MPD2    C1 8123   4.692   4.229   0.068 -0.0495  0.1085  0.2121
  544MPD2    C2 8124   4.583   4.302   0.021 -0.3364  0.1632 -0.0045
  544MPD2    C3 8125   4.598   4.404  17.663 -0.6846  0.0923 -0.5376
  544MPD2    C4 8126   4.728   4.434  17.622 -0.1774  0.4189 -0.1847
  544MPD2    C5 8127   0.104   4.368  17.672 -0.2404  0.8374 -0.0760
  544MPD2     H 8128   4.482   4.284   0.055 -0.2762  1.7415  1.0297
  544MPD2    H1 8129   0.001   4.501  17.537  0.0374  0.7936  0.1330
  544MPD2    H2 8130   0.174   4.212   0.061 -0.4102 -0.8874 -0.9333
  544MPD2    H3 8131   0.206   4.384  17.642 -0.6681  0.3378 -1.7622
  544MPD2     N 8132   4.494   4.464  17.595 -0.4226  0.2134 -0.2423
  544MPD2    H5 8133   4.515   4.506  17.505 -1.8076 -0.6959 -0.9902
  544MPD2    N1 8134   4.676   4.119   0.162 -0.6694 -0.2765  0.3534
  544MPD2    H7 8135   0.024   4.062   0.182 -2.1445 -1.6459  2.4498
  545TMC3    C1 8136   4.567   3.956   0.298  0.4822 -0.1039 -0.3123
  545TMC3    C2 8137   4.444   3.911   0.338  0.0136 -0.1097  0.3067
  545TMC3    C3 8138   4.427   3.841   0.456 -0.1036 -0.0016  0.2739
  545TMC3    C4 8139   4.678   3.939   0.378 -0.3748  1.4240 -0.0294
  545TMC3    C5 8140   4.666   3.869   0.494 -0.7277 -0.2099 -0.4751
  545TMC3    C6 8141   4.539   3.813   0.532 -0.5379 -0.4524 -0.2578
  545TMC3     C 8142   4.561   4.081   0.221 -0.4327  0.1146 -0.4923
  545TMC3     O 8143   4.454   4.142   0.222 -0.1897  0.9939 -0.6178
  545TMC3     H 8144   4.354   3.951   0.293  1.1817  0.8688 -1.1310
  545TMC3    H1 8145   0.041   3.971   0.344  1.4724 -3.6364  0.5997
  545TMC3    H2 8146   4.530   3.799   0.639  1.8823  2.9424  0.3932
  545TMC3    C7 8147   0.042   3.845   0.574  0.1756 -0.1548 -0.5469
  545TMC3    C8 8148   4.302   3.767   0.460  0.0999  0.2413  0.6460
  545TMC3    O1 8149   0.132   3.930   0.573 -0.2480 -0.4742 -0.2294
  545TMC3    O2 8150   4.213   3.806   0.386  0.0247 -0.1471  0.3642
  546MPD2     C 8151   0.784   3.576  17.456  0.1252 -0.6415  0.6885
  546MPD2    C1 8152   0.755   3.640  17.341 -0.5052 -0.3769 -0.0072
  546MPD2    C2 8153   0.801   3.768  17.322  1.1292 -0.5896 -0.0069
  546MPD2    C3 8154   0.876   3.829  17.424 -0.1088  0.4322 -0.4568
  546MPD2    C4 8155   0.901   3.766  17.546 -0.0589 -0.4468  0.0969
  546MPD2    C5 8156   0.854   3.633  17.559  0.3606 -0.2225  0.1529
  546MPD2     H 8157   0.776   3.829  17.236  1.6458  3.0885  2.4294
  546MPD2    H1 8158   0.965   3.812  17.620 -0.4707 -0.5791  0.5308
  546MPD2    H2 8159   0.734   3.484  17.481 -0.2482 -0.8151 -0.6970
  546MPD2    H3 8160   0.877   3.572  17.645 -2.1862 -2.6905 -0.9065
  546MPD2     N 8161   0.915   3.965  17.407 -0.6116 -0.1466  0.3559
  546MPD2    H5 8162   0.957   4.017  17.483 -0.3107 -1.5833  1.1785
  546MPD2    N1 8163   0.664   3.570  17.248 -0.2276  0.1748  0.2436
  546MPD2    H7 8164   0.645   3.473  17.270 -0.9656 -0.3588 -2.7395
  547TMC3    C1 8165   0.489   3.556  17.088  0.3942 -0.4254 -0.3430
  547TMC3    C2 8166   0.440   3.578  16.958 -0.1816  0.2409 -0.2978
  547TMC3    C3 8167   0.319   3.517  16.925  0.3391  0.6481  0.5936
  547TMC3    C4 8168   0.420   3.479  17.181 -0.3036 -0.3485 -0.3469
  547TMC3    C5 8169   0.305   3.421  17.137 -0.3793 -0.5914  0.1743
  547TMC3    C6 8170   0.245   3.443  17.014 -0.5118  0.3848  0.2134
  547TMC3     C 8171   0.611   3.629  17.133 -0.4944  0.9475  0.3683
  547TMC3     O 8172   0.648   3.719  17.061 -0.3291 -0.2468 -0.6366
  547TMC3     H 8173   0.493   3.637  16.884 -1.6394  1.9658  0.0442
  547TMC3    H1 8174   0.445   3.483  17.286 -1.1297  0.7331 -0.1920
  547TMC3    H2 8175   0.146   3.404  16.995 -1.0804  1.3760  1.1130
  547TMC3    C7 8176   0.226   3.345  17.240 -0.2027  0.4307 -0.4715
  547TMC3    C8 8177   0.256   3.579  16.813  0.8696  0.4432  0.2548
  547TMC3    O1 8178   0.274   3.347  17.351  0.0987  0.1979 -0.1387
  547TMC3    O2 8179   0.318   3.650  16.737 -0.3794  0.2123  0.5087
  548MPD2     C 8180   0.052   4.258  12.751 -0.6967 -0.3578 -1.0043
  548MPD2    C1 8181   4.710   4.209  12.648  1.0207  0.6596 -0.7406
  548MPD2    C2 8182   0.034   4.121  12.556 -0.0555 -0.7408  0.3808
  548MPD2    C3 8183   0.164   4.081  12.570 -0.0152  0.1413  0.0349
  548MPD2    C4 8184   0.234   4.132  12.677 -0.4580 -0.5202 -0.3150
  548MPD2    C5 8185   0.179   4.221  12.765  0.5985  0.9061 -0.1194
  548MPD2     H 8186   4.707   4.103  12.468  0.8134  3.2417 -1.0394
  548MPD2    H1 8187   0.333   4.093  12.697 -1.0276 -1.2885  1.0407
  548MPD2    H2 8188   0.014   4.337  12.815 -0.3911 -0.3863 -0.7863
  548MPD2    H3 8189   0.236   4.252  12.852  1.0059  0.5805 -0.2669
  548MPD2     N 8190   0.224   4.014  12.463 -0.4428 -0.0915  0.1359
  548MPD2    H5 8191   0.162   3.994  12.386  0.0549  0.0577 -0.3019
  548MPD2    N1 8192   4.583   4.272  12.622  0.1855  0.1339  0.4689
  548MPD2    H7 8193   4.551   4.353  12.675 -0.3936 -0.6502  1.3172
  549TMC3    C1 8194   4.349   4.267  12.578  0.5308  0.2823 -0.9188
  549TMC3    C2 8195   4.328   4.377  12.502  0.2829  0.3943  0.0285
  549TMC3    C3 8196   4.202   4.396  12.467  0.7602  0.0391  0.2613
  549TMC3    C4 8197   4.256   4.162  12.594 -0.0709  0.0161  0.2538
  549TMC3    C5 8198   4.136   4.182  12.531 -0.1744 -0.0403  0.7589
  549TMC3    C6 8199   4.107   4.303  12.474 -0.1627  0.5509 -0.2345
  549TMC3     C 8200   4.480   4.218  12.551  0.0362  0.4937 -0.6278
  549TMC3     O 8201   4.479   4.115  12.488  0.2396 -0.0511 -0.0085
  549TMC3     H 8202   4.412   4.445  12.502 -0.1126  0.8873 -3.8494
  549TMC3    H1 8203   4.281   4.073  12.651  0.0329 -0.1051  0.0145
  549TMC3    H2 8204   4.012   4.318  12.423 -1.0264 -0.1773  1.1697
  549TMC3    C7 8205   4.037   4.080  12.536 -1.2791 -0.4359  0.2551
  549TMC3    C8 8206   4.159   4.529  12.430 -0.7499 -0.1487 -0.1282
  549TMC3    O1 8207   3.934   4.103  12.477 -0.8755  0.1350  0.5676
  549TMC3    O2 8208   4.038   4.531  12.394  1.1266  0.1021  0.9511
  550TMC3    C1 8209   3.250   1.983  12.500 -0.4840  0.4757  0.4314
  550TMC3    C2 8210   3.317   2.012  12.618  0.0350  0.3874  0.1673
  550TMC3    C3 8211   3.409   2.118  12.619  0.6876  0.2807  0.1161
  550TMC3    C4 8212   3.258   2.070  12.391  0.0061  0.7434  0.5785
  550TMC3    C5 8213   3.359   2.159  12.393 -0.5260  0.7367  0.2684
  550TMC3    C6 8214   3.437   2.188  12.504  0.4742  0.6736 -0.3102
  550TMC3     C 8215   3.109   1.954  12.537  0.5124  0.5674 -0.1771
  550TMC3     O 8216   3.093   1.982  12.655 -0.3952 -0.2516  0.2905
  550TMC3     H 8217   3.311   1.939  12.697 -0.8481  0.1568 -0.1180
  550TMC3    H1 8218   3.216   2.041  12.296 -1.1811  1.8987  0.7413
  550TMC3    H2 8219   3.510   2.268  12.501  0.2998  0.8388 -0.0922
  550TMC3    C7 8220   3.348   2.283  12.317 -0.4316  0.4227  0.3386
  550TMC3    C8 8221   3.384   2.210  12.725  0.2952  0.5571 -0.2924
  550TMC3    O1 8222   3.451   2.346  12.294  0.0670 -0.0279  0.6010
  550TMC3    O2 8223   3.461   2.303  12.735 -0.1276  0.2222 -0.1052
  551TMC3    C1 8224   0.932   0.153  13.401  0.6773  0.8437 -0.5901
  551TMC3    C2 8225   1.054   0.141  13.343  0.0940 -0.3395 -0.1698
  551TMC3    C3 8226   1.164   0.173  13.413  0.3191  0.0952 -0.4547
  551TMC3    C4 8227   0.917   0.213  13.519 -0.1100 -0.0274 -0.0250
  551TMC3    C5 8228   1.028   0.219  13.601  0.5049 -0.5784  0.2625
  551TMC3    C6 8229   1.156   0.190  13.549  0.6310  0.6248  0.1700
  551TMC3     C 8230   0.820   0.113  13.316 -0.8353 -0.2485  0.7924
  551TMC3     O 8231   0.842   0.042  13.220 -0.5693 -0.3820 -0.4195
  551TMC3     H 8232   1.062   0.108  13.240 -1.6694  0.8458 -0.6831
  551TMC3    H1 8233   0.824   0.217  13.574 -0.5381 -0.1113 -0.7595
  551TMC3    H2 8234   1.251   0.203  13.601  1.2896  0.3931 -0.9678
  551TMC3    C7 8235   1.016   0.277  13.733  0.1164 -0.8711  0.3007
  551TMC3    C8 8236   1.290   0.179  13.343  0.1578 -0.0574  0.4203
  551TMC3    O1 8237   1.115   0.262  13.803 -0.7529 -0.3124  0.0539
  551TMC3    O2 8238   1.295   0.107  13.243 -0.2712  0.8193 -0.5923
  552MPD2     C 8239   3.529   2.247  13.781 -0.6710  0.2120  0.4957
  552MPD2    C1 8240   3.509   2.182  13.901 -0.2440  0.4669  0.0142
  552MPD2    C2 8241   3.596   2.203  14.010 -0.2185 -0.0224 -0.3760
  552MPD2    C3 8242   3.706   2.289  13.996 -0.0094  0.4667  0.1534
  552MPD2    C4 8243   3.724   2.350  13.872  0.2905 -0.5829 -0.5479
  552MPD2    C5 8244   3.640   2.328  13.768  0.2363 -0.2448 -0.2852
  552MPD2     H 8245   3.572   2.163  14.108 -0.6031  1.7630  0.2568
  552MPD2    H1 8246   3.803   2.422  13.852 -0.6289  0.0497 -1.9332
  552MPD2    H2 8247   3.475   2.228  13.689 -1.2793 -0.6477  1.0293
  552MPD2    H3 8248   3.653   2.381  13.675 -2.4758  0.5386 -0.2245
  552MPD2     N 8249   3.805   2.324  14.092 -0.1678  0.3133  0.6170
  552MPD2    H5 8250   3.883   2.376  14.054 -1.5178  0.5055 -1.8542
  552MPD2    N1 8251   3.399   2.096  13.934 -0.2011  0.1533 -0.5350
  552MPD2    H7 8252   3.407   2.052  14.025 -0.4031  1.5664  0.1725
  553TMC3    C1 8253   3.203   1.977  13.904  0.7032  0.7977 -0.4299
  553TMC3    C2 8254   3.138   1.911  13.808  0.1586  0.1225  0.6173
  553TMC3    C3 8255   3.065   1.800  13.843 -0.7872  0.0045 -0.1136
  553TMC3    C4 8256   3.213   1.937  14.031  0.0375  0.3265  0.2303
  553TMC3    C5 8257   3.139   1.832  14.062 -0.3838  0.0820  0.6461
  553TMC3    C6 8258   3.073   1.755  13.972 -0.5403  0.8306  0.0030
  553TMC3     C 8259   3.296   2.071  13.853 -0.7263 -0.4887  0.0266
  553TMC3     O 8260   3.263   2.117  13.748 -0.0290  0.4996 -0.0714
  553TMC3     H 8261   3.142   1.944  13.705  2.0875 -2.8719 -0.2631
  553TMC3    H1 8262   3.253   2.002  14.108 -0.7517 -0.9178  1.7068
  553TMC3    H2 8263   3.035   1.661  14.010  1.2423  0.3239  0.5253
  553TMC3    C7 8264   3.155   1.756  14.180 -0.1973 -0.1503  0.2685
  553TMC3    C8 8265   3.051   1.700  13.738  0.2041  0.5745  0.3316
  553TMC3    O1 8266   3.051   1.711  14.225 -0.0376  0.1077  0.1807
  553TMC3    O2 8267   3.125   1.720  13.640  0.0696 -0.5084 -0.0225
  554TMC3    C1 8268   4.698   1.338  11.549 -0.3302  0.1421 -0.0150
  554TMC3    C2 8269   4.587   1.328  11.474  0.3362 -0.3543  0.3284
  554TMC3    C3 8270   4.561   1.434  11.389 -0.0187 -0.0943 -0.0571
  554TMC3    C4 8271   0.037   1.453  11.541 -0.8016 -0.0928 -0.7229
  554TMC3    C5 8272   0.007   1.563  11.464  0.5470 -0.2429  0.8937
  554TMC3    C6 8273   4.630   1.552  11.385 -0.8597 -0.3839  0.9144
  554TMC3     C 8274   0.012   1.236  11.637  0.6471 -0.2453  0.5407
  554TMC3     O 8275   0.077   1.266  11.738  0.3041 -0.0147 -0.0876
  554TMC3     H 8276   4.506   1.257  11.488 -0.3929  0.5447  0.6685
  554TMC3    H1 8277   0.125   1.456  11.603 -1.1618 -0.2873 -0.2002
  554TMC3    H2 8278   4.619   1.629  11.309 -0.0685 -0.4587  0.7136
  554TMC3    C7 8279   0.115   1.623  11.384 -0.1881  0.2242 -0.6305
  554TMC3    C8 8280   4.479   1.414  11.281 -0.4890  0.5208  0.4854
  554TMC3    O1 8281   0.103   1.642  11.263 -0.1683  0.5452  0.2312
  554TMC3    O2 8282   4.444   1.512  11.218  0.5389  0.5358 -0.4581
  555TMC3    C1 8283   3.790   1.170  15.076 -0.2766  0.0448  0.1106
  555TMC3    C2 8284   3.832   1.264  15.167  0.0299 -0.3995 -0.2144
  555TMC3    C3 8285   3.895   1.205  15.273 -0.0358 -0.4550  0.9534
  555TMC3    C4 8286   3.812   1.039  15.088  0.1443 -0.0013 -0.0431
  555TMC3    C5 8287   3.884   0.992  15.190  0.2617 -0.3754 -1.0101
  555TMC3    C6 8288   3.934   1.075  15.282  0.1977  0.0918  0.1414
  555TMC3     C 8289   3.740   1.217  14.951 -0.6085  0.2489  0.4638
  555TMC3     O 8290   3.712   1.125  14.870 -0.3082  0.8037 -0.1214
  555TMC3     H 8291   3.777   1.356  15.177  0.8637 -0.2106  2.7392
  555TMC3    H1 8292   3.770   0.975  15.011 -0.6723  0.8846 -0.3307
  555TMC3    H2 8293   3.968   1.030  15.375  2.1209 -0.0722 -0.6462
  555TMC3    C7 8294   3.928   0.859  15.182 -0.5952 -0.3094 -0.7766
  555TMC3    C8 8295   3.948   1.292  15.381 -0.0934 -0.5920  0.0714
  555TMC3    O1 8296   3.862   0.783  15.112 -0.1694  1.0291 -0.8034
  555TMC3    O2 8297   3.915   1.409  15.379  0.4211 -0.1793 -0.0397
  556MPD2     C 8298   1.736   2.488  10.386  0.3513 -0.3655 -0.2116
  556MPD2    C1 8299   1.763   2.354  10.421 -0.4072 -0.1822 -0.0938
  556MPD2    C2 8300   1.740   2.256  10.328  0.4554  0.7420  0.8034
  556MPD2    C3 8301   1.700   2.279  10.200 -0.2521  0.1520 -0.3877
  556MPD2    C4 8302   1.666   2.411  10.165 -0.5068 -0.6597 -0.0925
  556MPD2    C5 8303   1.683   2.510  10.264  0.1875 -0.4488 -0.1620
  556MPD2     H 8304   1.753   2.150  10.345  0.9140  0.5260 -0.9921
  556MPD2    H1 8305   1.630   2.442  10.067  0.5252  0.3513 -0.1596
  556MPD2    H2 8306   1.744   2.564  10.463 -2.6486  0.4736 -0.7088
  556MPD2    H3 8307   1.658   2.613  10.242 -0.4100 -0.2824  1.3376
  556MPD2     N 8308   1.684   2.175  10.108 -0.5764  0.1775  0.1954
  556MPD2    H5 8309   1.713   2.083  10.137 -1.1716 -0.3317 -0.8403
  556MPD2    N1 8310   1.794   2.314  10.553  0.5143  0.6301 -0.0303
  556MPD2    H7 8311   1.802   2.215  10.572 -0.2581  0.5895  0.0589
  557TMC3    C1 8312   1.627   2.053   9.911  0.1103 -0.2518 -0.3463
  557TMC3    C2 8313   1.644   2.046   9.774 -0.4517 -0.6975 -0.9229
  557TMC3    C3 8314   1.661   1.918   9.723  0.1098  0.4256  0.7228
  557TMC3    C4 8315   1.641   1.948  10.000  0.5284 -0.5942 -0.5938
  557TMC3    C5 8316   1.659   1.824   9.943 -0.5144  0.5491 -0.5450
  557TMC3    C6 8317   1.680   1.812   9.810  0.4981  0.2306 -0.2396
  557TMC3     C 8318   1.648   2.187   9.974  0.5755 -0.2624 -0.0827
  557TMC3     O 8319   1.632   2.290   9.907 -0.0499 -0.1736  0.8037
  557TMC3     H 8320   1.645   2.138   9.717 -1.2033 -1.4662 -2.1663
  557TMC3    H1 8321   1.600   1.955  10.100  0.6757  0.3167 -0.5948
  557TMC3    H2 8322   1.715   1.714   9.778 -0.1047  0.2546 -0.9846
  557TMC3    C7 8323   1.682   1.713  10.034  0.7134  0.3735 -0.1870
  557TMC3    C8 8324   1.731   1.908   9.589 -0.2362  0.1593 -0.1228
  557TMC3    O1 8325   1.689   1.750  10.151  0.0836  0.3393 -0.4448
  557TMC3    O2 8326   1.762   2.013   9.537 -0.5172  0.1721  0.3186
  558TMC3    C1 8327   3.893   4.455   9.762 -0.3796 -0.4320  0.1412
  558TMC3    C2 8328   3.864   4.392   9.883  0.2600 -0.2624 -0.5853
  558TMC3    C3 8329   3.780   4.453   9.968 -0.4473 -0.4942  0.1594
  558TMC3    C4 8330   3.825   4.568   9.716  0.2430 -0.4544  0.3157
  558TMC3    C5 8331   3.727   4.613   9.797  0.4973  0.3179 -0.6242
  558TMC3    C6 8332   3.709   4.568   9.927 -0.7359 -0.0633  0.3563
  558TMC3     C 8333   4.027   4.423   9.710  1.0054 -0.4403  0.0797
  558TMC3     O 8334   4.109   4.516   9.691 -0.2571  0.1447 -0.0467
  558TMC3     H 8335   3.920   4.304   9.911 -0.8448 -0.6409  0.4476
  558TMC3    H1 8336   3.843   4.614   9.619 -1.3719  1.5080  0.9376
  558TMC3    H2 8337   3.644   4.621   9.995  1.0621 -1.0179  2.7776
  558TMC3    C7 8338   3.640   4.718   9.744  0.2549 -0.3891 -0.2387
  558TMC3    C8 8339   3.721   4.375  10.089 -0.1268 -0.3681  0.2199
  558TMC3    O1 8340   3.695   0.056   9.662  0.3257  0.4839  0.1218
  558TMC3    O2 8341   3.699   4.254  10.083 -0.0118  0.3660  0.3538
  559MPD2     C 8342   4.025   1.075  10.340 -0.1383 -0.2235  0.3235
  559MPD2    C1 8343   3.960   0.951  10.374 -0.1909 -0.5282  0.2970
  559MPD2    C2 8344   4.034   0.865  10.458 -0.1716 -0.2442 -0.6840
  559MPD2    C3 8345   4.164   0.896  10.502 -0.4475  0.2263 -0.5171
  559MPD2    C4 8346   4.222   1.017  10.465 -0.4502 -0.1614  0.3489
  559MPD2    C5 8347   4.154   1.105  10.383 -0.3255 -0.0081  0.6814
  559MPD2     H 8348   3.999   0.769  10.495  1.3599 -0.9012 -0.9435
  559MPD2    H1 8349   4.314   1.053  10.509 -0.1699  0.5284 -0.8024
  559MPD2    H2 8350   3.971   1.147  10.280  0.5860  0.4571  0.4749
  559MPD2    H3 8351   4.194   1.202  10.353 -0.9074  0.1269  0.3406
  559MPD2     N 8352   4.215   0.808  10.599 -0.1352  0.3495  0.6680
  559MPD2    H5 8353   4.156   0.729  10.620 -1.3426  1.2226  0.5845
  559MPD2    N1 8354   3.824   0.934  10.348  0.5659 -0.0687  0.3423
  559MPD2    H7 8355   3.769   1.008  10.306  2.6866  0.1880 -1.9253
  560TMC3    C1 8356   4.332   0.720  10.779  0.4121 -0.8840  0.4257
  560TMC3    C2 8357   4.209   0.677  10.824  0.1962 -0.0356  0.3429
  560TMC3    C3 8358   4.214   0.572  10.914 -0.3185 -0.1893 -0.4459
  560TMC3    C4 8359   4.448   0.682  10.838 -0.0981  0.3588 -0.3481
  560TMC3    C5 8360   4.447   0.579  10.925  0.0992  0.7462  0.4439
  560TMC3    C6 8361   4.330   0.522  10.967  0.0164  0.5706 -0.7984
  560TMC3     C 8362   4.325   0.823  10.675  0.3405 -0.3303 -0.0086
  560TMC3     O 8363   4.430   0.877  10.639 -0.1200  1.5189  0.1433
  560TMC3     H 8364   4.116   0.722  10.792 -0.1120 -1.6477 -1.0258
  560TMC3    H1 8365   4.534   0.736  10.802 -1.2316  2.4920  0.1320
  560TMC3    H2 8366   4.336   0.435  11.031  1.0187  0.6816 -0.7376
  560TMC3    C7 8367   4.560   0.538  10.995 -0.6121 -0.8760  0.4584
  560TMC3    C8 8368   4.096   0.521  10.970  0.4333  0.1266 -0.3920
  560TMC3    O1 8369   4.546   0.461  11.088 -1.0344 -0.4086  0.2234
  560TMC3    O2 8370   4.098   0.401  11.006 -0.4253 -0.3203  0.4539
  561TMC3    C1 8371   2.333   4.507  11.575  0.1080  0.2829  0.3850
  561TMC3    C2 8372   2.272   4.423  11.667  0.0498 -0.4287  0.9290
  561TMC3    C3 8373   2.132   4.425  11.660  0.2673  0.1338 -0.7760
  561TMC3    C4 8374   2.259   4.569  11.472  0.4080  0.2993 -0.0687
  561TMC3    C5 8375   2.120   4.558  11.464  0.2081 -0.6850 -0.2643
  561TMC3    C6 8376   2.061   4.480  11.557 -0.2521  0.3038 -0.1553
  561TMC3     C 8377   2.479   4.512  11.584  0.7482 -0.0776  0.6895
  561TMC3     O 8378   2.531   4.404  11.621 -0.2666  0.0472 -0.2403
  561TMC3     H 8379   2.323   4.372  11.748  0.8851  0.4876  0.9730
  561TMC3    H1 8380   2.319   4.620  11.396  0.1661 -0.0148 -0.4679
  561TMC3    H2 8381   1.952   4.474  11.560 -0.3720  2.2952 -1.0658
  561TMC3    C7 8382   2.042   4.650  11.380 -0.4957 -0.7516  0.5802
  561TMC3    C8 8383   2.056   4.351  11.758  0.2230 -0.4673 -0.1500
  561TMC3    O1 8384   1.917   4.644  11.394  0.7142  0.0638 -0.1786
  561TMC3    O2 8385   2.109   4.256  11.813 -0.2015 -0.2132  0.0862
  562TMC3    C1 8386   3.972   1.846  16.543  0.1384 -0.6823  0.4200
  562TMC3    C2 8387   3.942   1.916  16.432  0.8896  0.4388  0.6857
  562TMC3    C3 8388   3.910   1.852  16.319 -0.6328 -0.1255  0.0707
  562TMC3    C4 8389   3.952   1.713  16.546  0.2074  0.3490  0.3241
  562TMC3    C5 8390   3.900   1.653  16.435 -0.4623 -0.3358  0.3136
  562TMC3    C6 8391   3.879   1.723  16.321 -0.0278 -0.2856 -0.1493
  562TMC3     C 8392   3.996   1.906  16.675  1.1024 -0.0205 -0.8806
  562TMC3     O 8393   4.069   1.850  16.758  0.2392 -0.6875 -0.0342
  562TMC3     H 8394   3.941   2.025  16.428  1.2978  0.4563  1.0138
  562TMC3    H1 8395   3.968   1.673  16.645  0.9881 -1.4437 -0.5431
  562TMC3    H2 8396   3.815   1.685  16.242 -1.4048  1.4255  0.1514
  562TMC3    C7 8397   3.814   1.542  16.460 -0.0730  1.1110  0.0132
  562TMC3    C8 8398   3.842   1.938  16.223  0.7859  0.0162  1.1755
  562TMC3    O1 8399   3.720   1.515  16.389  0.3512  0.7782  0.2938
  562TMC3    O2 8400   3.751   2.007  16.266  0.9925 -0.7475  0.1118
  563MPD2     C 8401   1.940   2.326  15.579  0.4441  0.3360  0.2236
  563MPD2    C1 8402   1.926   2.328  15.716 -0.0819 -0.1910 -0.1758
  563MPD2    C2 8403   2.030   2.362  15.800  0.9577  0.4780 -0.5445
  563MPD2    C3 8404   2.161   2.377  15.752 -0.5074 -0.2508 -0.0769
  563MPD2    C4 8405   2.178   2.371  15.614 -0.5439  1.1184 -1.2236
  563MPD2    C5 8406   2.066   2.362  15.536  0.1012 -0.4482  0.1705
  563MPD2     H 8407   2.017   2.361  15.908 -2.8949  1.4270 -1.0184
  563MPD2    H1 8408   2.273   2.409  15.578 -0.0860 -0.2983 -1.5048
  563MPD2    H2 8409   1.858   2.310  15.511 -2.1844  0.4227  3.3813
  563MPD2    H3 8410   2.085   2.373  15.430 -0.3177  2.7390  0.4522
  563MPD2     N 8411   2.259   2.386  15.848  0.1588  0.2545  0.8031
  563MPD2    H5 8412   2.230   2.371  15.943  0.5716 -1.1565  0.6992
  563MPD2    N1 8413   1.817   2.277  15.792 -0.1081 -0.0264  0.4444
  563MPD2    H7 8414   1.817   2.293  15.892  0.9628 -1.2307  0.6326
  564TMC3    C1 8415   1.694   2.095  15.841 -0.4214  1.1642  0.1736
  564TMC3    C2 8416   1.579   2.029  15.815  0.2724  0.1416 -0.4683
  564TMC3    C3 8417   1.552   1.930  15.903  0.5257 -0.4947 -0.2243
  564TMC3    C4 8418   1.776   2.076  15.951  0.1253 -0.2031 -0.4480
  564TMC3    C5 8419   1.733   1.980  16.039  0.0317 -0.6403 -0.1762
  564TMC3    C6 8420   1.636   1.892  16.009  0.3174 -0.3276  0.1606
  564TMC3     C 8421   1.722   2.194  15.738  0.4187 -0.6283  0.7600
  564TMC3     O 8422   1.676   2.173  15.627  0.2991 -0.3974  0.7971
  564TMC3     H 8423   1.519   2.050  15.727  0.6769 -0.5853 -0.9133
  564TMC3    H1 8424   1.871   2.124  15.971  0.2298 -0.1589 -1.0680
  564TMC3    H2 8425   1.608   1.808  16.072  1.3406  0.6022  1.8681
  564TMC3    C7 8426   1.831   1.940  16.144  0.2527 -0.1241  0.5793
  564TMC3    C8 8427   1.455   1.824  15.871  0.2219  0.2199  0.1387
  564TMC3    O1 8428   1.941   1.994  16.145 -0.0030  0.1270 -0.1224
  564TMC3    O2 8429   1.408   1.766  15.969  0.4568 -0.8916  0.2914
  565TMC3    C1 8430   2.002   4.114  10.574 -0.1498 -0.1202  0.6885
  565TMC3    C2 8431   1.980   4.007  10.664  0.0917  0.4377 -0.6379
  565TMC3    C3 8432   1.915   3.902  10.607 -0.0316 -0.5437  0.3291
  565TMC3    C4 8433   1.988   4.112  10.443 -0.8588  0.3215 -0.4382
  565TMC3    C5 8434   1.944   3.995  10.391 -0.0793 -0.2162  0.1902
  565TMC3    C6 8435   1.888   3.895  10.468 -0.1122 -0.6842 -0.5693
  565TMC3     C 8436   2.079   4.221  10.629 -0.4370  0.0536  0.5043
  565TMC3     O 8437   2.148   4.284  10.552  0.2115 -0.3198 -0.1420
  565TMC3     H 8438   1.998   4.016  10.771 -3.6694 -0.9602  0.0935
  565TMC3    H1 8439   2.021   4.199  10.387 -1.1906  1.2194  0.7827
  565TMC3    H2 8440   1.858   3.801  10.422 -0.1055 -0.8259 -0.2834
  565TMC3    C7 8441   1.905   4.008  10.249 -0.1558 -0.1951  0.1118
  565TMC3    C8 8442   1.857   3.801  10.691  0.1310 -0.2262  0.3393
  565TMC3    O1 8443   1.976   4.087  10.185 -0.3385 -0.1930  0.0891
  565TMC3    O2 8444   1.896   3.812  10.804  0.4742 -0.4814 -0.1219
  566MPD2     C 8445   3.274   0.207  14.424 -0.0790  0.3719 -0.1916
  566MPD2    C1 8446   3.347   0.150  14.319 -0.0967  0.5883  0.3112
  566MPD2    C2 8447   3.300   0.032  14.261  0.7500  0.1777  0.4432
  566MPD2    C3 8448   3.183   4.710  14.309 -0.0439  0.0774  0.4581
  566MPD2    C4 8449   3.111   0.033  14.409 -0.3281 -0.3352  0.1176
  566MPD2    C5 8450   3.154   0.152  14.467  0.6786  0.0026  0.3387
  566MPD2     H 8451   3.363   4.721  14.186 -0.0001  0.2803 -0.2514
  566MPD2    H1 8452   3.018   4.723  14.445  0.6551 -0.3366  2.6975
  566MPD2    H2 8453   3.312   0.296  14.473  2.3231  0.3210 -1.9976
  566MPD2    H3 8454   3.107   0.191  14.557 -1.9853 -0.1752 -0.9518
  566MPD2     N 8455   3.131   4.594  14.247  0.1784 -0.3436 -0.2565
  566MPD2    H5 8456   3.035   4.569  14.271 -0.1647  3.0628  1.8391
  566MPD2    N1 8457   3.468   0.217  14.283 -0.3769  0.5883  0.3452
  566MPD2    H7 8458   3.504   0.289  14.345  2.3076  0.3926 -0.9938
  567TMC3    C1 8459   3.671   0.244  14.166  0.3975 -0.2509 -0.2872
  567TMC3    C2 8460   3.750   0.215  14.059 -0.0446 -0.4160 -0.6349
  567TMC3    C3 8461   3.877   0.259  14.062 -0.5391 -1.1264 -0.4375
  567TMC3    C4 8462   3.722   0.321  14.267  0.1905 -0.3540  0.3859
  567TMC3    C5 8463   3.855   0.363  14.271  0.3836 -0.1978  0.7891
  567TMC3    C6 8464   3.935   0.329  14.165 -0.2688  0.1315  0.0798
  567TMC3     C 8465   3.539   0.175  14.169  0.5240  0.8424  0.6552
  567TMC3     O 8466   3.495   0.124  14.066 -0.3992 -0.6680  0.2486
  567TMC3     H 8467   3.709   0.153  13.980 -2.3075 -1.5427  1.3998
  567TMC3    H1 8468   3.654   0.344  14.348 -0.0749 -1.6514  0.5262
  567TMC3    H2 8469   4.041   0.355  14.163 -0.0663 -0.4933  3.1155
  567TMC3    C7 8470   3.905   0.432  14.379  0.0889 -0.2415  0.7444
  567TMC3    C8 8471   3.953   0.222  13.943 -0.2673 -0.4470 -0.0143
  567TMC3    O1 8472   4.022   0.474  14.364  0.5975 -0.1331 -0.0519
  567TMC3    O2 8473   4.073   0.212  13.955  0.3011 -0.3000 -0.1116
  568MPD2     C 8474   1.233   0.510  16.235 -0.4065  0.0651  0.7146
  568MPD2    C1 8475   1.280   0.627  16.279 -0.6496  0.1883 -0.0690
  568MPD2    C2 8476   1.246   0.746  16.223 -0.1138  0.3492  0.5290
  568MPD2    C3 8477   1.159   0.741  16.120  0.1416 -0.3942 -0.1597
  568MPD2    C4 8478   1.106   0.630  16.071 -0.3971 -0.4697 -0.3162
  568MPD2    C5 8479   1.159   0.512  16.117 -1.4169 -0.3172 -0.1430
  568MPD2     H 8480   1.276   0.837  16.274 -0.5358  0.1698  1.0996
  568MPD2    H1 8481   1.019   0.631  16.006  0.2628 -0.9496 -1.2193
  568MPD2    H2 8482   1.273   0.418  16.276 -1.9311 -1.0051 -0.2447
  568MPD2    H3 8483   1.131   0.414  16.081 -0.2181 -0.0601 -1.7628
  568MPD2     N 8484   1.109   0.866  16.085 -0.4164 -0.2126  0.3188
  568MPD2    H5 8485   1.135   0.939  16.150 -2.0599 -0.0444  0.7803
  568MPD2    N1 8486   1.349   0.624  16.405  0.1916  0.5902 -0.4786
  568MPD2    H7 8487   1.351   0.538  16.459  0.1304  0.9615  0.1113
  569TMC3    C1 8488   0.990   1.033  15.977 -0.3630 -0.3162  0.4174
  569TMC3    C2 8489   0.939   1.094  16.091  0.1619  0.2800 -0.6538
  569TMC3    C3 8490   0.950   1.226  16.109 -0.0851 -0.8309  0.3381
  569TMC3    C4 8491   1.051   1.103  15.881  0.0704  1.2245 -0.9155
  569TMC3    C5 8492   1.045   1.239  15.893 -0.2944 -0.5603  0.1811
  569TMC3    C6 8493   0.994   1.306  16.006 -0.0312 -0.1194 -0.2009
  569TMC3     C 8494   1.023   0.890  15.979 -0.8022 -0.3790  0.3085
  569TMC3     O 8495   1.005   0.826  15.876  0.0779 -0.9362 -0.8040
  569TMC3     H 8496   0.900   1.027  16.166  0.4325  0.1962 -0.5902
  569TMC3    H1 8497   1.091   1.046  15.797  0.0004  2.7798 -1.9939
  569TMC3    H2 8498   0.988   1.415  16.005 -1.9281 -0.2402 -1.9525
  569TMC3    C7 8499   1.074   1.320  15.775  0.0669 -0.1361  0.1414
  569TMC3    C8 8500   0.942   1.277  16.249 -0.1400 -1.0067 -0.1293
  569TMC3    O1 8501   1.069   1.266  15.670  0.6735 -0.3219 -0.0997
  569TMC3    O2 8502   0.866   1.215  16.320  0.2208 -0.5903 -0.2904
  570TMC3    C1 8503   0.622   4.694  16.105  0.4792  0.0477 -0.0749
  570TMC3    C2 8504   0.677   4.729  15.985  0.2104  0.5050  0.5989
  570TMC3    C3 8505   0.768   0.098  15.986 -0.1068  0.4385  0.1879
  570TMC3    C4 8506   0.641   0.029  16.222  0.5433 -0.3073 -0.5098
  570TMC3    C5 8507   0.718   0.148  16.209  0.1516 -0.6128  0.1928
  570TMC3    C6 8508   0.781   0.182  16.094  0.2635 -0.6060  0.4933
  570TMC3     C 8509   0.530   4.579  16.097  0.0985  0.4038  0.4419
  570TMC3     O 8510   0.474   4.551  15.994 -0.0899 -0.1229 -0.2941
  570TMC3     H 8511   0.670   4.650  15.911  1.1351  1.8514 -0.9130
  570TMC3    H1 8512   0.613   4.723  16.319 -1.5039  0.4563 -0.7978
  570TMC3    H2 8513   0.861   0.255  16.092 -0.3116  0.0445  1.4243
  570TMC3    C7 8514   0.744   0.219  16.334  0.3467 -0.3432  0.0803
  570TMC3    C8 8515   0.826   0.147  15.854  0.7226 -0.1209  0.2961
  570TMC3    O1 8516   0.722   0.171  16.444 -0.1371  0.4192 -0.2664
  570TMC3    O2 8517   0.905   0.240  15.855 -0.1615  0.6630  0.0339
  571MPD2     C 8518   3.325   2.192  17.425  0.1472 -0.1694  0.8285
  571MPD2    C1 8519   3.280   2.129  17.536 -0.4778 -0.2817  0.0939
  571MPD2    C2 8520   3.267   2.195  17.658  0.2388 -0.4260 -0.3629
  571MPD2    C3 8521   3.323   2.321  17.663  0.2398 -0.3230 -0.5961
  571MPD2    C4 8522   3.372   2.375  17.549 -0.2298 -0.4714  0.3739
  571MPD2    C5 8523   3.360   2.323  17.422 -0.1796 -0.4109  0.1193
  571MPD2     H 8524   3.241   2.146   0.013  0.7053 -0.9184 -0.4934
  571MPD2    H1 8525   3.407   2.478  17.550  1.2766 -1.0175  2.5359
  571MPD2    H2 8526   3.322   2.140  17.330  0.2411  0.1225  0.6668
  571MPD2    H3 8527   3.394   2.374  17.333  0.1550 -3.2322 -1.3632
  571MPD2     N 8528   3.318   2.412   0.037  0.0546  0.2133 -0.0022
  571MPD2    H5 8529   3.384   2.488   0.023  0.7933 -0.4404 -0.1415
  571MPD2    N1 8530   3.231   1.992  17.513 -0.4417 -0.2939 -0.1916
  571MPD2    H7 8531   3.221   1.965  17.416  3.0798 -1.5793 -0.1801
  572TMC3    C1 8532   3.293   2.489   0.254 -0.1471 -0.2402  0.2434
  572TMC3    C2 8533   3.298   2.464   0.386  0.4457  0.3758 -0.0584
  572TMC3    C3 8534   3.372   2.556   0.459  0.2569 -0.5254  0.4733
  572TMC3    C4 8535   3.320   2.612   0.199 -0.0014 -0.6948 -0.0684
  572TMC3    C5 8536   3.383   2.708   0.276  0.3846  0.2192 -0.0920
  572TMC3    C6 8537   3.416   2.672   0.404  0.3560 -0.3636  0.0762
  572TMC3     C 8538   3.267   2.385   0.162  0.2060 -0.5148 -0.3387
  572TMC3     O 8539   3.205   2.289   0.204 -0.1769  0.6304  0.0921
  572TMC3     H 8540   3.311   2.361   0.417 -4.3846 -0.0815  0.5030
  572TMC3    H1 8541   3.296   2.635   0.096  0.7914  1.8346  0.2999
  572TMC3    H2 8542   3.483   2.729   0.467 -0.1937  0.0653  0.2781
  572TMC3    C7 8543   3.396   2.840   0.226  0.0762 -0.3152 -0.8240
  572TMC3    C8 8544   3.469   2.498   0.544 -0.1391 -0.1783 -0.2240
  572TMC3    O1 8545   3.316   2.872   0.142 -0.1843 -0.3850 -0.0031
  572TMC3    O2 8546   3.588   2.500   0.511  0.2034  0.4947 -0.5470
  573MPD2     C 8547   4.164   2.818   0.664 -0.1979  0.1786  0.1048
  573MPD2    C1 8548   4.225   2.823   0.785 -0.3759 -0.1912  0.2229
  573MPD2    C2 8549   4.358   2.862   0.782  0.1710  0.1564  0.4718
  573MPD2    C3 8550   4.433   2.877   0.660 -0.4516 -0.5977 -0.5556
  573MPD2    C4 8551   4.361   2.870   0.542 -0.2886  0.0572  0.0512
  573MPD2    C5 8552   4.229   2.839   0.545  0.2532  0.5721 -0.1859
  573MPD2     H 8553   4.423   2.849   0.868  0.0214  0.8675  0.6949
  573MPD2    H1 8554   4.406   2.889   0.445  1.8439 -0.2502  0.9839
  573MPD2    H2 8555   4.063   2.785   0.642 -0.6650  2.1168 -0.6544
  573MPD2    H3 8556   4.185   2.835   0.445 -0.4337  1.4741  0.0808
  573MPD2     N 8557   4.571   2.903   0.664 -0.2505 -0.1243 -0.4238
  573MPD2    H5 8558   4.620   2.886   0.576 -1.2924  2.8892 -1.5816
  573MPD2    N1 8559   4.155   2.785   0.906  0.1011 -0.9736  0.2019
  573MPD2    H7 8560   4.059   2.753   0.901 -0.6581  1.4774 -1.0014
  574TMC3    C1 8561   0.041   2.979   0.755 -0.1349  0.2885  0.1408
  574TMC3    C2 8562   0.103   3.087   0.815 -0.3151 -0.4970  0.6359
  574TMC3    C3 8563   0.243   3.086   0.804 -0.1946 -0.0670  0.7474
  574TMC3    C4 8564   0.105   2.874   0.695 -0.0885 -0.2992  0.0874
  574TMC3    C5 8565   0.239   2.882   0.695 -0.5038 -0.1256  0.6044
  574TMC3    C6 8566   0.318   2.986   0.751 -0.3038 -0.1984 -0.5847
  574TMC3     C 8567   4.627   2.969   0.768  0.6342  0.1132  0.3074
  574TMC3     O 8568   4.571   3.041   0.846 -0.1348 -0.1468 -0.2236
  574TMC3     H 8569   0.040   3.163   0.860 -1.8892 -0.5738 -1.4361
  574TMC3    H1 8570   0.061   2.796   0.634 -1.2471  2.2884 -2.3567
  574TMC3    H2 8571   0.425   2.995   0.736  0.2376 -0.8407  3.0637
  574TMC3    C7 8572   0.309   2.769   0.634 -0.1281  0.4505 -0.2463
  574TMC3    C8 8573   0.301   3.219   0.802 -1.0243 -0.0800 -0.4351
  574TMC3    O1 8574   0.263   2.705   0.541  0.3502  0.0467  0.4230
  574TMC3    O2 8575   0.418   3.228   0.826  0.0836  0.7366  0.5272
  575TMC3    C1 8576   1.855   3.466  11.458 -0.1227 -0.3744  0.6695
  575TMC3    C2 8577   1.792   3.349  11.492  0.4044  0.3759 -0.7533
  575TMC3    C3 8578   1.722   3.280  11.399  0.7151  0.3616  0.3099
  575TMC3    C4 8579   1.858   3.512  11.328  0.4497  0.2651 -0.6096
  575TMC3    C5 8580   1.782   3.436  11.235  0.3863  0.8503 -0.5619
  575TMC3    C6 8581   1.716   3.326  11.271 -0.3328 -0.4094  0.8281
  575TMC3     C 8582   1.947   3.527  11.552 -0.1837  0.1504  0.2037
  575TMC3     O 8583   2.025   3.610  11.506  0.0528 -0.0899 -0.5513
  575TMC3     H 8584   1.808   3.303  11.589 -2.8231 -0.0411 -0.3907
  575TMC3    H1 8585   1.902   3.606  11.298 -0.8177  1.9477  2.9199
  575TMC3    H2 8586   1.670   3.249  11.210 -0.3724  0.5731 -0.3957
  575TMC3    C7 8587   1.778   3.486  11.104 -0.4590 -0.3751 -0.5630
  575TMC3    C8 8588   1.726   3.136  11.422 -0.6930  0.4879  0.4206
  575TMC3    O1 8589   1.876   3.560  11.076  0.2900  0.0672  0.4136
  575TMC3    O2 8590   1.694   3.097  11.536 -0.1367 -0.4355 -0.3744
  576MPD2     C 8591   1.223   0.162  12.797 -0.3361 -0.3507 -0.0145
  576MPD2    C1 8592   1.301   0.240  12.715  0.3153 -0.0455 -0.0335
  576MPD2    C2 8593   1.361   0.356  12.766 -0.2123 -0.8981 -0.0321
  576MPD2    C3 8594   1.331   0.405  12.890  0.0872  0.6207  0.0636
  576MPD2    C4 8595   1.254   0.325  12.974 -0.2332  0.5527  0.6279
  576MPD2    C5 8596   1.203   0.207  12.925  0.1751 -0.4543  0.7705
  576MPD2     H 8597   1.423   0.411  12.695  1.2903 -1.4216  0.8666
  576MPD2    H1 8598   1.235   0.347  13.078 -0.8575 -3.6153  1.3941
  576MPD2    H2 8599   1.177   0.067  12.771 -0.5023 -0.2158 -0.2177
  576MPD2    H3 8600   1.146   0.150  12.996  1.6096 -1.2681  1.2723
  576MPD2     N 8601   1.370   0.536  12.917 -0.6989 -0.2066 -0.3141
  576MPD2    H5 8602   1.424   0.586  12.847  1.2418  1.9807  2.7282
  576MPD2    N1 8603   1.331   0.210  12.583  0.1435  0.4091 -0.2066
  576MPD2    H7 8604   1.405   0.259  12.534 -0.6740 -0.8413 -2.6817
  577TMC3    C1 8605   1.369   0.082  12.389  0.2022 -0.0931  0.0284
  577TMC3    C2 8606   1.385   4.692  12.340  0.5255 -0.2667 -0.0309
  577TMC3    C3 8607   1.447   4.678  12.217 -0.6101  0.4704  0.1926
  577TMC3    C4 8608   1.407   0.198  12.327 -0.3203  0.2785 -0.1677
  577TMC3    C5 8609   1.471   0.172  12.206  0.4628 -0.3400  0.4244
  577TMC3    C6 8610   1.492   0.053  12.150 -0.1973 -0.5458 -0.2923
  577TMC3     C 8611   1.300   0.092  12.518  0.4908 -0.4990 -0.1544
  577TMC3     O 8612   1.227   4.731  12.540 -0.1646  0.3899  0.1968
  577TMC3     H 8613   1.349   4.605  12.395 -0.7980 -0.8612 -1.8095
  577TMC3    H1 8614   1.405   0.303  12.355 -4.1172  0.0485  0.3953
  577TMC3    H2 8615   1.513   0.042  12.044  0.0654  3.6574 -0.6919
  577TMC3    C7 8616   1.509   0.287  12.128  0.4590 -0.5217  0.5209
  577TMC3    C8 8617   1.475   4.546  12.156  0.3543  0.0060 -0.9611
  577TMC3    O1 8618   1.560   0.376  12.198 -0.0790 -0.0409 -0.8661
  577TMC3    O2 8619   1.411   4.451  12.199  0.3434  0.0637  0.0964
  578MPD2     C 8620   0.870   4.718   1.174 -0.4934 -0.8120 -0.7595
  578MPD2    C1 8621   0.825   4.602   1.120 -0.0725 -0.0677  0.1431
  578MPD2    C2 8622   0.882   4.484   1.167 -0.4273 -0.4364 -0.5700
  578MPD2    C3 8623   0.981   4.485   1.266  0.1548  0.5480 -0.1151
  578MPD2    C4 8624   1.026   4.598   1.323  0.0186 -0.0273  0.3438
  578MPD2    C5 8625   0.969   4.712   1.269 -0.8049 -0.5009  0.6971
  578MPD2     H 8626   0.848   4.385   1.140  0.5345 -0.3352 -2.1574
  578MPD2    H1 8627   1.092   4.609   1.409 -0.0413  0.2108  0.3588
  578MPD2    H2 8628   0.838   0.081   1.140  4.8937  0.7569 -1.3174
  578MPD2    H3 8629   0.995   0.074   1.311 -1.0099 -0.0136 -0.2828
  578MPD2     N 8630   1.022   4.364   1.322  0.0739 -0.4524 -0.2649
  578MPD2    H5 8631   0.969   4.281   1.296  0.0656 -1.0001  1.4755
  578MPD2    N1 8632   0.730   4.612   1.010 -0.0258  0.0138  0.3860
  578MPD2    H7 8633   0.701   4.706   0.983 -0.7349 -0.5983 -0.9562
  579TMC3    C1 8634   1.154   4.202   1.445  0.1084 -0.3710 -0.3401
  579TMC3    C2 8635   1.285   4.173   1.474  0.3268  0.7060  0.4155
  579TMC3    C3 8636   1.317   4.039   1.485  1.0534  0.1314 -0.1382
  579TMC3    C4 8637   1.058   4.102   1.437 -0.3803  0.2325 -0.4541
  579TMC3    C5 8638   1.089   3.971   1.446 -0.4245 -0.1873 -0.1427
  579TMC3    C6 8639   1.222   3.941   1.466  0.1487 -0.0682  1.1068
  579TMC3     C 8640   1.131   4.345   1.401 -0.5613 -0.4785  0.2664
  579TMC3     O 8641   1.210   4.429   1.440 -0.8212  0.3226 -0.1068
  579TMC3     H 8642   1.359   4.252   1.482 -0.1275  1.4266 -2.4722
  579TMC3    H1 8643   0.956   4.131   1.418 -0.5929  0.1582  0.5880
  579TMC3    H2 8644   1.249   3.836   1.475  1.0588  0.1491  0.9351
  579TMC3    C7 8645   1.003   3.870   1.383 -0.1008 -0.3417  0.1693
  579TMC3    C8 8646   1.452   4.001   1.478  0.1182  0.9500  0.3285
  579TMC3    O1 8647   1.053   3.759   1.382 -0.1686 -0.2491  0.4588
  579TMC3    O2 8648   1.497   3.896   1.523  0.1711 -0.1919 -0.5944
  580TMC3    C1 8649   4.080   4.155  12.147  0.3353  0.1372  0.5680
  580TMC3    C2 8650   4.199   4.203  12.094 -0.2681 -0.3719 -0.2259
  580TMC3    C3 8651   4.305   4.139  12.142  0.4380 -0.2022  0.3804
  580TMC3    C4 8652   4.073   4.037  12.212 -0.5278  0.0311  0.1471
  580TMC3    C5 8653   4.184   3.982  12.257 -0.2612  0.6642  0.8674
  580TMC3    C6 8654   4.306   4.026  12.214  0.3751 -0.4243 -0.4689
  580TMC3     C 8655   3.959   4.235  12.118  0.0694  0.1028 -0.3939
  580TMC3     O 8656   3.957   4.313  12.023  0.0419 -0.0450 -0.5795
  580TMC3     H 8657   4.188   4.303  12.055  0.1591 -0.4804 -0.6251
  580TMC3    H1 8658   3.979   3.990  12.239 -1.3738  1.6604 -0.0123
  580TMC3    H2 8659   4.397   3.983  12.254  0.6980  0.4994 -0.1894
  580TMC3    C7 8660   4.175   3.838  12.280 -0.4487 -0.2151 -0.0150
  580TMC3    C8 8661   4.428   4.153  12.066 -0.0312 -0.1223 -0.1595
  580TMC3    O1 8662   4.257   3.788  12.356  0.2101 -0.7325 -0.3144
  580TMC3    O2 8663   4.530   4.104  12.111  0.4156 -0.3619  0.2707
  581MPD2     C 8664   2.235   3.650  14.496 -0.6087 -0.0920 -0.1976
  581MPD2    C1 8665   2.258   3.726  14.610 -0.7096  0.1071 -0.0132
  581MPD2    C2 8666   2.156   3.797  14.664 -0.6276 -0.2996  0.7310
  581MPD2    C3 8667   2.025   3.772  14.620  0.3771 -0.2788  0.0144
  581MPD2    C4 8668   1.996   3.694  14.512 -0.6141  0.3379 -0.1055
  581MPD2    C5 8669   2.107   3.642  14.441 -0.7080 -0.0020 -0.2079
  581MPD2     H 8670   2.183   3.857  14.750  0.3671 -0.1880  0.3468
  581MPD2    H1 8671   1.899   3.673  14.468 -2.1134  1.5878  2.6319
  581MPD2    H2 8672   2.309   3.589  14.445  1.0450  1.7174  0.0277
  581MPD2    H3 8673   2.092   3.583  14.351  0.9597  0.5686 -0.8587
  581MPD2     N 8674   1.919   3.824  14.707  0.5323 -0.8802  0.5782
  581MPD2    H5 8675   1.957   3.869  14.790  2.2079  0.6048 -0.9899
  581MPD2    N1 8676   2.391   3.717  14.664 -0.8175 -0.2723 -0.7325
  581MPD2    H7 8677   2.446   3.647  14.616  2.1195  1.4868  0.0670
  582TMC3    C1 8678   2.575   3.740  14.821  0.1388  0.4359 -0.1537
  582TMC3    C2 8679   2.649   3.826  14.892 -0.4410 -0.2649 -0.6984
  582TMC3    C3 8680   2.769   3.781  14.945  0.0675 -0.3423 -0.6203
  582TMC3    C4 8681   2.610   3.610  14.785  0.2445 -0.2015 -0.4370
  582TMC3    C5 8682   2.720   3.563  14.847  0.1822 -0.0575 -0.8116
  582TMC3    C6 8683   2.805   3.652  14.919 -0.1867 -0.2217  0.5238
  582TMC3     C 8684   2.439   3.786  14.780  0.2523  0.0495 -0.1564
  582TMC3     O 8685   2.395   3.886  14.832  0.3319 -0.0807 -0.3627
  582TMC3     H 8686   2.614   3.927  14.909  4.1099  1.2581 -0.3948
  582TMC3    H1 8687   2.542   3.541  14.736  0.7102  0.1279 -1.5455
  582TMC3    H2 8688   2.878   3.604  14.984  0.6768  0.6210  0.1674
  582TMC3    C7 8689   2.733   3.422  14.867  0.5598  0.0055 -0.4784
  582TMC3    C8 8690   2.818   3.858  15.055  0.0158 -0.4030  0.3946
  582TMC3    O1 8691   2.842   3.374  14.832 -0.2452 -0.2619  0.5911
  582TMC3    O2 8692   2.751   3.951  15.092 -0.7616  0.3122  0.0537
  583MPD2     C 8693   2.497   1.062  16.636  0.4091 -0.5528 -0.2788
  583MPD2    C1 8694   2.551   1.173  16.584  0.6473 -0.2994 -0.0401
  583MPD2    C2 8695   2.538   1.294  16.653 -0.2058  0.7961 -0.0930
  583MPD2    C3 8696   2.466   1.294  16.773 -0.3028  0.2464  0.0328
  583MPD2    C4 8697   2.407   1.182  16.822  0.5385  0.2293 -0.3782
  583MPD2    C5 8698   2.422   1.064  16.754 -0.1622  0.1856  0.5773
  583MPD2     H 8699   2.574   1.380  16.598  1.2196  1.0293  1.2170
  583MPD2    H1 8700   2.347   1.175  16.913  0.9012 -0.0265 -0.1568
  583MPD2    H2 8701   2.497   0.964  16.590  1.6038 -0.3695 -0.6545
  583MPD2    H3 8702   2.372   0.975  16.789  1.0637 -0.9579 -0.6068
  583MPD2     N 8703   2.446   1.416  16.844  0.8951  0.2911  0.8308
  583MPD2    H5 8704   2.500   1.499  16.824 -0.4005  1.1463  0.8562
  583MPD2    N1 8705   2.623   1.175  16.465 -0.2748  0.0817  0.2897
  583MPD2    H7 8706   2.659   1.265  16.434 -2.4876  0.8741 -0.0406
  584TMC3    C1 8707   2.367   1.557  17.010  0.5320 -0.9348 -0.8423
  584TMC3    C2 8708   2.436   1.660  16.952  0.4111  0.1296 -0.7259
  584TMC3    C3 8709   2.499   1.755  17.031  0.7834 -0.7093  0.7443
  584TMC3    C4 8710   2.362   1.547  17.147 -1.1094 -0.5307  0.1774
  584TMC3    C5 8711   2.433   1.634  17.219  0.1827 -0.3260  0.5967
  584TMC3    C6 8712   2.495   1.742  17.163  0.1990 -0.2280 -0.3186
  584TMC3     C 8713   2.343   1.441  16.931  0.4147 -0.3563 -0.3505
  584TMC3     O 8714   2.254   1.368  16.978  0.2549 -0.0877 -0.6802
  584TMC3     H 8715   2.443   1.672  16.844  1.3855  1.0084 -0.5713
  584TMC3    H1 8716   2.313   1.465  17.199  0.6028 -2.1191 -0.7257
  584TMC3    H2 8717   2.551   1.799  17.237  1.2998  1.0013 -2.1253
  584TMC3    C7 8718   2.428   1.632  17.357 -0.0524 -0.6539 -0.9390
  584TMC3    C8 8719   2.601   1.838  16.976 -0.2697 -0.3843 -0.1075
  584TMC3    O1 8720   2.427   1.742  17.413  0.0587 -0.1952  0.0702
  584TMC3    O2 8721   2.640   1.828  16.863  0.2433  0.9987 -0.0913
  585MPD2     C 8722   1.702   4.367   0.344  0.2131 -0.7411  0.3318
  585MPD2    C1 8723   1.657   4.408   0.222  0.5120  0.3950 -0.0299
  585MPD2    C2 8724   1.651   4.318   0.119 -0.2910  1.0964 -0.8899
  585MPD2    C3 8725   1.687   4.190   0.136  0.2699  0.0379 -0.2456
  585MPD2    C4 8726   1.720   4.144   0.262 -0.0160  0.6736  0.1133
  585MPD2    C5 8727   1.724   4.235   0.360  0.2623  0.1717 -0.1597
  585MPD2     H 8728   1.603   4.341   0.024 -1.7805  2.7697  0.2805
  585MPD2    H1 8729   1.759   4.043   0.272 -1.3599  0.1252 -0.2750
  585MPD2    H2 8730   1.721   4.426   0.433 -0.4959 -0.5603  0.3627
  585MPD2    H3 8731   1.761   4.200   0.455 -0.2901 -2.0739 -0.7529
  585MPD2     N 8732   1.684   4.086   0.036  0.7720 -0.3491 -0.1718
  585MPD2    H5 8733   1.687   3.991   0.069  1.3070 -0.0409  0.6461
  585MPD2    N1 8734   1.624   4.547   0.200  0.0964 -0.8360 -0.2849
  585MPD2    H7 8735   1.630   4.607   0.282 -0.1229 -0.2402 -0.7031
  586TMC3    C1 8736   1.716   3.984  17.567  0.6236 -0.3694 -0.4465
  586TMC3    C2 8737   1.722   4.001  17.434  1.7052  0.0801 -0.6278
  586TMC3    C3 8738   1.823   3.971  17.355  0.3796 -0.2288 -1.0751
  586TMC3    C4 8739   1.816   3.909  17.618 -0.9062  0.6156 -0.6293
  586TMC3    C5 8740   1.918   3.859  17.539  0.0114  0.4299 -0.1264
  586TMC3    C6 8741   1.920   3.894  17.405  0.3636 -0.8719  0.0135
  586TMC3     C 8742   1.695   4.110  17.637 -0.1789 -0.0040 -0.1532
  586TMC3     O 8743   1.680   4.216  17.573  0.5561 -0.0305  0.1188
  586TMC3     H 8744   1.645   4.065  17.392  2.0096  1.9773  1.7245
  586TMC3    H1 8745   1.822   3.875  17.721 -1.6467  0.4388 -0.6448
  586TMC3    H2 8746   1.996   3.869  17.332 -0.7645 -0.8852 -1.1523
  586TMC3    C7 8747   2.015   3.768  17.608  0.1237  0.5131  0.0077
  586TMC3    C8 8748   1.787   3.923  17.221 -0.3463 -0.1344  0.0916
  586TMC3    O1 8749   2.022   3.783  17.729 -0.7705 -0.4269 -0.1870
  586TMC3    O2 8750   1.870   3.926  17.128  0.2607 -0.5002 -0.1917
  587TMC3    C1 8751   3.760   3.589  16.097  0.9037  0.2033  0.8826
  587TMC3    C2 8752   3.801   3.689  16.176 -0.6413 -0.5411 -0.4333
  587TMC3    C3 8753   3.933   3.712  16.195  0.3464  0.1678  0.2290
  587TMC3    C4 8754   3.849   3.502  16.040 -0.2814  0.5713  0.0625
  587TMC3    C5 8755   3.985   3.537  16.053  0.6698  0.1110  0.0624
  587TMC3    C6 8756   4.026   3.646  16.126  0.4930 -0.5871 -0.3890
  587TMC3     C 8757   3.625   3.542  16.094 -0.8225  0.3321  0.1625
  587TMC3     O 8758   3.567   3.530  16.202 -0.0290  0.3921 -0.0572
  587TMC3     H 8759   3.726   3.750  16.224  0.0286 -0.7029  0.8105
  587TMC3    H1 8760   3.811   3.404  16.011  1.1118  0.4041 -1.1839
  587TMC3    H2 8761   4.133   3.665  16.137  0.6641 -0.1474 -2.8468
  587TMC3    C7 8762   4.090   3.438  16.013  0.4462 -0.3134  0.3057
  587TMC3    C8 8763   3.968   3.796  16.316  0.9520  0.3712  0.3626
  587TMC3    O1 8764   4.193   3.459  16.078  0.0288  0.5788  0.2552
  587TMC3    O2 8765   3.872   3.862  16.358 -0.1287 -0.2923 -0.2642
  588TMC3    C1 8766   0.916   0.082   9.791 -0.0820 -0.1958  0.2700
  588TMC3    C2 8767   0.884   4.684   9.801  0.0125 -0.4802  0.5175
  588TMC3    C3 8768   0.947   4.615   9.904 -0.1168 -0.2736  0.0748
  588TMC3    C4 8769   1.013   0.137   9.870  0.1598  0.4155  0.3111
  588TMC3    C5 8770   1.084   0.060   9.955 -0.2472 -0.1799  0.4443
  588TMC3    C6 8771   1.051   4.664   9.978 -0.4414 -0.2978 -0.1823
  588TMC3     C 8772   0.825   0.167   9.737  0.4015  0.0022  0.3946
  588TMC3     O 8773   0.772   0.131   9.631 -0.2611 -0.0885 -0.3237
  588TMC3     H 8774   0.793   4.651   9.754  0.1618  0.0263 -0.1272
  588TMC3    H1 8775   1.054   0.235   9.847 -0.2160  0.8234  1.3763
  588TMC3    H2 8776   1.101   4.599  10.049 -0.4759  0.7816  0.8253
  588TMC3    C7 8777   1.159   0.129  10.059  0.0293 -0.3791 -0.2155
  588TMC3    C8 8778   0.906   4.477   9.924 -0.9262 -0.1601 -0.4102
  588TMC3    O1 8779   1.266   0.090  10.110  0.0240  0.0515  0.6567
  588TMC3    O2 8780   0.910   4.401   9.827 -0.6153  0.5379  0.2707
  589TMC3    C1 8781   0.907   2.972   1.346 -0.5296 -0.6812  0.1330
  589TMC3    C2 8782   1.019   2.994   1.423 -0.4849  0.1173 -0.1338
  589TMC3    C3 8783   1.129   2.940   1.370 -0.1688 -0.4893 -0.3575
  589TMC3    C4 8784   0.906   2.888   1.239  0.3326  0.4330  1.2657
  589TMC3    C5 8785   1.020   2.823   1.201 -0.6826 -0.3514  0.7385
  589TMC3    C6 8786   1.135   2.849   1.267  0.1868  0.4435  0.1533
  589TMC3     C 8787   0.787   3.051   1.374 -0.9835 -0.5359  0.6455
  589TMC3     O 8788   0.711   3.062   1.279 -0.1792 -0.0880  0.7744
  589TMC3     H 8789   1.033   3.075   1.494  1.1129 -1.7513  1.6853
  589TMC3    H1 8790   0.820   2.872   1.175  0.5968  0.4992  0.8926
  589TMC3    H2 8791   1.214   2.775   1.259 -0.0135  0.3458 -0.8344
  589TMC3    C7 8792   1.015   2.718   1.099  0.2414 -1.3781  0.3828
  589TMC3    C8 8793   1.250   3.005   1.405 -0.1936 -0.1805  0.2638
  589TMC3    O1 8794   0.905   2.671   1.091  0.0109  0.1207  0.3010
  589TMC3    O2 8795   1.244   3.077   1.503  0.3820  0.2155 -0.3387
  590MPD2     C 8796   0.345   1.730  16.858 -0.1277 -0.1413 -0.3768
  590MPD2    C1 8797   0.283   1.774  16.747  0.1778  0.9488  0.0537
  590MPD2    C2 8798   0.357   1.836  16.647 -0.3733 -0.1785 -0.5557
  590MPD2    C3 8799   0.494   1.868  16.672  0.0452  0.5600 -0.7487
  590MPD2    C4 8800   0.553   1.834  16.790  0.5205  0.1165 -0.3697
  590MPD2    C5 8801   0.483   1.755  16.888  0.2910  0.6326 -0.1950
  590MPD2     H 8802   0.314   1.862  16.551 -0.1245 -0.2299 -0.6786
  590MPD2    H1 8803   0.657   1.855  16.811  0.6134  1.4913 -2.3204
  590MPD2    H2 8804   0.295   1.675  16.937 -0.9187 -0.2310 -0.9337
  590MPD2    H3 8805   0.532   1.720  16.978  0.5901  0.4458 -0.4298
  590MPD2     N 8806   0.565   1.936  16.575  0.5202  0.2596 -0.0155
  590MPD2    H5 8807   0.524   1.977  16.491 -1.4383 -2.7882 -0.5466
  590MPD2    N1 8808   0.151   1.739  16.733 -0.0780 -0.0876  0.7141
  590MPD2    H7 8809   0.099   1.701  16.811  1.3028 -0.6943  1.3234
  591TMC3    C1 8810   0.725   2.078  16.478  0.0177  0.2474 -0.0360
  591TMC3    C2 8811   0.683   2.025  16.357  0.6932 -0.4022  0.4035
  591TMC3    C3 8812   0.673   2.116  16.256 -0.2889 -0.5024 -0.4752
  591TMC3    C4 8813   0.723   2.218  16.499 -0.1746  0.2436 -0.4226
  591TMC3    C5 8814   0.703   2.300  16.397  0.8499  0.2258  0.5614
  591TMC3    C6 8815   0.679   2.255  16.271 -0.4396 -0.3810  0.4953
  591TMC3     C 8816   0.691   1.995  16.593 -0.6338 -0.1247  0.7139
  591TMC3     O 8817   0.759   2.015  16.694  0.4166 -0.0356 -0.1853
  591TMC3     H 8818   0.704   1.920  16.341  0.9263 -0.3760  0.5362
  591TMC3    H1 8819   0.735   2.265  16.596 -3.2401  0.7496 -0.3114
  591TMC3    H2 8820   0.649   2.317  16.188 -0.2435 -0.6334  0.2391
  591TMC3    C7 8821   0.704   2.445  16.428 -0.5685  0.3469 -0.1818
  591TMC3    C8 8822   0.672   2.063  16.123  0.1602  0.4258 -0.3064
  591TMC3    O1 8823   0.714   2.486  16.542  0.1563  0.3633  0.1307
  591TMC3    O2 8824   0.666   1.943  16.116  0.7777 -0.6887 -0.1727
  592MPD2     C 8825   0.211   3.693  11.115 -0.1680  0.5912 -0.5230
  592MPD2    C1 8826   0.172   3.725  11.246  0.1281 -0.3910 -0.2759
  592MPD2    C2 8827   0.108   3.624  11.316 -0.2054  0.3696  0.1586
  592MPD2    C3 8828   0.099   3.495  11.259 -0.1085  0.5141  0.4120
  592MPD2    C4 8829   0.149   3.466  11.136 -0.2887  0.3037  0.0429
  592MPD2    C5 8830   0.206   3.568  11.059 -0.1249 -0.5600 -0.8825
  592MPD2     H 8831   0.053   3.648  11.406 -0.4754 -2.6620  0.8076
  592MPD2    H1 8832   0.153   3.369  11.088 -0.3697 -1.2139  3.1526
  592MPD2    H2 8833   0.258   3.765  11.049  0.0612  0.4388 -0.5263
  592MPD2    H3 8834   0.237   3.553  10.956 -1.2768 -2.6959 -0.9367
  592MPD2     N 8835   0.043   3.389  11.349 -0.3940 -0.2557 -0.1780
  592MPD2    H5 8836   0.004   3.420  11.437 -1.8034  0.9269 -1.2339
  592MPD2    N1 8837   0.180   3.858  11.278 -0.1158 -0.6260  0.4876
  592MPD2    H7 8838   0.249   3.913  11.227  1.0359 -2.2358  0.3003
  593TMC3    C1 8839   0.185   4.022  11.461 -0.3574  0.1127  0.6821
  593TMC3    C2 8840   0.183   4.023  11.601 -0.9658  0.2068 -0.2170
  593TMC3    C3 8841   0.261   4.118  11.666  0.0285 -0.6209  0.2549
  593TMC3    C4 8842   0.257   4.107  11.382  0.2297 -0.2601 -0.6259
  593TMC3    C5 8843   0.321   4.211  11.451 -0.5504  0.5724 -0.4848
  593TMC3    C6 8844   0.326   4.224  11.594  0.0151  0.1168  0.2303
  593TMC3     C 8845   0.124   3.904  11.399 -0.2586  0.0610 -0.6288
  593TMC3     O 8846   0.020   3.881  11.463  0.6060 -0.1385  0.0940
  593TMC3     H 8847   0.138   3.942  11.657  0.1217  1.6453  2.6981
  593TMC3    H1 8848   0.255   4.107  11.274 -0.5805  2.1228 -0.6066
  593TMC3    H2 8849   0.375   4.309  11.639  1.6889 -0.3535 -0.7241
  593TMC3    C7 8850   0.315   4.335  11.382  0.1221  0.1786  0.1059
  593TMC3    C8 8851   0.252   4.111  11.807  0.5647  0.7716 -0.4070
  593TMC3    O1 8852   0.280   4.328  11.263 -0.4879  0.9198  0.1073
  593TMC3    O2 8853   0.152   4.064  11.862 -0.2596 -0.2845  0.5023
  594MPD2     C 8854   4.355   2.503  13.909  0.9529 -0.5530  0.3992
  594MPD2    C1 8855   4.340   2.539  14.042  0.4033  0.1718  0.9232
  594MPD2    C2 8856   4.404   2.652  14.087 -0.7753  0.6054 -0.1496
  594MPD2    C3 8857   4.472   2.731  13.997  0.2576  0.1245 -0.2442
  594MPD2    C4 8858   4.477   2.705  13.862  1.0356  1.5734  0.5163
  594MPD2    C5 8859   4.425   2.585  13.819  0.6241  0.1546 -0.0692
  594MPD2     H 8860   4.397   2.694  14.186  0.4181  0.9079 -0.1874
  594MPD2    H1 8861   4.516   2.771  13.785  0.3878  3.2731  1.6486
  594MPD2    H2 8862   4.298   2.425  13.862  2.3543 -3.5509  3.5937
  594MPD2    H3 8863   4.427   2.555  13.715  3.4176 -1.9329  0.5837
  594MPD2     N 8864   4.533   2.841  14.061  0.5277  0.1958 -0.1331
  594MPD2    H5 8865   4.521   2.850  14.162  2.5505 -2.9884  0.3558
  594MPD2    N1 8866   4.262   2.457  14.129 -0.0449 -0.2846 -0.0428
  594MPD2    H7 8867   4.200   2.387  14.090 -0.2155 -0.2494  0.1613
  595TMC3    C1 8868   0.115   3.101  14.206  0.0753 -0.4079  0.2520
  595TMC3    C2 8869   0.070   3.026  14.103  0.3595  0.8037  0.1640
  595TMC3    C3 8870   4.669   3.029  14.085 -0.0102 -0.5546 -0.8231
  595TMC3    C4 8871   0.026   3.160  14.299 -0.6109 -0.6745  0.2314
  595TMC3    C5 8872   4.628   3.145  14.282 -0.0883 -0.2844 -0.0484
  595TMC3    C6 8873   4.578   3.077  14.179  0.8794  0.2361  0.5060
  595TMC3     C 8874   0.262   3.108  14.231 -0.4925  0.3427  0.8158
  595TMC3     O 8875   0.284   3.161  14.340  0.1948  0.1636 -0.6394
  595TMC3     H 8876   0.137   2.976  14.035 -1.2954 -0.7829 -0.3086
  595TMC3    H1 8877   0.063   3.227  14.376 -1.9646 -1.1921  1.3508
  595TMC3    H2 8878   4.472   3.062  14.162  0.3096  0.3138  3.9115
  595TMC3    C7 8879   4.535   3.169  14.392  0.6463  0.2704 -1.1531
  595TMC3    C8 8880   4.619   2.922  13.997  0.5573 -0.4995  0.2313
  595TMC3    O1 8881   4.422   3.196  14.356  0.2434 -0.5855  0.2561
  595TMC3    O2 8882   4.661   2.922  13.883 -0.2006 -0.2954  0.3787
  596MPD2     C 8883   3.285   0.733  16.780  0.8586  0.0591 -0.1533
  596MPD2    C1 8884   3.306   0.851  16.701 -0.5421 -0.1426  0.0049
  596MPD2    C2 8885   3.370   0.845  16.577 -0.7595 -1.1482 -0.2846
  596MPD2    C3 8886   3.413   0.725  16.526 -0.2147 -0.0276 -0.1582
  596MPD2    C4 8887   3.391   0.609  16.603 -0.1985  1.1137 -0.2051
  596MPD2    C5 8888   3.326   0.617  16.720  0.9693 -0.2094 -0.3275
  596MPD2     H 8889   3.377   0.937  16.520 -1.5031 -1.5175 -0.9758
  596MPD2    H1 8890   3.406   0.506  16.576 -0.2434  1.1992 -0.5515
  596MPD2    H2 8891   3.239   0.731  16.878  0.4377 -0.8886 -0.3710
  596MPD2    H3 8892   3.309   0.527  16.779  3.9579 -0.5658 -0.0052
  596MPD2     N 8893   3.450   0.697  16.399  0.2812  0.3154  0.4181
  596MPD2    H5 8894   3.447   0.597  16.379  0.9694  0.3380  0.2331
  596MPD2    N1 8895   3.257   0.975  16.748 -0.1914 -0.0515  0.3810
  596MPD2    H7 8896   3.274   1.055  16.688 -1.9208 -0.6172 -0.8577
  597TMC3    C1 8897   3.153   1.136  16.904  0.5752 -0.9410  0.3528
  597TMC3    C2 8898   3.219   1.237  16.841 -0.6931 -0.1636 -0.5689
  597TMC3    C3 8899   3.204   1.363  16.891 -0.3829  0.2136 -0.5937
  597TMC3    C4 8900   3.082   1.152  17.018 -0.2200  0.0639  0.1906
  597TMC3    C5 8901   3.070   1.276  17.059  0.4342  0.4291 -0.7890
  597TMC3    C6 8902   3.118   1.391  16.996 -0.1585 -0.0019 -0.2313
  597TMC3     C 8903   3.195   0.999  16.875 -0.2039 -0.0781  0.1814
  597TMC3     O 8904   3.178   0.924  16.971  0.2957  0.1526 -0.0557
  597TMC3     H 8905   3.295   1.217  16.766 -0.4628 -1.0321 -0.1044
  597TMC3    H1 8906   3.027   1.069  17.060  1.9397 -1.1382  0.6189
  597TMC3    H2 8907   3.125   1.484  17.052 -2.7056 -0.0069  0.0859
  597TMC3    C7 8908   3.021   1.292  17.193 -0.3101 -0.0593  0.1186
  597TMC3    C8 8909   3.285   1.464  16.824 -0.1785 -0.7854 -0.6290
  597TMC3    O1 8910   3.039   1.201  17.270 -0.3661  0.8123 -0.4960
  597TMC3    O2 8911   3.364   1.425  16.742  0.6611  0.4236 -0.0824
  598TMC3    C1 8912   1.099   1.971  15.459 -0.5982 -0.9810 -0.6642
  598TMC3    C2 8913   1.009   1.870  15.469  0.1384 -0.8305  0.0758
  598TMC3    C3 8914   0.948   1.838  15.346 -0.1795 -0.3578  0.4275
  598TMC3    C4 8915   1.127   2.047  15.344  0.5140  0.8839 -0.3226
  598TMC3    C5 8916   1.058   2.017  15.235 -0.0528  0.2213 -0.5964
  598TMC3    C6 8917   0.975   1.907  15.230 -0.2251  0.2062 -0.2867
  598TMC3     C 8918   1.157   2.026  15.579 -0.2095 -0.1939  0.1058
  598TMC3     O 8919   1.248   2.109  15.563 -0.0767 -0.2471  0.2339
  598TMC3     H 8920   1.015   1.810  15.560  0.9729  2.1893  2.0312
  598TMC3    H1 8921   1.179   2.139  15.365 -0.4891  1.1866  0.8863
  598TMC3    H2 8922   0.915   1.884  15.143  2.1421  3.2261 -2.7634
  598TMC3    C7 8923   1.093   2.076  15.109 -0.7627  0.0059  0.1247
  598TMC3    C8 8924   0.875   1.714  15.331  0.0468  0.3610 -0.0603
  598TMC3    O1 8925   1.052   2.012  15.015  0.2464  0.5104  0.3540
  598TMC3    O2 8926   0.862   1.668  15.219 -0.1513  0.0930 -0.0375
  599MPD2     C 8927   1.643   4.397  15.471  0.3950 -0.0571 -0.1464
  599MPD2    C1 8928   1.614   4.265  15.504 -0.1909  0.1872 -0.4858
  599MPD2    C2 8929   1.492   4.240  15.575 -0.1423  0.4943  0.7096
  599MPD2    C3 8930   1.395   4.340  15.589 -0.4424  0.1276 -0.4404
  599MPD2    C4 8931   1.426   4.466  15.540 -0.0656  0.2927 -1.2333
  599MPD2    C5 8932   1.550   4.495  15.490 -0.1968 -0.2356 -0.5866
  599MPD2     H 8933   1.477   4.155  15.641  0.3358 -0.3279 -0.2411
  599MPD2    H1 8934   1.361   4.553  15.548 -1.5752 -1.1289  1.7912
  599MPD2    H2 8935   1.740   4.420  15.427  1.0619  0.7047  1.6971
  599MPD2    H3 8936   1.575   4.593  15.451  3.9522 -1.6249 -1.3901
  599MPD2     N 8937   1.266   4.309  15.642  0.0439 -0.0530  0.2645
  599MPD2    H5 8938   1.204   4.384  15.673 -0.9643 -0.9809  0.5115
  599MPD2    N1 8939   1.709   4.165  15.489 -0.7858 -0.1400  0.0278
  599MPD2    H7 8940   1.803   4.188  15.460  0.1220 -2.4995  1.1807
  600TMC3    C1 8941   1.113   4.196  15.773 -0.2344  0.4677 -1.2728
  600TMC3    C2 8942   1.017   4.102  15.759 -0.2562 -0.6393 -0.2815
  600TMC3    C3 8943   0.893   4.142  15.813  0.7718 -0.9851 -0.2217
  600TMC3    C4 8944   1.099   4.309  15.852 -0.9175  0.2668  0.8677
  600TMC3    C5 8945   0.988   4.322  15.921  0.1395 -0.0327 -0.0887
  600TMC3    C6 8946   0.880   4.250  15.897 -0.3589 -0.0661  0.7413
  600TMC3     C 8947   1.230   4.188  15.693  0.3618 -0.3460  0.7584
  600TMC3     O 8948   1.265   4.072  15.659 -0.2318 -0.1120 -0.4666
  600TMC3     H 8949   1.031   4.020  15.690  1.1139 -2.9183  2.7194
  600TMC3    H1 8950   1.189   4.366  15.871 -1.0536  0.7840 -0.0487
  600TMC3    H2 8951   0.791   4.260  15.958 -1.9999  1.9540 -1.9753
  600TMC3    C7 8952   0.981   4.430  16.017 -0.5502 -0.7412  0.1520
  600TMC3    C8 8953   0.767   4.089  15.754  0.0986  0.3413  0.2373
  600TMC3    O1 8954   0.909   4.415  16.113  0.2620  0.3702  0.2611
  600TMC3    O2 8955   0.769   3.985  15.690  0.3211 -0.0790 -0.2285
  601MPD2     C 8956   3.556   3.321   0.226  0.9838 -0.8205 -0.5056
  601MPD2    C1 8957   3.459   3.258   0.147  0.0757 -0.4515 -0.4698
  601MPD2    C2 8958   3.439   3.119   0.163  0.7325  0.0680  0.1649
  601MPD2    C3 8959   3.523   3.045   0.248 -0.0462  0.1521  0.3475
  601MPD2    C4 8960   3.616   3.110   0.319 -0.2902 -0.6068 -0.0449
  601MPD2    C5 8961   3.643   3.242   0.295 -0.4947  0.4441  0.4062
  601MPD2     H 8962   3.364   3.077   0.097  0.6037  1.5227 -0.6104
  601MPD2    H1 8963   3.687   3.058   0.384 -2.7595 -0.9730  2.3504
  601MPD2    H2 8964   3.571   3.428   0.229  0.5366 -0.7608 -0.4583
  601MPD2    H3 8965   3.717   3.295   0.353 -1.1157  1.6961  0.0397
  601MPD2     N 8966   3.505   2.908   0.272  0.2423  0.1417 -0.1420
  601MPD2    H5 8967   3.573   2.859   0.328 -0.1231 -2.0049 -1.6031
  601MPD2    N1 8968   3.379   3.332   0.052  0.3232 -0.4684  0.0070
  601MPD2    H7 8969   3.317   3.278  17.730 -1.4030  2.1182 -0.5325
  602TMC3    C1 8970   3.299   3.492  17.654 -0.3057  0.3819 -0.4601
  602TMC3    C2 8971   3.349   3.566  17.548 -0.4755  0.6909  0.4785
  602TMC3    C3 8972   3.292   3.558  17.427 -0.0832 -0.1955 -0.6520
  602TMC3    C4 8973   3.182   3.430  17.638  0.1693  0.5443 -0.0307
  602TMC3    C5 8974   3.125   3.431  17.523  0.4669 -0.1640 -0.0276
  602TMC3    C6 8975   3.175   3.490  17.407  0.2022  0.2540 -0.5668
  602TMC3     C 8976   3.385   3.469   0.026  0.4474 -0.1599  0.0361
  602TMC3     O 8977   3.466   3.552   0.061 -0.4821  0.0585  0.4534
  602TMC3     H 8978   3.450   3.604  17.552 -0.0597 -0.5647  2.3259
  602TMC3    H1 8979   3.128   3.378  17.717  2.3988 -0.7229  0.6541
  602TMC3    H2 8980   3.139   3.463  17.309 -1.0603  0.4185 -0.1593
  602TMC3    C7 8981   2.997   3.362  17.502  0.5787  0.6115 -0.8131
  602TMC3    C8 8982   3.340   3.638  17.308  0.9501 -0.2968  0.4074
  602TMC3    O1 8983   2.976   3.257  17.554 -0.1270  0.2036 -0.2655
  602TMC3    O2 8984   3.445   3.698  17.322 -0.2404  0.1211  0.3534
  603TMC3    C1 8985   1.541   2.787  10.997  0.3563  0.4321  0.2234
  603TMC3    C2 8986   1.556   2.721  11.117  0.3371 -0.2656  0.3859
  603TMC3    C3 8987   1.532   2.784  11.238 -0.1799  0.3361 -0.4649
  603TMC3    C4 8988   1.490   2.911  11.000  0.0406  0.3397 -0.2520
  603TMC3    C5 8989   1.465   2.971  11.120  0.4761 -0.6262  0.4268
  603TMC3    C6 8990   1.496   2.914  11.241 -0.0323  0.3040  0.4125
  603TMC3     C 8991   1.509   2.708  10.880  0.7495  0.5205  0.3364
  603TMC3     O 8992   1.517   2.772  10.776  0.3855 -0.0428  0.0610
  603TMC3     H 8993   1.575   2.614  11.119  2.6624  0.1908  3.0522
  603TMC3    H1 8994   1.489   2.966  10.907  0.0415  0.4571 -0.1823
  603TMC3    H2 8995   1.450   2.966  11.325 -1.3575 -0.6917  0.3044
  603TMC3    C7 8996   1.408   3.102  11.127  0.3118 -0.0096 -0.2854
  603TMC3    C8 8997   1.481   2.694  11.335 -0.0107  0.4241  0.3900
  603TMC3    O1 8998   1.427   3.165  11.230  0.3857  0.0684  0.2928
  603TMC3    O2 8999   1.463   2.572  11.310 -0.1987  0.3541  0.2238
  604MPD2     C 9000   2.974   2.144  16.449  0.8835  0.9074 -0.0682
  604MPD2    C1 9001   2.881   2.064  16.396  0.2366 -0.0248  0.6032
  604MPD2    C2 9002   2.866   2.040  16.258  0.9506  0.0551 -0.1929
  604MPD2    C3 9003   2.934   2.121  16.171  0.8056  0.5241 -0.4808
  604MPD2    C4 9004   3.014   2.221  16.226 -0.6216  0.2736  0.0478
  604MPD2    C5 9005   3.045   2.227  16.361 -1.3515  0.1373 -0.7195
  604MPD2     H 9006   2.799   1.961  16.227  0.2166  0.7921 -0.5069
  604MPD2    H1 9007   3.070   2.286  16.160  0.8140 -1.8963 -0.8784
  604MPD2    H2 9008   2.983   2.154  16.557 -1.4662 -2.7823  0.4338
  604MPD2    H3 9009   3.118   2.301  16.393 -2.1781  0.5562  0.1898
  604MPD2     N 9010   2.901   2.108  16.034  0.4461 -0.1546  0.4689
  604MPD2    H5 9011   2.831   2.036  16.015  2.2919 -1.5311 -1.0619
  604MPD2    N1 9012   2.796   2.000  16.484  0.2481 -0.6351 -0.1023
  604MPD2    H7 9013   2.805   2.036  16.578 -0.0957 -0.6966 -0.0456
  605TMC3    C1 9014   2.583   1.956  16.577 -0.3535  0.4284  0.7553
  605TMC3    C2 9015   2.603   2.038  16.683 -0.2376 -0.1210 -0.1938
  605TMC3    C3 9016   2.495   2.100  16.743 -0.3361 -0.8107  0.2266
  605TMC3    C4 9017   2.457   1.929  16.538 -0.3546 -0.0219 -0.3495
  605TMC3    C5 9018   2.350   1.996  16.589 -0.1131 -0.1592  0.9156
  605TMC3    C6 9019   2.365   2.094  16.687 -0.9751  0.1520  0.4498
  605TMC3     C 9020   2.683   1.931  16.466  0.3014 -0.5803 -0.3230
  605TMC3     O 9021   2.653   1.856  16.373 -0.0345  0.4881 -0.1671
  605TMC3     H 9022   2.700   2.067  16.722  0.7688 -1.6620 -1.5397
  605TMC3    H1 9023   2.445   1.854  16.460 -1.0412  0.3837 -0.6367
  605TMC3    H2 9024   2.280   2.149  16.724 -1.5070 -0.8288  0.6839
  605TMC3    C7 9025   2.213   1.965  16.555  0.2734  0.1254  0.9270
  605TMC3    C8 9026   2.519   2.211  16.835 -0.8508  0.1284  0.3432
  605TMC3    O1 9027   2.135   2.055  16.549  0.2690 -0.1405 -0.3015
  605TMC3    O2 9028   2.436   2.226  16.928  0.2431  0.2185 -0.4484
  606TMC3    C1 9029   3.126   0.316   0.560  0.8083  0.2131 -1.3107
  606TMC3    C2 9030   3.237   0.315   0.641  0.5972  0.4151  0.2335
  606TMC3    C3 9031   3.350   0.262   0.587  0.4127 -1.2817  0.0915
  606TMC3    C4 9032   3.130   0.266   0.435 -0.3457 -0.0681  0.4524
  606TMC3    C5 9033   3.248   0.229   0.384  0.4153 -0.7149  0.5903
  606TMC3    C6 9034   3.366   0.230   0.458 -0.3589 -0.3282 -0.1153
  606TMC3     C 9035   3.004   0.381   0.601  0.5915  0.8895 -0.5274
  606TMC3     O 9036   2.904   0.340   0.540  0.8899  0.1890 -0.6808
  606TMC3     H 9037   3.231   0.350   0.743 -1.0668  2.5541 -0.5886
  606TMC3    H1 9038   3.045   0.273   0.368 -0.2077  0.2281  0.3094
  606TMC3    H2 9039   3.461   0.200   0.417 -0.4432  0.9113 -1.2403
  606TMC3    C7 9040   3.259   0.145   0.275  0.0500 -0.2664  0.2979
  606TMC3    C8 9041   3.473   0.253   0.673 -0.9788  0.7873  0.2486
  606TMC3    O1 9042   3.323   0.044   0.288  1.0899  0.1806  0.7562
  606TMC3    O2 9043   3.563   0.188   0.616  0.0206  0.2707  0.6377
  607MPD2     C 9044   0.059   2.119  11.572  0.1388  0.6644  0.3979
  607MPD2    C1 9045   0.100   2.151  11.699  0.2418 -0.2389 -0.6307
  607MPD2    C2 9046   0.117   2.055  11.792 -0.5117 -0.2439 -0.1101
  607MPD2    C3 9047   0.103   1.923  11.767  0.4953  0.0229 -0.4525
  607MPD2    C4 9048   0.075   1.890  11.634 -0.4100  0.3258 -0.2478
  607MPD2    C5 9049   0.050   1.987  11.539 -0.2177 -0.3504 -0.0662
  607MPD2     H 9050   0.150   2.070  11.894 -1.5084  1.1242  0.0027
  607MPD2    H1 9051   0.068   1.786  11.605  0.9697  0.1093  0.2084
  607MPD2    H2 9052   0.032   2.191  11.495  1.5150 -0.6934 -1.3660
  607MPD2    H3 9053   0.033   1.954  11.437  1.5914  1.4580 -0.9578
  607MPD2     N 9054   0.140   1.836  11.875  0.7397 -0.1011 -0.5469
  607MPD2    H5 9055   0.146   1.881  11.966  0.2101  2.2778 -1.6779
  607MPD2    N1 9056   0.114   2.284  11.746 -0.4121  0.4730  0.1189
  607MPD2    H7 9057   0.155   2.302  11.837 -0.1236  0.8348 -0.0832
  608TMC3    C1 9058   0.056   2.510  11.777 -0.0294  0.2304 -0.1439
  608TMC3    C2 9059   0.051   2.470  11.914 -0.2888  0.6903 -0.3998
  608TMC3    C3 9060   0.038   2.573  12.006  0.8642  0.2649  0.7605
  608TMC3    C4 9061   0.060   2.639  11.741  0.1413 -0.5342  0.4538
  608TMC3    C5 9062   0.064   2.739  11.836 -0.3564 -0.4181 -0.7658
  608TMC3    C6 9063   0.047   2.710  11.968 -0.0626  0.5974 -0.3410
  608TMC3     C 9064   0.070   2.403  11.680 -0.5223  0.2037 -0.5741
  608TMC3     O 9065   0.043   2.417  11.560  0.0991  0.2442  0.0383
  608TMC3     H 9066   0.031   2.369  11.948 -1.3186 -0.0033 -3.0361
  608TMC3    H1 9067   0.078   2.654  11.636  0.5156 -0.3756  0.5424
  608TMC3    H2 9068   0.024   2.787  12.041  2.3845  0.2784  0.7761
  608TMC3    C7 9069   0.133   2.852  11.800  0.1053  0.0908 -0.0219
  608TMC3    C8 9070   0.102   2.543  12.136 -0.6612  0.5672 -0.4149
  608TMC3    O1 9071   0.141   2.873  11.681 -0.7967 -0.2683  0.9313
  608TMC3    O2 9072   0.159   2.636  12.189 -0.0206  0.7587 -0.6921
  609TMC3    C1 9073   3.202   2.170   9.020 -0.4815 -0.1133  0.2986
  609TMC3    C2 9074   3.148   2.254   8.929 -0.4556 -0.0559  0.6356
  609TMC3    C3 9075   3.231   2.320   8.846  1.4278 -0.8693 -0.4265
  609TMC3    C4 9076   3.339   2.142   9.017 -1.0652  0.1782 -0.5335
  609TMC3    C5 9077   3.420   2.202   8.925  0.0660 -0.0407 -1.0267
  609TMC3    C6 9078   3.368   2.296   8.846 -0.4467  0.6254  0.0302
  609TMC3     C 9079   3.129   2.125   9.143 -0.3501 -0.1647  0.6298
  609TMC3     O 9080   3.159   2.025   9.203 -0.1025  0.0121  0.0154
  609TMC3     H 9081   3.041   2.269   8.935 -0.3797 -0.4224  2.6471
  609TMC3    H1 9082   3.380   2.070   9.087 -1.5199 -0.2817 -0.7323
  609TMC3    H2 9083   3.438   2.342   8.777 -0.6868  0.9492  0.0007
  609TMC3    C7 9084   3.559   2.145   8.911 -0.7963 -0.0930 -0.6222
  609TMC3    C8 9085   3.173   2.404   8.742 -0.5618  0.0871  0.1943
  609TMC3    O1 9086   3.604   2.092   9.013  0.3969 -0.2488  0.5815
  609TMC3    O2 9087   3.245   2.408   8.643 -0.1395  0.4187  0.5365
  610TMC3    C1 9088   0.542   2.850  11.981  0.2054  0.2413  0.3361
  610TMC3    C2 9089   0.472   2.749  11.924 -0.2786  0.0098  0.4370
  610TMC3    C3 9090   0.430   2.646  11.999 -0.3144  0.8975 -0.0988
  610TMC3    C4 9091   0.561   2.858  12.112 -0.2951 -0.0428 -0.6738
  610TMC3    C5 9092   0.539   2.744  12.187  0.0571  0.1211 -0.2761
  610TMC3    C6 9093   0.465   2.644  12.133 -0.6504 -0.2897 -0.4742
  610TMC3     C 9094   0.587   2.960  11.888  0.4094  0.8906  0.3842
  610TMC3     O 9095   0.635   3.059  11.942  0.4246 -0.4694 -0.2584
  610TMC3     H 9096   0.433   2.748  11.823  2.0441  0.2945 -0.4851
  610TMC3    H1 9097   0.623   2.940  12.149 -0.9961 -0.0152  0.4500
  610TMC3    H2 9098   0.429   2.569  12.202 -0.2390  0.0575  0.1178
  610TMC3    C7 9099   0.593   2.717  12.319 -0.1024 -0.1887  0.0385
  610TMC3    C8 9100   0.397   2.519  11.927  0.4320  0.5658  0.2861
  610TMC3    O1 9101   0.604   2.595  12.351 -0.0683 -0.6941  0.1457
  610TMC3    O2 9102   0.366   2.523  11.810  0.1004 -0.2963  1.0318
  611MPD2     C 9103   0.491   2.792  10.534  0.1498  0.7552 -0.0842
  611MPD2    C1 9104   0.438   2.893  10.458 -0.3717  0.1436  0.8496
  611MPD2    C2 9105   0.512   3.016  10.452  0.7619 -0.1590 -0.3212
  611MPD2    C3 9106   0.636   3.030  10.505 -0.2215  0.8722 -0.2172
  611MPD2    C4 9107   0.682   2.921  10.576  0.3520  0.4476  0.1436
  611MPD2    C5 9108   0.612   2.803  10.594  0.2811 -0.6371  0.3673
  611MPD2     H 9109   0.468   3.100  10.399  0.2495 -0.6926 -0.7556
  611MPD2    H1 9110   0.778   2.937  10.624  0.1264 -0.6057  0.9430
  611MPD2    H2 9111   0.436   2.701  10.558 -0.6591  0.7618 -1.8469
  611MPD2    H3 9112   0.647   2.734  10.670 -0.0907 -0.4911  0.6698
  611MPD2     N 9113   0.712   3.151  10.498  0.4960 -0.4604 -0.2687
  611MPD2    H5 9114   0.801   3.154  10.547 -1.4730  2.1684  3.1023
  611MPD2    N1 9115   0.311   2.870  10.391 -0.3197  0.2455  0.5666
  611MPD2    H7 9116   0.262   2.791  10.431  0.6821 -0.2077  0.9119
  612TMC3    C1 9117   0.758   3.371  10.425 -0.0852  0.3853  0.5370
  612TMC3    C2 9118   0.852   3.376  10.527  0.4103 -0.1652 -0.2568
  612TMC3    C3 9119   0.930   3.493  10.541 -0.1065 -0.4502 -0.7577
  612TMC3    C4 9120   0.738   3.474  10.339  0.5681 -0.2714  0.0268
  612TMC3    C5 9121   0.817   3.584  10.357 -0.0624  0.0584 -0.2035
  612TMC3    C6 9122   0.904   3.602  10.461  0.2905 -0.2662  0.5976
  612TMC3     C 9123   0.686   3.249  10.404  0.0802 -0.0368 -0.3414
  612TMC3     O 9124   0.608   3.247  10.311  0.1216 -0.5949 -0.0165
  612TMC3     H 9125   0.857   3.293  10.596  0.9999  0.4027  0.3911
  612TMC3    H1 9126   0.667   3.469  10.258 -0.2243 -0.3226  0.7271
  612TMC3    H2 9127   0.971   3.687  10.469  0.4534 -0.2769 -0.6680
  612TMC3    C7 9128   0.834   3.674  10.241 -0.1920 -0.1499 -0.0017
  612TMC3    C8 9129   1.023   3.508  10.656  0.1300  0.6260 -0.0012
  612TMC3    O1 9130   0.861   3.790  10.264  0.0930  0.6049 -0.7402
  612TMC3    O2 9131   1.062   3.622  10.681 -0.3084 -0.7009 -0.7514
  613MPD2     C 9132   4.620   1.230  16.561  0.0217 -0.3227 -0.6884
  613MPD2    C1 9133   4.578   1.114  16.502  0.2094  0.3288 -1.1964
  613MPD2    C2 9134   4.512   1.015  16.572 -0.1375  0.0799 -0.2968
  613MPD2    C3 9135   4.490   1.044  16.708 -0.7111  0.1731 -0.4947
  613MPD2    C4 9136   4.533   1.159  16.764 -0.3617 -0.4508  0.5869
  613MPD2    C5 9137   4.598   1.254  16.692  0.8339 -0.6885 -0.7864
  613MPD2     H 9138   4.469   0.930  16.521 -1.6989 -0.3292  1.6980
  613MPD2    H1 9139   4.499   1.192  16.862 -0.0096 -0.8997  0.8597
  613MPD2    H2 9140   4.694   1.296  16.518  0.2678  0.5219  1.0183
  613MPD2    H3 9141   4.635   1.340  16.745  0.7968 -1.1717  0.0306
  613MPD2     N 9142   4.409   0.959  16.788  0.2780 -0.1900  0.3139
  613MPD2    H5 9143   4.380   0.997  16.877  0.0178  1.7239 -0.5937
  613MPD2    N1 9144   4.603   1.107  16.362  0.0585  0.0280  0.1772
  613MPD2    H7 9145   4.653   1.184  16.319 -1.0176  1.8124  2.1107
  614TMC3    C1 9146   4.619   1.002  16.149 -0.1464  0.0574 -0.3525
  614TMC3    C2 9147   4.612   0.884  16.081  0.6464  0.1552 -0.1451
  614TMC3    C3 9148   4.514   0.868  15.985 -0.4350  0.2250  0.6411
  614TMC3    C4 9149   4.557   1.113  16.089 -0.5446  0.4017  0.2183
  614TMC3    C5 9150   4.467   1.102  15.986 -0.2992  0.8701  0.4277
  614TMC3    C6 9151   4.438   0.971  15.941 -0.0101 -0.1180 -0.0058
  614TMC3     C 9152   4.605   0.990  16.292 -0.0097  0.1589 -0.0737
  614TMC3     O 9153   4.585   0.870  16.324 -0.8729 -0.8779 -0.2557
  614TMC3     H 9154   4.668   0.801  16.123 -0.9593 -0.1350  1.4451
  614TMC3    H1 9155   4.568   1.212  16.130 -0.3501  0.5589 -0.2125
  614TMC3    H2 9156   4.345   0.941  15.893  0.8867 -0.0336 -1.8207
  614TMC3    C7 9157   4.387   1.215  15.939 -0.2774  0.1931 -0.2894
  614TMC3    C8 9158   4.438   0.748  16.009  0.8048  0.4179 -0.2350
  614TMC3    O1 9159   4.375   1.306  16.026 -0.0679  0.4034 -0.1830
  614TMC3    O2 9160   4.382   0.687  15.920  0.0250  0.1344  0.4904
  615MPD2     C 9161   4.230   2.652  16.273 -0.2555 -0.0518 -0.2321
  615MPD2    C1 9162   4.164   2.765  16.318  0.7919 -0.3915 -0.4382
  615MPD2    C2 9163   4.068   2.827  16.241 -0.1127 -0.2475 -0.1461
  615MPD2    C3 9164   4.036   2.767  16.116 -0.1719  0.2649  0.4362
  615MPD2    C4 9165   4.098   2.651  16.077  0.4074 -0.2952  0.7997
  615MPD2    C5 9166   4.195   2.596  16.155 -0.5860 -0.1518 -0.5475
  615MPD2     H 9167   4.018   2.915  16.280  1.5237 -0.1984  1.8304
  615MPD2    H1 9168   4.085   2.611  15.977 -0.6656  0.2912  0.7061
  615MPD2    H2 9169   4.304   2.609  16.339  0.3462 -2.2049 -2.3056
  615MPD2    H3 9170   4.242   2.504  16.124 -0.3056 -0.0394 -0.4522
  615MPD2     N 9171   3.936   2.811  16.028  0.2042 -0.3607 -0.3214
  615MPD2    H5 9172   3.924   2.747  15.950  2.8512 -2.0351  0.6145
  615MPD2    N1 9173   4.173   2.816  16.454 -0.5656  0.0455  0.1952
  615MPD2    H7 9174   4.124   2.903  16.475  0.5622  0.0299  2.8843
  616TMC3    C1 9175   4.262   2.852  16.678 -0.1070 -0.4355 -0.1531
  616TMC3    C2 9176   4.360   2.821  16.768 -0.0909  0.5526  0.3345
  616TMC3    C3 9177   4.343   2.846  16.898 -0.6996 -0.0362 -0.3392
  616TMC3    C4 9178   4.155   2.919  16.715 -0.1319 -0.4785 -0.7908
  616TMC3    C5 9179   4.138   2.952  16.844  0.5117 -0.0640  0.6152
  616TMC3    C6 9180   4.232   2.914  16.939 -0.0973 -0.0500  0.0661
  616TMC3     C 9181   4.269   2.785  16.553 -0.2725  0.0249  0.5118
  616TMC3     O 9182   4.352   2.702  16.534 -0.0327 -0.5711  0.3170
  616TMC3     H 9183   4.437   2.751  16.739 -1.4776 -1.3306  1.1461
  616TMC3    H1 9184   4.070   2.932  16.648  1.7460  0.6925 -2.9356
  616TMC3    H2 9185   4.211   2.909  17.045  1.0520  1.2091  0.3635
  616TMC3    C7 9186   4.000   2.987  16.882 -0.6046 -0.2852  0.6255
  616TMC3    C8 9187   4.427   2.778  16.995  0.2951 -0.4892 -0.6856
  616TMC3    O1 9188   3.911   2.970  16.798  0.3819 -0.7114  0.4658
  616TMC3    O2 9189   4.407   2.817  17.110 -0.3973  0.1190  0.1397
  617MPD2     C 9190   1.675   0.322  13.762 -0.0197 -0.1321  0.4903
  617MPD2    C1 9191   1.695   0.233  13.864 -0.7136 -0.3876  0.3090
  617MPD2    C2 9192   1.587   0.180  13.939  0.2480 -0.4968  0.3210
  617MPD2    C3 9193   1.462   0.216  13.889 -0.1084  0.9913 -0.1660
  617MPD2    C4 9194   1.444   0.302  13.786  0.2651  0.4927  0.0077
  617MPD2    C5 9195   1.551   0.354  13.725 -0.1517  0.0589 -0.3523
  617MPD2     H 9196   1.602   0.117  14.026  0.0302  0.1629  0.8461
  617MPD2    H1 9197   1.348   0.331  13.746  1.2019  2.2299 -1.0167
  617MPD2    H2 9198   1.763   0.342  13.701  0.1209  2.0989  1.4193
  617MPD2    H3 9199   1.536   0.415  13.636 -2.8075 -0.3358 -0.1794
  617MPD2     N 9200   1.343   0.176  13.958  0.0028  0.4027  0.0779
  617MPD2    H5 9201   1.254   0.195  13.913  0.0669  0.6057  0.0349
  617MPD2    N1 9202   1.834   0.202  13.888  0.0745  0.2899 -0.0866
  617MPD2    H7 9203   1.912   0.239  13.834 -1.1798  1.9062 -0.7892
  618TMC3    C1 9204   2.021   0.083  13.956 -0.2375  0.4870 -0.5110
  618TMC3    C2 9205   2.055   4.694  13.904  0.0760 -1.2913  0.2159
  618TMC3    C3 9206   2.179   4.664  13.849  0.7783  0.4891  0.1989
  618TMC3    C4 9207   2.116   0.174  13.961 -0.2234  0.3214 -0.5832
  618TMC3    C5 9208   2.240   0.139  13.919  0.8820  0.4572  0.3305
  618TMC3    C6 9209   2.274   0.025  13.857  0.0559 -0.4338 -0.2358
  618TMC3     C 9210   1.875   0.098  13.974 -0.3141 -0.4053 -0.1683
  618TMC3     O 9211   1.811   0.014  14.043 -0.6344 -0.2218  0.1292
  618TMC3     H 9212   1.975   4.621  13.903  1.1203 -2.3934 -2.0970
  618TMC3    H1 9213   2.111   0.265  14.020  1.6908  0.3177 -0.3985
  618TMC3    H2 9214   2.380   0.014  13.841  0.4597  1.6615  0.9950
  618TMC3    C7 9215   2.338   0.240  13.917  0.0172  0.2783 -0.0036
  618TMC3    C8 9216   2.189   4.534  13.784 -0.6258  0.3734 -0.5607
  618TMC3    O1 9217   2.344   0.317  14.014 -0.1978  0.6796 -0.0576
  618TMC3    O2 9218   2.088   4.464  13.778  0.5564  0.4371 -0.1348
  619MPD2     C 9219   3.541   1.398  14.141  0.3850 -0.0932  0.8962
  619MPD2    C1 9220   3.458   1.340  14.044 -0.1488  0.9386  0.2897
  619MPD2    C2 9221   3.321   1.335  14.060 -0.3270  0.3777  0.3813
  619MPD2    C3 9222   3.272   1.376  14.185 -0.3931  0.1246  0.2541
  619MPD2    C4 9223   3.351   1.431  14.281  0.1389 -0.9649 -0.1760
  619MPD2    C5 9224   3.482   1.442  14.259  0.3024 -0.3567 -0.1451
  619MPD2     H 9225   3.255   1.299  13.982 -0.4214 -2.4192  1.7631
  619MPD2    H1 9226   3.308   1.474  14.371 -2.0855  0.4246 -1.9087
  619MPD2    H2 9227   3.648   1.415  14.131 -0.3254  2.2712 -2.7857
  619MPD2    H3 9228   3.540   1.500  14.331 -0.5511 -3.5646  3.1029
  619MPD2     N 9229   3.134   1.364  14.218  0.2820  0.0603 -0.0680
  619MPD2    H5 9230   3.100   1.415  14.298 -1.3701 -2.4773  0.8291
  619MPD2    N1 9231   3.503   1.304  13.918 -0.2306 -0.4479  0.7440
  619MPD2    H7 9232   3.426   1.276  13.858 -0.0880 -2.2693  1.3845
  620TMC3    C1 9233   3.635   1.317  13.728  0.5657 -0.3837 -0.1396
  620TMC3    C2 9234   3.534   1.262  13.657  0.8531 -0.6656 -0.4915
  620TMC3    C3 9235   3.508   1.297  13.527  0.5864 -0.0888 -0.1401
  620TMC3    C4 9236   3.709   1.418  13.679  0.1793 -0.1009  0.1144
  620TMC3    C5 9237   3.682   1.458  13.547 -0.5499 -1.0675  0.0058
  620TMC3    C6 9238   3.589   1.391  13.466  0.1449  0.0767  0.5882
  620TMC3     C 9239   3.635   1.304  13.871 -0.4681  0.2423  0.1204
  620TMC3     O 9240   3.738   1.330  13.927 -0.1177  0.0278 -0.0119
  620TMC3     H 9241   3.465   1.197  13.710 -0.2015  0.1884 -0.8185
  620TMC3    H1 9242   3.778   1.475  13.740  0.6490 -1.8246  1.2041
  620TMC3    H2 9243   3.565   1.416  13.363 -2.3028 -0.5905  1.0156
  620TMC3    C7 9244   3.673   1.600  13.550 -1.6888 -0.3698 -0.4625
  620TMC3    C8 9245   3.372   1.344  13.507  0.5182  0.8013  0.4317
  620TMC3    O1 9246   3.765   1.664  13.604  0.1139  0.1517 -0.3173
  620TMC3    O2 9247   3.363   1.463  13.482 -0.0805  0.7658  0.1429
  621MPD2     C 9248   2.947   1.666   9.810  0.2680 -0.5592  0.2365
  621MPD2    C1 9249   3.070   1.642   9.749 -0.5427 -0.1422  0.1967
  621MPD2    C2 9250   3.134   1.743   9.690  0.4789 -0.1253  0.2694
  621MPD2    C3 9251   3.077   1.867   9.690  0.2625 -0.2057  0.6338
  621MPD2    C4 9252   2.959   1.883   9.758 -0.2313  0.3362 -0.2753
  621MPD2    C5 9253   2.886   1.786   9.810 -0.3983  0.3542  0.4352
  621MPD2     H 9254   3.230   1.736   9.641  0.3764  1.6336 -0.1778
  621MPD2    H1 9255   2.918   1.983   9.766  2.0090  1.1586  1.0940
  621MPD2    H2 9256   2.898   1.587   9.867  1.5441 -0.9778  0.7439
  621MPD2    H3 9257   2.788   1.801   9.854  0.8225  0.8000  3.0087
  621MPD2     N 9258   3.142   1.964   9.609 -0.3394 -0.1405 -0.2146
  621MPD2    H5 9259   3.229   1.936   9.566  0.4418  0.7906  0.7315
  621MPD2    N1 9260   3.138   1.516   9.748  0.4691  0.5753 -0.1429
  621MPD2    H7 9261   3.225   1.518   9.695  1.7856  0.5112  2.0361
  622TMC3    C1 9262   3.130   1.289   9.696  0.4195  0.0127 -0.3544
  622TMC3    C2 9263   3.111   1.159   9.738  0.9579 -0.1764 -0.0226
  622TMC3    C3 9264   3.157   1.055   9.658  1.0449  0.3343  0.3823
  622TMC3    C4 9265   3.198   1.326   9.584  0.1952  0.8407 -0.0318
  622TMC3    C5 9266   3.232   1.221   9.503  0.6295 -0.1076  0.1868
  622TMC3    C6 9267   3.221   1.091   9.544 -0.2038 -0.4288 -0.1407
  622TMC3     C 9268   3.084   1.396   9.783 -0.0870  0.4228 -0.9726
  622TMC3     O 9269   2.995   1.372   9.861 -0.0071 -0.4647 -0.2974
  622TMC3     H 9270   3.058   1.144   9.831  1.0392  1.3072  0.2490
  622TMC3    H1 9271   3.221   1.425   9.546 -0.1773  1.2766  0.8660
  622TMC3    H2 9272   3.265   1.013   9.483 -0.3055 -0.5936 -0.0012
  622TMC3    C7 9273   3.214   1.240   9.360 -0.2286  0.3048  0.6712
  622TMC3    C8 9274   3.140   0.914   9.693  0.6912 -0.2229 -0.1203
  622TMC3    O1 9275   3.264   1.154   9.286  0.0039 -0.1910  0.1393
  622TMC3    O2 9276   3.179   0.833   9.611  0.2945  0.4546 -0.4123
  623MPD2     C 9277   2.846   2.887  16.040 -0.4782  0.5172 -0.3878
  623MPD2    C1 9278   2.849   2.770  16.109 -0.0305 -0.1108 -0.4130
  623MPD2    C2 9279   2.929   2.767  16.222  0.2353  0.1882 -0.8476
  623MPD2    C3 9280   2.991   2.876  16.276  1.0781  0.2357 -0.4468
  623MPD2    C4 9281   2.986   3.000  16.209 -0.0508 -0.0335  0.7625
  623MPD2    C5 9282   2.912   2.997  16.088  0.4109  0.3387  0.0992
  623MPD2     H 9283   2.936   2.678  16.283 -0.3681  2.7599  3.0040
  623MPD2    H1 9284   3.035   3.091  16.243 -1.1828  0.8490  0.0190
  623MPD2    H2 9285   2.778   2.900  15.956 -3.0295 -1.7015  1.3223
  623MPD2    H3 9286   2.901   3.088  16.031  0.2477  0.5308  0.4401
  623MPD2     N 9287   3.057   2.858  16.392  0.1964  0.1844  0.2566
  623MPD2    H5 9288   3.063   2.768  16.439  1.3845 -0.2776 -0.8061
  623MPD2    N1 9289   2.782   2.655  16.055 -0.0524  0.1203  0.2251
  623MPD2    H7 9290   2.734   2.668  15.966  1.4456  0.0962 -0.5856
  624TMC3    C1 9291   3.333   2.774  16.688 -0.3307 -0.1527  0.1902
  624TMC3    C2 9292   3.244   2.717  16.761  0.2386 -0.5275 -0.9088
  624TMC3    C3 9293   3.112   2.746  16.749  0.4230  0.1907 -0.2328
  624TMC3    C4 9294   3.299   2.869  16.594  0.2514 -0.5462 -0.2837
  624TMC3    C5 9295   3.168   2.901  16.586  0.3549  0.3114  0.1849
  624TMC3    C6 9296   3.067   2.843  16.662 -0.7526 -0.1573  0.3093
  624TMC3     C 9297   3.463   2.763  16.749 -0.3851  0.2005 -0.8526
  624TMC3     O 9298   3.472   2.724  16.867  0.1152 -0.0242  0.2360
  624TMC3     H 9299   3.271   2.640  16.831 -1.2654 -0.7233 -0.5340
  624TMC3    H1 9300   3.374   2.929  16.543  0.5853 -1.5485 -0.9701
  624TMC3    H2 9301   2.964   2.852  16.629 -0.3359 -0.7253 -1.1306
  624TMC3    C7 9302   3.129   2.952  16.457 -0.4459 -0.0732 -0.2343
  624TMC3    C8 9303   3.017   2.641  16.789  0.8462  0.5047  0.2741
  624TMC3    O1 9304   3.176   3.060  16.421  0.0088 -0.0743 -0.0130
  624TMC3    O2 9305   3.055   2.525  16.764 -0.2726  0.0159  0.6000
  625MPD2     C 9306   2.929   3.312   0.618 -0.4099 -0.4663 -0.0239
  625MPD2    C1 9307   2.945   3.450   0.629 -0.3723  0.2881  0.7403
  625MPD2    C2 9308   3.051   3.506   0.701 -0.0474  0.3814 -0.2097
  625MPD2    C3 9309   3.142   3.423   0.767 -0.3961 -0.7684  0.2512
  625MPD2    C4 9310   3.129   3.288   0.754 -0.2450 -0.0014  0.2968
  625MPD2    C5 9311   3.029   3.231   0.680 -0.2858  0.0934 -0.1788
  625MPD2     H 9312   3.049   3.615   0.704 -1.8916  0.3153  1.2721
  625MPD2    H1 9313   3.204   3.220   0.794  0.0018 -0.8380 -1.5837
  625MPD2    H2 9314   2.838   3.261   0.585 -1.5581  2.1597 -0.9066
  625MPD2    H3 9315   3.026   3.123   0.674 -2.1874  0.0528  1.4008
  625MPD2     N 9316   3.252   3.488   0.837  0.6898 -0.0081 -0.7964
  625MPD2    H5 9317   3.266   3.584   0.807  0.2318 -0.9546 -4.0620
  625MPD2    N1 9318   2.861   3.540   0.563  0.1355  0.0784 -0.3934
  625MPD2    H7 9319   2.860   3.637   0.594 -1.2665 -0.4305  1.1435
  626TMC3    C1 9320   2.698   3.623   0.419  0.3056  0.0500 -0.0972
  626TMC3    C2 9321   2.689   3.636   0.285 -0.6009  0.4646 -0.2090
  626TMC3    C3 9322   2.643   3.744   0.223 -0.3599 -0.1028  0.7554
  626TMC3    C4 9323   2.688   3.732   0.495 -0.1482  0.1281  1.2971
  626TMC3    C5 9324   2.640   3.849   0.433 -0.2570  0.5991 -0.1854
  626TMC3    C6 9325   2.611   3.854   0.300  0.1308  0.8510 -0.0705
  626TMC3     C 9326   2.772   3.503   0.469  0.3476 -0.3451  0.2988
  626TMC3     O 9327   2.768   3.402   0.403 -0.9598 -0.4062 -0.0543
  626TMC3     H 9328   2.722   3.553   0.223  0.8995  0.5584  0.4657
  626TMC3    H1 9329   2.690   3.716   0.602  1.4778 -0.2930  1.1996
  626TMC3    H2 9330   2.579   3.947   0.255 -2.2559 -0.4210 -1.0064
  626TMC3    C7 9331   2.584   3.954   0.515 -0.2273  0.3019 -0.6735
  626TMC3    C8 9332   2.623   3.753   0.076 -0.5471 -0.0414  0.1462
  626TMC3    O1 9333   2.507   4.029   0.450 -0.2014 -0.6413 -0.1170
  626TMC3    O2 9334   2.680   3.670   0.007 -0.5743  0.1725 -0.5866
  627MPD2     C 9335   1.273   3.630  14.493 -0.3852  0.0395  0.2239
  627MPD2    C1 9336   1.405   3.658  14.507 -0.0881 -0.1581 -0.0840
  627MPD2    C2 9337   1.493   3.617  14.410 -0.5486  1.0926 -0.2173
  627MPD2    C3 9338   1.451   3.530  14.314 -0.0238 -0.2603 -0.0405
  627MPD2    C4 9339   1.320   3.509  14.294  0.1175 -0.2588  0.3057
  627MPD2    C5 9340   1.227   3.556  14.385  0.1730  0.4450 -0.0187
  627MPD2     H 9341   1.596   3.649  14.422 -0.3669 -0.0203  1.2589
  627MPD2    H1 9342   1.277   3.442  14.220 -1.6703  0.1274  1.0061
  627MPD2    H2 9343   1.197   3.666  14.561  0.6851  0.7098  1.0634
  627MPD2    H3 9344   1.119   3.550  14.375  0.3293  2.1058 -2.7087
  627MPD2     N 9345   1.555   3.475  14.241 -0.1454 -0.1970 -0.6825
  627MPD2    H5 9346   1.650   3.496  14.269 -0.5431  0.0786  0.4896
  627MPD2    N1 9347   1.455   3.725  14.619 -0.5577 -0.3507  0.1366
  627MPD2    H7 9348   1.556   3.725  14.624 -0.5009 -0.5812 -1.1137
  628TMC3    C1 9349   1.472   3.861  14.803  0.1867  0.5014  0.2743
  628TMC3    C2 9350   1.597   3.804  14.807 -0.0525 -0.8203  0.4950
  628TMC3    C3 9351   1.709   3.877  14.789 -0.3238 -0.2753 -1.0873
  628TMC3    C4 9352   1.467   4.001  14.792  0.4095  0.6516  0.7586
  628TMC3    C5 9353   1.584   4.074  14.767 -0.5771 -0.3883 -1.0048
  628TMC3    C6 9354   1.706   4.015  14.776  0.1209 -0.3880 -0.2120
  628TMC3     C 9355   1.384   3.806  14.704  0.0624 -0.0522 -0.0774
  628TMC3     O 9356   1.265   3.827  14.723 -0.4760 -1.0527 -0.4767
  628TMC3     H 9357   1.614   3.697  14.810 -1.7221 -1.1100 -0.2159
  628TMC3    H1 9358   1.370   4.050  14.791  0.6776  1.1979  1.2049
  628TMC3    H2 9359   1.792   4.069  14.738  0.6684 -0.7975  0.4509
  628TMC3    C7 9360   1.587   4.219  14.755 -0.1814  0.1578 -0.0377
  628TMC3    C8 9361   1.785   3.821  14.687  0.2287 -0.4587 -0.1910
  628TMC3    O1 9362   1.685   4.273  14.804 -0.6620  0.5481  0.2415
  628TMC3    O2 9363   1.721   3.799  14.587  0.3505 -0.2044 -0.7060
  629MPD2     C 9364   0.019   2.426  17.178 -0.2583 -0.2779 -0.4105
  629MPD2    C1 9365   4.725   2.389  17.052 -0.1058  0.2465 -0.2018
  629MPD2    C2 9366   4.642   2.470  16.977 -0.6786 -0.3255 -0.9212
  629MPD2    C3 9367   4.591   2.586  17.032 -0.3844 -0.2666  0.0346
  629MPD2    C4 9368   4.621   2.627  17.161  0.2251 -0.1375  0.0774
  629MPD2    C5 9369   4.701   2.538  17.234 -0.0775  0.7000 -0.9913
  629MPD2     H 9370   4.616   2.447  16.875  1.0558  2.6131 -2.0251
  629MPD2    H1 9371   4.585   2.709  17.222  1.7537  2.5249 -2.5975
  629MPD2    H2 9372   0.080   2.369  17.247 -0.7480  1.8902  1.7970
  629MPD2    H3 9373   4.710   2.560  17.340  1.7446 -0.1019 -0.9853
  629MPD2     N 9374   4.497   2.664  16.955 -0.0735 -0.2935 -0.5312
  629MPD2    H5 9375   4.473   2.623  16.865  1.2300 -0.8427 -0.6296
  629MPD2    N1 9376   0.043   2.266  16.999  0.3649 -0.5133 -0.3955
  629MPD2    H7 9377   0.097   2.208  17.061 -1.4658 -2.0940 -0.2637
  630TMC3    C1 9378   0.129   2.115  16.849 -0.1485 -0.2426  0.4813
  630TMC3    C2 9379   0.205   2.157  16.743 -0.4059 -0.8064 -0.4936
  630TMC3    C3 9380   0.341   2.160  16.757  0.0432  0.6716 -0.0319
  630TMC3    C4 9381   0.187   2.070  16.966  0.5173 -0.0060 -0.5828
  630TMC3    C5 9382   0.323   2.059  16.979  0.5964 -0.2192  0.1201
  630TMC3    C6 9383   0.403   2.104  16.873 -0.2287 -0.0883  0.0004
  630TMC3     C 9384   0.037   2.226  16.870  0.0933  0.0291  0.5917
  630TMC3     O 9385   4.727   2.285  16.775  0.4549 -0.4868  0.8226
  630TMC3     H 9386   0.160   2.197  16.653  0.0836  0.2453 -0.2758
  630TMC3    H1 9387   0.110   2.029  17.030  1.6566 -1.0376  0.1332
  630TMC3    H2 9388   0.510   2.115  16.877 -0.1014 -1.4623  0.2040
  630TMC3    C7 9389   0.366   2.111  17.105 -0.0880 -0.1642 -0.1661
  630TMC3    C8 9390   0.400   2.287  16.740 -0.4668 -0.3115  0.0147
  630TMC3    O1 9391   0.270   2.144  17.174 -0.0666 -0.1761  0.0717
  630TMC3    O2 9392   0.517   2.298  16.764 -0.0661 -0.6135 -0.6700
  631MPD2     C 9393   3.190   2.640  15.416 -0.6437 -0.2545 -0.4281
  631MPD2    C1 9394   3.195   2.780  15.402 -0.5906  0.5430  0.3473
  631MPD2    C2 9395   3.292   2.850  15.467  0.2353  0.2467  0.2019
  631MPD2    C3 9396   3.385   2.782  15.544 -0.4060  0.1649 -0.5557
  631MPD2    C4 9397   3.372   2.648  15.563  0.1987 -0.1104  0.1994
  631MPD2    C5 9398   3.274   2.578  15.502  1.0440  0.0647 -0.1559
  631MPD2     H 9399   3.293   2.958  15.458 -0.0620  0.2741  0.5029
  631MPD2    H1 9400   3.439   2.596  15.629  0.2765 -1.1510 -0.6999
  631MPD2    H2 9401   3.117   2.583  15.359  1.8076 -1.7830 -2.0093
  631MPD2    H3 9402   3.276   2.471  15.517 -0.6351 -0.0648 -0.9352
  631MPD2     N 9403   3.499   2.845  15.596  0.1061  0.0275 -0.1617
  631MPD2    H5 9404   3.505   2.944  15.571  0.0871  0.3254  0.9855
  631MPD2    N1 9405   3.101   2.845  15.309  0.2132  0.0733  0.3773
  631MPD2    H7 9406   3.029   2.785  15.270  1.9745 -1.5158 -0.3846
  632TMC3    C1 9407   3.031   3.015  15.148  0.3274  0.2960 -0.4981
  632TMC3    C2 9408   2.897   2.999  15.150  0.0727 -0.3972 -0.2903
  632TMC3    C3 9409   2.835   3.040  15.032 -0.6131 -0.7340  0.2925
  632TMC3    C4 9410   3.108   3.059  15.040 -0.1283 -0.1361 -0.3094
  632TMC3    C5 9411   3.042   3.110  14.932  0.1484 -0.0695  1.0498
  632TMC3    C6 9412   2.903   3.105  14.932 -0.1767 -0.0454  0.1255
  632TMC3     C 9413   3.110   2.976  15.264 -0.2949 -0.7530 -0.4855
  632TMC3     O 9414   3.190   3.057  15.292  0.8809 -0.2275 -0.0100
  632TMC3     H 9415   2.847   2.948  15.232 -2.1177 -0.1493 -1.4709
  632TMC3    H1 9416   3.216   3.063  15.053  0.0441 -0.1152 -1.7571
  632TMC3    H2 9417   2.847   3.137  14.844  1.0608  1.1647 -0.2174
  632TMC3    C7 9418   3.106   3.116  14.810 -0.2018  0.0045 -0.7005
  632TMC3    C8 9419   2.691   3.026  15.015 -0.1990  0.0097 -0.3561
  632TMC3    O1 9420   3.037   3.124  14.707 -0.2659 -0.1451  0.2059
  632TMC3    O2 9421   2.642   3.070  14.913 -0.0320  0.2661 -0.1909
  633MPD2     C 9422   2.757   0.918  17.286  0.5559 -0.2619  0.5875
  633MPD2    C1 9423   2.725   0.853  17.167 -0.0372  0.2988 -1.0706
  633MPD2    C2 9424   2.698   0.714  17.176 -0.2373 -0.4105  0.0817
  633MPD2    C3 9425   2.719   0.639  17.294 -0.3562 -0.1640 -0.2621
  633MPD2    C4 9426   2.761   0.707  17.404  0.0053  0.6908 -0.2043
  633MPD2    C5 9427   2.762   0.843  17.407  0.1006  0.3239  0.3059
  633MPD2     H 9428   2.683   0.655  17.087 -1.5039  0.1682 -0.0857
  633MPD2    H1 9429   2.774   0.656  17.498 -1.3288  0.8648  0.0816
  633MPD2    H2 9430   2.775   1.024  17.284 -0.4844 -0.0827  0.3059
  633MPD2    H3 9431   2.796   0.888  17.500  0.8449  2.0232 -0.7893
  633MPD2     N 9432   2.720   0.498  17.294  0.6116  0.2369 -0.2328
  633MPD2    H5 9433   2.762   0.452  17.374  0.2341  1.8927  0.9248
  633MPD2    N1 9434   2.719   0.913  17.041 -0.8199  0.1533 -0.3996
  633MPD2    H7 9435   2.697   0.853  16.963  2.7547 -0.8122 -0.6714
  634TMC3    C1 9436   2.780   1.058  16.873  0.1526  0.1774 -0.3834
  634TMC3    C2 9437   2.854   0.946  16.832 -0.1043  0.4570  0.5050
  634TMC3    C3 9438   2.923   0.966  16.716  0.0034 -0.1754 -0.1334
  634TMC3    C4 9439   2.796   1.185  16.823  0.6026 -0.9616 -0.1038
  634TMC3    C5 9440   2.878   1.198  16.718  0.2522  0.0913  0.4093
  634TMC3    C6 9441   2.943   1.093  16.664 -0.3359  0.4266  0.4036
  634TMC3     C 9442   2.743   1.050  17.010 -0.1365  0.2418  0.1492
  634TMC3     O 9443   2.766   1.148  17.080  0.3006  0.1242 -0.0533
  634TMC3     H 9444   2.831   0.846  16.866 -1.9363  0.6722 -0.0988
  634TMC3    H1 9445   2.738   1.269  16.858  1.3913 -0.0185 -1.0647
  634TMC3    H2 9446   3.023   1.113  16.593  0.7180 -1.2989  1.0907
  634TMC3    C7 9447   2.895   1.326  16.648  0.2942 -0.0007 -0.4842
  634TMC3    C8 9448   2.964   0.857  16.636  0.6547  0.5780  0.1817
  634TMC3    O1 9449   2.950   1.312  16.539 -0.1894 -0.2953 -0.6884
  634TMC3    O2 9450   2.934   0.750  16.683  0.2108  0.5235 -0.2282
  635TMC3    C1 9451   3.165   1.771  17.557  0.6647 -0.6236 -0.2769
  635TMC3    C2 9452   3.214   1.717  17.436 -0.1331  0.2991  0.3026
  635TMC3    C3 9453   3.215   1.585  17.413  0.6665  0.0910 -0.1310
  635TMC3    C4 9454   3.111   1.688  17.649 -0.0570  0.5801 -0.0108
  635TMC3    C5 9455   3.106   1.551  17.628  0.4801 -0.1240  0.0013
  635TMC3    C6 9456   3.160   1.498  17.510  0.2394  0.1494 -1.1100
  635TMC3     C 9457   3.196   1.906  17.610 -0.3691  0.2637  0.3053
  635TMC3     O 9458   3.207   1.915  17.733 -0.3196  0.5987 -0.0539
  635TMC3     H 9459   3.236   1.774  17.347 -0.0869 -0.0719  0.0746
  635TMC3    H1 9460   3.091   1.736   0.007  0.6634  1.6640 -0.3976
  635TMC3    H2 9461   3.134   1.395  17.487 -1.3966 -0.1520  2.1474
  635TMC3    C7 9462   3.088   1.465   0.002 -0.0001 -0.4293  0.2746
  635TMC3    C8 9463   3.289   1.532  17.301  0.5509  0.6997 -0.5622
  635TMC3    O1 9464   3.133   1.349  17.726 -0.3074 -0.4938  0.9284
  635TMC3    O2 9465   3.322   1.608  17.211  0.4020  0.7258  0.0112
  636MPD2     C 9466   3.664   1.317  16.585 -0.1589  0.3398  0.0111
  636MPD2    C1 9467   3.800   1.340  16.589 -0.7644  0.7957 -0.2646
  636MPD2    C2 9468   3.885   1.245  16.645 -0.5712 -0.4402  1.0082
  636MPD2    C3 9469   3.840   1.127  16.693  0.0177  0.5737  0.4077
  636MPD2    C4 9470   3.704   1.112  16.696  0.6367 -0.0116 -0.8298
  636MPD2    C5 9471   3.616   1.202  16.638  0.4384  0.1378  0.1511
  636MPD2     H 9472   3.990   1.270  16.657 -0.4274 -0.4428 -0.2905
  636MPD2    H1 9473   3.658   1.027  16.745  0.9644  0.7872  0.8752
  636MPD2    H2 9474   3.591   1.389  16.551 -0.3254 -0.0432 -0.4441
  636MPD2    H3 9475   3.509   1.185  16.634  0.4151 -0.1887  2.4443
  636MPD2     N 9476   3.934   1.029  16.740 -0.3419 -0.4260 -0.0737
  636MPD2    H5 9477   4.029   1.065  16.741 -0.5372  0.0815 -0.0678
  636MPD2    N1 9478   3.863   1.461  16.552 -0.2516  0.1224  0.5167
  636MPD2    H7 9479   3.956   1.476  16.590  0.1152 -2.3473  0.5919
  637TMC3    C1 9480   4.026   0.826  16.799 -0.3190 -0.0448 -0.0567
  637TMC3    C2 9481   4.155   0.874  16.813 -0.0482 -0.0995 -0.3460
  637TMC3    C3 9482   4.262   0.789  16.810  0.2906 -0.2008 -0.0055
  637TMC3    C4 9483   4.004   0.690  16.773  0.7838  0.1031 -0.2389
  637TMC3    C5 9484   4.112   0.615  16.759 -0.8138 -0.9930 -1.2347
  637TMC3    C6 9485   4.235   0.660  16.779 -0.3347 -0.5606 -0.6935
  637TMC3     C 9486   3.908   0.904  16.766 -0.3643  0.3432  0.1240
  637TMC3     O 9487   3.815   0.839  16.720 -0.2497 -0.0423  0.0320
  637TMC3     H 9488   4.170   0.981  16.828  0.6214 -0.2835  0.3074
  637TMC3    H1 9489   3.910   0.642  16.747  0.6132  0.2151  0.1722
  637TMC3    H2 9490   4.322   0.599  16.757  0.6977  0.9922 -0.9186
  637TMC3    C7 9491   4.107   0.550  16.633  0.3482 -0.2303  0.3831
  637TMC3    C8 9492   4.374   0.835  16.747  0.6149 -0.3226 -0.4808
  637TMC3    O1 9493   4.013   0.481  16.600  0.6075 -0.0972 -0.0776
  637TMC3    O2 9494   4.413   0.770  16.653 -0.2214  0.3065 -0.4750
  638MPD2     C 9495   4.006   4.571  14.807  0.5847 -0.0867  0.2897
  638MPD2    C1 9496   3.952   4.475  14.730  0.2899 -0.3740 -0.1489
  638MPD2    C2 9497   3.861   4.381  14.785 -0.0547  0.0616  0.1869
  638MPD2    C3 9498   3.858   4.362  14.919 -0.3887 -0.4493  0.1879
  638MPD2    C4 9499   3.929   4.451  15.000  0.7657 -0.7632 -0.4776
  638MPD2    C5 9500   3.998   4.560  14.946 -0.6717 -0.9333  0.2589
  638MPD2     H 9501   3.814   4.300  14.730 -0.6405  0.0851  0.6567
  638MPD2    H1 9502   3.923   4.448  15.109  1.1923 -1.1824 -0.4666
  638MPD2    H2 9503   4.069   4.651  14.771 -0.6586  1.9896  2.7122
  638MPD2    H3 9504   4.045   4.634  15.009  1.1664 -1.7645 -0.1362
  638MPD2     N 9505   3.790   4.245  14.956  0.0874  0.4195 -0.5040
  638MPD2    H5 9506   3.761   4.182  14.882 -0.0491  1.3153 -1.2130
  638MPD2    N1 9507   3.997   4.463  14.593 -0.0166 -0.0865  0.0331
  638MPD2    H7 9508   4.092   4.489  14.569  0.2557 -1.4347 -0.3590
  639TMC3    C1 9509   3.768   4.053  15.094 -0.3132 -0.0050 -0.0370
  639TMC3    C2 9510   3.709   3.994  14.988  0.5647 -0.0803 -0.0089
  639TMC3    C3 9511   3.727   3.863  14.966  0.2779  0.7110 -0.0471
  639TMC3    C4 9512   3.856   3.986  15.176 -0.2467 -0.7722 -0.2031
  639TMC3    C5 9513   3.874   3.850  15.153 -0.0390  0.1787  0.2272
  639TMC3    C6 9514   3.804   3.789  15.056  0.0232  0.3128 -0.2259
  639TMC3     C 9515   3.792   4.195  15.086 -0.0336 -0.0031 -0.3922
  639TMC3     O 9516   3.837   4.248  15.189 -0.5938  0.5158  0.0383
  639TMC3     H 9517   3.636   4.049  14.929  0.5810 -1.8138 -1.6521
  639TMC3    H1 9518   3.915   4.043  15.247 -2.2190  0.4357  0.4623
  639TMC3    H2 9519   3.812   3.681  15.052 -0.8051  0.2525 -0.2031
  639TMC3    C7 9520   3.986   3.782  15.213  0.4579 -0.3515 -0.2928
  639TMC3    C8 9521   3.642   3.783  14.875 -0.1730  0.1857 -0.1749
  639TMC3    O1 9522   4.030   3.822  15.319  0.3929  0.2014 -0.3574
  639TMC3    O2 9523   3.676   3.663  14.863 -0.0265  0.5967 -0.2877
  640MPD2     C 9524   4.048   2.920   9.501  0.1428 -0.8526 -0.2455
  640MPD2    C1 9525   4.123   2.918   9.611  0.3634  0.5824  0.6331
  640MPD2    C2 9526   4.080   2.989   9.722 -0.3164  0.0058 -0.6895
  640MPD2    C3 9527   3.954   3.053   9.713 -0.4531  0.2198 -0.3066
  640MPD2    C4 9528   3.878   3.043   9.602 -0.2491  1.0883 -0.0055
  640MPD2    C5 9529   3.927   2.979   9.490  0.0125  0.1247 -0.0733
  640MPD2     H 9530   4.141   3.018   9.807  2.6439  0.6146 -3.0510
  640MPD2    H1 9531   3.780   3.087   9.589  0.2627  2.4385  0.6698
  640MPD2    H2 9532   4.082   2.875   9.409  0.8466 -1.6023  0.3790
  640MPD2    H3 9533   3.874   2.973   9.396 -0.0468 -0.1505 -0.0224
  640MPD2     N 9534   3.892   3.110   9.827 -0.3346 -0.0702 -0.4612
  640MPD2    H5 9535   3.794   3.131   9.812 -0.3113  0.0345 -0.4656
  640MPD2    N1 9536   4.248   2.847   9.607  0.4568 -0.4190 -0.0617
  640MPD2    H7 9537   4.281   2.800   9.524  0.9737  0.1214 -0.1557
  641TMC3    C1 9538   4.422   2.716   9.721  0.1833 -0.7252  0.7869
  641TMC3    C2 9539   4.382   2.596   9.662 -0.2765  0.3636 -0.0407
  641TMC3    C3 9540   4.478   2.494   9.675 -0.3788 -0.2597  0.1515
  641TMC3    C4 9541   4.535   2.729   9.798  0.0751 -0.0708  0.5902
  641TMC3    C5 9542   4.609   2.619   9.818  0.4388 -0.1288 -0.0905
  641TMC3    C6 9543   4.595   2.503   9.742 -0.8161 -0.6216 -0.1371
  641TMC3     C 9544   4.324   2.823   9.725 -0.1819 -0.4797 -0.3295
  641TMC3     O 9545   4.321   2.874   9.835 -0.3781  1.2581  0.1163
  641TMC3     H 9546   4.299   2.595   9.592 -0.3982 -0.6696  0.1265
  641TMC3    H1 9547   4.545   2.821   9.854 -1.4258  1.2813 -1.3606
  641TMC3    H2 9548   4.673   2.432   9.721  0.4787  1.9269 -4.1109
  641TMC3    C7 9549   4.734   2.640   9.883  0.3812 -0.3610  0.0533
  641TMC3    C8 9550   4.441   2.366   9.612 -0.8990  0.0755  0.1653
  641TMC3    O1 9551   0.037   2.752   9.897 -0.6602 -0.2700  0.1480
  641TMC3    O2 9552   4.361   2.372   9.519 -0.5908  0.3396  0.9708
  642TMC3    C1 9553   0.391   3.928  12.321  0.5657 -0.5231 -0.0713
  642TMC3    C2 9554   0.522   3.952  12.274 -0.4550  0.4531  0.0247
  642TMC3    C3 9555   0.563   3.925  12.150  0.9905  0.6110  0.6256
  642TMC3    C4 9556   0.298   3.867  12.242  0.0675  0.2038 -0.5090
  642TMC3    C5 9557   0.350   3.830  12.119  0.0484 -0.3090  0.1405
  642TMC3    C6 9558   0.479   3.854  12.074 -0.3031 -0.4760 -0.4382
  642TMC3     C 9559   0.353   3.982  12.451 -0.3866 -0.3935  0.6425
  642TMC3     O 9560   0.450   4.005  12.525 -0.6543 -0.1673  0.0933
  642TMC3     H 9561   0.595   3.998  12.340  0.7539 -1.6980  0.2001
  642TMC3    H1 9562   0.198   3.840  12.276 -1.0787  0.2540 -3.8671
  642TMC3    H2 9563   0.503   3.826  11.972  0.1402 -1.5055 -0.0516
  642TMC3    C7 9564   0.273   3.738  12.039  0.3206 -0.0611  0.3483
  642TMC3    C8 9565   0.704   3.937  12.109  0.3635  0.6158 -0.0299
  642TMC3    O1 9566   0.306   3.706  11.923  0.1962  0.1286 -0.7437
  642TMC3    O2 9567   0.732   3.914  11.992  0.2638 -0.8685  0.5139
  643TMC3    C1 9568   0.016   3.416   0.302 -0.3156 -0.4193 -0.1911
  643TMC3    C2 9569   4.638   3.491   0.287  0.0100 -0.2892  0.1589
  643TMC3    C3 9570   4.545   3.461   0.195  0.4331  0.5252  0.2790
  643TMC3    C4 9571   0.046   3.316   0.210 -0.1120  0.2120 -0.0529
  643TMC3    C5 9572   4.677   3.283   0.122 -0.3463  0.2592 -0.1848
  643TMC3    C6 9573   4.564   3.358   0.112  0.3272 -0.2687 -0.4201
  643TMC3     C 9574   0.131   3.490   0.356 -0.1276  0.5496  0.7236
  643TMC3     O 9575   0.136   3.613   0.346 -0.6436 -0.3863  0.0269
  643TMC3     H 9576   4.626   3.575   0.355 -0.3586 -0.6076  0.4881
  643TMC3    H1 9577   0.145   3.271   0.206 -0.0941  0.3161 -0.6863
  643TMC3    H2 9578   4.486   3.339   0.039 -0.7307 -1.3279  0.9692
  643TMC3    C7 9579   4.728   3.247  17.730  0.1203 -0.4182  0.2929
  643TMC3    C8 9580   4.464   3.564   0.144 -0.7955 -0.4184  0.2549
  643TMC3    O1 9581   0.104   3.276  17.699  0.2426 -0.3068  0.0083
  643TMC3    O2 9582   4.343   3.538   0.129  0.2801 -0.5876  0.3904
  644MPD2     C 9583   3.511   3.267   9.029 -0.0095  0.2886 -0.3357
  644MPD2    C1 9584   3.591   3.243   9.138 -0.9813 -0.8507  0.3759
  644MPD2    C2 9585   3.537   3.260   9.266  0.1904  0.7493  0.2331
  644MPD2    C3 9586   3.404   3.302   9.289  0.5689 -0.4986  0.7475
  644MPD2    C4 9587   3.326   3.325   9.172 -0.2156 -0.8625  0.4504
  644MPD2    C5 9588   3.379   3.298   9.045  0.1463 -0.0169  0.6775
  644MPD2     H 9589   3.597   3.241   9.355 -0.2620  0.1121  0.4042
  644MPD2    H1 9590   3.221   3.349   9.179 -0.6284 -2.8638  0.9562
  644MPD2    H2 9591   3.548   3.240   8.931  0.7056 -1.0210  0.3091
  644MPD2    H3 9592   3.313   3.297   8.959  0.4550 -0.7822  0.4428
  644MPD2     N 9593   3.356   3.325   9.417 -0.1294  0.4858 -0.1756
  644MPD2    H5 9594   3.425   3.338   9.490 -0.7266  1.4788  0.1997
  644MPD2    N1 9595   3.722   3.194   9.118 -0.0203 -0.5804 -0.2135
  644MPD2    H7 9596   3.751   3.182   9.022  1.3261 -0.0378  0.1180
  645TMC3    C1 9597   3.189   3.306   9.589 -0.1188 -0.1648 -0.2988
  645TMC3    C2 9598   3.266   3.375   9.677  0.3802 -0.3352  0.0204
  645TMC3    C3 9599   3.226   3.360   9.810 -0.3196  0.4968  0.0582
  645TMC3    C4 9600   3.097   3.214   9.628 -1.0166  0.4277  0.0601
  645TMC3    C5 9601   3.073   3.197   9.761 -0.1825 -0.3613 -0.2089
  645TMC3    C6 9602   3.135   3.273   9.856  0.2721 -0.0265 -0.2816
  645TMC3     C 9603   3.222   3.308   9.446 -0.2254  0.5219 -0.2516
  645TMC3     O 9604   3.130   3.270   9.372 -0.5116 -0.1132 -0.1971
  645TMC3     H 9605   3.324   3.462   9.646 -2.7326  2.7887  3.0288
  645TMC3    H1 9606   3.032   3.161   9.558 -2.2097  1.6830  0.2156
  645TMC3    H2 9607   3.112   3.260   9.961  1.3120 -2.0331 -0.2955
  645TMC3    C7 9608   2.960   3.110   9.800 -0.2803  0.4950 -0.0447
  645TMC3    C8 9609   3.297   3.432   9.917  0.2347  0.1322  0.0425
  645TMC3    O1 9610   2.885   3.070   9.706 -0.0247 -0.0571  0.9750
  645TMC3    O2 9611   3.233   3.442  10.022  0.7705  0.5001  0.0718
  646MPD2     C 9612   4.108   3.075  14.417 -0.0995  0.4332  0.1899
  646MPD2    C1 9613   4.017   3.060  14.516 -0.2338 -0.0444 -0.0444
  646MPD2    C2 9614   3.891   3.118  14.498  0.1460  0.1253  0.1548
  646MPD2    C3 9615   3.854   3.161  14.368 -0.3548 -0.1850 -0.7766
  646MPD2    C4 9616   3.942   3.146  14.265 -0.0969 -0.1356  0.2265
  646MPD2    C5 9617   4.069   3.115  14.289  0.7800 -0.0627  0.3208
  646MPD2     H 9618   3.822   3.128  14.581 -1.6156  1.2074 -1.4456
  646MPD2    H1 9619   3.914   3.168  14.163  1.5300  0.3689 -0.1091
  646MPD2    H2 9620   4.212   3.049  14.421 -0.1806  0.0879  0.0330
  646MPD2    H3 9621   4.147   3.120  14.214  0.7708 -0.9718  0.2584
  646MPD2     N 9622   3.721   3.212  14.356  0.5324 -0.0427  0.3002
  646MPD2    H5 9623   3.660   3.214  14.437  0.3391 -1.1102  0.1712
  646MPD2    N1 9624   4.065   3.022  14.642 -0.3233  0.3115  0.6560
  646MPD2    H7 9625   4.164   2.998  14.644 -0.6175 -1.0549 -1.1002
  647TMC3    C1 9626   4.085   2.976  14.876  0.9459  0.0661  0.3280
  647TMC3    C2 9627   4.025   2.970  14.996  0.4516 -0.3871 -0.3579
  647TMC3    C3 9628   4.100   2.941  15.105  0.3010 -0.2751  0.3303
  647TMC3    C4 9629   4.219   2.950  14.868 -0.7884 -0.0330 -0.1728
  647TMC3    C5 9630   4.297   2.931  14.980  0.7114 -0.0423 -0.3677
  647TMC3    C6 9631   4.235   2.922  15.100  0.3135  0.6251  0.3035
  647TMC3     C 9632   3.999   3.007  14.758 -0.0298  0.2866 -1.0071
  647TMC3     O 9633   3.883   3.022  14.792 -0.2501  0.5543  0.3496
  647TMC3     H 9634   3.922   3.001  15.008  0.7830  1.0746 -1.3151
  647TMC3    H1 9635   4.264   2.954  14.769  1.0130  2.6521  0.7497
  647TMC3    H2 9636   4.290   2.891  15.188  0.1334  1.1700  0.6100
  647TMC3    C7 9637   4.421   2.866  14.966  0.1067  0.5655  0.0652
  647TMC3    C8 9638   4.033   2.893  15.228 -0.0137  0.2095  0.2679
  647TMC3    O1 9639   4.475   2.830  15.069  0.4832  0.3092 -0.6335
  647TMC3    O2 9640   4.104   2.891  15.324  0.0451 -0.2125  0.0936
  648TMC3    C1 9641   3.467   0.738  16.166  0.1515  0.1005 -0.1338
  648TMC3    C2 9642   3.473   0.604  16.136 -0.3520  0.0372  0.0258
  648TMC3    C3 9643   3.459   0.570  16.005 -0.0407  0.4860 -0.2638
  648TMC3    C4 9644   3.434   0.830  16.078  0.3065 -0.1232 -0.1742
  648TMC3    C5 9645   3.400   0.792  15.951  0.4320 -0.5924 -0.2238
  648TMC3    C6 9646   3.414   0.662  15.914 -0.0734 -0.0806  0.7769
  648TMC3     C 9647   3.463   0.790  16.305 -0.0433 -0.5731  0.3482
  648TMC3     O 9648   3.473   0.910  16.326  0.3328  0.2971  0.0817
  648TMC3     H 9649   3.515   0.532  16.206  0.7734  1.5360  0.9066
  648TMC3    H1 9650   3.419   0.933  16.110 -1.0516 -1.1056  2.3826
  648TMC3    H2 9651   3.386   0.626  15.816  1.0937  1.0134  0.0366
  648TMC3    C7 9652   3.394   0.892  15.841 -0.1590  0.3515  0.3107
  648TMC3    C8 9653   3.456   0.430  15.967  0.7213  0.4076 -0.1430
  648TMC3    O1 9654   3.418   0.854  15.725 -0.1991  0.2968 -0.2959
  648TMC3    O2 9655   3.446   0.348  16.056  0.1527  0.4530 -0.6377
  649TMC3    C1 9656   2.280   1.573  13.160  0.4814 -0.2786 -0.6483
  649TMC3    C2 9657   2.412   1.591  13.170 -0.4265 -0.1615  0.1274
  649TMC3    C3 9658   2.465   1.551  13.289  0.1041  0.0367  0.9981
  649TMC3    C4 9659   2.198   1.505  13.234  0.5584 -0.1461  0.3612
  649TMC3    C5 9660   2.253   1.466  13.354 -0.1024 -0.0775 -0.7546
  649TMC3    C6 9661   2.382   1.496  13.386 -0.6117 -0.1313  0.6766
  649TMC3     C 9662   2.224   1.607  13.033  0.9977  0.8071 -0.7803
  649TMC3     O 9663   2.103   1.631  13.034  0.4083  0.7214 -0.1453
  649TMC3     H 9664   2.472   1.662  13.114  0.9881 -0.6310  1.0279
  649TMC3    H1 9665   2.094   1.485  13.210  0.3927  0.2829  0.7245
  649TMC3    H2 9666   2.422   1.465  13.482  3.0431  2.6548  0.0617
  649TMC3    C7 9667   2.150   1.409  13.441  0.3326 -0.1067  0.4662
  649TMC3    C8 9668   2.606   1.537  13.314  0.4991 -0.0621 -0.4095
  649TMC3    O1 9669   2.029   1.424  13.416  0.3946 -0.4123 -0.3379
  649TMC3    O2 9670   2.632   1.488  13.426 -0.5026 -0.3812 -0.1057
  650TMC3    C1 9671   4.467   3.222  12.548  0.0548 -0.3838 -0.3281
  650TMC3    C2 9672   4.428   3.309  12.642  0.1991 -0.1809  0.4090
  650TMC3    C3 9673   4.293   3.321  12.661 -0.0050 -0.6795 -0.0428
  650TMC3    C4 9674   4.385   3.146  12.473 -0.3057 -0.0258 -0.5706
  650TMC3    C5 9675   4.251   3.157  12.494 -0.1724  0.0457  0.2032
  650TMC3    C6 9676   4.206   3.232  12.599  0.5470 -0.7158  0.4409
  650TMC3     C 9677   4.615   3.193  12.544 -0.1492  0.8080  0.0815
  650TMC3     O 9678   4.693   3.287  12.550 -0.0581  0.1096 -0.2322
  650TMC3     H 9679   4.490   3.386  12.687  0.2798 -2.0704  3.5741
  650TMC3    H1 9680   4.418   3.088  12.387  0.0043 -2.0001  0.8623
  650TMC3    H2 9681   4.100   3.218  12.621 -0.0301  1.7989 -0.7402
  650TMC3    C7 9682   4.180   3.201  12.373  0.1933 -0.0326  0.2447
  650TMC3    C8 9683   4.249   3.458  12.665  0.2043 -0.1774  0.3527
  650TMC3    O1 9684   4.157   3.120  12.286  0.2745 -0.0953 -0.2592
  650TMC3    O2 9685   4.332   3.541  12.639 -0.3964 -0.4594 -0.1257
  651MPD2     C 9686   3.084   0.266  10.772  0.0194  0.5689 -0.0978
  651MPD2    C1 9687   3.015   0.363  10.702 -0.2306 -0.1610  0.0638
  651MPD2    C2 9688   3.085   0.452  10.619  0.4343 -0.5818 -0.2431
  651MPD2    C3 9689   3.220   0.455  10.609  0.2709  0.1066 -0.4801
  651MPD2    C4 9690   3.291   0.361  10.681 -0.6723 -0.6326  0.9479
  651MPD2    C5 9691   3.221   0.269  10.757 -0.0133  0.9369  0.4044
  651MPD2     H 9692   3.022   0.521  10.565 -0.0655 -2.5925 -2.2187
  651MPD2    H1 9693   3.397   0.353  10.658 -0.9448  1.2397 -0.9535
  651MPD2    H2 9694   3.044   0.195  10.843  0.7737  1.0137  0.7777
  651MPD2    H3 9695   3.280   0.198  10.814 -2.3138 -0.4842  1.0133
  651MPD2     N 9696   3.275   0.543  10.515 -0.0845 -0.4320 -0.1768
  651MPD2    H5 9697   3.215   0.620  10.485 -0.8327 -1.2577 -0.7953
  651MPD2    N1 9698   2.873   0.379  10.712 -0.4824  0.4694 -0.3055
  651MPD2    H7 9699   2.834   0.444  10.644 -0.4796  0.0672 -0.6885
  652TMC3    C1 9700   3.622   0.818  10.357  0.6828  0.0059  0.0065
  652TMC3    C2 9701   3.564   0.698  10.376 -0.8565  0.1555  0.5233
  652TMC3    C3 9702   3.437   0.698  10.425  1.1268  0.0744  0.2729
  652TMC3    C4 9703   3.562   0.932  10.401 -0.2829  0.2943 -0.0090
  652TMC3    C5 9704   3.433   0.929  10.444 -0.1886 -0.4308  0.6180
  652TMC3    C6 9705   3.371   0.811  10.465  0.8143 -0.9394 -0.4003
  652TMC3     C 9706   3.762   0.809  10.364  0.6348  0.2055 -0.7521
  652TMC3     O 9707   3.813   0.700  10.383 -0.4508 -0.0185  0.5040
  652TMC3     H 9708   3.607   0.604  10.343  2.4083  1.2860  1.5531
  652TMC3    H1 9709   3.623   1.021  10.390  0.6294 -0.3406 -0.1155
  652TMC3    H2 9710   3.278   0.802  10.519  0.2524 -3.1689 -1.7053
  652TMC3    C7 9711   3.367   1.058  10.475 -0.1681  0.5203  0.0639
  652TMC3    C8 9712   3.408   0.573  10.495  0.1356  0.2980 -0.2401
  652TMC3    O1 9713   3.247   1.047  10.493  0.2882 -0.3506  0.3413
  652TMC3    O2 9714   3.506   0.515  10.536 -0.1513 -0.0382  0.0127
  653MPD2     C 9715   2.542   0.701   0.117  0.0415  0.5788 -0.3370
  653MPD2    C1 9716   2.509   0.794   0.024 -0.4516  0.2787 -0.5532
  653MPD2    C2 9717   2.475   0.748  17.635  0.0722 -0.4527  0.0893
  653MPD2    C3 9718   2.454   0.614  17.618 -0.6474 -0.5069  0.0639
  653MPD2    C4 9719   2.466   0.521  17.723  0.8030  0.7449 -0.7005
  653MPD2    C5 9720   2.519   0.565   0.099 -0.2079 -0.5306 -0.8255
  653MPD2     H 9721   2.456   0.824  17.560  0.3934 -0.5672 -0.1088
  653MPD2    H1 9722   2.429   0.420  17.708  0.7962  0.9227 -1.8980
  653MPD2    H2 9723   2.578   0.718   0.217 -0.6689  0.7903 -0.1173
  653MPD2    H3 9724   2.522   0.496   0.183 -0.9349  0.8892  0.3684
  653MPD2     N 9725   2.409   0.578  17.489  0.7905  0.0212  0.6812
  653MPD2    H5 9726   2.402   0.647  17.415 -0.0133 -1.2637 -0.4519
  653MPD2    N1 9727   2.529   0.928   0.047 -0.3308 -0.4974  0.5251
  653MPD2    H7 9728   2.521   0.980  17.697 -0.5419 -1.3183  0.0545
  654TMC3    C1 9729   2.317   0.424  17.322  0.0750  0.1710 -1.0647
  654TMC3    C2 9730   2.213   0.510  17.299  0.3498 -0.8209 -0.3603
  654TMC3    C3 9731   2.136   0.488  17.191  0.7707  0.2946 -0.0906
  654TMC3    C4 9732   2.337   0.305  17.263  0.1044 -0.3072  0.6864
  654TMC3    C5 9733   2.243   0.279  17.160  0.3094  0.2972  0.0526
  654TMC3    C6 9734   2.153   0.372  17.118 -0.2489  0.4206 -0.3565
  654TMC3     C 9735   2.395   0.454  17.443 -0.4110 -0.4217  0.2116
  654TMC3     O 9736   2.452   0.357  17.490  0.0898 -0.1039 -1.0615
  654TMC3     H 9737   2.196   0.592  17.367 -1.4177 -0.5042 -1.1916
  654TMC3    H1 9738   2.423   0.244  17.289 -1.0971 -1.3952  2.0849
  654TMC3    H2 9739   2.086   0.355  17.034 -0.7316  0.4433  0.0200
  654TMC3    C7 9740   2.279   0.178  17.059  0.3164  0.9235 -0.9215
  654TMC3    C8 9741   2.033   0.579  17.154 -0.3106  0.0256  0.5122
  654TMC3    O1 9742   2.240   0.193  16.942 -0.0195  0.6564  0.3311
  654TMC3    O2 9743   1.943   0.526  17.085  0.4842  0.0148 -0.7121
  655MPD2     C 9744   3.790   1.009  15.629  0.2626  0.1423 -0.3439
  655MPD2    C1 9745   3.697   1.090  15.578  0.0009  0.1973  0.2835
  655MPD2    C2 9746   3.625   1.047  15.472 -0.3356  0.1025 -0.1197
  655MPD2    C3 9747   3.634   0.918  15.425 -0.5366  0.2585  0.2774
  655MPD2    C4 9748   3.724   0.834  15.479 -0.5187 -0.1548  0.5655
  655MPD2    C5 9749   3.807   0.880  15.579 -0.7367 -0.0793  0.3514
  655MPD2     H 9750   3.564   1.118  15.417 -0.6204  0.1486  0.2535
  655MPD2    H1 9751   3.738   0.733  15.441 -0.0089  0.0556  0.1957
  655MPD2    H2 9752   3.860   1.050  15.701  0.7073  0.8969 -1.2155
  655MPD2    H3 9753   3.889   0.821  15.618 -2.1209 -0.9042  2.0427
  655MPD2     N 9754   3.562   0.856  15.327 -0.4270  0.2005  0.1927
  655MPD2    H5 9755   3.587   0.766  15.288  0.5284  0.3334  0.5195
  655MPD2    N1 9756   3.679   1.225  15.613 -0.2328  0.1701  0.5384
  655MPD2    H7 9757   3.624   1.281  15.549 -0.0476  0.2606  0.4566
  656TMC3    C1 9758   3.676   1.409  15.750  0.4179  0.2411  1.3574
  656TMC3    C2 9759   3.658   1.448  15.885 -0.8818 -0.5470 -0.3070
  656TMC3    C3 9760   3.615   1.577  15.908 -0.1074  0.4543  0.2549
  656TMC3    C4 9761   3.659   1.508  15.655 -0.5872 -0.1377  0.4134
  656TMC3    C5 9762   3.614   1.633  15.684  0.0207  0.3533  0.3622
  656TMC3    C6 9763   3.592   1.673  15.814 -0.3166  0.3658  0.8555
  656TMC3     C 9764   3.735   1.283  15.721 -0.3669 -0.9452  0.0843
  656TMC3     O 9765   3.795   1.232  15.812  0.3012  0.2676 -0.2461
  656TMC3     H 9766   3.683   1.383  15.967  0.8860 -0.9772 -1.1878
  656TMC3    H1 9767   3.691   1.481  15.554 -1.7708  1.5929 -0.4208
  656TMC3    H2 9768   3.583   1.778  15.840  0.0271 -0.1300  2.9801
  656TMC3    C7 9769   3.582   1.714  15.566 -0.2616 -0.7113 -0.2357
  656TMC3    C8 9770   3.543   1.604  16.028 -0.1385 -0.0383 -1.3824
  656TMC3    O1 9771   3.640   1.701  15.460  0.4411  0.8461  0.2761
  656TMC3    O2 9772   3.537   1.713  16.076  0.1158 -0.4033 -0.0463
  657TMC3    C1 9773   2.318   0.054  14.835 -0.5759 -0.4423  0.9691
  657TMC3    C2 9774   2.236   0.120  14.750 -0.0880 -0.0004 -0.6577
  657TMC3    C3 9775   2.210   0.256  14.779 -0.1049  0.4998  0.3212
  657TMC3    C4 9776   2.359   0.113  14.954  0.0102  0.3834 -0.2652
  657TMC3    C5 9777   2.307   0.235  14.986  0.4444 -0.0423  0.1393
  657TMC3    C6 9778   2.240   0.317  14.897 -0.0031 -0.4342 -0.0511
  657TMC3     C 9779   2.354   4.659  14.791  0.3805  0.7514  0.6823
  657TMC3     O 9780   2.298   4.609  14.693 -0.0370  0.3585 -0.1653
  657TMC3     H 9781   2.206   0.073  14.657  0.5636 -2.0285  0.1323
  657TMC3    H1 9782   2.421   0.058  15.024  1.3897 -0.1278 -1.8577
  657TMC3    H2 9783   2.200   0.408  14.941 -0.7152 -1.8437  2.2245
  657TMC3    C7 9784   2.329   0.293  15.122  0.3704 -0.8168  0.0308
  657TMC3    C8 9785   2.099   0.304  14.700 -0.3981  0.5283 -0.1906
  657TMC3    O1 9786   2.321   0.414  15.131 -0.3650 -0.0618  0.2134
  657TMC3    O2 9787   2.051   0.223  14.626 -0.1872 -0.9452  0.0675
  658MPD2     C 9788   3.940   0.663  14.833  0.3242  0.0914 -0.5231
  658MPD2    C1 9789   3.813   0.615  14.817 -0.1506 -0.4485 -0.2625
  658MPD2    C2 9790   3.784   0.522  14.716  0.1064 -0.9001  0.0519
  658MPD2    C3 9791   3.886   0.489  14.623 -0.0796 -0.1012 -0.1891
  658MPD2    C4 9792   4.018   0.538  14.635  0.5752  0.1689  0.0985
  658MPD2    C5 9793   4.035   0.629  14.738 -0.5038  0.3031  1.3030
  658MPD2     H 9794   3.685   0.481  14.698  0.3602 -1.2853 -0.5057
  658MPD2    H1 9795   4.101   0.524  14.567 -0.6286 -2.0170 -0.9289
  658MPD2    H2 9796   3.970   0.731  14.913  1.1902  0.7219 -1.3800
  658MPD2    H3 9797   4.134   0.670  14.759 -1.2308  2.1860  1.0757
  658MPD2     N 9798   3.840   0.429  14.500  0.2103  0.2833  0.0636
  658MPD2    H5 9799   3.748   0.388  14.497  0.7398 -0.7732 -1.4043
  658MPD2    N1 9800   3.716   0.656  14.915 -0.0180  0.0271  0.2623
  658MPD2    H7 9801   3.750   0.715  14.990  0.8133 -1.6037  1.1804
  659TMC3    C1 9802   3.498   0.656  15.015  1.0925  0.4424 -1.1953
  659TMC3    C2 9803   3.532   0.765  15.090 -0.7738 -0.0615  0.4899
  659TMC3    C3 9804   3.429   0.846  15.137 -0.4780  0.3476  0.7333
  659TMC3    C4 9805   3.368   0.626  14.984  0.5794 -0.6917 -0.4381
  659TMC3    C5 9806   3.274   0.702  15.045 -0.9256 -0.9512 -0.4097
  659TMC3    C6 9807   3.297   0.808  15.122 -0.2813  0.5001  0.2636
  659TMC3     C 9808   3.588   0.598  14.922  0.9617 -0.4167 -0.0690
  659TMC3     O 9809   3.535   0.503  14.865  0.0907 -0.3574 -0.4885
  659TMC3     H 9810   3.636   0.784  15.113 -0.9794  0.1206  1.2322
  659TMC3    H1 9811   3.339   0.553  14.909 -0.2153 -0.6929 -0.1313
  659TMC3    H2 9812   3.217   0.877  15.147  0.6601  0.3853  3.5446
  659TMC3    C7 9813   3.141   0.703  14.995 -0.1693 -0.0052  0.8017
  659TMC3    C8 9814   3.454   0.910  15.265  0.9992 -0.1205 -0.0189
  659TMC3    O1 9815   3.049   0.726  15.074  0.2756 -0.5355  0.3660
  659TMC3    O2 9816   3.370   0.988  15.302  0.2434 -0.0772  0.4294
  660MPD2     C 9817   1.387   4.515  12.731  0.0610  0.2229 -0.0686
  660MPD2    C1 9818   1.310   4.420  12.672  0.1688  0.3574 -1.2325
  660MPD2    C2 9819   1.341   4.287  12.683 -0.2003 -0.0065 -0.5738
  660MPD2    C3 9820   1.440   4.237  12.768 -0.5507  0.1786  0.1127
  660MPD2    C4 9821   1.513   4.331  12.830 -0.0016 -0.7670  0.0246
  660MPD2    C5 9822   1.484   4.468  12.817  0.5235 -0.1982  0.2799
  660MPD2     H 9823   1.291   4.212  12.623 -1.6345 -0.6250  1.4207
  660MPD2    H1 9824   1.591   4.299  12.898  0.2840 -0.4104 -0.1352
  660MPD2    H2 9825   1.382   4.620  12.708  2.8484  0.0970 -1.2495
  660MPD2    H3 9826   1.536   4.546  12.871 -0.6423  0.5961  0.2532
  660MPD2     N 9827   1.460   4.103  12.799  0.1097  0.3738 -0.2704
  660MPD2    H5 9828   1.510   4.072  12.882  2.1607  2.8175 -0.6033
  660MPD2    N1 9829   1.205   4.460  12.594 -0.9845  0.0890  0.2227
  660MPD2    H7 9830   1.198   4.555  12.559 -1.7568 -0.2045 -0.4067
  661TMC3    C1 9831   1.003   4.440  12.477 -0.0283  0.0624  0.6914
  661TMC3    C2 9832   1.051   4.524  12.381  0.1933 -0.4441 -0.5204
  661TMC3    C3 9833   0.971   4.546  12.273  0.6761 -0.5071 -0.0611
  661TMC3    C4 9834   0.886   4.371  12.457 -0.3484 -0.3107 -0.3027
  661TMC3    C5 9835   0.817   4.384  12.344  1.2575 -0.3460 -0.0994
  661TMC3    C6 9836   0.855   4.475  12.248 -0.0463 -0.5184  0.6268
  661TMC3     C 9837   1.089   4.379  12.575 -0.2852  0.7580  0.2557
  661TMC3     O 9838   1.057   4.269  12.623 -0.1171 -0.2949  0.0149
  661TMC3     H 9839   1.149   4.570  12.385  0.3178 -0.8919  1.4156
  661TMC3    H1 9840   0.846   4.299  12.527 -0.0779 -0.4712 -0.3142
  661TMC3    H2 9841   0.786   4.495  12.166  2.1896 -1.2224 -1.4386
  661TMC3    C7 9842   0.676   4.350  12.344 -0.4570 -0.6752  0.2339
  661TMC3    C8 9843   1.033   4.616  12.158  0.1862  0.4897  0.7033
  661TMC3    O1 9844   0.627   4.324  12.452  0.1308  0.2425  0.3454
  661TMC3    O2 9845   1.155   4.617  12.144  0.6028 -0.3283 -0.5165
  662MPD2     C 9846   1.478   3.651  16.923 -0.3598  0.2284  0.0567
  662MPD2    C1 9847   1.614   3.652  16.928 -0.0274 -0.9290 -0.4117
  662MPD2    C2 9848   1.685   3.724  17.021 -0.0950 -0.1607  0.9281
  662MPD2    C3 9849   1.606   3.791  17.122  0.4630  0.1503 -0.0159
  662MPD2    C4 9850   1.468   3.782  17.114 -0.2377  0.0260 -0.0044
  662MPD2    C5 9851   1.408   3.706  17.022 -0.3709 -1.0152 -0.2364
  662MPD2     H 9852   1.792   3.738  17.018  0.2211 -3.2488 -3.0690
  662MPD2    H1 9853   1.407   3.835  17.187  1.9255 -0.0937  1.8906
  662MPD2    H2 9854   1.421   3.603  16.844 -1.0856  0.2261  0.5926
  662MPD2    H3 9855   1.301   3.690  17.020 -0.2891 -1.6749  0.6589
  662MPD2     N 9856   1.662   3.868  17.228  0.2938  0.0412  0.3645
  662MPD2    H5 9857   1.610   3.873  17.315  0.7242 -2.2740  0.7589
  662MPD2    N1 9858   1.698   3.577  16.839  0.3240 -0.1210  0.2739
  662MPD2    H7 9859   1.798   3.595  16.843  0.2468  0.3814 -0.0947
  663TMC3    C1 9860   1.751   3.387  16.695  0.4399  0.5088 -0.3841
  663TMC3    C2 9861   1.854   3.351  16.784 -0.5616  0.3153  0.2111
  663TMC3    C3 9862   1.932   3.241  16.771 -0.0312  0.1642  0.3402
  663TMC3    C4 9863   1.722   3.303  16.588 -0.0491  0.3114 -0.0094
  663TMC3    C5 9864   1.793   3.193  16.577  0.0553 -0.5296  0.5398
  663TMC3    C6 9865   1.892   3.160  16.667 -0.0528  0.9055 -0.1518
  663TMC3     C 9866   1.648   3.470  16.762 -0.5723  0.2915  1.3130
  663TMC3     O 9867   1.533   3.431  16.747 -0.2164  0.4930 -0.0422
  663TMC3     H 9868   1.875   3.400  16.878  1.5924  1.2544 -0.7577
  663TMC3    H1 9869   1.632   3.321  16.530 -1.1188 -1.2279  1.1555
  663TMC3    H2 9870   1.961   3.081  16.642  0.9723  1.6241  0.4403
  663TMC3    C7 9871   1.740   3.073  16.520 -0.3490 -0.4650  0.1722
  663TMC3    C8 9872   1.944   3.151  16.886 -0.1574 -0.1522 -0.1734
  663TMC3    O1 9873   1.661   3.074  16.422 -0.8241 -0.2320 -0.1154
  663TMC3    O2 9874   1.984   3.040  16.847 -0.4332 -0.7146  1.0468
  664MPD2     C 9875   4.445   2.665  17.671  0.2778  0.1887 -0.8395
  664MPD2    C1 9876   4.574   2.656  17.718 -0.1488 -0.6187 -1.0532
  664MPD2    C2 9877   4.591   2.613   0.113 -0.6046  0.5513 -0.0498
  664MPD2    C3 9878   4.475   2.589   0.198  0.1925  0.6470 -0.1388
  664MPD2    C4 9879   4.347   2.601   0.149 -0.0814 -0.7713  0.2966
  664MPD2    C5 9880   4.342   2.640   0.017 -0.3048  0.0761  0.3923
  664MPD2     H 9881   4.686   2.612   0.165 -0.8544 -3.2732  0.3496
  664MPD2    H1 9882   4.260   2.565   0.202  1.1605 -0.3580  2.6563
  664MPD2    H2 9883   4.413   2.689  17.570  1.1571  0.7749 -0.9763
  664MPD2    H3 9884   4.240   2.658  17.722 -0.2916  2.2654  1.5921
  664MPD2     N 9885   4.499   2.554   0.337 -0.1830  0.1036 -0.1163
  664MPD2    H5 9886   4.593   2.563   0.375 -0.1785  1.0006 -0.3404
  664MPD2    N1 9887   4.693   2.681  17.645  0.0174 -0.0194 -0.0810
  664MPD2    H7 9888   0.046   2.673  17.695  0.6108  0.6908 -1.0262
  665TMC3    C1 9889   4.475   2.512   0.564  0.5193 -0.1713 -0.4980
  665TMC3    C2 9890   4.401   2.539   0.670 -0.2022 -0.0165 -0.5377
  665TMC3    C3 9891   4.451   2.513   0.796 -0.4181  1.1220 -0.2276
  665TMC3    C4 9892   4.606   2.470   0.570 -0.2605 -0.2326 -0.5842
  665TMC3    C5 9893   4.657   2.470   0.701  0.4734 -0.2536 -0.4629
  665TMC3    C6 9894   4.584   2.487   0.820 -0.5426  0.4327  0.6520
  665TMC3     C 9895   4.409   2.531   0.438  0.5173 -0.4130  0.1240
  665TMC3     O 9896   4.287   2.504   0.433  0.1140  0.2915 -0.1921
  665TMC3     H 9897   4.297   2.569   0.665 -0.3710 -0.5658 -0.2355
  665TMC3    H1 9898   4.672   2.455   0.486 -0.6106 -0.7116 -0.7709
  665TMC3    H2 9899   4.627   2.472   0.918 -0.6481  0.8996  0.7690
  665TMC3    C7 9900   0.070   2.433   0.714 -0.1886  1.0482  0.6128
  665TMC3    C8 9901   4.360   2.488   0.904 -0.1684  0.3575  0.4595
  665TMC3    O1 9902   0.123   2.388   0.615 -0.0573  0.2911 -0.2393
  665TMC3    O2 9903   4.403   2.507   1.018  0.2703 -0.1515  0.0864
  666TMC3    C1 9904   3.198   2.178   9.524 -0.2372  0.6593  0.0523
  666TMC3    C2 9905   3.318   2.122   9.479 -1.4885  0.4731 -0.9003
  666TMC3    C3 9906   3.424   2.202   9.464 -0.6948 -0.0376 -0.4750
  666TMC3    C4 9907   3.187   2.312   9.559  0.6155  0.0948 -0.2926
  666TMC3    C5 9908   3.297   2.389   9.542 -0.2470 -0.3303  0.2271
  666TMC3    C6 9909   3.414   2.341   9.489 -0.0694 -0.7905 -0.3500
  666TMC3     C 9910   3.102   2.096   9.598 -0.0971  1.0226 -0.5427
  666TMC3     O 9911   3.013   2.157   9.652 -0.3431 -0.6246  0.2354
  666TMC3     H 9912   3.326   2.020   9.445  1.3492  0.4981 -0.3413
  666TMC3    H1 9913   3.092   2.347   9.599  0.6431 -0.7661  0.5101
  666TMC3    H2 9914   3.499   2.407   9.473  0.1458 -1.2645 -1.1397
  666TMC3    C7 9915   3.309   2.494   9.642 -0.7038  0.5140  0.1985
  666TMC3    C8 9916   3.531   2.129   9.533  0.3493 -0.6360  0.3234
  666TMC3    O1 9917   3.226   2.501   9.738  0.0130 -0.0232 -0.3882
  666TMC3    O2 9918   3.486   2.060   9.620 -0.3855 -0.3688  0.4386
  667MPD2     C 9919   0.907   2.241  14.404 -0.4683  0.2004  0.0607
  667MPD2    C1 9920   0.831   2.301  14.492  0.3404 -0.1174  0.0006
  667MPD2    C2 9921   0.699   2.249  14.505  0.1872 -0.2973 -0.4298
  667MPD2    C3 9922   0.655   2.149  14.431 -0.1260 -0.1326  0.5004
  667MPD2    C4 9923   0.738   2.088  14.334  0.0245 -0.1887  0.4492
  667MPD2    C5 9924   0.863   2.137  14.322  0.3207  0.5545 -0.4348
  667MPD2     H 9925   0.635   2.290  14.582  0.4482 -0.6171 -0.0421
  667MPD2    H1 9926   0.689   2.024  14.262 -0.1946  1.7546 -1.1265
  667MPD2    H2 9927   1.006   2.284  14.392 -0.2778 -0.6209 -1.4251
  667MPD2    H3 9928   0.933   2.094  14.252  0.8257 -0.8449  0.9307
  667MPD2     N 9929   0.530   2.096  14.440  0.3285 -0.0216  0.0046
  667MPD2    H5 9930   0.512   2.009  14.391 -1.2685  0.5535 -0.4514
  667MPD2    N1 9931   0.865   2.412  14.575  0.2858  0.6880 -0.2672
  667MPD2    H7 9932   0.798   2.446  14.643 -2.3405 -2.5029 -1.2944
  668TMC3    C1 9933   1.023   2.521  14.703 -0.7740 -0.2447 -0.1869
  668TMC3    C2 9934   1.129   2.601  14.711 -0.7799  0.0511 -0.4366
  668TMC3    C3 9935   1.171   2.634  14.837  0.5714  0.0739 -0.0659
  668TMC3    C4 9936   0.967   2.458  14.817  0.7456 -0.1144  0.1809
  668TMC3    C5 9937   1.014   2.495  14.940 -0.7816 -0.6433 -0.1535
  668TMC3    C6 9938   1.119   2.583  14.956 -0.2723 -0.5224 -0.3126
  668TMC3     C 9939   0.993   2.470  14.573 -0.1323 -0.3988  0.1822
  668TMC3     O 9940   1.079   2.478  14.485  0.1349 -0.1087 -0.1767
  668TMC3     H 9941   1.175   2.639  14.621 -0.4266 -0.3934 -0.4389
  668TMC3    H1 9942   0.900   2.373  14.812 -1.3364  1.5604 -0.4005
  668TMC3    H2 9943   1.146   2.621  15.054 -0.8986 -0.6087 -0.1055
  668TMC3    C7 9944   0.925   2.481  15.053 -0.4120 -0.0077 -0.7118
  668TMC3    C8 9945   1.267   2.744  14.854  0.5011 -0.0217 -0.1712
  668TMC3    O1 9946   0.973   2.493  15.163 -0.3451  0.1985 -0.2415
  668TMC3    O2 9947   1.274   2.797  14.962 -0.2252  0.1382 -0.1452
  669TMC3    C1 9948   4.015   2.344  14.513 -0.9101  0.2182  0.3467
  669TMC3    C2 9949   3.905   2.311  14.438 -0.0568  0.2600 -0.1153
  669TMC3    C3 9950   3.907   2.346  14.302 -0.1362 -0.0528 -0.1557
  669TMC3    C4 9951   4.129   2.398  14.455 -0.1515 -0.3650  0.8594
  669TMC3    C5 9952   4.129   2.412  14.317 -1.3002  0.3097  0.3830
  669TMC3    C6 9953   4.020   2.391  14.238 -0.2359  0.2520  0.4220
  669TMC3     C 9954   4.011   2.311  14.650  0.0303 -0.3247 -0.5405
  669TMC3     O 9955   3.947   2.213  14.676 -0.0812  0.2423 -0.4999
  669TMC3     H 9956   3.813   2.279  14.486 -0.3332  0.2875 -0.6254
  669TMC3    H1 9957   4.216   2.408  14.519  1.3839 -0.0324 -1.3124
  669TMC3    H2 9958   4.020   2.417  14.133 -2.6370 -0.0535  0.3357
  669TMC3    C7 9959   4.248   2.472  14.266  0.5674 -0.6426  0.2956
  669TMC3    C8 9960   3.791   2.300  14.227 -0.1346 -0.3841 -0.6129
  669TMC3    O1 9961   4.318   2.530  14.344  0.0112  0.2718  0.8035
  669TMC3    O2 9962   3.697   2.250  14.288  0.8336 -0.0578  0.1753
  670MPD2     C 9963   1.430   4.623  13.737 -1.1040  0.2868 -0.1817
  670MPD2    C1 9964   1.562   4.606  13.732  0.6474  0.1645 -0.0489
  670MPD2    C2 9965   1.629   4.544  13.839 -0.3195  0.0638  0.2843
  670MPD2    C3 9966   1.555   4.508  13.946 -0.2401  0.3485  0.5485
  670MPD2    C4 9967   1.415   4.533  13.951  0.1739  0.0343 -0.2595
  670MPD2    C5 9968   1.351   4.591  13.842 -0.1062 -0.3732  0.0886
  670MPD2     H 9969   1.736   4.530  13.830 -0.4903  0.2977 -1.9616
  670MPD2    H1 9970   1.351   4.512  14.036  0.3963  1.4308  0.2493
  670MPD2    H2 9971   1.376   4.672  13.656 -1.5117 -0.2817 -0.2546
  670MPD2    H3 9972   1.243   4.589  13.833 -0.0914  0.5803 -0.3118
  670MPD2     N 9973   1.613   4.434  14.053  0.6777 -0.8696  0.3878
  670MPD2    H5 9974   1.713   4.415  14.047  1.1544  1.4587  0.8898
  670MPD2    N1 9975   1.637   4.647  13.621 -0.1049 -0.3895 -0.4063
  670MPD2    H7 9976   1.738   4.638  13.625 -0.0049 -0.5009 -2.9441
  671TMC3    C1 9977   1.627   4.290  14.248 -0.0640 -0.3279  0.1620
  671TMC3    C2 9978   1.761   4.290  14.242 -0.4548  0.3368  0.0443
  671TMC3    C3 9979   1.832   4.204  14.325 -0.4970 -0.1752  0.6541
  671TMC3    C4 9980   1.567   4.206  14.332 -0.2614  0.0496 -0.0883
  671TMC3    C5 9981   1.635   4.108  14.394 -0.5710  0.7198 -0.1501
  671TMC3    C6 9982   1.767   4.099  14.397 -0.6823 -0.6258 -0.8823
  671TMC3     C 9983   1.546   4.366  14.154  0.0550 -0.9367  0.7199
  671TMC3     O 9984   1.426   4.369  14.187  0.3119 -0.0772 -0.0433
  671TMC3     H 9985   1.813   4.371  14.190 -1.5321  1.3558  0.5463
  671TMC3    H1 9986   1.462   4.224  14.350 -0.1997  1.3371 -1.0506
  671TMC3    H2 9987   1.825   4.018  14.439 -2.1497 -0.0504  2.2695
  671TMC3    C7 9988   1.589   3.991  14.328  0.7390 -0.2309  0.1043
  671TMC3    C8 9989   1.975   4.201  14.293  0.3680 -0.4118 -0.2942
  671TMC3    O1 9990   1.671   3.934  14.260  0.3440  0.1724 -0.5178
  671TMC3    O2 9991   2.007   4.237  14.180  0.6962 -0.1203  0.5189
  672MPD2     C 9992   2.367   0.214   0.862 -0.3801  0.3989  0.7944
  672MPD2    C1 9993   2.478   0.169   0.796 -0.7579  0.2789  0.7278
  672MPD2    C2 9994   2.604   0.209   0.851  0.3249  0.2567  0.5153
  672MPD2    C3 9995   2.605   0.314   0.939 -0.8795 -0.0412 -1.1929
  672MPD2    C4 9996   2.491   0.371   0.981  0.6746  0.1842 -0.6260
  672MPD2    C5 9997   2.377   0.312   0.949 -0.0343 -0.0578 -0.2387
  672MPD2     H 9998   2.696   0.171   0.809 -1.1080 -0.5363 -1.9250
  672MPD2    H1 9999   2.486   0.448   1.057  5.7588 -1.1138  0.9995
  672MPD2    H210000   2.269   0.179   0.834 -0.6270  0.4836  1.5402
  672MPD2    H310001   2.283   0.360   0.971  0.2350  0.8308 -1.0402
  672MPD2     N10002   2.720   0.388   0.980 -0.0105 -0.6553 -0.2802
  672MPD2    H510003   2.708   0.473   1.035  2.4851 -0.9500  0.7059
  672MPD2    N110004   2.483   0.077   0.685  0.2848 -0.2213 -0.5613
  672MPD2    H710005   2.574   0.061   0.642 -0.4012  0.7700 -2.3658
  673TMC3    C110006   2.386   4.668   0.521  0.2078 -0.0060  0.2733
  673TMC3    C210007   2.499   4.585   0.512  0.2184  0.6591 -0.5777
  673TMC3    C310008   2.506   4.499   0.403 -0.2769 -0.0246 -0.1469
  673TMC3    C410009   2.293   4.673   0.426 -0.2101 -0.1601  0.1803
  673TMC3    C510010   2.296   4.590   0.321 -0.0010 -0.2155  1.1894
  673TMC3    C610011   2.411   4.510   0.302  0.1458 -0.0271  0.2556
  673TMC3     C10012   2.368   0.031   0.626 -0.3473  0.5862 -0.1610
  673TMC3     O10013   2.250   0.055   0.652  0.1097 -0.8112 -0.7216
  673TMC3     H10014   2.546   4.560   0.607 -1.0750  2.7109  0.6125
  673TMC3    H110015   2.207   0.001   0.444 -0.6507 -1.0790  1.2500
  673TMC3    H210016   2.414   4.438   0.221 -0.8491 -1.1299  1.2047
  673TMC3    C710017   2.251   4.646   0.199 -0.4843 -0.3096  0.2847
  673TMC3    C810018   2.606   4.402   0.385  0.5906  0.4600 -0.7368
  673TMC3    O110019   2.258   4.569   0.105 -0.2912 -0.0983 -0.3628
  673TMC3    O210020   2.614   4.347   0.273 -0.4107  0.8015  0.0971
  674MPD2     C10021   1.921   0.030  17.077 -0.6954  0.2686 -0.3106
  674MPD2    C110022   1.920   4.662  17.161  0.9405 -0.2557  0.5474
  674MPD2    C210023   1.882   4.686  17.296  0.1550 -0.5196  0.4485
  674MPD2    C310024   1.837   0.072  17.334 -0.8542  0.0281 -0.3419
  674MPD2    C410025   1.839   0.179  17.245  0.2105 -0.0548  0.0624
  674MPD2    C510026   1.883   0.155  17.114  0.2424  0.1363  0.2833
  674MPD2     H10027   1.858   4.602  17.360 -1.5529 -0.3932 -0.0127
  674MPD2    H110028   1.810   0.281  17.269  0.4746 -0.0426  0.3318
  674MPD2    H210029   1.964   0.016  16.979  0.6785  1.7741  0.0722
  674MPD2    H310030   1.888   0.239  17.046  0.3322  0.6140  0.8800
  674MPD2     N10031   1.771   0.086  17.460 -0.6284  0.1213 -0.4953
  674MPD2    H510032   1.761   0.001  17.514 -0.1298  1.6920  2.0904
  674MPD2    N110033   1.963   4.542  17.100 -0.1132 -0.6552  0.2692
  674MPD2    H710034   1.942   4.540  17.001  1.1258  0.1163 -0.0182
  675TMC3    C110035   2.057   4.431  17.296  0.8275  1.2198  0.3731
  675TMC3    C210036   2.015   4.351  17.399 -0.1417  0.2233 -0.2202
  675TMC3    C310037   2.064   4.371  17.524 -0.2752  0.7914  0.1828
  675TMC3    C410038   2.153   4.522  17.321 -0.2244  0.5513  0.4697
  675TMC3    C510039   2.197   4.538  17.449 -0.4646  0.0967 -1.1113
  675TMC3    C610040   2.157   4.467  17.556  0.5717 -0.1755  0.5168
  675TMC3     C10041   1.992   4.420  17.168  0.3223 -0.3320  0.1244
  675TMC3     O10042   1.957   4.310  17.130  0.5185 -0.1316  0.1504
  675TMC3     H10043   1.948   4.268  17.387  0.2836 -0.2913  0.9506
  675TMC3    H110044   2.196   4.578  17.239  0.7743 -0.2865  0.4207
  675TMC3    H210045   2.190   4.480  17.659 -2.7847  1.4209  1.3783
  675TMC3    C710046   2.302   4.635  17.469 -0.0101 -0.4339 -0.2612
  675TMC3    C810047   2.040   4.260  17.613  0.5654 -0.6091 -0.2693
  675TMC3    O110048   2.313   4.726  17.388  0.4278  0.7969  0.1153
  675TMC3    O210049   2.019   4.152  17.560 -0.6392  0.4670  0.0129
  676MPD2     C10050   4.291   2.907  10.606  0.2914  0.3753 -0.7599
  676MPD2    C110051   4.233   2.855  10.715 -1.1933  0.3834 -0.1796
  676MPD2    C210052   4.175   2.732  10.702 -0.2796 -0.1800 -0.4254
  676MPD2    C310053   4.162   2.669  10.579  0.1731  0.6555 -0.4417
  676MPD2    C410054   4.226   2.724  10.473 -0.0438  0.1761 -0.4801
  676MPD2    C510055   4.292   2.845  10.486  0.0438  0.1897  0.8746
  676MPD2     H10056   4.140   2.681  10.790  1.5106 -1.9565 -0.7255
  676MPD2    H110057   4.213   2.671  10.380  0.0528  0.3915 -0.6141
  676MPD2    H210058   4.345   3.001  10.616 -1.2087  1.2130 -0.4739
  676MPD2    H310059   4.346   2.892  10.404  0.8672 -0.6601  0.9248
  676MPD2     N10060   4.092   2.543  10.555  0.5441  0.2581 -0.7153
  676MPD2    H510061   4.113   2.511  10.461 -2.6027 -1.4497 -0.8524
  676MPD2    N110062   4.213   2.925  10.833  0.7279 -0.0487 -0.0529
  676MPD2    H710063   4.166   2.870  10.904  2.2003 -0.0509  0.9115
  677TMC3    C110064   4.149   3.093  10.970 -0.6696  0.0980 -0.5605
  677TMC3    C210065   4.046   3.013  11.008 -0.3480 -0.3079 -0.2472
  677TMC3    C310066   3.982   3.047  11.123  0.2292 -0.0116  0.2629
  677TMC3    C410067   4.177   3.213  11.031  0.4141  0.6101 -0.1068
  677TMC3    C510068   4.113   3.238  11.152  0.4475 -0.1362 -0.4263
  677TMC3    C610069   4.015   3.158  11.196  0.6805  0.3046 -0.2974
  677TMC3     C10070   4.229   3.060  10.855  0.1751 -1.3096 -0.0654
  677TMC3     O10071   4.265   3.156  10.784 -0.0141 -0.1506 -0.3996
  677TMC3     H10072   4.017   2.926  10.950  0.3434  0.4234 -1.6917
  677TMC3    H110073   4.266   3.272  11.013  0.7446  0.6285  1.6239
  677TMC3    H210074   3.966   3.174  11.291  1.2219  1.9480 -0.2816
  677TMC3    C710075   4.188   3.316  11.255  0.6274  0.1407 -0.1330
  677TMC3    C810076   3.880   2.955  11.168  0.8070 -0.2345 -0.0295
  677TMC3    O110077   4.161   3.290  11.371 -0.4775 -0.1399 -0.7206
  677TMC3    O210078   3.796   2.947  11.079  0.5647  0.0820 -0.2072
  678MPD2     C10079   1.754   3.084   1.389 -0.3807  0.0124  0.7437
  678MPD2    C110080   1.714   2.985   1.304  0.2258  0.8226 -0.3264
  678MPD2    C210081   1.586   2.941   1.287 -0.4011 -0.0096  0.3546
  678MPD2    C310082   1.491   3.019   1.346  0.1833  0.4206 -0.7693
  678MPD2    C410083   1.532   3.123   1.428  0.1879 -0.4113  0.3361
  678MPD2    C510084   1.658   3.160   1.454  0.2111  0.0483 -0.4157
  678MPD2     H10085   1.568   2.857   1.221 -0.8558  0.3528  0.0198
  678MPD2    H110086   1.454   3.184   1.474  0.6813  0.8211 -0.4489
  678MPD2    H210087   1.857   3.117   1.392 -0.2319 -0.1625 -1.6727
  678MPD2    H310088   1.686   3.243   1.517  0.6572 -0.9852  0.7356
  678MPD2     N10089   1.358   2.972   1.329  0.1379  0.4927 -0.1741
  678MPD2    H510090   1.345   2.896   1.264 -1.4781 -1.2792  2.1999
  678MPD2    N110091   1.819   2.917   1.232 -0.1009  0.1372  0.0461
  678MPD2    H710092   1.786   2.830   1.193 -1.5599  1.8133 -2.4077
  679TMC3    C110093   2.113   2.727   0.985 -0.0700 -0.2740  0.5257
  679TMC3    C210094   2.055   2.792   1.093  0.4322 -0.6664 -0.0260
  679TMC3    C310095   1.997   2.911   1.073  0.0868 -0.4175 -0.4992
  679TMC3    C410096   2.122   2.787   0.862  0.2409  0.0298 -0.0604
  679TMC3    C510097   2.060   2.912   0.849 -0.3009 -0.5680 -0.2322
  679TMC3    C610098   1.997   2.979   0.957  0.0948 -0.9340 -0.0122
  679TMC3     C10099   2.204   2.615   1.022  0.4235  0.7709  1.0792
  679TMC3     O10100   2.297   2.603   0.944  0.8997 -0.5631  0.9797
  679TMC3     H10101   2.080   2.760   1.193  1.0963 -0.3870 -0.1035
  679TMC3    H110102   2.184   2.735   0.791 -1.3425 -0.4930 -1.0594
  679TMC3    H210103   1.941   3.071   0.948  0.4239 -0.6562  0.8462
  679TMC3    C710104   2.045   2.973   0.717 -0.5575 -0.0924  0.4478
  679TMC3    C810105   1.936   2.977   1.184 -0.3234 -0.1808  0.3856
  679TMC3    O110106   1.937   3.019   0.688  0.2718  0.3850  0.2728
  679TMC3    O210107   1.979   3.088   1.190  0.1204 -0.1164 -0.4126
  680MPD2     C10108   1.269   1.611  13.580 -0.1330 -0.3319  0.7234
  680MPD2    C110109   1.376   1.616  13.665 -0.4734 -1.1334 -0.1542
  680MPD2    C210110   1.440   1.734  13.693 -0.1691  0.2689  0.3839
  680MPD2    C310111   1.394   1.858  13.642 -0.5604 -0.7581 -0.4237
  680MPD2    C410112   1.279   1.849  13.561 -0.4995  0.1451  0.6629
  680MPD2    C510113   1.217   1.727  13.533  0.3419 -0.1759 -0.1350
  680MPD2     H10114   1.526   1.733  13.760 -0.7163 -1.6680  1.0632
  680MPD2    H110115   1.236   1.934  13.510  1.5519 -0.6605 -2.4261
  680MPD2    H210116   1.226   1.516  13.550  2.1215 -0.9999 -0.4242
  680MPD2    H310117   1.143   1.710  13.456  1.7299  1.7296 -1.9040
  680MPD2     N10118   1.451   1.982  13.681  0.7841  0.0310 -0.2644
  680MPD2    H510119   1.412   2.064  13.636  4.1816  1.9096  0.2194
  680MPD2    N110120   1.420   1.503  13.732 -0.3024  0.0773 -0.2217
  680MPD2    H710121   1.509   1.504  13.780 -1.0144 -1.4763  1.1269
  681TMC3    C110122   1.405   1.304  13.838 -0.1923 -0.6059 -0.3053
  681TMC3    C210123   1.325   1.246  13.933  0.2010  0.0983  0.7207
  681TMC3    C310124   1.390   1.204  14.047  0.3358 -0.5880  0.3043
  681TMC3    C410125   1.543   1.309  13.837  0.1001 -0.1044 -0.0678
  681TMC3    C510126   1.607   1.253  13.946  0.8887  0.4037  0.8131
  681TMC3    C610127   1.535   1.208  14.057  0.0462 -0.2363 -0.2541
  681TMC3     C10128   1.340   1.388  13.748  0.6614 -0.3191 -0.3548
  681TMC3     O10129   1.219   1.376  13.732 -0.1581  0.0467  0.3676
  681TMC3     H10130   1.218   1.252  13.920  0.0607  0.6325  2.0834
  681TMC3    H110131   1.595   1.337  13.746 -0.4029 -1.1807 -0.6919
  681TMC3    H210132   1.587   1.170  14.144 -1.6667 -0.7821  0.5309
  681TMC3    C710133   1.752   1.239  13.957  0.3212  0.2184  0.2106
  681TMC3    C810134   1.324   1.251  14.166  0.1397  0.0293 -0.2025
  681TMC3    O110135   1.797   1.186  14.059  0.5928  0.4914 -0.9560
  681TMC3    O210136   1.208   1.298  14.154 -0.3653  0.3728  0.1403
  682MPD2     C10137   3.411   3.158  10.823 -0.2103  0.1201  0.6102
  682MPD2    C110138   3.428   3.019  10.841 -0.0044  0.2129 -0.4816
  682MPD2    C210139   3.411   2.966  10.970  0.5584 -0.3017 -0.0935
  682MPD2    C310140   3.383   3.054  11.078  0.5690 -0.1232 -0.2797
  682MPD2    C410141   3.369   3.188  11.062 -0.2903 -0.3291  0.2086
  682MPD2    C510142   3.365   3.228  10.930 -0.0639  0.2375 -0.3380
  682MPD2     H10143   3.420   2.859  10.983  1.7205 -0.2182 -0.1206
  682MPD2    H110144   3.334   3.256  11.139  0.6006  0.0726  0.2568
  682MPD2    H210145   3.412   3.211  10.729  0.9477  1.2427  1.2565
  682MPD2    H310146   3.311   3.320  10.912  2.8187  1.6395 -1.7615
  682MPD2     N10147   3.379   3.015  11.215  1.0820 -0.1646  0.0567
  682MPD2    H510148   3.384   3.081  11.291  2.1050 -0.5281  0.3113
  682MPD2    N110149   3.434   2.928  10.729 -0.1300  0.5435 -0.2612
  682MPD2    H710150   3.425   2.829  10.747 -4.1506  0.8043 -0.8373
  683TMC3    C110151   3.491   2.962  11.607 -0.0227 -0.1260  0.2110
  683TMC3    C210152   3.435   2.858  11.683  0.5175 -0.5189 -0.1891
  683TMC3    C310153   3.354   2.773  11.614  0.0195  0.1104  0.2184
  683TMC3    C410154   3.471   2.979  11.470  0.1996  0.1053 -0.1956
  683TMC3    C510155   3.404   2.872  11.404  0.4604 -0.4476 -0.4807
  683TMC3    C610156   3.339   2.774  11.478  0.2277  0.4643  0.4141
  683TMC3     C10157   3.562   3.064  11.688  0.1053  0.1602 -0.7251
  683TMC3     O10158   3.529   3.084  11.807  0.2835  0.7660 -0.4048
  683TMC3     H10159   3.455   2.855  11.789  1.5766  1.1238 -0.3474
  683TMC3    H110160   3.508   3.068  11.420  0.0931 -0.9063 -2.0583
  683TMC3    H210161   3.281   2.695  11.432  2.0760 -0.4722 -0.3244
  683TMC3    C710162   3.380   2.885  11.259  0.1850 -0.2867 -0.5304
  683TMC3    C810163   3.346   2.645  11.668  0.3496 -0.2431  0.9081
  683TMC3    O110164   3.338   2.794  11.193 -0.2950  0.3887  0.5450
  683TMC3    O210165   3.447   2.618  11.732 -0.2785  0.6913  0.2512
  684MPD2     C10166   2.410   2.388  16.511  0.1794 -0.7634  0.1525
  684MPD2    C110167   2.336   2.393  16.395 -0.5698  0.5306 -0.2180
  684MPD2    C210168   2.238   2.484  16.385 -0.3988 -0.3523 -0.4077
  684MPD2    C310169   2.218   2.583  16.487 -0.2541 -0.5064 -0.1204
  684MPD2    C410170   2.284   2.573  16.604  0.0995 -0.7825  0.5123
  684MPD2    C510171   2.375   2.474  16.617 -0.2721  0.4110  0.5576
  684MPD2     H10172   2.179   2.483  16.295 -1.0379  0.7072 -0.0088
  684MPD2    H110173   2.256   2.638  16.686  2.5485 -0.5895  1.1957
  684MPD2    H210174   2.473   2.303  16.532  0.8103 -0.7328 -1.6711
  684MPD2    H310175   2.425   2.457  16.712 -1.8153 -1.1712  1.0852
  684MPD2     N10176   2.133   2.697  16.466 -0.9241 -0.0074 -0.1302
  684MPD2    H510177   2.123   2.764  16.542  1.2192 -0.8269  0.8789
  684MPD2    N110178   2.368   2.318  16.282  0.8533 -0.8030  0.3765
  684MPD2    H710179   2.310   2.336  16.201 -2.6713  0.5026  3.2103
  685TMC3    C110180   2.535   2.263  16.135 -0.2351 -0.9371  0.3025
  685TMC3    C210181   2.449   2.289  16.037  0.1100 -1.0771 -0.1993
  685TMC3    C310182   2.470   2.393  15.945  0.2593 -0.6709  0.1166
  685TMC3    C410183   2.650   2.340  16.144 -0.0377  0.0829 -0.6962
  685TMC3    C510184   2.681   2.435  16.054  0.0790 -0.0844  0.6967
  685TMC3    C610185   2.591   2.460  15.955  0.6926 -0.9265  0.1984
  685TMC3     C10186   2.484   2.239  16.265  0.2083  0.2071  0.5512
  685TMC3     O10187   2.564   2.203  16.346  0.0164 -0.1828 -0.6375
  685TMC3     H10188   2.359   2.229  16.032  0.3070 -1.3978  0.1322
  685TMC3    H110189   2.720   2.322  16.225 -0.7516  0.8884  0.0926
  685TMC3    H210190   2.596   2.547  15.890 -1.4789  0.6185  2.1067
  685TMC3    C710191   2.793   2.524  16.089  0.9048 -0.3300 -0.0572
  685TMC3    C810192   2.391   2.407  15.827  0.2010  0.2673  0.1551
  685TMC3    O110193   2.875   2.487  16.173  0.0264  0.4429  0.4635
  685TMC3    O210194   2.454   2.424  15.722 -0.3949  0.1340 -0.5674
  686MPD2     C10195   3.253   3.238  15.515 -0.2403 -0.3846  0.5913
  686MPD2    C110196   3.313   3.178  15.631  0.1019  0.5151  0.3239
  686MPD2    C210197   3.443   3.205  15.655 -1.1778 -0.5567 -0.4955
  686MPD2    C310198   3.525   3.263  15.562  0.2676  0.1704  0.4378
  686MPD2    C410199   3.471   3.319  15.454 -0.5943 -0.3835  0.1728
  686MPD2    C510200   3.337   3.301  15.427  0.4711  0.0670  0.1223
  686MPD2     H10201   3.483   3.168  15.749 -1.0844  0.0019 -0.3174
  686MPD2    H110202   3.543   3.361  15.385  1.7450 -1.1997  2.0973
  686MPD2    H210203   3.151   3.225  15.482  0.7342 -2.9139 -1.4257
  686MPD2    H310204   3.293   3.330  15.333  0.9914  1.0820  0.1985
  686MPD2     N10205   3.662   3.294  15.590 -0.0354  0.4126 -0.2225
  686MPD2    H510206   3.698   3.375  15.540  0.6042  0.8521  0.9701
  686MPD2    N110207   3.242   3.083  15.709 -0.4355  0.3343  0.0200
  686MPD2    H710208   3.143   3.074  15.686  0.4157 -1.2668 -2.9670
  687TMC3    C110209   3.727   3.114  15.747  0.0576 -0.3880 -0.8033
  687TMC3    C210210   3.675   3.010  15.670 -0.1299 -0.2219 -0.1980
  687TMC3    C310211   3.687   2.886  15.721 -0.0618 -0.2237  0.3086
  687TMC3    C410212   3.769   3.089  15.877 -0.5952 -0.4250 -0.0623
  687TMC3    C510213   3.784   2.961  15.917  0.3957 -0.0699 -0.1659
  687TMC3    C610214   3.746   2.856  15.840 -0.5512  0.1983 -1.1818
  687TMC3     C10215   3.732   3.251  15.699  0.0464  0.0276  0.7759
  687TMC3     O10216   3.793   3.332  15.767 -0.4048 -0.0868 -0.5699
  687TMC3     H10217   3.645   3.035  15.569 -2.1599 -1.2685  0.1409
  687TMC3    H110218   3.786   3.173  15.944 -1.7442  0.3547 -0.7497
  687TMC3    H210219   3.760   2.754  15.874 -2.3112 -0.3373 -2.0575
  687TMC3    C710220   3.872   2.936  16.028  0.1054  0.0293 -0.4215
  687TMC3    C810221   3.590   2.792  15.681  0.1194  0.6892 -0.8990
  687TMC3    O110222   3.899   3.032  16.102 -0.1060  0.3219  0.1280
  687TMC3    O210223   3.599   2.682  15.740 -0.3710  0.1167 -0.7324
  688MPD2     C10224   2.732   1.556  17.540 -0.6074 -0.2154  0.5603
  688MPD2    C110225   2.776   1.427  17.549 -0.2759 -0.0203 -0.3540
  688MPD2    C210226   2.852   1.376  17.447 -0.1638 -0.0980  0.2215
  688MPD2    C310227   2.880   1.444  17.330 -0.4752 -0.6987  0.3808
  688MPD2    C410228   2.844   1.577  17.330  0.1605 -0.3123 -0.7882
  688MPD2    C510229   2.785   1.636  17.439 -0.0020  0.0536 -0.3609
  688MPD2     H10230   2.887   1.276  17.467 -0.4887 -0.1373  0.5852
  688MPD2    H110231   2.872   1.641  17.247  0.3542 -0.6816 -1.0071
  688MPD2    H210232   2.671   1.597  17.620 -1.9432 -0.1456 -0.5013
  688MPD2    H310233   2.763   1.742  17.437 -2.3511 -0.4303 -0.3442
  688MPD2     N10234   2.958   1.411  17.218  0.2764 -0.0284  0.0938
  688MPD2    H510235   2.968   1.477  17.141  0.1594 -0.1634 -0.0374
  688MPD2    N110236   2.753   1.348  17.666  0.0695  0.1341  0.2664
  688MPD2    H710237   2.771   1.248  17.664  0.5703  0.2319 -0.0198
  689TMC3    C110238   2.668   1.299   0.152 -0.2495  0.2940  0.2721
  689TMC3    C210239   2.635   1.351   0.272 -0.4102  0.2779 -0.1332
  689TMC3    C310240   2.529   1.285   0.339 -0.4036  0.9249  0.0693
  689TMC3    C410241   2.609   1.190   0.097  0.0127 -0.2712 -0.5122
  689TMC3    C510242   2.513   1.125   0.170 -0.6322  0.1319 -0.3757
  689TMC3    C610243   2.478   1.169   0.295 -0.1442  0.3883 -0.5180
  689TMC3     C10244   2.720   1.398   0.052 -0.3503  0.3612  1.1255
  689TMC3     O10245   2.730   1.513   0.094  0.5177  0.4982 -0.4314
  689TMC3     H10246   2.677   1.444   0.311  0.2206 -0.1060  0.0953
  689TMC3    H110247   2.636   1.147   0.002 -0.0350 -2.7987  0.6293
  689TMC3    H210248   2.405   1.111   0.350  1.1148 -1.3819 -0.7413
  689TMC3    C710249   2.527   0.983   0.170 -0.8765 -0.6563  0.3099
  689TMC3    C810250   2.506   1.343   0.469  0.1603 -0.1565 -0.4603
  689TMC3    O110251   2.532   0.933   0.279  0.0148  0.5777  0.0531
  689TMC3    O210252   2.589   1.424   0.518 -0.1510  0.2925  0.2894
  690MPD2     C10253   0.588   3.404  15.652 -0.1285  0.9776  0.2577
  690MPD2    C110254   0.552   3.374  15.516 -0.0972  0.5010 -0.2473
  690MPD2    C210255   0.644   3.370  15.418 -0.4075 -0.1402  0.3887
  690MPD2    C310256   0.771   3.415  15.448  0.5650 -0.3201 -0.4671
  690MPD2    C410257   0.813   3.447  15.578 -0.4227  0.3427  0.4289
  690MPD2    C510258   0.721   3.434  15.677  0.8695 -0.0532  0.0148
  690MPD2     H10259   0.610   3.355  15.317 -0.9334  1.2906  0.3474
  690MPD2    H110260   0.913   3.480  15.602 -0.5706  0.8242  0.3856
  690MPD2    H210261   0.510   3.404  15.728  0.3801  1.1505  0.7755
  690MPD2    H310262   0.748   3.452  15.781  0.5761 -1.9589  0.4104
  690MPD2     N10263   0.866   3.413  15.340 -0.4411 -0.4208  0.0229
  690MPD2    H510264   0.838   3.415  15.243 -1.4504  1.2064  0.3452
  690MPD2    N110265   0.418   3.332  15.480  0.1068 -0.4435  0.0674
  690MPD2    H710266   0.411   3.306  15.383  2.0654 -0.4714 -0.0672
  691TMC3    C110267   0.191   3.276  15.498 -0.6464  0.3600 -0.2476
  691TMC3    C210268   0.068   3.336  15.511  0.1435  0.0734 -0.2982
  691TMC3    C310269   4.691   3.253  15.523 -0.0973  0.0742 -0.2460
  691TMC3    C410270   0.202   3.139  15.500 -0.4763 -0.2582  0.6284
  691TMC3    C510271   0.091   3.063  15.499 -0.5243  0.1778 -0.6784
  691TMC3    C610272   4.700   3.118  15.515  0.0117  0.2561 -0.3311
  691TMC3     C10273   0.305   3.336  15.562  0.1286 -0.1718 -0.0886
  691TMC3     O10274   0.280   3.388  15.673 -0.3398  0.7633 -1.0401
  691TMC3     H10275   0.068   3.444  15.517  0.2747  0.0734 -0.2854
  691TMC3    H110276   0.301   3.096  15.490 -0.8930 -1.4681  1.5554
  691TMC3    H210277   4.604   3.068  15.516  0.0026  0.2657 -1.1636
  691TMC3    C710278   0.091   2.917  15.505 -0.2420  0.2359  0.0368
  691TMC3    C810279   4.566   3.330  15.525  0.1300  0.1099 -0.7801
  691TMC3    O110280   0.196   2.869  15.467  0.0083  0.3714  0.4114
  691TMC3    O210281   4.572   3.447  15.566  0.3188  0.9137 -0.1973
  692TMC3    C110282   1.786   3.939  15.488  1.0313  0.2501  0.2339
  692TMC3    C210283   1.910   3.982  15.523 -0.9795 -0.2212 -0.0878
  692TMC3    C310284   1.992   3.895  15.592  0.1795 -0.8583  0.2404
  692TMC3    C410285   1.743   3.810  15.502  0.3189  0.0166 -0.1063
  692TMC3    C510286   1.831   3.726  15.568 -0.7239 -1.3347  0.1107
  692TMC3    C610287   1.941   3.769  15.628  0.1670  0.2165 -0.0298
  692TMC3     C10288   1.676   4.030  15.492 -0.7899  0.1258  0.3542
  692TMC3     O10289   1.570   3.968  15.509 -0.0656 -0.0632  0.0174
  692TMC3     H10290   1.947   4.070  15.471  1.1956 -0.3834  1.1948
  692TMC3    H110291   1.651   3.777  15.455 -0.5055  1.1123  0.7261
  692TMC3    H210292   2.015   3.700  15.665  0.6668 -0.0864 -1.5842
  692TMC3    C710293   1.801   3.586  15.564  0.2632  0.3185  0.3245
  692TMC3    C810294   2.042   3.961  15.710 -0.1499 -0.6564  0.0062
  692TMC3    O110295   1.709   3.552  15.491  0.4443 -0.1472 -0.6423
  692TMC3    O210296   2.086   3.889  15.795 -0.5389  0.1598  0.6548
  693MPD2     C10297   1.181   1.925  10.596  0.1160  0.4690  0.3995
  693MPD2    C110298   1.144   1.823  10.683  0.1035  0.8312 -0.1453
  693MPD2    C210299   1.246   1.747  10.743  0.3522 -0.6530 -0.9747
  693MPD2    C310300   1.380   1.751  10.698 -0.2830 -0.0542 -0.1879
  693MPD2    C410301   1.413   1.848  10.604 -0.3002 -0.2079 -0.5991
  693MPD2    C510302   1.317   1.937  10.559 -0.0848  0.1164  0.4041
  693MPD2     H10303   1.204   1.683  10.819  1.5182 -1.3456 -0.8997
  693MPD2    H110304   1.517   1.857  10.575 -0.2861  1.5458  0.0135
  693MPD2    H210305   1.107   1.988  10.550  1.3416  0.4567 -1.5919
  693MPD2    H310306   1.344   2.014  10.487 -3.7196  1.3896  0.3939
  693MPD2     N10307   1.481   1.650  10.727 -0.1285  0.4282  0.2840
  693MPD2    H510308   1.558   1.666  10.663  0.1811  2.4965  1.1670
  693MPD2    N110309   1.009   1.795  10.720  0.2322 -0.2315  0.4099
  693MPD2    H710310   0.996   1.735  10.801 -0.4043 -1.0537 -0.3114
  694TMC3    C110311   0.785   1.834  10.722  0.4292 -0.6848 -0.5180
  694TMC3    C210312   0.670   1.841  10.649  0.0635  0.7027 -0.0377
  694TMC3    C310313   0.556   1.813  10.718 -0.5804 -0.0675  0.6121
  694TMC3    C410314   0.791   1.820  10.862  0.0162 -0.3619 -0.5333
  694TMC3    C510315   0.669   1.796  10.917  0.0641  0.2833 -0.4566
  694TMC3    C610316   0.555   1.791  10.847  0.1211  0.5222  0.3479
  694TMC3     C10317   0.907   1.849  10.646 -0.3913  0.0317 -0.2992
  694TMC3     O10318   0.904   1.891  10.530  0.1721 -0.2442  0.3053
  694TMC3     H10319   0.659   1.849  10.541 -0.8922 -1.9785 -0.1518
  694TMC3    H110320   0.874   1.839  10.928 -2.5765  2.4518  1.9081
  694TMC3    H210321   0.457   1.775  10.890  0.4115  3.2409  1.9965
  694TMC3    C710322   0.669   1.784  11.064  0.7055  0.0646 -0.2085
  694TMC3    C810323   0.429   1.808  10.650 -0.0725  0.2514 -0.1331
  694TMC3    O110324   0.770   1.809  11.123 -0.1859  0.8872 -0.0886
  694TMC3    O210325   0.355   1.722  10.691 -0.1452 -0.3819 -0.0053
  695MPD2     C10326   2.171   3.880  13.354  0.3086 -0.5686 -0.1202
  695MPD2    C110327   2.147   3.884  13.490  0.4651  0.1020  0.1578
  695MPD2    C210328   2.019   3.900  13.538 -0.5597 -0.4345 -0.3092
  695MPD2    C310329   1.909   3.918  13.451  0.1968 -0.7366 -0.2827
  695MPD2    C410330   1.938   3.908  13.319  1.1785  0.0318  0.5029
  695MPD2    C510331   2.063   3.883  13.267  0.1686 -0.5283 -0.3855
  695MPD2     H10332   2.009   3.919  13.644 -1.3297  0.3244 -0.5153
  695MPD2    H110333   1.864   3.931  13.244  0.9018  2.6820  1.6013
  695MPD2    H210334   2.272   3.877  13.313 -0.6075 -0.1818 -2.4235
  695MPD2    H310335   2.069   3.891  13.159 -0.6322 -1.1639 -0.4785
  695MPD2     N10336   1.778   3.953  13.501  0.2015 -0.1196 -0.2980
  695MPD2    H510337   1.760   3.957  13.601  0.2638  1.5808 -0.3548
  695MPD2    N110338   2.252   3.874  13.588 -0.2706 -0.3943  0.1136
  695MPD2    H710339   2.227   3.882  13.686  0.7233  1.6616  0.1915
  696TMC3    C110340   1.548   3.975  13.491  0.6910 -0.4227  0.0331
  696TMC3    C210341   1.538   3.907  13.608  0.0752 -0.4804  0.1558
  696TMC3    C310342   1.423   3.910  13.685  0.6640  0.5333 -0.2964
  696TMC3    C410343   1.438   4.044  13.442  0.7086  0.6962  0.2877
  696TMC3    C510344   1.332   4.056  13.526  0.1329 -0.5076 -0.3531
  696TMC3    C610345   1.318   3.992  13.646  0.1586  0.0392 -0.2882
  696TMC3     C10346   1.674   3.984  13.424 -0.1545  0.5744  0.0715
  696TMC3     O10347   1.677   4.023  13.305 -0.2738  0.8054  0.2050
  696TMC3     H10348   1.613   3.834  13.636 -0.0380 -1.6187 -2.5465
  696TMC3    H110349   1.426   4.094  13.347 -2.1206  0.2355  0.4026
  696TMC3    H210350   1.231   4.011  13.708 -0.4623  1.0022 -1.4545
  696TMC3    C710351   1.245   4.169  13.495 -0.5682 -0.6736 -0.3521
  696TMC3    C810352   1.438   3.903  13.825  0.4203  0.0874  0.0953
  696TMC3    O110353   1.221   4.188  13.379 -0.1023  0.5245 -0.4970
  696TMC3    O210354   1.551   3.910  13.868  0.2025 -0.2386 -0.4588
  697MPD2     C10355   1.310   1.180  15.358 -0.1786  0.3671  0.5027
  697MPD2    C110356   1.225   1.141  15.260 -0.5919 -0.3365 -0.6130
  697MPD2    C210357   1.193   1.240  15.165 -0.3704 -0.1652  0.3956
  697MPD2    C310358   1.230   1.375  15.180  0.4599 -0.2130  0.4404
  697MPD2    C410359   1.309   1.407  15.288  0.3674 -0.0579  0.3636
  697MPD2    C510360   1.345   1.313  15.380  0.3963 -0.2470 -0.0637
  697MPD2     H10361   1.130   1.209  15.082  1.7338 -0.2716 -1.1560
  697MPD2    H110362   1.345   1.509  15.301  0.8265 -0.1050 -0.5583
  697MPD2    H210363   1.354   1.110  15.429 -1.8527 -0.7932  0.3938
  697MPD2    H310364   1.415   1.339  15.459 -1.3056 -1.0231  1.6946
  697MPD2     N10365   1.181   1.463  15.080  0.3001 -0.4227  0.1759
  697MPD2    H510366   1.112   1.428  15.015  0.4949  0.8343 -0.7127
  697MPD2    N110367   1.190   1.004  15.232 -0.0808 -0.0687 -0.2889
  697MPD2    H710368   1.152   0.982  15.140  2.2122  0.1371 -1.2885
  698TMC3    C110369   1.160   1.663  14.946  0.1855 -0.3804 -0.1883
  698TMC3    C210370   1.247   1.754  14.889  0.3727 -0.9050 -0.3443
  698TMC3    C310371   1.214   1.805  14.767 -0.6531  0.1572 -0.1518
  698TMC3    C410372   1.056   1.614  14.876 -0.6372  0.2885  0.8330
  698TMC3    C510373   1.028   1.669  14.756  0.2030  0.6244  0.1188
  698TMC3    C610374   1.102   1.765  14.698 -0.1901 -0.2647  0.2726
  698TMC3     C10375   1.215   1.601  15.070  0.1029 -0.3128 -0.9479
  698TMC3     O10376   1.283   1.675  15.142  0.3558 -0.1552  0.2134
  698TMC3     H10377   1.340   1.788  14.932  1.2851  1.8487 -4.4988
  698TMC3    H110378   1.004   1.533  14.927  0.0744  0.3077  1.5894
  698TMC3    H210379   1.078   1.820  14.607 -1.3532  1.7170  1.7937
  698TMC3    C710380   0.927   1.619  14.668  0.2393 -0.2373  0.2578
  698TMC3    C810381   1.312   1.874  14.690 -0.7276  0.0469 -0.7818
  698TMC3    O110382   0.933   1.648  14.548  0.0046 -0.5506  0.0360
  698TMC3    O210383   1.265   1.957  14.609  0.1773 -0.3004 -0.2669
  699TMC3    C110384   1.416   3.870  12.813  0.8898 -0.0462 -0.5942
  699TMC3    C210385   1.501   3.855  12.918 -0.0250  0.8059 -0.0941
  699TMC3    C310386   1.478   3.763  13.022 -0.2354  0.1308 -0.4763
  699TMC3    C410387   1.303   3.795  12.796 -0.0645 -0.4511 -0.1493
  699TMC3    C510388   1.280   3.708  12.900  0.5799  0.0460 -0.1680
  699TMC3    C610389   1.362   3.688  13.006 -0.3935  0.4457 -1.2015
  699TMC3     C10390   1.419   3.990  12.731  0.1303  0.2614  0.5282
  699TMC3     O10391   1.348   3.999  12.632 -0.2669  0.0875  0.2566
  699TMC3     H10392   1.594   3.911  12.916  0.6125 -0.2310  0.4802
  699TMC3    H110393   1.233   3.816  12.716 -0.9175  0.2570  0.7824
  699TMC3    H210394   1.342   3.615  13.084  2.0974  0.7379 -0.2615
  699TMC3    C710395   1.148   3.683  12.938  0.2212 -0.1826 -0.2857
  699TMC3    C810396   1.565   3.740  13.136  0.4502  0.2935  0.0174
  699TMC3    O110397   1.130   3.579  13.002 -0.0379 -0.1232 -0.2197
  699TMC3    O210398   1.684   3.766  13.118  0.1992 -0.3003  0.3305
  700TMC3    C110399   0.722   1.238  17.290 -0.0268 -0.1237  0.6561
  700TMC3    C210400   0.764   1.109  17.312  0.1122 -0.6248 -0.6410
  700TMC3    C310401   0.870   1.085  17.404 -0.4363  0.0172  0.3235
  700TMC3    C410402   0.784   1.348  17.353 -0.1634  0.9873  0.1093
  700TMC3    C510403   0.881   1.319  17.443 -0.4743  0.0286 -0.0357
  700TMC3    C610404   0.923   1.187  17.470 -0.5493 -0.7357 -0.7436
  700TMC3     C10405   0.671   1.260  17.157  0.3271  1.0737 -0.2628
  700TMC3     O10406   0.565   1.199  17.138  0.1627 -0.0580  0.0952
  700TMC3     H10407   0.723   1.043  17.236 -0.5178 -0.4657 -0.4381
  700TMC3    H110408   0.742   1.446  17.336 -0.5527  0.8492  0.2699
  700TMC3    H210409   1.008   1.159  17.530 -0.0502  0.2292 -0.9931
  700TMC3    C710410   0.984   1.425  17.472 -0.1990  0.2619  0.3682
  700TMC3    C810411   0.979   1.003  17.356  0.2968  0.6558  0.4882
  700TMC3    O110412   1.089   1.402  17.528  0.5506 -0.4920 -0.0062
  700TMC3    O210413   1.086   1.047  17.323  0.1413 -0.6965  0.7369
  701TMC3    C110414   0.273   0.559  15.619 -0.2617  0.3896  0.6670
  701TMC3    C210415   0.334   0.515  15.507  0.0752  0.1356 -0.3936
  701TMC3    C310416   0.446   0.582  15.464  0.4004 -0.9892 -0.2048
  701TMC3    C410417   0.309   0.673  15.683  0.1095  0.3283  0.3161
  701TMC3    C510418   0.419   0.741  15.635 -0.6348 -0.4145  0.7718
  701TMC3    C610419   0.495   0.693  15.528 -0.4423 -0.5283 -0.0449
  701TMC3     C10420   0.141   0.498  15.654  0.1887  0.7818  0.2904
  701TMC3     O10421   0.090   0.419  15.574  0.3908 -0.1072 -0.2299
  701TMC3     H10422   0.285   0.434  15.455 -2.3421  2.4469 -1.7045
  701TMC3    H110423   0.239   0.717  15.754 -1.5979 -2.2834  0.2541
  701TMC3    H210424   0.592   0.737  15.505 -0.3803 -0.6272  0.0245
  701TMC3    C710425   0.401   0.888  15.627  0.8972  0.1129 -0.1481
  701TMC3    C810426   0.510   0.548  15.336  0.1087  0.9080 -0.4618
  701TMC3    O110427   0.436   0.942  15.525  0.4295 -0.2552 -0.0673
  701TMC3    O210428   0.563   0.642  15.282  0.1111  0.1946 -0.2590
  702MPD2     C10429   4.621   2.219  10.555  0.9501  0.9273  0.6388
  702MPD2    C110430   4.515   2.294  10.513  0.6656  0.7598 -0.2187
  702MPD2    C210431   4.546   2.404  10.438 -0.3139 -0.2645  0.2844
  702MPD2    C310432   4.675   2.430  10.393 -0.0914  0.0370 -0.1666
  702MPD2    C410433   0.044   2.347  10.432  0.1457 -0.5166  0.5423
  702MPD2    C510434   0.015   2.251  10.526 -0.4055 -0.2435  0.0097
  702MPD2     H10435   4.465   2.471  10.412  1.4743  1.8749  0.1689
  702MPD2    H110436   0.146   2.362  10.396 -0.1189 -1.5176 -0.6236
  702MPD2    H210437   4.604   2.130  10.614  0.4340  0.3726 -0.3515
  702MPD2    H310438   0.095   2.191  10.569 -0.2395 -0.5806 -0.7807
  702MPD2     N10439   4.712   2.538  10.311  0.2946 -0.2777  0.5707
  702MPD2    H510440   0.076   2.537  10.288  0.1875 -0.5375  0.1076
  702MPD2    N110441   4.379   2.264  10.540  0.5819  0.6208  0.4952
  702MPD2    H710442   4.307   2.328  10.510 -0.0400  0.6354  2.0179
  703TMC3    C110443   4.694   2.759  10.209 -0.2818  0.2539  0.5624
  703TMC3    C210444   4.613   2.854  10.162 -0.0895 -0.0841 -0.6309
  703TMC3    C310445   4.665   2.975  10.140  0.9587  0.3754 -0.1430
  703TMC3    C410446   0.088   2.791  10.246 -0.3729  0.2815  0.2596
  703TMC3    C510447   0.138   2.912  10.221 -0.0599 -0.2695  0.1519
  703TMC3    C610448   0.067   3.006  10.165  0.2375  0.3229 -0.3024
  703TMC3     C10449   4.626   2.635  10.257  0.3555 -0.1788  0.2504
  703TMC3     O10450   4.505   2.629  10.252 -0.0265 -0.1246 -0.0096
  703TMC3     H10451   4.509   2.830  10.141 -0.7527  3.1192 -1.0295
  703TMC3    H110452   0.151   2.715  10.291 -0.5150 -0.2250 -0.3910
  703TMC3    H210453   0.102   3.105  10.140 -0.2016  0.8486  1.1300
  703TMC3    C710454   0.258   2.953  10.293 -0.4913  0.0834 -0.5911
  703TMC3    C810455   4.577   3.091  10.145  0.0665 -0.5847  0.3804
  703TMC3    O110456   0.314   3.046  10.239  0.1957  0.0019 -0.0681
  703TMC3    O210457   4.629   3.197  10.120  0.9106 -0.5484 -0.4650
  704TMC3    C110458   1.975   0.470  12.489  0.3277 -0.2352  0.7632
  704TMC3    C210459   1.943   0.372  12.392 -0.1941  0.2700 -0.6154
  704TMC3    C310460   2.026   0.259  12.384 -0.2234 -0.0095  0.1240
  704TMC3    C410461   2.090   0.461  12.562 -0.7629 -0.0298  0.2096
  704TMC3    C510462   2.171   0.348  12.553  0.4684  0.1242 -0.1239
  704TMC3    C610463   2.133   0.245  12.470 -0.0355  0.6118 -0.0130
  704TMC3     C10464   1.941   0.608  12.453 -0.6124 -0.1631  0.3630
  704TMC3     O10465   1.933   0.688  12.544  0.2811  0.0041  0.0371
  704TMC3     H10466   1.855   0.381  12.330 -1.4334 -0.4307  1.0395
  704TMC3    H110467   2.121   0.544  12.625  1.2861 -1.2485  0.7996
  704TMC3    H210468   2.188   0.151  12.476 -1.9897 -0.4985  0.2710
  704TMC3    C710469   2.234   0.300  12.669 -0.3676  0.4561  0.0989
  704TMC3    C810470   1.972   0.138  12.329 -0.3203 -0.4851  1.1138
  704TMC3    O110471   2.236   0.180  12.681 -1.0306  0.3382 -0.1643
  704TMC3    O210472   1.852   0.113  12.338 -0.1385 -0.5437  0.2720
  705MPD2     C10473   2.197   3.642  16.177  0.2079 -0.0249  1.6744
  705MPD2    C110474   2.192   3.777  16.149  0.0012 -0.5027  0.1856
  705MPD2    C210475   2.085   3.855  16.196 -0.5394 -0.0236  0.0828
  705MPD2    C310476   1.981   3.800  16.274  0.0638 -0.0764 -0.2746
  705MPD2    C410477   1.986   3.660  16.289 -0.5140 -0.0547 -0.0185
  705MPD2    C510478   2.086   3.585  16.235 -0.1537  0.2173 -0.3367
  705MPD2     H10479   2.078   3.962  16.189  1.8627  0.1262 -0.0121
  705MPD2    H110480   1.904   3.610  16.340  0.8684 -2.3642 -0.0700
  705MPD2    H210481   2.274   3.574  16.141 -0.0185  0.2242  0.7030
  705MPD2    H310482   2.096   3.480  16.259 -2.6505  0.2894  0.9806
  705MPD2     N10483   1.874   3.863  16.328 -0.1050 -0.1648  0.1416
  705MPD2    H510484   1.812   3.800  16.379  0.4534 -0.3614  0.5824
  705MPD2    N110485   2.295   3.848  16.079 -0.0484 -0.6567  0.3545
  705MPD2    H710486   2.306   3.947  16.095 -1.1579 -0.3690 -0.7221
  706TMC3    C110487   2.617   3.901  15.741  0.0200  0.6440 -0.0726
  706TMC3    C210488   2.590   4.039  15.740 -0.1455  0.0057 -0.0394
  706TMC3    C310489   2.511   4.091  15.832  0.3210  0.4437 -0.1676
  706TMC3    C410490   2.554   3.815  15.827  0.1678  0.2631  0.1368
  706TMC3    C510491   2.468   3.877  15.914  0.0071  0.2352  0.0368
  706TMC3    C610492   2.445   4.014  15.913  0.0174 -0.1089  0.5090
  706TMC3     C10493   2.743   3.846  15.693  0.0416  0.2604 -0.1969
  706TMC3     O10494   2.789   3.749  15.756  0.1119 -0.1789  0.0667
  706TMC3     H10495   2.644   4.112  15.681 -0.9328  1.4104  0.9924
  706TMC3    H110496   2.570   3.708  15.826  1.8127  0.5095  0.1620
  706TMC3    H210497   2.370   4.051  15.981 -1.1233 -0.4546 -0.5516
  706TMC3    C710498   2.376   3.788  15.987  0.2022 -0.3674 -0.1738
  706TMC3    C810499   2.479   4.232  15.833 -0.2703 -0.4064  0.3385
  706TMC3    O110500   2.368   3.673  15.956 -0.2461  0.2818  0.0422
  706TMC3    O210501   2.439   4.289  15.729  0.4397  0.2915 -0.6405
  707TMC3    C110502   3.161   2.864   1.531 -0.5951  0.3671 -0.4979
  707TMC3    C210503   3.182   2.941   1.645 -0.2367  0.6196 -0.6084
  707TMC3    C310504   3.142   2.902   1.769 -0.3084 -0.4279 -0.6107
  707TMC3    C410505   3.086   2.748   1.549  0.4854  0.1043 -0.0650
  707TMC3    C510506   3.039   2.715   1.675  0.4331 -0.1763 -0.3265
  707TMC3    C610507   3.057   2.796   1.791  0.8164 -0.4418  0.6093
  707TMC3     C10508   3.276   2.853   1.450 -0.1264 -0.3869  0.1053
  707TMC3     O10509   3.376   2.909   1.494  0.3452 -0.2045  0.0552
  707TMC3     H10510   3.248   3.026   1.632  0.0442  0.6626  1.0780
  707TMC3    H110511   3.073   2.683   1.462  1.0468  0.8705 -0.7228
  707TMC3    H210512   3.033   2.767   1.892  0.3849  0.4324  0.7584
  707TMC3    C710513   2.992   2.579   1.686 -0.9700  0.8080  0.5510
  707TMC3    C810514   3.245   2.918   1.871 -0.2180 -0.2880 -0.9125
  707TMC3    O110515   2.981   2.513   1.582 -0.2369 -0.5020  0.4575
  707TMC3    O210516   3.206   2.947   1.983  0.0718 -0.0756  0.1669
  708MPD2     C10517   0.698   2.696  13.718 -0.6084 -0.0157 -0.4284
  708MPD2    C110518   0.593   2.682  13.812  0.1225 -0.4629  0.0806
  708MPD2    C210519   0.617   2.627  13.940  0.3450  1.2079  0.2544
  708MPD2    C310520   0.746   2.608  13.985 -0.2663  0.4935 -0.6884
  708MPD2    C410521   0.846   2.622  13.897  0.5901 -0.4102 -0.3938
  708MPD2    C510522   0.817   2.664  13.770 -0.9133  0.3647  0.0493
  708MPD2     H10523   0.532   2.605  14.004  1.1089  0.6646  1.0691
  708MPD2    H110524   0.941   2.592  13.939  0.1221 -1.2560  0.0523
  708MPD2    H210525   0.688   2.734  13.617 -1.8371 -1.7611 -0.9582
  708MPD2    H310526   0.901   2.671  13.703 -0.1835  3.4770  1.3227
  708MPD2     N10527   0.772   2.561  14.120 -0.1165 -0.3002 -0.9643
  708MPD2    H510528   0.859   2.583  14.167  0.4617 -1.4304 -1.4979
  708MPD2    N110529   0.459   2.717  13.779 -0.8773  0.2663 -0.2034
  708MPD2    H710530   0.388   2.712  13.852 -0.3558 -0.4469  0.2491
  709TMC3    C110531   0.266   2.729  13.659  0.3058  0.5116 -0.0187
  709TMC3    C210532   0.223   2.616  13.601  0.1279  0.4838 -0.2940
  709TMC3    C310533   0.127   2.535  13.662  0.0176 -0.1864  0.2589
  709TMC3    C410534   0.216   2.764  13.781 -0.2065 -0.0922  0.0683
  709TMC3    C510535   0.128   2.683  13.846 -0.8333  0.3178  0.3698
  709TMC3    C610536   0.087   2.561  13.788 -0.2277  0.1601 -0.1345
  709TMC3     C10537   0.412   2.733  13.649 -0.0006  0.7948  0.2254
  709TMC3     O10538   0.462   2.693  13.541 -0.3220 -0.6540  0.7434
  709TMC3     H10539   0.260   2.593  13.502  2.3624 -0.4515  0.7569
  709TMC3    H110540   0.245   2.858  13.827  0.5721 -1.5293  2.4959
  709TMC3    H210541   0.024   2.488  13.836  0.3929 -0.2396  0.0823
  709TMC3    C710542   0.168   2.680  13.981 -0.8519  0.2291 -0.1008
  709TMC3    C810543   0.075   2.412  13.596 -0.3735  0.4312  0.9300
  709TMC3    O110544   0.273   2.740  14.008 -0.0160 -0.0570 -0.3814
  709TMC3    O210545   4.709   2.359  13.636  0.2407 -0.0042  0.2576
  710TMC3    C110546   1.664   3.413   0.056 -0.4507 -0.3280  0.3336
  710TMC3    C210547   1.694   3.366  17.662 -0.3183 -0.3771 -0.1450
  710TMC3    C310548   1.771   3.252  17.656 -1.0788  0.2884 -0.9286
  710TMC3    C410549   1.718   3.348   0.161 -0.8055  0.2738 -0.1445
  710TMC3    C510550   1.804   3.245   0.150  0.0916 -0.0471 -0.4614
  710TMC3    C610551   1.829   3.191   0.024 -0.7487 -0.3389 -0.5551
  710TMC3     C10552   1.543   3.491   0.069  0.0389  0.4621 -0.1533
  710TMC3     O10553   1.524   3.579  17.725 -0.0382  0.0282 -0.2961
  710TMC3     H10554   1.667   3.418  17.571 -0.9418 -1.8394 -0.8066
  710TMC3    H110555   1.709   3.400   0.256 -0.6535 -1.6006  0.8877
  710TMC3    H210556   1.874   3.093   0.013  0.0627  0.0311 -0.5348
  710TMC3    C710557   1.881   3.202   0.263  0.3502 -0.3685  0.0025
  710TMC3    C810558   1.790   3.211  17.515  0.5707  0.0293  0.0442
  710TMC3    O110559   1.821   3.213   0.370  0.4756 -0.0783 -0.0700
  710TMC3    O210560   1.703   3.240  17.432  0.2416  0.0369 -0.5085
  711TMC3    C110561   1.345   4.591  15.035 -0.6974 -0.7385 -0.7042
  711TMC3    C210562   1.388   4.715  15.054  0.7907  0.3869  0.2224
  711TMC3    C310563   1.512   4.731  15.112 -0.5297  0.1683  0.1631
  711TMC3    C410564   1.432   4.481  15.051  0.7891  0.2558  0.3546
  711TMC3    C510565   1.556   4.495  15.099 -0.2382  0.2076 -0.2024
  711TMC3    C610566   1.595   4.621  15.128 -0.4360  0.4630  0.3524
  711TMC3     C10567   1.208   4.561  14.983  0.6859 -0.5658 -0.2716
  711TMC3     O10568   1.192   4.456  14.921  0.0395 -0.6833 -0.3523
  711TMC3     H10569   1.325   0.064  15.027 -3.1740 -2.3012  1.1670
  711TMC3    H110570   1.388   4.383  15.039  0.8216 -0.0114  2.4205
  711TMC3    H210571   1.698   4.631  15.162  0.0214  0.7186 -1.1366
  711TMC3    C710572   1.652   4.386  15.108  1.0957  0.1520 -0.4821
  711TMC3    C810573   1.487   0.080  15.232  0.0691 -0.1391 -0.2402
  711TMC3    O110574   1.771   4.419  15.124  0.0328  0.2062 -0.2028
  711TMC3    O210575   1.371   0.107  15.244 -0.4827 -0.6943 -0.0802
  712MPD2     C10576   2.803   0.716  13.686  0.5150 -0.0249 -0.0423
  712MPD2    C110577   2.684   0.741  13.751 -0.5735  0.0172 -0.1721
  712MPD2    C210578   2.686   0.839  13.845 -0.5075  0.4224 -0.3598
  712MPD2    C310579   2.796   0.914  13.881 -0.5901 -0.6696 -0.3966
  712MPD2    C410580   2.914   0.886  13.818  0.5021  0.1062 -0.2608
  712MPD2    C510581   2.913   0.787  13.719 -0.6148  0.7106  0.0005
  712MPD2     H10582   2.592   0.861  13.895 -0.9331 -0.1017 -0.9295
  712MPD2    H110583   3.004   0.947  13.827 -0.8352  2.3513 -2.0823
  712MPD2    H210584   2.813   0.632  13.620 -1.9581  0.4540 -1.0169
  712MPD2    H310585   3.006   0.782  13.663  0.0167  1.2227  1.0044
  712MPD2     N10586   2.800   1.019  13.976  0.3623 -0.6465  0.0810
  712MPD2    H510587   2.885   1.071  13.998 -0.6779  1.5325 -1.0160
  712MPD2    N110588   2.556   0.678  13.710 -0.8269  0.3249 -0.2691
  712MPD2    H710589   2.473   0.715  13.755  0.9572  2.7156  1.0404
  713TMC3    C110590   2.714   1.176  14.130 -0.6989 -0.0871 -0.3780
  713TMC3    C210591   2.842   1.172  14.181  0.0111  0.6183 -0.7038
  713TMC3    C310592   2.915   1.288  14.200  0.2116 -0.0678  0.2519
  713TMC3    C410593   2.659   1.299  14.097 -0.2295  0.3733  0.2894
  713TMC3    C510594   2.733   1.413  14.113  0.5610 -0.1659 -0.2870
  713TMC3    C610595   2.862   1.409  14.164  0.4130 -0.5007  0.0842
  713TMC3     C10596   2.688   1.068  14.040 -0.1130  0.1965 -0.5671
  713TMC3     O10597   2.569   1.034  14.039 -0.3994  0.1801 -0.1209
  713TMC3     H10598   2.876   1.070  14.193 -0.7255  0.2353 -1.9157
  713TMC3    H110599   2.562   1.298  14.048 -0.8308 -1.8148  1.5223
  713TMC3    H210600   2.904   1.506  14.185  0.6309 -0.6110  0.1661
  713TMC3    C710601   2.703   1.534  14.036 -0.9486 -0.7220  0.6281
  713TMC3    C810602   3.053   1.268  14.161  0.2420 -0.1589 -1.0486
  713TMC3    O110603   2.795   1.609  14.003  0.1502  0.2390  0.4169
  713TMC3    O210604   3.075   1.169  14.093  0.6595 -0.9637 -0.0557
  714MPD2     C10605   0.385   4.047   1.557 -0.1334  0.2193 -0.3130
  714MPD2    C110606   0.364   3.910   1.559  0.4557 -0.2750 -0.8612
  714MPD2    C210607   0.237   3.858   1.528 -0.1095  0.2274  0.0291
  714MPD2    C310608   0.139   3.949   1.506 -0.0202 -0.1138 -0.1822
  714MPD2    C410609   0.158   4.083   1.506 -0.3971  0.1449  0.0534
  714MPD2    C510610   0.281   4.136   1.538  0.2277 -0.1960 -0.4765
  714MPD2     H10611   0.221   3.751   1.525 -1.4687  0.4749 -1.4785
  714MPD2    H110612   0.081   4.154   1.479 -0.6488  0.2156  0.9289
  714MPD2    H210613   0.486   4.086   1.564 -0.2280  0.0261  1.9691
  714MPD2    H310614   0.302   4.241   1.552 -0.2482 -0.2624  0.7598
  714MPD2     N10615   0.010   3.899   1.489  0.3237 -0.2761  0.8544
  714MPD2    H510616   4.733   3.800   1.505 -0.7549 -0.1971  0.5526
  714MPD2    N110617   0.477   3.829   1.587  0.2992 -0.4768  0.7554
  714MPD2    H710618   0.561   3.881   1.607  0.2235  1.4065 -3.7624
  715TMC3    C110619   0.613   3.648   1.586 -0.0518 -0.2145  0.2921
  715TMC3    C210620   0.641   3.555   1.491 -0.4986 -0.0692  0.1868
  715TMC3    C310621   0.768   3.504   1.499  0.2197  0.2614 -0.3558
  715TMC3    C410622   0.699   3.709   1.676  0.2468 -0.1851  0.0298
  715TMC3    C510623   0.828   3.647   1.671  0.8068  0.0384 -0.7817
  715TMC3    C610624   0.866   3.552   1.585 -0.5902  0.0602 -0.7236
  715TMC3     C10625   0.480   3.696   1.581 -0.4313 -0.9402 -0.1136
  715TMC3     O10626   0.388   3.615   1.583 -0.8926  0.1660 -0.4158
  715TMC3     H10627   0.563   3.536   1.418  1.2487 -0.0632 -1.7071
  715TMC3    H110628   0.669   3.781   1.751  1.6500  0.9868 -0.5116
  715TMC3    H210629   0.971   3.530   1.574 -0.4304  0.3342  0.2157
  715TMC3    C710630   0.944   3.706   1.747  0.3461  0.3806 -0.3609
  715TMC3    C810631   0.812   3.428   1.383 -0.5480  0.5670 -0.0797
  715TMC3    O110632   1.039   3.634   1.770  0.3639 -0.1816  0.1026
  715TMC3    O210633   0.721   3.389   1.312 -0.5535  0.5234  0.0201
  716MPD2     C10634   4.547   2.037   9.712 -0.1456 -0.9389  0.2835
  716MPD2    C110635   4.486   2.122   9.623  0.0688 -0.0502 -0.6086
  716MPD2    C210636   4.428   2.085   9.502  0.1304  0.3013  0.1801
  716MPD2    C310637   4.440   1.952   9.468 -0.1984 -1.0448  0.9019
  716MPD2    C410638   4.506   1.872   9.553 -0.4629 -0.0885  0.1024
  716MPD2    C510639   4.559   1.911   9.673 -0.0331  0.5048  0.1808
  716MPD2     H10640   4.377   2.159   9.441  0.4233  0.5675  0.2557
  716MPD2    H110641   4.516   1.774   9.509 -0.1866 -1.0540  2.3570
  716MPD2    H210642   4.601   2.080   9.795  0.5892  0.2072 -0.7823
  716MPD2    H310643   4.607   1.836   9.734  0.3992  2.3412  2.0783
  716MPD2     N10644   4.368   1.909   9.349 -0.0712  0.0081  0.1826
  716MPD2    H510645   4.323   1.982   9.295 -0.3968  1.2660  2.1487
  716MPD2    N110646   4.497   2.255   9.672 -0.2371 -0.2649 -0.3495
  716MPD2    H710647   4.538   2.270   9.764 -1.5266 -3.0339  0.6754
  717TMC3    C110648   4.288   1.750   9.189  0.5172  0.0142  0.0041
  717TMC3    C210649   4.204   1.845   9.142  0.7110  0.9008 -0.6520
  717TMC3    C310650   4.156   1.832   9.017  0.4135  0.5831 -0.5305
  717TMC3    C410651   4.326   1.644   9.110  0.0771  0.4540  0.1023
  717TMC3    C510652   4.267   1.628   8.990 -0.2411 -0.1233 -0.1458
  717TMC3    C610653   4.180   1.724   8.946  0.8276 -0.0397 -0.3284
  717TMC3     C10654   4.376   1.776   9.302  0.2228 -0.3171  0.8245
  717TMC3     O10655   4.449   1.679   9.328  0.0183  0.8479  0.3587
  717TMC3     H10656   4.165   1.923   9.207  0.7328  0.2856  0.1021
  717TMC3    H110657   4.407   1.580   9.142  0.2593 -0.7418 -2.6929
  717TMC3    H210658   4.123   1.694   8.858 -1.5342  0.0944  1.1526
  717TMC3    C710659   4.307   1.522   8.900 -0.4940  0.1912 -0.5303
  717TMC3    C810660   4.038   1.903   8.974  0.4254 -0.5445  0.5542
  717TMC3    O110661   4.277   1.533   8.782 -0.0417 -0.5062 -0.0093
  717TMC3    O210662   3.979   1.968   9.056 -0.2463 -0.7352 -0.3222
  718MPD2     C10663   3.773   2.085  12.462  0.3532  0.3223 -0.5111
  718MPD2    C110664   3.755   2.074  12.318  0.4367 -0.0491  0.4312
  718MPD2    C210665   3.680   1.972  12.263 -0.8701 -0.3946  0.0862
  718MPD2    C310666   3.614   1.889  12.350 -1.0390  0.3137  0.8915
  718MPD2    C410667   3.627   1.906  12.487  0.3374 -0.3358  0.9595
  718MPD2    C510668   3.715   1.993  12.546 -0.0505 -0.3160 -0.5658
  718MPD2     H10669   3.670   1.975  12.155 -1.4581 -0.2853  0.1415
  718MPD2    H110670   3.561   1.860  12.559 -2.8006  1.8835 -0.4866
  718MPD2    H210671   3.819   2.172  12.509 -1.9195  1.6663 -0.7619
  718MPD2    H310672   3.713   2.005  12.654 -2.4736  2.0386 -0.8774
  718MPD2     N10673   3.529   1.792  12.286 -0.6896  0.2788  0.0594
  718MPD2    H510674   3.537   1.790  12.185  2.6634 -1.1101  0.3466
  718MPD2    N110675   3.833   2.154  12.232 -0.4268  0.3911  0.1514
  718MPD2    H710676   3.818   2.153  12.131  2.0112  1.5787 -0.2285
  719TMC3    C110677   4.021   2.250  12.147  0.8632  0.5430  0.1644
  719TMC3    C210678   3.952   2.229  12.026 -0.5249  0.4404  0.5726
  719TMC3    C310679   4.006   2.140  11.935  0.1157 -1.0635  0.1439
  719TMC3    C410680   4.145   2.202  12.164 -0.5032 -0.0063  0.1298
  719TMC3    C510681   4.198   2.130  12.063 -0.2358 -0.1642  0.0359
  719TMC3    C610682   4.132   2.093  11.956  0.0275 -0.2081  0.0322
  719TMC3     C10683   3.948   2.222  12.264 -0.0595 -0.1961 -0.1934
  719TMC3     O10684   3.999   2.241  12.372 -0.5978 -0.0556 -0.2456
  719TMC3     H10685   3.855   2.271  12.004 -0.9635 -0.6086  0.5247
  719TMC3    H110686   4.196   2.216  12.259 -0.9964 -0.0277  0.3994
  719TMC3    H210687   4.168   2.025  11.880 -2.0416  0.8789 -1.9444
  719TMC3    C710688   4.295   2.025  12.093 -0.0723  0.4020 -0.1004
  719TMC3    C810689   3.916   2.037  11.898  0.0272  0.7730  0.4520
  719TMC3    O110690   4.296   1.921  12.022 -0.5222  0.2744  0.5659
  719TMC3    O210691   3.799   2.059  11.928  0.4538 -0.8507  0.5486
  720MPD2     C10692   2.571   2.612  14.138  0.2098 -1.0900 -0.3859
  720MPD2    C110693   2.618   2.633  14.011 -0.1266  0.0950 -0.1212
  720MPD2    C210694   2.751   2.632  13.992  0.5493  0.1393 -0.1160
  720MPD2    C310695   2.840   2.622  14.102  0.3678  0.1294  0.5139
  720MPD2    C410696   2.792   2.592  14.228 -0.2593  0.0173  0.0343
  720MPD2    C510697   2.655   2.600  14.241  0.2453  0.5788 -0.8553
  720MPD2     H10698   2.791   2.647  13.893 -0.9215  0.5470 -0.6520
  720MPD2    H110699   2.852   2.587  14.318 -0.5542  1.5605  0.3182
  720MPD2    H210700   2.464   2.613  14.156  0.4443  0.9937  0.8789
  720MPD2    H310701   2.624   2.589  14.344  1.4329 -1.4781 -0.7228
  720MPD2     N10702   2.978   2.642  14.074  0.1472 -0.2273 -0.7826
  720MPD2    H510703   3.004   2.645  13.976 -0.5655  0.6476 -0.9390
  720MPD2    N110704   2.522   2.651  13.907  0.1488  0.0925  0.8405
  720MPD2    H710705   2.427   2.659  13.941  0.0842 -0.3926  0.7797
  721TMC3    C110706   3.191   2.740  14.122 -0.3177  0.1654  0.2643
  721TMC3    C210707   3.266   2.796  14.221  0.6334 -0.5211  0.5375
  721TMC3    C310708   3.366   2.876  14.184  0.4370 -0.0798 -0.2760
  721TMC3    C410709   3.216   2.757  13.983 -0.5474 -0.3938  0.2819
  721TMC3    C510710   3.313   2.849  13.958  0.4506 -0.1770  0.3711
  721TMC3    C610711   3.391   2.907  14.051  0.3653 -0.7221  0.2175
  721TMC3     C10712   3.072   2.666  14.168  1.0852 -0.8270 -0.7920
  721TMC3     O10713   3.057   2.654  14.287  0.1983  0.2043  0.3025
  721TMC3     H10714   3.257   2.768  14.325  1.9268 -1.9022  0.2849
  721TMC3    H110715   3.148   2.729  13.903 -0.0074 -0.6022 -0.0986
  721TMC3    H210716   3.475   2.966  14.015  0.1100 -0.2952  0.3138
  721TMC3    C710717   3.353   2.871  13.827 -0.4187 -0.0255 -0.9122
  721TMC3    C810718   3.457   2.923  14.293  0.5910 -0.6159 -0.3195
  721TMC3    O110719   3.407   2.776  13.768  0.0166 -0.1027  0.3632
  721TMC3    O210720   3.575   2.939  14.271 -0.2171  0.0485  0.4234
  722MPD2     C10721   1.538   1.333  13.430 -0.2792 -0.2619 -0.1882
  722MPD2    C110722   1.531   1.462  13.383 -0.1359 -0.4525 -0.3960
  722MPD2    C210723   1.428   1.503  13.306 -0.2843  0.3094 -0.1080
  722MPD2    C310724   1.324   1.416  13.275 -0.6696 -0.0790 -0.2165
  722MPD2    C410725   1.315   1.294  13.337 -0.2115 -0.4087  0.2016
  722MPD2    C510726   1.426   1.254  13.411  0.3338  0.3827 -1.1435
  722MPD2     H10727   1.435   1.597  13.252  1.7099  1.4819  2.1763
  722MPD2    H110728   1.240   1.217  13.325  0.4318 -0.6333 -2.4253
  722MPD2    H210729   1.626   1.300  13.483  0.6103  2.3092 -0.0860
  722MPD2    H310730   1.427   1.148  13.436  0.7969  0.5973 -0.2378
  722MPD2     N10731   1.220   1.459  13.190 -0.0050 -0.0522  0.2871
  722MPD2    H510732   1.225   1.555  13.158 -2.7465  0.0218  0.0707
  722MPD2    N110733   1.626   1.562  13.422  0.5890  0.1350 -0.5002
  722MPD2    H710734   1.612   1.657  13.387 -0.0715 -0.6429 -2.3310
  723TMC3    C110735   1.017   1.451  13.064 -0.5670 -0.7224 -0.1419
  723TMC3    C210736   0.957   1.370  12.971 -0.1874  0.6869  0.0744
  723TMC3    C310737   0.849   1.418  12.901 -0.4271 -0.6473  0.3634
  723TMC3    C410738   0.978   1.582  13.079 -0.2742  0.8817 -0.1197
  723TMC3    C510739   0.878   1.628  12.998  0.2435 -0.0914 -0.3293
  723TMC3    C610740   0.809   1.547  12.912 -0.0926  0.6591 -0.2235
  723TMC3     C10741   1.114   1.382  13.145  0.3033 -0.3187 -0.7711
  723TMC3     O10742   1.088   1.266  13.164  0.3030 -0.5699  0.0008
  723TMC3     H10743   0.998   1.273  12.947 -0.6408  0.3023  0.8457
  723TMC3    H110744   1.015   1.651  13.154  1.7990 -0.7862  0.4079
  723TMC3    H210745   0.716   1.571  12.861  0.5343  1.8323 -0.8330
  723TMC3    C710746   0.834   1.760  13.017 -0.7523 -0.7076 -0.4817
  723TMC3    C810747   0.757   1.335  12.827 -0.6323  0.3158 -0.0950
  723TMC3    O110748   0.815   1.810  13.127  0.8360 -0.1829 -0.1902
  723TMC3    O210749   0.714   1.383  12.720 -0.5679 -0.0895 -0.4371
  724TMC3    C110750   1.363   4.214  10.279 -0.3440 -0.3246  0.2281
  724TMC3    C210751   1.332   4.239  10.150  0.7626 -0.0177  0.1252
  724TMC3    C310752   1.346   4.364  10.103 -0.1290 -0.0481  0.0018
  724TMC3    C410753   1.399   4.315  10.366  0.5158 -0.2194  0.2099
  724TMC3    C510754   1.423   4.443  10.314  0.2804 -0.0604  0.5997
  724TMC3    C610755   1.395   4.463  10.179 -0.9517 -0.5076  0.1265
  724TMC3     C10756   1.343   4.082  10.334  0.2251 -0.2434 -0.8254
  724TMC3     O10757   1.412   4.058  10.433 -0.1292  0.2906  0.2475
  724TMC3     H10758   1.340   4.159  10.077 -3.3227 -2.6953  2.6198
  724TMC3    H110759   1.432   4.293  10.467  0.2222 -0.5471  0.2333
  724TMC3    H210760   1.399   4.564  10.141  1.1361 -1.9772 -3.6133
  724TMC3    C710761   1.458   4.558  10.388  0.1276 -0.1990  0.0499
  724TMC3    C810762   1.309   4.387   9.963 -0.0430  0.2991 -0.1644
  724TMC3    O110763   1.513   4.654  10.338 -0.2203 -0.3827 -0.4817
  724TMC3    O210764   1.252   4.291   9.911  0.6978 -0.4313  0.0545
  725TMC3    C110765   3.345   3.056  12.933 -0.5670  0.2852 -0.2920
  725TMC3    C210766   3.223   3.115  12.934  0.0727 -0.4079 -0.0752
  725TMC3    C310767   3.117   3.039  12.925  0.6325 -0.0360 -0.3184
  725TMC3    C410768   3.365   2.917  12.938 -0.3977  0.0436 -0.2736
  725TMC3    C510769   3.255   2.837  12.952 -0.1489  0.9274  0.1201
  725TMC3    C610770   3.132   2.902  12.944 -0.0353  0.1614  0.3602
  725TMC3     C10771   3.463   3.140  12.938 -0.3221 -0.1735  0.0457
  725TMC3     O10772   3.449   3.235  13.010  0.0665 -0.6397 -0.3771
  725TMC3     H10773   3.224   3.220  12.907  0.7341 -0.5614 -0.6658
  725TMC3    H110774   3.467   2.881  12.940 -0.6795 -0.5772  3.1343
  725TMC3    H210775   3.043   2.843  12.925 -0.4935  1.5145 -1.6645
  725TMC3    C710776   3.265   2.696  12.931  0.0294  0.3172  0.4310
  725TMC3    C810777   2.980   3.089  12.901 -0.3199 -0.4128  0.2603
  725TMC3    O110778   3.367   2.671  12.868 -0.5311  0.3652 -0.0345
  725TMC3    O210779   2.897   3.003  12.908  0.1094  0.6876 -0.0415
  726MPD2     C10780   0.420   0.090   9.677 -0.1815  0.3984 -0.3521
  726MPD2    C110781   0.429   0.123   9.811 -0.1834 -0.5799 -0.1481
  726MPD2    C210782   0.472   0.026   9.897  1.0597 -0.8998 -0.0925
  726MPD2    C310783   0.484   4.627   9.862 -0.5071  0.1981  0.1999
  726MPD2    C410784   0.481   4.598   9.728  0.2382  0.4798  0.6942
  726MPD2    C510785   0.452   4.697   9.638  0.0825 -0.2883 -0.1859
  726MPD2     H10786   0.482   0.058  10.000 -3.4557 -0.3360  0.1773
  726MPD2    H110787   0.512   4.501   9.691 -0.1356  1.4624 -2.1288
  726MPD2    H210788   0.414   0.169   9.604 -0.8914  2.6766  2.1616
  726MPD2    H310789   0.470   4.687   9.531 -1.3849 -1.5493 -0.3020
  726MPD2     N10790   0.506   4.517   9.954  0.9309  0.2379  0.4195
  726MPD2    H510791   0.486   4.422   9.924  0.1550  0.5830 -0.1498
  726MPD2    N110792   0.413   0.250   9.862  0.4174 -0.4065 -0.2935
  726MPD2    H710793   0.428   0.260   9.962  0.1410  0.7708 -0.3691
  727TMC3    C110794   0.331   0.470   9.879 -0.0614 -0.7316  0.2043
  727TMC3    C210795   0.396   0.494   9.995 -0.2636 -0.8039  0.6978
  727TMC3    C310796   0.370   0.613  10.059 -0.1215 -0.4873  0.0109
  727TMC3    C410797   0.244   0.563   9.826  0.2848  0.2908 -0.1147
  727TMC3    C510798   0.214   0.674   9.896  0.0852  0.6018 -0.2047
  727TMC3    C610799   0.277   0.705  10.010  0.3936  0.2784 -0.7815
  727TMC3     C10800   0.356   0.353   9.796  0.9115 -0.4238 -0.0665
  727TMC3     O10801   0.311   0.348   9.682 -0.4890  0.1792 -0.0180
  727TMC3     H10802   0.486   0.437  10.013 -0.6588 -0.6591  3.1382
  727TMC3    H110803   0.202   0.534   9.731  0.3088  1.0707 -0.3653
  727TMC3    H210804   0.241   0.788  10.070 -0.1443 -0.1690 -0.4782
  727TMC3    C710805   0.117   0.760   9.828  0.2014  0.0389  0.0191
  727TMC3    C810806   0.446   0.640  10.181  0.1052 -0.4841  0.1086
  727TMC3    O110807   0.071   0.727   9.721 -0.0382 -0.2091  0.0415
  727TMC3    O210808   0.524   0.551  10.216  0.0755  0.4914  0.2157
  728TMC3    C110809   1.069   3.448  15.240  0.4424 -0.8364 -0.2351
  728TMC3    C210810   1.197   3.398  15.215 -0.1403 -0.2065 -0.1657
  728TMC3    C310811   1.253   3.444  15.092  0.2562 -0.6386 -0.4259
  728TMC3    C410812   1.006   3.539  15.156 -0.0033  0.2050 -0.8203
  728TMC3    C510813   1.063   3.570  15.040 -0.1231 -0.5459  0.4712
  728TMC3    C610814   1.187   3.530  15.004 -0.1961  0.6235 -0.6405
  728TMC3     C10815   1.002   3.409  15.363  0.2314  0.5847  0.0628
  728TMC3     O10816   1.057   3.343  15.448 -0.1853  0.1558 -0.2121
  728TMC3     H10817   1.245   3.324  15.279 -2.7046 -0.4176  1.5169
  728TMC3    H110818   0.919   3.586  15.199  1.0940  0.2361  1.3825
  728TMC3    H210819   1.232   3.567  14.912 -3.0003  0.1541 -2.1694
  728TMC3    C710820   0.998   3.658  14.949  0.4663 -0.1258 -0.0002
  728TMC3    C810821   1.390   3.417  15.071 -0.4275 -0.1995  0.0255
  728TMC3    O110822   0.889   3.690  14.993  0.4559 -0.8227 -0.2757
  728TMC3    O210823   1.450   3.396  15.175 -0.1204 -0.3478 -0.0442
  729MPD2     C10824   2.643   0.055  16.428  0.0219  1.0854 -0.2517
  729MPD2    C110825   2.763   0.048  16.498 -0.9392  0.6294  0.8214
  729MPD2    C210826   2.766   0.079  16.631 -0.0448 -0.0690 -0.1255
  729MPD2    C310827   2.647   0.085  16.702 -0.3960  0.0693 -0.6156
  729MPD2    C410828   2.525   0.096  16.634 -1.1563 -0.6557 -0.0204
  729MPD2    C510829   2.527   0.077  16.502 -0.3211  0.1363 -0.1838
  729MPD2     H10830   2.859   0.103  16.681  0.0574  0.4853 -0.5848
  729MPD2    H110831   2.433   0.128  16.681 -0.7779  0.5585 -0.1065
  729MPD2    H210832   2.639   0.036  16.322 -0.6546 -0.9139  0.1523
  729MPD2    H310833   2.437   0.085  16.441 -0.6595 -2.3193  0.0120
  729MPD2     N10834   2.641   0.093  16.844 -0.4043  0.1626 -0.4818
  729MPD2    H510835   2.551   0.107  16.889 -0.5036 -0.0555 -0.6151
  729MPD2    N110836   2.874   0.023  16.422  0.5251  0.3134  0.3853
  729MPD2    H710837   2.861   0.029  16.322 -0.2353  2.1212  0.5973
  730TMC3    C110838   2.744   0.099  17.059  0.9518 -0.2145 -0.5194
  730TMC3    C210839   2.842   0.057  17.143 -0.2114 -0.0162 -0.4273
  730TMC3    C310840   2.883   0.134  17.252 -0.6381  0.0197  0.1431
  730TMC3    C410841   2.683   0.217  17.085 -0.3649  0.0238  0.0156
  730TMC3    C510842   2.705   0.283  17.203 -0.2123 -0.0879  0.3617
  730TMC3    C610843   2.821   0.253  17.281 -0.4739  0.0359  0.3104
  730TMC3     C10844   2.742   0.047  16.924  0.4473 -0.1778 -0.2751
  730TMC3     O10845   2.847   4.726  16.894  0.5271 -0.1077  0.1486
  730TMC3     H10846   2.896   4.702  17.113 -3.1698 -2.2864  1.0187
  730TMC3    H110847   2.604   0.254  17.019 -1.1692 -1.0372  0.3771
  730TMC3    H210848   2.831   0.313  17.371  2.7243 -0.6548  0.4183
  730TMC3    C710849   2.662   0.421  17.198 -0.3699 -0.3573  0.3140
  730TMC3    C810850   3.006   0.095  17.321  0.8163  0.2185 -0.2491
  730TMC3    O110851   2.576   0.451  17.115 -0.4060  0.0318  0.3498
  730TMC3    O210852   3.067   0.007  17.258  0.4875  0.5139 -0.1952
  731MPD2     C10853   2.198   2.731  12.527  0.6633 -0.2183  0.0935
  731MPD2    C110854   2.215   2.602  12.478  0.1985  0.5252 -0.5676
  731MPD2    C210855   2.158   2.499  12.550  0.0380 -0.2039  0.1462
  731MPD2    C310856   2.100   2.524  12.676  0.4723  0.0563 -0.0335
  731MPD2    C410857   2.079   2.650  12.720 -0.1769 -0.0044 -0.1674
  731MPD2    C510858   2.136   2.751  12.646 -0.0010  0.6882  0.4144
  731MPD2     H10859   2.153   2.397  12.515  1.1850  0.4002 -1.7840
  731MPD2    H110860   2.043   2.673  12.819 -1.5030 -0.4071 -0.5614
  731MPD2    H210861   2.243   2.814  12.473  0.6635 -1.0800 -1.2508
  731MPD2    H310862   2.135   2.854  12.677 -2.9806 -0.3127  3.6042
  731MPD2     N10863   2.073   2.411  12.759 -0.0179 -0.3182 -0.0935
  731MPD2    H510864   2.099   2.325  12.712 -0.6221 -0.6540  0.1837
  731MPD2    N110865   2.273   2.575  12.353  0.5120 -0.4946 -0.7376
  731MPD2    H710866   2.264   2.478  12.324  0.2138 -0.7863  0.3432
  732TMC3    C110867   2.436   2.604  12.182  0.0540 -0.1762 -0.0752
  732TMC3    C210868   2.354   2.561  12.081 -0.2057  1.4131  0.1810
  732TMC3    C310869   2.408   2.571  11.959  0.4569 -0.6023 -0.2023
  732TMC3    C410870   2.570   2.634  12.165  0.6891 -0.1475 -0.4635
  732TMC3    C510871   2.621   2.623  12.040 -0.6243  0.0479 -0.4549
  732TMC3    C610872   2.542   2.597  11.932 -0.2913  0.3909 -0.6434
  732TMC3     C10873   2.368   2.656  12.299  0.4533  0.4231 -0.0018
  732TMC3     O10874   2.411   2.760  12.339  0.4194  0.2254  0.0258
  732TMC3     H10875   2.257   2.521  12.108  1.0613 -0.4201  1.9967
  732TMC3    H110876   2.645   2.660  12.239  1.0492  0.3974 -1.0309
  732TMC3    H210877   2.588   2.581  11.836 -0.6422  1.7785 -1.0410
  732TMC3    C710878   2.765   2.639  12.018 -0.2384 -0.2138 -0.0099
  732TMC3    C810879   2.337   2.527  11.843  0.0972 -0.1364  0.5180
  732TMC3    O110880   2.796   2.707  11.922  0.2667 -0.1193  0.5647
  732TMC3    O210881   2.402   2.508  11.742 -0.0545 -0.1033 -0.0120
  733TMC3    C110882   3.371   1.371  12.216  0.0558 -0.1870 -0.1250
  733TMC3    C210883   3.366   1.477  12.298  0.2862 -0.1254 -0.1087
  733TMC3    C310884   3.385   1.605  12.253  0.3651 -0.6614 -0.1217
  733TMC3    C410885   3.397   1.392  12.084  0.2912 -0.5071 -0.7006
  733TMC3    C510886   3.418   1.515  12.034 -0.2691  0.4633 -0.4644
  733TMC3    C610887   3.416   1.623  12.122 -0.0739 -0.2352 -0.4465
  733TMC3     C10888   3.310   1.253  12.270  0.4524  0.2226 -0.0012
  733TMC3     O10889   3.323   1.231  12.386 -0.0744  0.0404  0.4102
  733TMC3     H10890   3.337   1.463  12.402 -2.1189  1.6757 -0.5197
  733TMC3    H110891   3.378   1.315  12.009 -2.5447  0.8414 -1.3710
  733TMC3    H210892   3.405   1.724  12.082  2.4148 -0.5583 -1.9126
  733TMC3    C710893   3.527   1.510  11.938  0.0814  0.3719  0.8679
  733TMC3    C810894   3.443   1.700  12.350 -0.1612  0.2764  0.2304
  733TMC3    O110895   3.564   1.399  11.903 -0.1123 -0.0955  0.1485
  733TMC3    O210896   3.405   1.695  12.465  0.2025  0.4323  0.0508
  734MPD2     C10897   0.315   2.180  12.429 -0.0617  0.5408 -0.2701
  734MPD2    C110898   0.233   2.122  12.340  0.1900 -0.1002 -0.1288
  734MPD2    C210899   0.145   2.207  12.271  0.2056 -1.4485 -0.3780
  734MPD2    C310900   0.159   2.341  12.271  0.2613  0.4677 -0.3580
  734MPD2    C410901   0.254   2.402  12.355  0.1374  0.1244  0.6289
  734MPD2    C510902   0.320   2.317  12.436 -0.1194  0.2387  0.2453
  734MPD2     H10903   0.079   2.159  12.200 -1.2125 -1.0010  0.6337
  734MPD2    H110904   0.268   2.509  12.362  0.0685  0.3247 -2.2473
  734MPD2    H210905   0.372   2.119  12.498 -0.5171  1.1150  0.6112
  734MPD2    H310906   0.386   2.364  12.508 -0.7862 -1.1099  1.7242
  734MPD2     N10907   0.081   2.410  12.172  0.2194 -0.1656  0.8724
  734MPD2    H510908   0.021   2.348  12.118  0.1038  0.5797  0.1439
  734MPD2    N110909   0.235   1.979  12.320 -0.2418  0.6416  0.2278
  734MPD2    H710910   0.299   1.930  12.381  0.2012  0.3124 -0.4996
  735TMC3    C110911   0.208   1.769  12.197 -0.1990  0.4990  0.1407
  735TMC3    C210912   0.143   1.721  12.086  0.1231  0.3519  0.1176
  735TMC3    C310913   0.208   1.654  11.991  0.4353  0.3563  0.2051
  735TMC3    C410914   0.338   1.729  12.219 -1.3261  0.1021 -0.4034
  735TMC3    C510915   0.403   1.674  12.119  0.3485  0.9790 -0.8566
  735TMC3    C610916   0.341   1.629  12.004  0.3532 -0.1832 -0.3744
  735TMC3     C10917   0.182   1.910  12.213  0.3023 -0.5593 -0.1954
  735TMC3     O10918   0.109   1.954  12.121  0.0177  0.2768  0.0844
  735TMC3     H10919   0.037   1.744  12.078 -0.2316 -1.5373 -0.8064
  735TMC3    H110920   0.394   1.781  12.296  1.2357 -0.3062 -2.0145
  735TMC3    H210921   0.395   1.579  11.925 -0.5263 -0.2902 -0.9103
  735TMC3    C710922   0.543   1.704  12.101  0.4857 -0.6158  0.1323
  735TMC3    C810923   0.173   1.702  11.866  0.5746 -0.3909 -0.1248
  735TMC3    O110924   0.583   1.697  11.985 -0.1379 -0.2287  0.2221
  735TMC3    O210925   0.207   1.644  11.770  0.2213 -0.5438  0.2716
  736MPD2     C10926   0.778   1.836  12.366  0.6433 -0.8761 -0.0933
  736MPD2    C110927   0.734   1.812  12.243  0.4849 -0.2830  0.4996
  736MPD2    C210928   0.813   1.843  12.133  0.3334 -0.1362 -0.2355
  736MPD2    C310929   0.922   1.927  12.142  0.2374 -0.3639  0.0006
  736MPD2    C410930   0.967   1.958  12.273 -0.0929 -0.6876 -0.0181
  736MPD2    C510931   0.893   1.910  12.381 -0.1625 -0.1128  0.0963
  736MPD2     H10932   0.776   1.821  12.033  0.6618 -1.2148 -0.1205
  736MPD2    H110933   1.063   2.003  12.296 -0.0977 -1.4523  1.4500
  736MPD2    H210934   0.722   1.806  12.454 -0.4095  0.3950 -0.3338
  736MPD2    H310935   0.920   1.924  12.485 -0.9703 -0.3862  0.3366
  736MPD2     N10936   1.006   1.957  12.038  0.4084  0.2632 -0.1531
  736MPD2    H510937   1.088   2.017  12.039 -0.4592  1.4247  0.6597
  736MPD2    N110938   0.608   1.752  12.219  0.0900  0.1410 -0.3519
  736MPD2    H710939   0.561   1.740  12.309 -2.5497  2.8804 -1.3679
  737TMC3    C110940   1.051   1.990  11.815  0.0905 -0.4385 -0.1973
  737TMC3    C210941   1.064   2.123  11.842 -0.2939 -0.4289 -0.2750
  737TMC3    C310942   1.114   2.195  11.737 -0.1466  0.1750  0.0874
  737TMC3    C410943   1.084   1.926  11.697 -0.2118 -0.6741  0.0330
  737TMC3    C510944   1.153   2.001  11.602  0.7014  0.0778  0.0473
  737TMC3    C610945   1.170   2.133  11.623  0.3945 -0.0841  0.5469
  737TMC3     C10946   0.990   1.902  11.915  0.4805 -0.4470 -0.4041
  737TMC3     O10947   0.960   1.789  11.886  0.7161  0.6263  0.0531
  737TMC3     H10948   1.010   2.175  11.920 -0.1090  0.3730 -0.6845
  737TMC3    H110949   1.068   1.821  11.676 -2.2216 -0.4550  0.3975
  737TMC3    H210950   1.228   2.184  11.547 -1.6390 -0.3678 -1.1969
  737TMC3    C710951   1.177   1.942  11.473  0.2466  0.2328  1.1110
  737TMC3    C810952   1.134   2.335  11.753 -0.4039 -1.0398  0.3318
  737TMC3    O110953   1.114   1.841  11.457 -0.2409  0.2564 -0.5041
  737TMC3    O210954   1.113   2.379  11.865 -0.0247 -0.0152  0.2377
  738MPD2     C10955   1.547   2.059  14.644 -0.1507 -0.6486 -0.4494
  738MPD2    C110956   1.556   1.925  14.685 -0.3726  0.0575  0.1169
  738MPD2    C210957   1.681   1.869  14.686  0.4851 -0.0470 -0.2902
  738MPD2    C310958   1.794   1.948  14.655  0.5158 -0.5444  0.6780
  738MPD2    C410959   1.779   2.076  14.611 -0.0052  0.7308 -0.5468
  738MPD2    C510960   1.661   2.134  14.608  0.1413  0.1886 -0.3738
  738MPD2     H10961   1.700   1.765  14.709  0.0309  0.3094  1.6266
  738MPD2    H110962   1.864   2.131  14.571  0.3648 -0.0555 -0.8555
  738MPD2    H210963   1.453   2.110  14.628  0.3622  0.4164 -0.0389
  738MPD2    H310964   1.657   2.237  14.575  0.4870 -0.1649 -1.5320
  738MPD2     N10965   1.929   1.900  14.644  0.6562  0.0862  0.6547
  738MPD2    H510966   2.009   1.961  14.632 -0.2551  1.3124  0.8484
  738MPD2    N110967   1.444   1.839  14.709  0.6242  0.7864  0.6822
  738MPD2    H710968   1.466   1.753  14.759  2.1306  0.7197 -0.0978
  739TMC3    C110969   2.101   1.744  14.616 -0.1204 -0.1053  0.2141
  739TMC3    C210970   2.140   1.817  14.506 -0.7159  0.5349 -0.4977
  739TMC3    C310971   2.188   1.756  14.388 -0.3531 -0.2414 -0.2215
  739TMC3    C410972   2.134   1.610  14.621 -0.1700 -0.2900 -0.0498
  739TMC3    C510973   2.195   1.552  14.518  0.1824  0.2644  0.3664
  739TMC3    C610974   2.212   1.623  14.399  1.1741 -0.1981  0.3862
  739TMC3     C10975   1.971   1.773  14.668 -0.5799 -0.1250 -0.4643
  739TMC3     O10976   1.897   1.684  14.702 -0.4547  0.0668  0.2195
  739TMC3     H10977   2.114   1.921  14.494 -2.1036  0.1165 -1.0702
  739TMC3    H110978   2.093   1.561  14.708 -0.7115  1.1650  0.5219
  739TMC3    H210979   2.268   1.578  14.318  0.7602 -2.3879  1.3179
  739TMC3    C710980   2.203   1.408  14.528 -0.6020  0.9425  0.1825
  739TMC3    C810981   2.141   1.810  14.264 -0.2141  0.4015  0.6007
  739TMC3    O110982   2.234   1.368  14.639  0.3610  0.4588 -0.0233
  739TMC3    O210983   2.043   1.883  14.276 -0.1967 -0.2221  0.2123
  740TMC3    C110984   2.599   3.062  14.458  0.1527  0.4174  0.5029
  740TMC3    C210985   2.646   2.975  14.557 -0.2172  0.5417  0.0104
  740TMC3    C310986   2.757   2.900  14.524 -0.1149 -0.0802  0.2616
  740TMC3    C410987   2.653   3.066  14.333 -0.2941 -0.0918 -0.4274
  740TMC3    C510988   2.753   2.981  14.308 -0.4746 -0.4741  0.2545
  740TMC3    C610989   2.812   2.906  14.403 -0.1999  0.1187 -0.2504
  740TMC3     C10990   2.471   3.119  14.483  0.3764  0.6050  0.1007
  740TMC3     O10991   2.433   3.195  14.395 -0.3253 -0.4138  0.4136
  740TMC3     H10992   2.612   2.985  14.659 -1.0611  2.6160 -0.4735
  740TMC3    H110993   2.625   3.147  14.266  1.4657  0.8195 -0.0394
  740TMC3    H210994   2.903   2.858  14.369 -1.2484 -2.0256 -0.0540
  740TMC3    C710995   2.812   2.976  14.172  0.6795  0.1984 -0.3963
  740TMC3    C810996   2.838   2.828  14.622  0.3669 -0.1189 -0.3087
  740TMC3    O110997   2.930   2.965  14.163 -0.0940  0.3778 -0.2795
  740TMC3    O210998   2.949   2.801  14.581  0.2101  0.3672  0.2570
  741TMC3    C110999   2.172   2.416  14.075 -0.3716 -0.0368 -0.3691
  741TMC3    C211000   2.045   2.373  14.094 -0.1373  0.2575 -0.3936
  741TMC3    C311001   2.021   2.275  14.188  0.1162  0.5063  0.1715
  741TMC3    C411002   2.274   2.363  14.149 -0.9302 -0.0603 -0.4618
  741TMC3    C511003   2.234   2.275  14.248 -0.1944  0.5557  0.1375
  741TMC3    C611004   2.111   2.226  14.272  0.3472  0.4807 -0.0613
  741TMC3     C11005   2.196   2.531  13.991  0.3719  0.1875  0.1159
  741TMC3     O11006   2.272   2.616  14.036 -0.2288  0.3342 -0.2187
  741TMC3     H11007   1.962   2.415  14.038 -0.3070  1.9960  1.1776
  741TMC3    H111008   2.377   2.394  14.135 -0.8723  0.5726  1.4540
  741TMC3    H211009   2.089   2.149  14.345  0.4737  0.8832  0.4004
  741TMC3    C711010   2.333   2.214  14.337 -0.0817  0.2535 -0.2842
  741TMC3    C811011   1.891   2.212  14.180 -0.7133  0.7051  0.2355
  741TMC3    O111012   2.294   2.130  14.416 -0.1419 -0.3753 -0.1282
  741TMC3    O211013   1.810   2.280  14.114 -0.1884 -0.4307 -0.1743
  742TMC3    C111014   1.698   1.295  15.218 -0.2039  0.1731  0.4660
  742TMC3    C211015   1.604   1.267  15.126 -0.1008 -0.1789  0.2476
  742TMC3    C311016   1.606   1.135  15.092 -0.9466  0.0030 -0.5744
  742TMC3    C411017   1.809   1.219  15.250 -0.2949  0.3485 -0.4232
  742TMC3    C511018   1.810   1.092  15.202 -0.4657  0.2262  0.4334
  742TMC3    C611019   1.712   1.056  15.117  0.3260  0.0091 -0.0571
  742TMC3     C11020   1.684   1.431  15.279 -0.2084 -0.7242  0.0972
  742TMC3     O11021   1.613   1.513  15.221  0.2573 -0.3378  0.0916
  742TMC3     H11022   1.510   1.322  15.129  0.4127  0.8096 -1.6162
  742TMC3    H111023   1.888   1.251  15.317 -0.0180  0.3865 -0.7693
  742TMC3    H211024   1.732   0.962  15.066 -0.3820 -1.0168  1.5374
  742TMC3    C711025   1.926   1.013  15.227  0.5477 -0.4865  0.1621
  742TMC3    C811026   1.511   1.085  14.998 -0.1980  0.5829  0.3592
  742TMC3    O111027   1.957   0.923  15.147  0.6966  0.2456  0.1977
  742TMC3    O211028   1.511   0.964  14.990 -0.7500  0.2985  0.6279
  743MPD2     C11029   4.326   2.583   2.167  0.1741  0.1430 -0.2427
  743MPD2    C111030   4.359   2.547   2.039  0.4129  0.6225  0.4484
  743MPD2    C211031   4.488   2.545   1.997  0.1446 -0.0215 -0.8863
  743MPD2    C311032   4.590   2.575   2.084 -0.3245 -0.2591  0.6202
  743MPD2    C411033   4.561   2.609   2.208 -0.7433 -1.0556  0.2001
  743MPD2    C511034   4.432   2.609   2.254  0.1153 -0.6411  0.0763
  743MPD2     H11035   4.516   2.524   1.894 -1.0628  1.5245 -1.5254
  743MPD2    H111036   4.641   2.636   2.276 -0.9363 -0.2424  0.0970
  743MPD2    H211037   4.229   2.608   2.208  1.6709  1.1117  2.6905
  743MPD2    H311038   4.416   2.629   2.359 -1.0793 -1.2077  0.0084
  743MPD2     N11039   4.721   2.579   2.027  0.2981 -0.9895  0.1068
  743MPD2    H511040   4.719   2.587   1.925  1.8710 -0.8746  0.0861
  743MPD2    N111041   4.251   2.520   1.950  0.3326 -0.4687 -0.3478
  743MPD2    H711042   4.161   2.547   1.989  0.8336 -1.7454  1.6538
  744TMC3    C111043   4.157   2.472   1.742 -0.7186 -0.1678 -0.0732
  744TMC3    C211044   4.036   2.532   1.787 -0.2055  0.2015 -0.9462
  744TMC3    C311045   3.936   2.551   1.691  0.1326  0.5201 -0.1618
  744TMC3    C411046   4.172   2.419   1.618 -0.2445 -0.0909  0.5837
  744TMC3    C511047   4.069   2.445   1.531 -0.5826 -0.8139  0.0436
  744TMC3    C611048   3.953   2.511   1.563  0.1077 -0.2434 -0.4945
  744TMC3     C11049   4.273   2.456   1.827  0.4169  0.3253  0.4090
  744TMC3     O11050   4.373   2.401   1.786  0.0857 -0.1828  0.1836
  744TMC3     H11051   4.033   2.589   1.879  0.2756 -0.8601 -0.2795
  744TMC3    H111052   4.268   2.375   1.592  0.6580  1.8480  0.6412
  744TMC3    H211053   3.878   2.514   1.485 -0.0115 -0.4497 -0.3881
  744TMC3    C711054   4.115   2.427   1.396 -0.2856  0.2427  0.9564
  744TMC3    C811055   3.819   2.636   1.725 -0.4003  0.8935  0.4101
  744TMC3    O111056   4.235   2.432   1.378  0.1158  0.1140  0.6600
  744TMC3    O211057   3.732   2.632   1.644 -0.1895  0.6449 -0.2414
  745TMC3    C111058   2.393   0.559  13.591 -0.6173  0.7098  0.1092
  745TMC3    C211059   2.310   0.559  13.702 -0.8281  0.0662 -0.2060
  745TMC3    C311060   2.179   0.521  13.683 -0.5373  0.4687  0.0458
  745TMC3    C411061   2.342   0.548  13.463  0.4719  0.4484 -0.3091
  745TMC3    C511062   2.207   0.521  13.440 -0.3650  1.0417  0.0876
  745TMC3    C611063   2.126   0.509  13.557 -0.0239  0.4187 -0.1802
  745TMC3     C11064   2.540   0.581  13.611 -1.1119  0.2735  0.0632
  745TMC3     O11065   2.622   0.533  13.538 -0.1683  0.1402 -0.2886
  745TMC3     H11066   2.347   0.589  13.799  1.7241 -2.8589 -0.2775
  745TMC3    H111067   2.402   0.531  13.374  0.4545  2.5969 -0.7286
  745TMC3    H211068   2.022   0.481  13.544  0.3432 -2.2698  2.7446
  745TMC3    C711069   2.151   0.539  13.308  0.3130  0.2010  0.5026
  745TMC3    C811070   2.099   0.493  13.803  0.4069  0.1750  0.3191
  745TMC3    O111071   2.042   0.491  13.281  0.3544  0.2865  0.0119
  745TMC3    O211072   2.002   0.423  13.807  0.1021  0.3119  0.1383
  746TMC3    C111073   4.006   2.329  10.611  0.0022 -0.7287  0.3428
  746TMC3    C211074   4.118   2.277  10.554  0.5331 -0.4364  0.3368
  746TMC3    C311075   4.192   2.177  10.624  0.7125  0.7902  0.3650
  746TMC3    C411076   3.946   2.264  10.717  0.5778  0.2928  0.1544
  746TMC3    C511077   4.009   2.157  10.770  0.5861  0.0945 -0.0538
  746TMC3    C611078   4.132   2.123  10.735  0.1760 -0.0069 -0.1714
  746TMC3     C11079   4.029   2.469  10.651  0.5954 -0.1567 -0.2227
  746TMC3     O11080   4.003   2.502  10.767 -0.2323 -0.1422 -0.7936
  746TMC3     H11081   4.132   2.314  10.453  0.0843  2.2873  1.2747
  746TMC3    H111082   3.857   2.311  10.757  0.6984  0.7064 -0.0539
  746TMC3    H211083   4.177   2.036  10.782 -0.9563 -0.8463 -0.6443
  746TMC3    C711084   3.973   2.118  10.905  0.5522  0.4262  0.1652
  746TMC3    C811085   4.334   2.164  10.610 -0.2473  0.0421 -0.1644
  746TMC3    O111086   4.062   2.084  10.982 -0.1242  0.2792  0.3674
  746TMC3    O211087   4.393   2.077  10.673 -0.0048  0.4484  0.0454
  747TMC3    C111088   1.806   2.318  10.792 -0.2773 -0.3895  0.3694
  747TMC3    C211089   1.757   2.194  10.790 -0.9140  0.9739 -0.1461
  747TMC3    C311090   1.763   2.129  10.915 -0.0245 -0.0655 -0.5953
  747TMC3    C411091   1.871   2.373  10.904  0.2624 -0.2744  0.1122
  747TMC3    C511092   1.881   2.304  11.019 -0.5432  0.1627 -0.6259
  747TMC3    C611093   1.828   2.183  11.020 -0.0457 -0.1115  1.2050
  747TMC3     C11094   1.815   2.392  10.666 -0.0213  0.0398  0.4551
  747TMC3     O11095   1.838   2.512  10.666  0.2025 -0.5841 -0.3274
  747TMC3     H11096   1.701   2.148  10.709 -0.9821  0.6993  0.0582
  747TMC3    H111097   1.907   2.476  10.900 -0.9849  0.1365 -0.4694
  747TMC3    H211098   1.838   2.118  11.107  0.6154 -1.3354  0.2224
  747TMC3    C711099   2.008   2.336  11.087  0.0189 -0.3009  0.7995
  747TMC3    C811100   1.661   2.030  10.947 -0.3585  0.0611  0.1483
  747TMC3    O111101   2.040   2.452  11.092 -0.1400  0.2606  1.0053
  747TMC3    O211102   1.644   1.945  10.860  0.1472 -0.1838 -0.2609
  748MPD2     C11103   3.689   3.197   1.861  0.0999  0.7349  0.0160
  748MPD2    C111104   3.753   3.205   1.734  0.5464 -0.1992 -0.8451
  748MPD2    C211105   3.897   3.230   1.744 -0.6089  0.1047 -0.3701
  748MPD2    C311106   3.957   3.238   1.867  0.1100  0.7457 -0.7723
  748MPD2    C411107   3.881   3.246   1.979  0.0070  0.8481 -0.4565
  748MPD2    C511108   3.754   3.220   1.982 -0.1269 -0.2218 -0.2082
  748MPD2     H11109   3.950   3.236   1.649 -0.0646  1.4445  0.0233
  748MPD2    H111110   3.932   3.251   2.074 -1.7684  2.6321  0.3928
  748MPD2    H211111   3.584   3.171   1.861  0.6601 -1.5356  0.4874
  748MPD2    H311112   3.708   3.209   2.079  0.6809  0.5698  0.2582
  748MPD2     N11113   4.098   3.258   1.868 -0.1797  0.1996  0.1487
  748MPD2    H511114   4.139   3.270   1.776  0.6944 -1.3510  0.3451
  748MPD2    N111115   3.681   3.195   1.616 -0.2310  0.1402 -0.0435
  748MPD2    H711116   3.581   3.177   1.621 -0.2184 -0.2206 -1.0575
  749TMC3    C111117   4.331   3.271   1.947 -0.4106  0.0035  0.0352
  749TMC3    C211118   4.423   3.221   2.023  0.1507 -0.9257  0.3092
  749TMC3    C311119   4.553   3.221   1.990  0.2525 -0.0249  0.2569
  749TMC3    C411120   4.371   3.324   1.828  0.0439  0.0501  0.1288
  749TMC3    C511121   4.503   3.336   1.794  0.4406 -0.1237  0.4167
  749TMC3    C611122   4.598   3.288   1.883 -0.5143  0.9833  0.4175
  749TMC3     C11123   4.185   3.279   1.982  0.4156 -0.6381  0.0039
  749TMC3     O11124   4.162   3.260   2.103  0.0986  1.5698  0.0507
  749TMC3     H11125   4.399   3.162   2.111  0.3188  1.0191  1.6595
  749TMC3    H111126   4.297   3.391   1.787 -0.8606  0.1329  1.8990
  749TMC3    H211127   4.704   3.299   1.864 -0.2764 -1.0054  0.5916
  749TMC3    C711128   4.540   3.411   1.671  0.2121 -0.5468  0.7725
  749TMC3    C811129   4.643   3.134   2.059  0.2109  0.7050  0.4443
  749TMC3    O111130   4.649   3.466   1.662  0.8919 -0.4906  0.1728
  749TMC3    O211131   4.613   3.089   2.167  0.0844 -0.4775  0.6472
  750MPD2     C11132   3.669   4.618  11.237 -0.4986  0.4222 -0.2515
  750MPD2    C111133   3.650   4.513  11.326 -0.1348 -0.2123 -0.8436
  750MPD2    C211134   3.711   4.388  11.306 -0.4937  0.0049 -0.3146
  750MPD2    C311135   3.785   4.366  11.191  0.0002  0.3328  0.3214
  750MPD2    C411136   3.795   4.471  11.102 -0.3755 -0.6401 -0.1497
  750MPD2    C511137   3.729   4.590  11.120 -0.4906  0.0597  0.1443
  750MPD2     H11138   3.711   4.305  11.375  1.5342 -1.4696 -2.0745
  750MPD2    H111139   3.862   4.455  11.018  1.2601  0.7289  0.9308
  750MPD2    H211140   3.620   4.713  11.255  1.8104  2.1481 -3.1421
  750MPD2    H311141   3.748   4.663  11.042 -3.2415  0.5556 -0.0410
  750MPD2     N11142   3.852   4.245  11.156  0.3929 -0.7263  0.4153
  750MPD2    H511143   3.912   4.239  11.075  1.8629 -1.2842  1.5328
  750MPD2    N111144   3.563   4.542  11.433  0.3869 -0.4185 -0.1451
  750MPD2    H711145   3.519   4.634  11.439  3.2049  0.7283  3.1677
  751TMC3    C111146   3.954   4.034  11.189 -0.0219 -0.6439  0.5665
  751TMC3    C211147   3.942   3.906  11.230 -0.0444  0.1214 -0.4594
  751TMC3    C311148   4.020   3.816  11.163  0.7135  1.2399  0.0402
  751TMC3    C411149   4.061   4.080  11.119  0.4477  1.0124  0.4357
  751TMC3    C511150   4.148   3.989  11.063 -0.0866 -0.0988 -0.3989
  751TMC3    C611151   4.127   3.859  11.088 -0.0488 -0.3641 -0.3261
  751TMC3     C11152   3.853   4.127  11.234  0.4327 -0.2879 -0.0244
  751TMC3     O11153   3.770   4.083  11.311 -0.1758  0.0102 -0.0049
  751TMC3     H11154   3.850   3.873  11.278  0.7064 -0.1210  0.8050
  751TMC3    H111155   4.073   4.185  11.095  1.8387  0.9772  0.9320
  751TMC3    H211156   4.194   3.789  11.040 -1.2157 -1.7265  0.0179
  751TMC3    C711157   4.185   4.026  10.924  0.2890 -0.2431  0.1435
  751TMC3    C811158   3.986   3.676  11.140  0.4309  0.2811 -0.2542
  751TMC3    O111159   4.118   4.117  10.875 -0.3373 -0.6055 -0.0525
  751TMC3    O211160   4.044   3.622  11.043  0.1679  0.1338 -0.2223
  752TMC3    C111161   3.565   4.469  17.270 -0.0399 -0.1552  0.1176
  752TMC3    C211162   3.634   4.409  17.377 -0.3529  0.0973 -0.2621
  752TMC3    C311163   3.558   4.355  17.481 -0.5063  0.8159 -0.8333
  752TMC3    C411164   3.428   4.471  17.261 -0.8729 -0.2159  0.5669
  752TMC3    C511165   3.355   4.407  17.360 -1.0098  0.2377  0.0434
  752TMC3    C611166   3.420   4.359  17.474 -0.3857  0.6285 -0.3862
  752TMC3     C11167   3.642   4.528  17.153 -0.2974  0.3147  0.1478
  752TMC3     O11168   3.765   4.522  17.160 -0.3101  0.2989 -0.3056
  752TMC3     H11169   3.736   4.372  17.370  0.2015  1.1181  2.5955
  752TMC3    H111170   3.374   4.528  17.188 -0.4327 -0.9198 -0.3111
  752TMC3    H211171   3.363   4.334  17.563  1.7380  0.6250  0.9553
  752TMC3    C711172   3.207   4.409  17.350 -0.4668 -0.3066 -0.3515
  752TMC3    C811173   3.614   4.262  17.580  0.2381 -0.4232 -0.2980
  752TMC3    O111174   3.154   4.480  17.265  0.6056 -0.0960 -0.2704
  752TMC3    O211175   3.529   4.193  17.636 -0.2396  0.7208  0.2732
  753TMC3    C111176   0.096   0.824  13.071 -0.1211 -0.3270  0.3712
  753TMC3    C211177   0.168   0.813  13.189 -0.3037  0.0126  0.1512
  753TMC3    C311178   0.168   0.689  13.259  0.6186 -0.6897 -0.4142
  753TMC3    C411179   0.037   0.710  13.007  0.3396 -0.1469 -0.3018
  753TMC3    C511180   0.039   0.602  13.086 -0.1576  0.2290 -0.5123
  753TMC3    C611181   0.115   0.583  13.196  0.7544 -0.0041  0.3556
  753TMC3     C11182   0.107   0.952  12.998  0.3176 -0.4134 -0.4530
  753TMC3     O11183   0.160   1.048  13.057 -0.1419 -0.2696  0.2411
  753TMC3     H11184   0.221   0.898  13.229 -2.4019  2.0199 -1.3211
  753TMC3    H111185   4.713   0.710  12.915  1.3645 -0.5128 -0.9531
  753TMC3    H211186   0.110   0.489  13.251  1.2177  1.0327  2.1786
  753TMC3    C711187   4.728   0.482  13.019  0.4354 -0.2065  0.2223
  753TMC3    C811188   0.257   0.665  13.372 -0.1875 -0.1820 -0.8900
  753TMC3    O111189   0.027   0.472  12.899 -0.6114  0.0539 -0.2826
  753TMC3    O211190   0.315   0.560  13.366  0.3572 -0.1467 -0.2515
  754MPD2     C11191   4.496   4.201  13.016  0.2789  0.5227  0.1111
  754MPD2    C111192   4.501   4.072  12.952  0.0538 -0.8536 -0.7898
  754MPD2    C211193   4.377   4.027  12.908 -0.0619  0.6053 -0.6641
  754MPD2    C311194   4.261   4.095  12.918  0.0881 -0.4086  0.1663
  754MPD2    C411195   4.268   4.224  12.950 -0.8422 -0.4393  0.0905
  754MPD2    C511196   4.382   4.279  13.003 -0.4357 -0.4483  0.0485
  754MPD2     H11197   4.366   3.925  12.873  1.6190  0.7508 -1.6420
  754MPD2    H111198   4.179   4.286  12.958  1.5274  2.8749  0.9717
  754MPD2    H211199   4.585   4.244  13.062 -0.7823  1.5003  1.2614
  754MPD2    H311200   4.380   4.375  13.054  1.0978 -0.3126 -0.1535
  754MPD2     N11201   4.141   4.036  12.921  0.1155  0.3553  0.6033
  754MPD2    H511202   4.066   4.095  12.955 -0.9957  0.0744 -1.3411
  754MPD2    N111203   4.618   3.992  12.963  0.4590 -0.2374  0.3859
  754MPD2    H711204   4.689   4.025  13.028  1.1190 -0.9356  0.0197
  755MPD2     C11205   3.450   4.424  13.180  0.2885 -0.3210  0.0008
  755MPD2    C111206   3.433   4.306  13.250  0.1465  0.3879 -0.9062
  755MPD2    C211207   3.539   4.217  13.248 -0.1573 -0.2430  0.2439
  755MPD2    C311208   3.641   4.215  13.154  0.5524 -0.0423 -0.3427
  755MPD2    C411209   3.648   4.329  13.074  0.2586 -0.2728  0.6455
  755MPD2    C511210   3.564   4.431  13.102 -0.0849  0.1627  0.2400
  755MPD2     H11211   3.526   4.133  13.315 -0.2102 -0.3933  0.0460
  755MPD2    H111212   3.728   4.346  13.003 -0.2504  0.2726  0.1963
  755MPD2    H211213   3.375   4.503  13.179 -1.9998 -2.4982 -0.7344
  755MPD2    H311214   3.575   4.520  13.042  1.4853 -1.2621 -1.6057
  755MPD2     N11215   3.728   4.106  13.133 -0.6659 -0.3943  0.6738
  755MPD2    H511216   3.807   4.109  13.071 -0.2373  0.0865  1.2484
  755MPD2    N111217   3.317   4.282  13.334  0.5364 -0.3988  0.7374
  755MPD2    H711218   3.306   4.186  13.363 -0.9395  0.6945  3.8935
  756MPD2     C11219   3.435   0.174   9.679 -0.0334  0.7050  0.1213
  756MPD2    C111220   3.420   0.081   9.777 -0.0206  0.4080  0.2123
  756MPD2    C211221   3.300   0.077   9.842 -0.3326 -0.5831  0.6456
  756MPD2    C311222   3.209   0.174   9.830  0.1749 -0.0919  0.6228
  756MPD2    C411223   3.219   0.266   9.731  0.2513 -0.3940 -0.2097
  756MPD2    C511224   3.333   0.269   9.660 -0.3184 -0.2002  0.3499
  756MPD2     H11225   3.274   4.726   9.903  1.4221 -1.1075  0.6680
  756MPD2    H111226   3.147   0.345   9.716  1.2373  0.3917 -0.8498
  756MPD2    H211227   3.526   0.186   9.621 -0.0262  0.0040 -0.0099
  756MPD2    H311228   3.335   0.338   9.577 -1.8705  1.8276  1.9805
  756MPD2     N11229   3.099   0.157   9.911  0.2516  0.0122  0.5163
  756MPD2    H511230   3.098   0.076   9.972 -0.6172 -1.5265 -1.5247
  756MPD2    N111231   3.520   4.719   9.804  0.5349 -0.2605  0.8930
  756MPD2    H711232   3.501   4.648   9.875  1.2158  0.2678  1.5966
  757MPD2     C11233   2.911   4.148  10.208  1.2160  0.3113 -0.1898
  757MPD2    C111234   2.972   4.218  10.104 -0.2704  0.4555  0.4890
  757MPD2    C211235   2.954   4.351  10.092  0.3074 -0.5005 -0.5569
  757MPD2    C311236   2.880   4.422  10.180  0.9931  1.0191  0.1836
  757MPD2    C411237   2.809   4.353  10.284  0.5097 -0.1632  0.5342
  757MPD2    C511238   2.828   4.221  10.288  0.2188 -0.3433  0.3253
  757MPD2     H11239   3.000   4.389  10.001 -0.7006  1.0922 -0.3913
  757MPD2    H111240   2.744   4.394  10.359 -0.8888 -0.7145 -0.3794
  757MPD2    H211241   2.914   4.042  10.229 -1.7476  0.5443  1.4844
  757MPD2    H311242   2.771   4.171  10.366  1.5611 -0.6132  1.1368
  757MPD2     N11243   2.868   4.561  10.151  0.2425  0.1477 -0.6939
  757MPD2    H511244   2.909   4.599  10.066  0.8239  1.9811  0.4240
  757MPD2    N111245   3.040   4.137  10.009 -0.1973 -0.4084 -0.6641
  757MPD2    H711246   3.034   4.037  10.025  2.0543 -0.3239  0.7059
  758MPD2     C11247   4.634   4.288  15.679  0.2882 -0.5494 -0.9750
  758MPD2    C111248   4.666   4.173  15.747  0.1018  0.1397 -0.2225
  758MPD2    C211249   4.661   4.170  15.887 -0.3817 -0.1084 -0.7666
  758MPD2    C311250   4.631   4.286  15.955  0.5170  0.4997 -0.8215
  758MPD2    C411251   4.600   4.398  15.887  0.1896 -0.4654  0.6493
  758MPD2    C511252   4.604   4.400  15.753 -0.3171  0.4833 -0.3973
  758MPD2     H11253   4.710   4.089  15.940 -0.6724  0.6701  0.7029
  758MPD2    H111254   4.583   4.488  15.944 -0.3966 -1.6939  2.3937
  758MPD2    H211255   4.616   4.279  15.573 -0.5814 -1.9171 -0.7042
  758MPD2    H311256   4.570   4.496  15.716  3.7672  2.1800  0.2297
  758MPD2     N11257   4.627   4.291  16.094  0.5355  0.4638 -0.0437
  758MPD2    H511258   4.609   4.382  16.134  1.0053 -0.4882  2.2989
  758MPD2    N111259   4.689   4.056  15.678  0.2633  0.6340 -0.2394
  758MPD2    H711260   4.730   4.073  15.587 -0.4150  0.6040 -0.5559
  759MPD2     C11261   2.854   0.942   9.498 -0.5054 -1.0864  0.2022
  759MPD2    C111262   2.778   0.963   9.612  0.6382  1.4863 -0.4918
  759MPD2    C211263   2.736   1.092   9.628 -0.8404 -1.2594 -0.2235
  759MPD2    C311264   2.787   1.193   9.552  0.7952  0.5010 -1.0271
  759MPD2    C411265   2.865   1.162   9.442  0.8377  0.2217  0.3427
  759MPD2    C511266   2.901   1.038   9.414 -0.3322  0.2710  0.2006
  759MPD2     H11267   2.659   1.120   9.700 -0.4171  0.7437 -0.5314
  759MPD2    H111268   2.898   1.235   9.369 -2.7021  0.1790 -1.3225
  759MPD2    H211269   2.882   0.838   9.482  0.5617 -0.8123  0.2910
  759MPD2    H311270   2.951   1.016   9.320 -2.0000 -1.5320 -0.2863
  759MPD2     N11271   2.751   1.322   9.592 -0.3677 -0.2523  0.4478
  759MPD2    H511272   2.697   1.323   9.678 -1.3925  1.6816 -0.2341
  759MPD2    N111273   2.724   0.866   9.699 -0.0320 -0.0724 -0.7490
  759MPD2    H711274   2.663   0.892   9.776 -0.7381  0.1059 -1.3752
  760MPD2     C11275   2.304   4.364  12.390  0.0353 -0.3057  0.6431
  760MPD2    C111276   2.434   4.401  12.380  0.3859 -0.0753  0.1455
  760MPD2    C211277   2.524   4.306  12.348  0.6368  0.0873  0.0548
  760MPD2    C311278   2.483   4.180  12.345 -0.0476 -0.3103  0.1792
  760MPD2    C411279   2.350   4.143  12.358 -0.2222 -0.4270 -0.3198
  760MPD2    C511280   2.257   4.241  12.375 -0.1943 -0.1865 -0.0752
  760MPD2     H11281   2.631   4.325  12.339  0.7023 -0.5047 -0.4194
  760MPD2    H111282   2.327   4.038  12.347  0.5630 -0.5750 -0.5399
  760MPD2    H211283   2.229   4.441  12.407 -0.3120 -0.0756 -1.9379
  760MPD2    H311284   2.149   4.225  12.380 -0.3174  0.7168  0.1707
  760MPD2     N11285   2.570   4.070  12.332  0.3218  0.7746  0.1581
  760MPD2    H511286   2.525   3.980  12.324  2.5816 -0.2779 -0.9143
  760MPD2    N111287   2.463   4.536  12.396  0.4718  0.3574  0.0751
  760MPD2    H711288   2.389   4.592  12.436 -2.1126 -2.4131 -0.8169
  761MPD2     C11289   3.663   3.278  11.191 -0.2325 -0.2325  0.0938
  761MPD2    C111290   3.730   3.324  11.076  0.0509 -0.2527 -0.2919
  761MPD2    C211291   3.809   3.435  11.086 -0.0874 -0.6283 -0.9720
  761MPD2    C311292   3.813   3.507  11.208 -0.4003 -0.0091  0.9157
  761MPD2    C411293   3.745   3.460  11.317 -0.2810  0.3576 -0.3619
  761MPD2    C511294   3.673   3.345  11.304  0.5222 -0.1849  1.1261
  761MPD2     H11295   3.866   3.475  11.002 -1.2043 -1.0341 -1.9202
  761MPD2    H111296   3.741   3.516  11.410  0.4503 -0.8897  0.4218
  761MPD2    H211297   3.603   3.188  11.191  0.3808 -0.6362  0.9686
  761MPD2    H311298   3.600   3.313  11.377 -0.4340 -0.9519 -0.1659
  761MPD2     N11299   3.887   3.629  11.223  0.0244  0.3830  0.3958
  761MPD2    H511300   3.883   3.684  11.308 -2.2691 -0.4424  0.8411
  761MPD2    N111301   3.723   3.244  10.958 -0.5521 -0.2631 -0.0505
  761MPD2    H711302   3.652   3.171  10.956 -0.2775 -0.5292 -0.2143
  762MPD2     C11303   4.239   3.369  10.409  0.0600 -0.2095 -0.2628
  762MPD2    C111304   4.184   3.247  10.385  0.3729 -0.3866 -0.7036
  762MPD2    C211305   4.255   3.153  10.311 -0.7911 -0.2599 -0.7720
  762MPD2    C311306   4.378   3.180  10.259 -0.3459 -0.2385  0.2024
  762MPD2    C411307   4.425   3.310  10.277  0.1528 -0.5153 -0.0263
  762MPD2    C511308   4.352   3.400  10.347 -0.2428 -0.2031 -0.0812
  762MPD2     H11309   4.233   3.047  10.302 -2.4082  0.1852 -2.0546
  762MPD2    H111310   4.529   3.336  10.259  0.2480 -0.3449  0.8160
  762MPD2    H211311   4.194   3.438  10.480  1.7990  0.9165 -0.2683
  762MPD2    H311312   4.392   3.500  10.364 -0.9737 -0.3115  2.1849
  762MPD2     N11313   4.459   3.071  10.214 -0.0698 -0.4804 -0.2969
  762MPD2    H511314   4.427   2.976  10.222  1.6181 -0.9063  1.4710
  762MPD2    N111315   4.072   3.220  10.458 -0.5392  0.8024 -0.0145
  762MPD2    H711316   4.046   3.282  10.534  0.3337  1.2403 -0.0740
  763MPD2     C11317   1.698   3.910  15.941 -0.6937 -0.0033 -0.0250
  763MPD2    C111318   1.583   3.961  15.889  0.1768  0.1703  0.5228
  763MPD2    C211319   1.558   4.093  15.903 -0.1884  0.0012  0.0574
  763MPD2    C311320   1.646   4.173  15.972  0.0138  0.4354  0.0416
  763MPD2    C411321   1.757   4.118  16.022  0.1365  0.5862 -0.4315
  763MPD2    C511322   1.772   3.988  16.026  0.3600  0.2108 -0.7345
  763MPD2     H11323   1.466   4.128  15.856  0.3508 -0.2753 -1.1850
  763MPD2    H111324   1.812   4.190  16.081  1.0694  0.4327 -1.1229
  763MPD2    H211325   1.724   3.806  15.928  1.7334  0.2389  2.8284
  763MPD2    H311326   1.864   3.951  16.070 -0.6214 -1.2209  0.1135
  763MPD2     N11327   1.632   4.317  15.983 -0.3436  0.1681 -0.1549
  763MPD2    H511328   1.707   4.365  16.031  0.1975  0.3412 -1.1811
  763MPD2    N111329   1.494   3.881  15.810  0.2681  0.3153 -0.3896
  763MPD2    H711330   1.425   3.930  15.754 -0.4208 -1.2419 -0.9184
  764MPD2     C11331   4.285   0.072   0.079 -0.4470  0.2137 -0.0374
  764MPD2    C111332   4.187   0.135   0.149  0.4363 -0.1044  0.3173
  764MPD2    C211333   4.181   0.117   0.285 -0.1214  0.2375 -0.2438
  764MPD2    C311334   4.273   0.043   0.357  0.2816 -0.0193 -0.5549
  764MPD2    C411335   4.383   4.724   0.289  0.6446  0.4799 -0.1184
  764MPD2    C511336   4.375   4.731   0.152 -0.0481  0.1735 -0.2699
  764MPD2     H11337   4.106   0.181   0.329 -0.9434 -1.0473  0.2072
  764MPD2    H111338   4.465   4.669   0.333  0.5489  0.9704  0.6717
  764MPD2    H211339   4.293   0.061  17.709  0.1946 -2.7662  0.3256
  764MPD2    H311340   4.450   4.665   0.109 -2.3989 -1.4527 -1.9141
  764MPD2     N11341   4.253   0.051   0.499 -0.4943  0.1933  0.4996
  764MPD2    H511342   4.158   0.074   0.530 -0.5479  0.2273  0.3101
  764MPD2    N111343   4.088   0.212   0.087  0.4255  0.1630 -0.2929
  764MPD2    H711344   4.013   0.241   0.150 -1.2807 -3.7263 -0.5540
  765MPD2     C11345   4.079   3.353  15.413 -0.0263  0.0559  0.1858
  765MPD2    C111346   4.145   3.413  15.520 -0.5972  0.8972 -0.1245
  765MPD2    C211347   4.272   3.378  15.541  1.0034  0.1771 -0.6896
  765MPD2    C311348   4.333   3.288  15.454 -0.1443  0.1162  0.0928
  765MPD2    C411349   4.261   3.226  15.357 -0.1791  0.4765  0.1706
  765MPD2    C511350   4.126   3.255  15.333  0.1118 -0.1167  0.4098
  765MPD2     H11351   4.328   3.429  15.618  0.4267  2.3808 -1.7079
  765MPD2    H111352   4.308   3.151  15.294  2.3195  1.2722  1.1097
  765MPD2    H211353   3.979   3.385  15.384 -0.3706 -1.2048 -0.0300
  765MPD2    H311354   4.063   3.204  15.262  0.4124 -0.1600  0.1733
  765MPD2     N11355   4.470   3.259  15.465  0.2597  0.3825  0.5319
  765MPD2    H511356   4.498   3.182  15.404 -0.5796  1.7103 -1.5217
  765MPD2    N111357   4.077   3.515  15.591 -0.0022 -0.5697  0.1267
  765MPD2    H711358   3.976   3.519  15.578  0.2165 -1.5381 -1.9322
  766MPD2     C11359   3.451   3.745  15.337  0.5035 -0.2299 -0.2254
  766MPD2    C111360   3.560   3.675  15.377 -0.6117 -0.7442 -0.1453
  766MPD2    C211361   3.607   3.575  15.291 -0.3582 -0.0247  0.4097
  766MPD2    C311362   3.551   3.545  15.165  0.2922  0.0146  0.6691
  766MPD2    C411363   3.445   3.627  15.126 -0.0159 -0.4971 -0.7363
  766MPD2    C511364   3.392   3.715  15.218  0.2763  0.2832 -1.0944
  766MPD2     H11365   3.683   3.513  15.338 -0.8749  1.2399  2.9456
  766MPD2    H111366   3.401   3.609  15.028 -0.4132 -1.3464 -0.3976
  766MPD2    H211367   3.407   3.820  15.402  0.1720  0.0204 -0.7319
  766MPD2    H311368   3.306   3.774  15.190  0.1592  0.1283 -1.0605
  766MPD2     N11369   3.611   3.460  15.071  0.2833 -0.3256 -0.3279
  766MPD2    H511370   3.581   3.465  14.974 -2.4258 -0.5530  0.5051
  766MPD2    N111371   3.642   3.727  15.485 -0.0089 -0.4023  0.2470
  766MPD2    H711372   3.616   3.817  15.524  2.0567  0.1441  0.3904
  767MPD2     C11373   3.292   3.846  14.749 -0.3631 -0.3574 -0.3083
  767MPD2    C111374   3.416   3.784  14.759 -0.4624 -0.6516 -0.2948
  767MPD2    C211375   3.438   3.663  14.698 -0.0342  0.5514 -0.1524
  767MPD2    C311376   3.339   3.602  14.626  0.5401  0.2264 -0.1591
  767MPD2    C411377   3.213   3.668  14.613  0.1656  0.5519  0.0196
  767MPD2    C511378   3.194   3.786  14.673 -0.3254 -0.5602  0.5789
  767MPD2     H11379   3.536   3.617  14.694 -0.9152 -1.2429 -1.1058
  767MPD2    H111380   3.132   3.635  14.550 -0.5931  4.6070 -1.1371
  767MPD2    H211381   3.268   3.945  14.787 -0.1228 -0.0253 -1.0207
  767MPD2    H311382   3.097   3.829  14.650 -0.1318  0.7611  2.2489
  767MPD2     N11383   3.362   3.480  14.560  0.6226  0.0170  0.8573
  767MPD2    H511384   3.451   3.433  14.552  0.0217 -0.9472 -0.2732
  767MPD2    N111385   3.524   3.846  14.828 -0.4630  0.1941 -0.0379
  767MPD2    H711386   3.504   3.936  14.869  1.2161  0.6678 -0.2940
  768MPD2     C11387   3.426   1.527  10.820 -0.1537 -0.2887  0.1818
  768MPD2    C111388   3.416   1.595  10.938 -0.4002 -0.3526 -0.4220
  768MPD2    C211389   3.508   1.562  11.040 -0.0421  0.2165  0.1006
  768MPD2    C311390   3.615   1.479  11.012 -0.1258  0.6502  0.5038
  768MPD2    C411391   3.618   1.412  10.890 -0.4273 -0.5254  0.4634
  768MPD2    C511392   3.521   1.435  10.799 -0.4115 -0.7824  0.5778
  768MPD2     H11393   3.501   1.626  11.127  2.9830  1.8102 -0.8003
  768MPD2    H111394   3.698   1.348  10.856  0.1896  0.8763 -0.6942
  768MPD2    H211395   3.370   1.547  10.729  0.1573 -1.5859 -0.2974
  768MPD2    H311396   3.519   1.386  10.702  2.5129 -0.8210  0.5285
  768MPD2     N11397   3.725   1.459  11.101  0.4041  0.1676  0.0746
  768MPD2    H511398   3.809   1.416  11.062  0.2388 -0.1218  0.0382
  768MPD2    N111399   3.307   1.676  10.972  0.0338 -0.7105 -0.5601
  768MPD2    H711400   3.305   1.713  11.066  0.0330  2.0478 -1.6545
  769MPD2     C11401   0.512   0.298  14.895  0.3766  0.2284  0.3264
  769MPD2    C111402   0.453   0.222  14.986 -0.0249  1.0543 -0.9091
  769MPD2    C211403   0.443   0.264  15.120 -0.0151 -0.0069  0.1835
  769MPD2    C311404   0.503   0.378  15.156 -0.8389  0.3647 -0.0222
  769MPD2    C411405   0.578   0.452  15.060 -0.5927 -0.2958 -0.2629
  769MPD2    C511406   0.583   0.408  14.935 -0.7709  0.0754 -0.0123
  769MPD2     H11407   0.380   0.207  15.186  2.4882 -0.8772  1.8234
  769MPD2    H111408   0.637   0.537  15.091  0.8698 -1.2038 -0.5424
  769MPD2    H211409   0.518   0.270  14.790  1.6245 -3.4467  1.3868
  769MPD2    H311410   0.629   0.472  14.861  0.8941  0.7874  1.6218
  769MPD2     N11411   0.471   0.427  15.287 -0.8435  0.3378  0.3029
  769MPD2    H511412   0.426   0.363  15.352 -1.4382  0.3359 -0.1154
  769MPD2    N111413   0.377   0.114  14.948 -0.0974  0.4790 -0.4609
  769MPD2    H711414   0.359   0.098  14.849 -0.1991  0.5179 -0.4491
  770MPD2     C11415   0.438   3.792  14.763 -0.8852  0.5269 -0.0380
  770MPD2    C111416   0.313   3.834  14.720 -0.7797 -0.3187  0.2001
  770MPD2    C211417   0.276   3.965  14.739  0.3273  0.2915  0.5318
  770MPD2    C311418   0.355   4.056  14.803  0.5582  0.2029 -0.3773
  770MPD2    C411419   0.480   4.012  14.849 -0.2875 -0.5398  0.1137
  770MPD2    C511420   0.513   3.882  14.829 -0.0211  0.2406  0.6684
  770MPD2     H11421   0.178   3.995  14.703  0.3488 -2.0231 -1.4237
  770MPD2    H111422   0.557   4.071  14.895  0.3136 -1.5007  0.3444
  770MPD2    H211423   0.472   3.689  14.761 -1.1757  0.4394 -0.3460
  770MPD2    H311424   0.609   3.852  14.868 -0.4165 -1.0805  0.6321
  770MPD2     N11425   0.311   4.192  14.810 -0.2379 -0.5463  0.0616
  770MPD2    H511426   0.227   4.212  14.757 -0.7138 -2.0840  0.2312
  770MPD2    N111427   0.233   3.730  14.663  0.1145  0.1053 -1.0073
  770MPD2    H711428   0.281   3.642  14.676  0.7766  0.3785 -1.6287
  771MPD2     C11429   1.167   2.783  13.592  0.5431  0.2662 -0.2729
  771MPD2    C111430   1.072   2.877  13.574 -0.1378 -0.2779  0.0332
  771MPD2    C211431   0.971   2.852  13.484 -0.8000  0.5073  0.3146
  771MPD2    C311432   0.955   2.731  13.416  0.4419 -0.0065  0.5596
  771MPD2    C411433   1.057   2.641  13.430 -0.0071  0.1395  0.1499
  771MPD2    C511434   1.163   2.664  13.519  0.3718 -0.1889 -0.2733
  771MPD2     H11435   0.917   2.936  13.443 -1.2175 -0.1773 -0.5163
  771MPD2    H111436   1.050   2.540  13.391  2.4889  0.1525 -0.3237
  771MPD2    H211437   1.245   2.796  13.667  2.9281  0.8707 -2.8494
  771MPD2    H311438   1.244   2.594  13.535  0.7814  0.2035 -0.6352
  771MPD2     N11439   0.850   2.714  13.326 -0.2515  0.4573  0.0593
  771MPD2    H511440   0.788   2.795  13.323 -0.7139  0.0928 -0.2368
  771MPD2    N111441   1.085   3.010  13.632 -0.0276 -0.4869 -0.5545
  771MPD2    H711442   1.004   3.070  13.622  1.4252  1.2458 -1.9328
  772MPD2     C11443   0.740   3.390  14.149  0.0449  0.1877  0.1060
  772MPD2    C111444   0.747   3.331  14.024 -0.3336  0.1590 -0.5155
  772MPD2    C211445   0.628   3.310  13.952 -0.2426  0.4237  0.3768
  772MPD2    C311446   0.500   3.343  14.003  0.2567  0.1156  0.6317
  772MPD2    C411447   0.500   3.405  14.127 -0.1936  0.1609 -0.1035
  772MPD2    C511448   0.616   3.426  14.199 -0.3737 -0.0165 -0.2053
  772MPD2     H11449   0.637   3.269  13.852 -2.8803  1.3055 -0.2260
  772MPD2    H111450   0.410   3.431  14.182  1.4638  2.1469  1.7112
  772MPD2    H211451   0.826   3.399  14.214  1.4239  2.5733 -2.0540
  772MPD2    H311452   0.614   3.489  14.287 -1.0213 -0.8462  0.3696
  772MPD2     N11453   0.369   3.337  13.943 -0.6953  0.1923  0.1565
  772MPD2    H511454   0.300   3.387  13.998 -1.7259 -0.9992 -0.0461
  772MPD2    N111455   0.869   3.303  13.962 -0.0361  0.1132  0.1420
  772MPD2    H711456   0.857   3.247  13.878 -1.3196  0.3262  0.1814
  773MPD2     C11457   0.588   4.087  17.657  0.7018 -0.4088  0.2900
  773MPD2    C111458   0.498   3.986  17.619 -1.0008  0.1775  0.4425
  773MPD2    C211459   0.516   3.862  17.679  0.0107  0.0836 -0.4348
  773MPD2    C311460   0.608   3.848   0.043  0.0646  0.1925  0.7087
  773MPD2    C411461   0.682   3.952   0.094  0.2024 -0.0188  0.5371
  773MPD2    C511462   0.677   4.066   0.023  0.2292  0.1646  0.4288
  773MPD2     H11463   0.452   3.777  17.656  2.0841 -1.5830 -0.0088
  773MPD2    H111464   0.753   3.958   0.175  0.2959  1.6836  0.3479
  773MPD2    H211465   0.570   4.183  17.611  1.2124  0.6886  2.3656
  773MPD2    H311466   0.747   4.146   0.050  1.3993 -0.5640 -0.4820
  773MPD2     N11467   0.626   3.720   0.093 -0.1046 -0.3036  0.0964
  773MPD2    H511468   0.563   3.644   0.068  1.7852 -1.6947 -0.4437
  773MPD2    N111469   0.407   4.007  17.518  0.1696 -0.0974  0.2844
  773MPD2    H711470   0.335   3.937  17.504  0.5493 -0.4610  0.1284
  774MPD2     C11471   4.446   2.976  12.935  0.7394 -0.2739 -0.4907
  774MPD2    C111472   4.370   3.072  12.993  0.0201 -0.4924  0.4032
  774MPD2    C211473   4.417   3.198  13.018 -0.1384 -0.4243 -0.0136
  774MPD2    C311474   4.543   3.233  12.975 -0.2470 -0.4338 -0.4176
  774MPD2    C411475   4.615   3.141  12.897 -0.0227 -0.0824 -0.1677
  774MPD2    C511476   4.563   3.012  12.882 -0.0585  0.1190  0.3543
  774MPD2     H11477   4.357   3.272  13.071 -2.4727 -1.0320 -1.7839
  774MPD2    H111478   4.717   3.172  12.875 -0.2975  0.4264 -0.7177
  774MPD2    H211479   4.416   2.873  12.916  1.0376 -0.5081  0.3127
  774MPD2    H311480   4.629   2.939  12.838 -1.0092 -0.4917 -0.0589
  774MPD2     N11481   4.603   3.355  13.018 -0.1659 -0.3457  0.2338
  774MPD2    H511482   4.551   3.417  13.078 -0.1295 -1.6578  1.6196
  774MPD2    N111483   4.248   3.024  13.046  0.2153  0.4370 -0.1528
  774MPD2    H711484   4.213   2.936  13.009  1.0994  0.6969 -1.6075
  775MPD2     C11485   0.704   0.050  15.530  0.5870  0.1598  0.5317
  775MPD2    C111486   0.756   0.145  15.619 -0.7219  0.1853  1.0366
  775MPD2    C211487   0.797   0.270  15.574 -0.6191 -0.1114  0.1141
  775MPD2    C311488   0.789   0.300  15.434 -0.0544 -0.0066 -0.3530
  775MPD2    C411489   0.736   0.201  15.354  0.1576 -0.1737  0.1254
  775MPD2    C511490   0.700   0.074  15.397 -0.1620 -0.2645 -0.2215
  775MPD2     H11491   0.833   0.350  15.638 -1.1865  0.8461 -0.7536
  775MPD2    H111492   0.725   0.232  15.250 -0.6341 -2.5745 -0.5240
  775MPD2    H211493   0.677   4.682  15.551  0.0301 -0.1251 -1.5724
  775MPD2    H311494   0.668   4.733  15.327 -0.3295 -0.0801 -0.3441
  775MPD2     N11495   0.851   0.406  15.367  0.7715  0.1451 -0.3252
  775MPD2    H511496   0.861   0.393  15.267 -1.9251 -0.1777 -0.5598
  775MPD2    N111497   0.761   0.095  15.748 -0.2651 -0.1760  0.0596
  775MPD2    H711498   0.707   0.010  15.764 -0.3808 -0.4214 -1.6840
  776MPD2     C11499   3.062   0.320  11.900  0.2211 -0.2113  0.1293
  776MPD2    C111500   3.172   0.287  11.823 -0.0377 -0.1685 -0.0053
  776MPD2    C211501   3.266   0.384  11.781  0.5060 -0.1397 -0.2688
  776MPD2    C311502   3.242   0.517  11.819  0.0904  0.2286  0.3274
  776MPD2    C411503   3.135   0.550  11.903  0.2725 -0.4727 -0.3997
  776MPD2    C511504   3.042   0.453  11.927  0.3356  0.0522 -0.6778
  776MPD2     H11505   3.352   0.351  11.724  1.5452 -1.3425  2.0202
  776MPD2    H111506   3.121   0.652  11.936  2.0798 -0.2740 -0.2728
  776MPD2    H211507   2.988   0.249  11.936  0.2194  0.2283  0.9966
  776MPD2    H311508   2.952   0.481  11.980  0.7381  1.8836 -0.9722
  776MPD2     N11509   3.331   0.621  11.774  0.3970  0.2038  0.1119
  776MPD2    H511510   3.307   0.715  11.806 -0.5182  0.6150 -1.7666
  776MPD2    N111511   3.185   0.146  11.799 -0.5239 -0.4355 -0.3055
  776MPD2    H711512   3.133   0.085  11.862  1.4612 -0.8461  0.9310
  777MPD2     C11513   0.510   2.443   0.962  0.3060  0.8627  0.1606
  777MPD2    C111514   0.419   2.512   1.041  0.4969 -0.7110  0.7136
  777MPD2    C211515   0.289   2.531   0.993 -0.3475  0.7922 -0.1373
  777MPD2    C311516   0.258   2.473   0.869  0.1647  0.0941 -0.7123
  777MPD2    C411517   0.339   2.378   0.813  0.5965 -0.2032  0.3500
  777MPD2    C511518   0.465   2.375   0.860  0.2153 -0.5712  0.1286
  777MPD2     H11519   0.215   2.595   1.040 -1.2404 -3.0239  3.6678
  777MPD2    H111520   0.308   2.316   0.729 -3.0735  2.1521 -0.0291
  777MPD2    H211521   0.615   2.445   0.991  0.1209 -0.2706  0.9165
  777MPD2    H311522   0.528   2.298   0.817 -0.3651 -0.4508 -0.9344
  777MPD2     N11523   0.123   2.484   0.829  0.7015 -0.3226  0.2822
  777MPD2    H511524   0.063   2.533   0.894 -1.0114 -0.8542 -0.9063
  777MPD2    N111525   0.468   2.570   1.158  0.2582  0.5958  0.2397
  777MPD2    H711526   0.555   2.534   1.195 -0.3861 -0.5401  0.6470
  778MPD2     C11527   1.413   2.993  14.807 -0.6691 -0.5677  0.2139
  778MPD2    C111528   1.436   2.886  14.729 -1.0138 -0.1077 -0.0914
  778MPD2    C211529   1.536   2.888  14.635  0.9463 -0.2748  0.0091
  778MPD2    C311530   1.620   2.998  14.629  0.5143  0.3920  0.1955
  778MPD2    C411531   1.608   3.109  14.709 -0.3387  0.3416 -0.1867
  778MPD2    C511532   1.503   3.095  14.798 -0.0564 -0.0066 -0.0354
  778MPD2     H11533   1.559   2.802  14.573  2.8516  0.1483  0.1290
  778MPD2    H111534   1.674   3.195  14.713  0.7760 -0.5244 -0.0560
  778MPD2    H211535   1.328   3.005  14.873 -1.3593 -0.5600 -0.6665
  778MPD2    H311536   1.493   3.170  14.875 -0.3523 -0.1539  0.0723
  778MPD2     N11537   1.725   2.995  14.537 -0.6123  0.5724  0.7215
  778MPD2    H511538   1.754   2.914  14.484  0.4542  1.2207  0.2879
  778MPD2    N111539   1.351   2.773  14.738  0.8227  0.2803  0.8827
  778MPD2    H711540   1.363   2.698  14.672 -4.1940  0.4444 -0.2304
  779MPD2     C11541   0.603   1.817  13.781 -0.3768  0.1681  1.0589
  779MPD2    C111542   0.673   1.752  13.882 -0.1629 -0.5288 -0.7723
  779MPD2    C211543   0.768   1.832  13.945  0.0932 -0.7854 -0.5592
  779MPD2    C311544   0.790   1.966  13.912 -0.6714 -0.0681 -0.1357
  779MPD2    C411545   0.719   2.025  13.815  0.0275 -0.1662  0.6823
  779MPD2    C511546   0.628   1.955  13.748  0.1814 -0.4172 -0.4406
  779MPD2     H11547   0.835   1.790  14.019 -0.4602  0.0084  0.3846
  779MPD2    H111548   0.727   2.128  13.781 -1.3988  0.0772  1.0831
  779MPD2    H211549   0.527   1.764  13.726  0.6283  0.6820 -0.8471
  779MPD2    H311550   0.569   2.010  13.676 -0.2067  1.5449  1.3451
  779MPD2     N11551   0.899   2.028  13.970  0.9139  0.0081  0.1795
  779MPD2    H511552   0.954   1.967  14.031  0.2512 -1.8636 -1.1035
  779MPD2    N111553   0.637   1.624  13.939 -0.1834  0.0041  0.3799
  779MPD2    H711554   0.694   1.589  14.015  0.4002  0.0622 -0.0325
  780MPD2     C11555   1.034   1.390   1.163 -0.6973  0.2941  0.8574
  780MPD2    C111556   1.013   1.297   1.065 -0.0064  0.3930  0.1614
  780MPD2    C211557   1.011   1.333   0.934  0.3590  0.1733  0.4910
  780MPD2    C311558   1.032   1.461   0.886 -0.5034  0.4920  0.8343
  780MPD2    C411559   1.059   1.555   0.990  0.0159 -1.1208 -0.5875
  780MPD2    C511560   1.060   1.519   1.124 -0.2148 -0.0538 -0.3632
  780MPD2     H11561   1.007   1.249   0.865 -1.1265  1.1867 -0.6269
  780MPD2    H111562   1.079   1.661   0.977  2.6959 -1.4347  1.1658
  780MPD2    H211563   1.044   1.368   1.268 -1.7457 -1.2388  0.6362
  780MPD2    H311564   1.087   1.596   1.197 -2.2666 -0.0110  0.3332
  780MPD2     N11565   1.038   1.481   0.745 -0.5396 -0.1312  0.4693
  780MPD2    H511566   1.023   1.405   0.679  0.5811 -1.5065  1.7957
  780MPD2    N111567   0.978   1.161   1.086  0.4448  0.2780  0.4387
  780MPD2    H711568   0.962   1.101   1.006 -2.8286  1.6998  0.0303
  781MPD2     C11569   2.021   3.096  11.778 -0.5865  0.0337 -0.2988
  781MPD2    C111570   2.122   3.074  11.864 -0.0026  0.2876 -0.7032
  781MPD2    C211571   2.226   3.006  11.817 -0.1250  0.2546  0.3825
  781MPD2    C311572   2.234   2.951  11.688 -0.7836 -0.2892  0.0792
  781MPD2    C411573   2.120   2.965  11.614 -0.7244  0.3826 -0.3469
  781MPD2    C511574   2.024   3.052  11.649 -0.6524  0.7116 -0.7163
  781MPD2     H11575   2.299   2.981  11.893 -0.8518  1.4472  1.4517
  781MPD2    H111576   2.121   2.939  11.509  0.4066  0.5959 -0.3890
  781MPD2    H211577   1.930   3.151  11.802  0.3179  0.3127  2.5300
  781MPD2    H311578   1.942   3.075  11.583 -1.0379 -3.9518 -1.8389
  781MPD2     N11579   2.337   2.878  11.632 -0.3474  0.4605  0.4182
  781MPD2    H511580   2.331   2.832  11.542  0.6840 -2.4011  1.7862
  781MPD2    N111581   2.116   3.122  11.996  0.2105 -0.5159  0.4573
  781MPD2    H711582   2.180   3.084  12.064  1.9060  0.1507 -0.7604
  782MPD2     C11583   0.409   3.550  10.054 -0.5669  0.1203 -0.3787
  782MPD2    C111584   0.373   3.593  10.177  0.5120  0.5811  0.3870
  782MPD2    C211585   0.412   3.721  10.218 -0.1957  0.4369  0.3229
  782MPD2    C311586   0.458   3.814  10.131 -0.0721  0.3581 -0.6222
  782MPD2    C411587   0.486   3.768  10.001  0.1916 -0.6432  0.1229
  782MPD2    C511588   0.461   3.638   9.962  0.3403 -0.0829  0.0013
  782MPD2     H11589   0.380   3.757  10.316 -1.1671  1.9970 -0.5557
  782MPD2    H111590   0.532   3.829   9.924 -0.9450  0.0055 -0.0422
  782MPD2    H211591   0.394   3.448  10.019 -0.3683  0.7199 -2.2062
  782MPD2    H311592   0.477   3.601   9.861  4.7915  1.2033  0.2441
  782MPD2     N11593   0.477   3.945  10.171 -0.7042 -0.1384  0.4432
  782MPD2    H511594   0.457   3.963  10.269 -1.6841 -0.5142  0.3143
  782MPD2    N111595   0.298   3.514  10.260  0.1992 -0.1606 -0.2852
  782MPD2    H711596   0.287   3.541  10.357  3.7907 -3.4766  1.0441
  783MPD2     C11597   4.248   3.999  10.623  0.0439 -0.1208  0.0428
  783MPD2    C111598   4.310   3.931  10.725 -0.5430  0.6176  0.0880
  783MPD2    C211599   4.407   3.846  10.689  0.1318  0.6223  0.2335
  783MPD2    C311600   4.446   3.819  10.560 -0.1889 -0.5581 -0.3927
  783MPD2    C411601   4.398   3.908  10.463 -0.0105 -0.3061  0.0455
  783MPD2    C511602   4.298   3.991  10.491 -0.0781 -0.5033  0.0977
  783MPD2     H11603   4.445   3.785  10.771  3.1744  0.1839 -1.4849
  783MPD2    H111604   4.430   3.899  10.360  0.7303  2.1535  0.0719
  783MPD2    H211605   4.165   4.062  10.651  0.0960 -0.5637  1.2123
  783MPD2    H311606   4.266   4.047  10.404  2.8695 -1.4578 -1.6174
  783MPD2     N11607   4.538   3.708  10.536 -0.2839 -0.2437 -0.0112
  783MPD2    H511608   4.577   3.667  10.620 -0.4860  0.6454  0.5106
  783MPD2    N111609   4.267   3.938  10.863  0.2148  0.4576 -0.1617
  783MPD2    H711610   4.301   3.866  10.926 -0.2946 -0.2726 -0.7132
  784MPD2     C11611   2.960   4.091   0.569 -0.2466 -0.0647  0.2871
  784MPD2    C111612   2.952   4.196   0.655 -0.2763 -0.4627 -0.1481
  784MPD2    C211613   2.870   4.296   0.622 -0.1511 -0.1718 -0.3829
  784MPD2    C311614   2.798   4.296   0.504  0.0255  0.5626  0.1294
  784MPD2    C411615   2.822   4.202   0.408 -0.2407 -0.7077  0.2473
  784MPD2    C511616   2.905   4.099   0.441  0.8552  0.3497  0.4960
  784MPD2     H11617   2.833   4.362   0.700  1.9028  0.5808 -0.0447
  784MPD2    H111618   2.773   4.196   0.312  1.6851  1.0944 -0.8645
  784MPD2    H211619   3.014   4.001   0.596 -0.7800 -0.0868  1.2887
  784MPD2    H311620   2.906   4.021   0.365  2.3210  0.7082  0.1570
  784MPD2     N11621   2.689   4.388   0.492  0.0249 -0.6669  0.2082
  784MPD2    H511622   2.677   4.459   0.564  1.3999  0.1391 -0.3482
  784MPD2    N111623   3.021   4.210   0.773 -0.4253 -0.3817  0.0482
  784MPD2    H711624   3.015   4.298   0.822  1.8190 -0.1219 -0.1456
  785MPD2     C11625   2.991   2.457  10.733  0.6124  0.1471 -0.1287
  785MPD2    C111626   2.937   2.512  10.848 -0.6995  0.3850  0.1906
  785MPD2    C211627   2.823   2.464  10.899  0.3653  0.1041 -0.2444
  785MPD2    C311628   2.741   2.378  10.822  0.1358 -0.0627 -0.4066
  785MPD2    C411629   2.790   2.324  10.706 -0.0709  0.9565  0.0595
  785MPD2    C511630   2.914   2.370  10.660  0.2188 -0.5909  0.6051
  785MPD2     H11631   2.773   2.490  10.992 -1.8151 -1.0335 -1.1146
  785MPD2    H111632   2.736   2.249  10.649  1.3644  0.4446 -0.6234
  785MPD2    H211633   3.085   2.499  10.700  0.5492 -0.5812 -1.2073
  785MPD2    H311634   2.944   2.348  10.558  0.1380 -0.7865  0.6235
  785MPD2     N11635   2.616   2.342  10.868 -0.1480 -0.7335 -0.4913
  785MPD2    H511636   2.579   2.398  10.944  1.1674  0.2341 -0.5656
  785MPD2    N111637   3.009   2.612  10.916 -0.2339 -0.5273 -0.5047
  785MPD2    H711638   3.090   2.648  10.866 -0.8824  1.3809 -0.2005
  786MPD2     C11639   1.103   1.087  14.688 -0.5018  0.7558  0.0360
  786MPD2    C111640   1.208   0.995  14.708 -0.1854 -0.2135  0.5610
  786MPD2    C211641   1.311   1.038  14.787  0.2746  0.4142  0.6789
  786MPD2    C311642   1.318   1.150  14.852 -0.0187  0.4277 -0.2163
  786MPD2    C411643   1.224   1.243  14.818  0.4879 -0.0884  0.9033
  786MPD2    C511644   1.115   1.211  14.737  0.4450 -0.0119 -0.0549
  786MPD2     H11645   1.386   0.961  14.802 -0.3601 -0.4012 -0.3342
  786MPD2    H111646   1.235   1.344  14.855  0.0904 -0.6847  2.6256
  786MPD2    H211647   1.024   1.058  14.619  0.2859  0.6667 -0.8320
  786MPD2    H311648   1.043   1.288  14.713  2.3966  1.3302 -1.5873
  786MPD2     N11649   1.430   1.182  14.937  0.4839 -0.6831  0.2289
  786MPD2    H511650   1.445   1.281  14.951 -0.1688 -0.4299 -0.8695
  786MPD2    N111651   1.209   0.866  14.655  0.2881  0.4139  0.3902
  786MPD2    H711652   1.293   0.816  14.682  0.7468 -0.0521 -1.9430
  787MPD2     C11653   1.541   0.399  14.939 -0.6755  0.2742  0.1646
  787MPD2    C111654   1.520   0.361  14.812  0.0417 -0.0437  0.0781
  787MPD2    C211655   1.608   0.270  14.761 -0.1955 -0.5815  0.1613
  787MPD2    C311656   1.704   0.205  14.833  0.1833 -0.2062  0.2645
  787MPD2    C411657   1.718   0.246  14.964  0.0467 -0.5072  0.7706
  787MPD2    C511658   1.641   0.348  15.009  0.7450 -0.2747 -0.1567
  787MPD2     H11659   1.609   0.239  14.657  0.8284  1.7277 -0.5084
  787MPD2    H111660   1.797   0.205  15.027  1.1633  0.1881 -0.1657
  787MPD2    H211661   1.488   0.484  14.979  1.5661  0.3234  3.0482
  787MPD2    H311662   1.667   0.393  15.104 -4.5154  2.0911  0.1728
  787MPD2     N11663   1.775   0.102  14.772  0.5531 -0.1827 -0.0677
  787MPD2    H511664   1.755   0.081  14.675  2.3765 -0.2984 -0.4232
  787MPD2    N111665   1.415   0.428  14.742 -0.5547  0.0927 -0.4736
  787MPD2    H711666   1.365   0.499  14.794 -1.5542 -0.9854  0.0379
  788MPD2     C11667   3.539   4.234   1.123 -1.0139  0.3610 -0.2903
  788MPD2    C111668   3.500   4.129   1.041  0.1859  0.7136  0.0442
  788MPD2    C211669   3.466   4.154   0.905  0.3159 -0.5239  0.0010
  788MPD2    C311670   3.462   4.285   0.864  0.1803  0.6607 -0.5279
  788MPD2    C411671   3.512   4.383   0.944  0.4488  0.4981  0.2978
  788MPD2    C511672   3.553   4.358   1.071 -0.4737 -0.5461 -0.0153
  788MPD2     H11673   3.445   4.071   0.839 -0.1132  0.3604 -0.9686
  788MPD2    H111674   3.531   4.486   0.914  0.4653  0.5669  0.5464
  788MPD2    H211675   3.582   4.209   1.219 -3.3313 -0.9017  0.4314
  788MPD2    H311676   3.599   4.435   1.132 -0.6456  0.8568 -1.6545
  788MPD2     N11677   3.415   4.326   0.733  0.4638 -0.8848  0.3395
  788MPD2    H511678   3.420   4.424   0.710 -0.9450 -1.3099 -1.7459
  788MPD2    N111679   3.513   3.994   1.082 -0.7355  0.5918  0.4185
  788MPD2    H711680   3.552   3.974   1.173  1.8761 -1.9375 -1.2646
  789MPD2     C11681   4.254   3.788  16.553 -0.6782 -0.1262 -0.8001
  789MPD2    C111682   4.145   3.840  16.485 -0.8003 -0.8485  0.6534
  789MPD2    C211683   4.099   3.965  16.520  0.2466  0.5008  0.1656
  789MPD2    C311684   4.152   4.039  16.620  0.0919  0.4575  0.1578
  789MPD2    C411685   4.245   3.968  16.696  0.3637 -0.2734  0.6011
  789MPD2    C511686   4.301   3.849  16.660  0.3832  0.2407  0.0154
  789MPD2     H11687   4.006   4.001  16.479 -0.2563  0.2928  1.1306
  789MPD2    H111688   4.281   4.025  16.781 -0.1533  1.9623 -0.6579
  789MPD2    H211689   4.287   3.686  16.533 -0.2217 -0.3771  1.1867
  789MPD2    H311690   4.381   3.803  16.717  0.4435  2.3353  1.6517
  789MPD2     N11691   4.094   4.157  16.671  0.5172  0.7125  0.0882
  789MPD2    H511692   4.121   4.186  16.764 -0.1764  3.6006 -0.6214
  789MPD2    N111693   4.087   3.766  16.379 -0.2222 -0.2351 -0.2749
  789MPD2    H711694   4.143   3.686  16.350 -0.0510  0.0226 -0.6658
  790MPD2     C11695   4.516   0.965  13.111 -0.6736  0.3844 -0.0327
  790MPD2    C111696   4.499   0.837  13.167  0.5559  0.4296 -0.3426
  790MPD2    C211697   4.456   0.734  13.085 -0.6333 -0.0943  0.0267
  790MPD2    C311698   4.445   0.754  12.952 -0.3804 -0.3104 -0.4122
  790MPD2    C411699   4.475   0.882  12.892  0.0545  0.2399  0.4472
  790MPD2    C511700   4.516   0.984  12.973 -0.4522  0.2644 -0.0088
  790MPD2     H11701   4.434   0.641  13.135  0.7037 -1.5320 -2.0265
  790MPD2    H111702   4.473   0.902  12.785  0.0085  1.5226  0.6925
  790MPD2    H211703   4.542   1.047  13.177  0.2109 -0.1907  0.3409
  790MPD2    H311704   4.549   1.075  12.924  1.2198 -1.0105 -1.2226
  790MPD2     N11705   4.419   0.651  12.863  0.1030 -0.4630 -0.0997
  790MPD2    H511706   4.431   0.660  12.762  0.1135 -0.1818 -0.0738
  790MPD2    N111707   4.516   0.828  13.305 -0.0202 -0.9992  0.3567
  790MPD2    H711708   4.535   0.914  13.355 -2.0461 -1.0513  1.2137
  791MPD2     C11709   3.839   0.261  12.608 -0.4065  0.5917  0.1295
  791MPD2    C111710   3.926   0.172  12.668  0.2261  0.1415  0.3494
  791MPD2    C211711   3.892   0.034  12.680  0.6718 -0.4211  0.1922
  791MPD2    C311712   3.769   4.729  12.638 -0.1659  0.3169  0.4292
  791MPD2    C411713   3.680   0.087  12.585 -0.5777 -0.1192  0.1559
  791MPD2    C511714   3.712   0.218  12.576 -0.6244 -0.1629 -0.4964
  791MPD2     H11715   3.965   4.697  12.716 -0.4882 -0.1648  3.0904
  791MPD2    H111716   3.583   0.053  12.551  0.6179 -0.3453 -3.0103
  791MPD2    H211717   3.867   0.365  12.598  3.6718 -0.6156 -0.9186
  791MPD2    H311718   3.642   0.293  12.540  0.2803  1.1561  0.4604
  791MPD2     N11719   3.736   4.599  12.668  0.0463 -1.2426  0.5454
  791MPD2    H511720   3.798   4.549  12.731  1.0477  0.9276  1.2923
  791MPD2    N111721   4.055   0.221  12.689  0.0927 -0.3276 -0.5852
  791MPD2    H711722   4.075   0.321  12.686 -0.8878 -0.1241 -0.0992
  792MPD2     C11723   3.798   0.702  11.083  0.3488 -0.0686  0.1341
  792MPD2    C111724   3.864   0.592  11.027  0.3440 -0.6643 -0.1252
  792MPD2    C211725   3.805   0.461  11.027  0.1248 -0.0650 -0.5259
  792MPD2    C311726   3.671   0.452  11.072 -1.0118 -0.1595 -0.2741
  792MPD2    C411727   3.613   0.559  11.127 -0.1060 -0.3735  0.0894
  792MPD2    C511728   3.676   0.676  11.139 -0.3763  0.3541  0.3810
  792MPD2     H11729   3.860   0.383  10.976 -0.2033 -0.0923 -0.8413
  792MPD2    H111730   3.511   0.557  11.164 -0.7004 -0.8840 -1.5987
  792MPD2    H211731   3.829   0.806  11.079 -2.3828  0.7496  0.7078
  792MPD2    H311732   3.620   0.756  11.186 -1.6090  0.6034 -1.5285
  792MPD2     N11733   3.591   0.345  11.046  0.5922 -0.4139  0.5188
  792MPD2    H511734   3.495   0.362  11.075 -0.5593 -3.0931 -1.7115
  792MPD2    N111735   3.996   0.616  10.985 -0.8106 -0.1855  0.3139
  792MPD2    H711736   4.026   0.712  10.971 -2.8379  0.7913  2.7256
  793MPD2     C11737   3.627   4.278  10.359  0.3266 -0.7822 -0.2311
  793MPD2    C111738   3.636   4.417  10.323 -0.4201  0.6856  0.0872
  793MPD2    C211739   3.589   4.512  10.406 -0.3903  0.0503  0.6126
  793MPD2    C311740   3.544   4.467  10.529  0.1507 -0.5445 -0.5051
  793MPD2    C411741   3.539   4.337  10.570  0.2546 -0.8086 -0.3779
  793MPD2    C511742   3.576   4.244  10.479 -0.3110 -0.1187 -0.0513
  793MPD2     H11743   3.583   4.616  10.377  0.5220  0.4065  1.7047
  793MPD2    H111744   3.482   4.307  10.657  0.6085 -0.4109 -0.0063
  793MPD2    H211745   3.651   4.195  10.294 -0.7034 -0.5503 -0.9079
  793MPD2    H311746   3.566   4.138  10.498 -0.3019 -0.0758  0.1930
  793MPD2     N11747   3.517   4.573  10.620  0.4285  0.1232  0.4947
  793MPD2    H511748   3.535   4.668  10.588  2.8892  0.0389  1.6472
  793MPD2    N111749   3.686   4.463  10.193  0.4315 -0.1931 -0.1768
  793MPD2    H711750   3.700   4.562  10.175 -2.5984 -0.1647 -2.2780
  794MPD2     C11751   0.126   4.341  16.760  0.1921 -0.6492 -0.5529
  794MPD2    C111752   0.064   4.406  16.869  0.2804  0.0673 -0.2105
  794MPD2    C211753   4.719   4.512  16.842 -0.5376  0.5296 -0.0566
  794MPD2    C311754   4.688   4.557  16.715  1.1723 -0.4308  0.2099
  794MPD2    C411755   0.020   4.496  16.615 -0.4681 -0.0399 -0.2669
  794MPD2    C511756   0.108   4.396  16.635 -0.1061  0.1566 -0.0092
  794MPD2     H11757   4.677   4.552  16.933 -0.4326  0.3688  0.0625
  794MPD2    H111758   4.728   4.514  16.511  0.8331 -0.7672 -0.7316
  794MPD2    H211759   0.185   4.251  16.770 -0.9640 -1.3325  0.0778
  794MPD2    H311760   0.139   4.357  16.539  0.0791 -0.7703  0.4232
  794MPD2     N11761   4.593   4.658  16.687  0.2520  0.4743 -0.4727
  794MPD2    H511762   4.591   4.692  16.591 -2.9718  2.0532  0.1653
  794MPD2    N111763   0.080   4.361  17.001  0.0249 -0.1291 -0.6391
  794MPD2    H711764   0.016   4.408  17.064  0.8846 -0.2347  0.3357
  795MPD2     C11765   2.421   1.695  13.636  1.1310  0.3826  0.8356
  795MPD2    C111766   2.337   1.650  13.734 -0.5037  0.0455 -0.2160
  795MPD2    C211767   2.382   1.594  13.854 -0.5209  0.1610  0.5958
  795MPD2    C311768   2.523   1.588  13.875 -0.1990  0.4452  0.0851
  795MPD2    C411769   2.604   1.627  13.770 -0.3381 -0.1949 -0.3288
  795MPD2    C511770   2.552   1.685  13.662 -0.2411 -0.8128  0.2845
  795MPD2     H11771   2.312   1.558  13.928  0.5633  0.4039  1.7330
  795MPD2    H111772   2.712   1.618  13.770 -0.3069  0.1655  0.9572
  795MPD2    H211773   2.389   1.741  13.543  2.5924 -1.4907 -0.5692
  795MPD2    H311774   2.627   1.705  13.586 -2.4279  0.9632 -1.4068
  795MPD2     N11775   2.574   1.540  13.995 -0.3256  0.0127 -0.2547
  795MPD2    H511776   2.503   1.490  14.049 -0.7026 -0.0485 -0.8110
  795MPD2    N111777   2.192   1.673  13.716  0.4379  0.5061 -0.2977
  795MPD2    H711778   2.136   1.639  13.793 -0.7880 -1.8650 -2.2470
  796MPD2     C11779   1.787   3.115  15.774  0.0152  0.2926  0.0106
  796MPD2    C111780   1.849   3.203  15.866  0.1442 -0.2245  0.0274
  796MPD2    C211781   1.868   3.337  15.832  0.2594  1.3084 -0.6607
  796MPD2    C311782   1.825   3.390  15.707  0.9742  0.2896 -0.0392
  796MPD2    C411783   1.758   3.300  15.622 -0.2567 -0.0788 -0.0204
  796MPD2    C511784   1.739   3.164  15.657 -0.4008 -0.1152 -0.3534
  796MPD2     H11785   1.918   3.407  15.899  0.5692  0.4219  0.0230
  796MPD2    H111786   1.706   3.338  15.535 -0.9452  0.2889  0.5494
  796MPD2    H211787   1.777   3.008  15.784 -0.6392  0.1872 -1.8028
  796MPD2    H311788   1.684   3.098  15.591 -0.7765 -2.4373  2.2661
  796MPD2     N11789   1.839   3.522  15.680  0.0479 -0.0822 -0.0240
  796MPD2    H511790   1.877   3.582  15.753 -0.7026 -0.4504  0.6767
  796MPD2    N111791   1.897   3.161  15.994 -0.2883 -0.0867 -0.5774
  796MPD2    H711792   1.919   3.234  16.061  0.9997 -0.7392 -0.2818
  797MPD2     C11793   2.716   3.310  17.390  0.1057  0.2308  0.0992
  797MPD2    C111794   2.791   3.417  17.363 -0.2659 -0.7247  0.6031
  797MPD2    C211795   2.749   3.508  17.259  0.1385 -0.0875 -0.3240
  797MPD2    C311796   2.638   3.483  17.187 -0.0849  0.2275 -0.9432
  797MPD2    C411797   2.551   3.384  17.227  0.1753  0.7675  0.4413
  797MPD2    C511798   2.592   3.301  17.327  0.1201  0.1633 -0.2320
  797MPD2     H11799   2.810   3.590  17.224 -1.0990  1.0539  0.1867
  797MPD2    H111800   2.464   3.371  17.164  2.6539 -1.9696 -2.3881
  797MPD2    H211801   2.740   3.238  17.467 -0.5161  1.0578  1.0656
  797MPD2    H311802   2.530   3.216  17.353  2.1749 -2.1654 -2.8652
  797MPD2     N11803   2.612   3.575  17.080  0.0248 -0.1063  0.0162
  797MPD2    H511804   2.678   3.652  17.071  2.2059 -1.5609  3.5031
  797MPD2    N111805   2.918   3.448  17.422 -0.4450  0.6043 -0.4851
  797MPD2    H711806   2.950   3.540  17.392 -0.4079  1.4808  2.2108
  798MPD2     C11807   3.213   3.874  16.868 -0.7808 -0.9455  0.4878
  798MPD2    C111808   3.101   3.824  16.930 -0.2649 -0.3635 -0.8159
  798MPD2    C211809   3.126   3.745  17.037 -0.6256  0.3758 -0.1536
  798MPD2    C311810   3.246   3.722  17.094  1.0034  0.5919  0.3251
  798MPD2    C411811   3.352   3.783  17.041  0.0606 -0.1103  0.3227
  798MPD2    C511812   3.335   3.855  16.926  0.4827  0.3950 -0.1279
  798MPD2     H11813   3.044   3.691  17.085 -0.9548  2.2055  1.3368
  798MPD2    H111814   3.447   3.779  17.094  0.0261  1.2795  0.4998
  798MPD2    H211815   3.204   3.931  16.776 -1.4219 -0.3043  0.9443
  798MPD2    H311816   3.421   3.901  16.879  1.3594 -0.0772  1.0234
  798MPD2     N11817   3.244   3.661  17.214 -0.8838  0.4615  0.1443
  798MPD2    H511818   3.158   3.618  17.246 -0.6331  0.2715  0.5711
  798MPD2    N111819   2.970   3.834  16.871  0.2686 -0.4084 -0.2623
  798MPD2    H711820   2.963   3.894  16.790  0.2718  0.7777  0.6063
  799MPD2     C11821   1.541   4.512  14.749  0.4204 -0.2870 -0.3720
  799MPD2    C111822   1.469   4.421  14.670 -0.4534 -0.4505 -0.7584
  799MPD2    C211823   1.367   4.473  14.591  0.6835  0.8651 -0.1403
  799MPD2    C311824   1.345   4.610  14.588 -0.5526  0.2794 -0.3200
  799MPD2    C411825   1.415   4.693  14.667  1.5201  0.3336 -0.0727
  799MPD2    C511826   1.505   4.644  14.750  0.2368 -0.4920 -0.6757
  799MPD2     H11827   1.305   4.407  14.530  1.3215  1.2117 -1.1665
  799MPD2    H111828   1.405   0.066  14.669  0.7074  0.2588  0.2575
  799MPD2    H211829   1.611   4.489  14.828 -0.4660 -1.4369  0.0748
  799MPD2    H311830   1.561   4.711  14.815 -1.3819 -0.5020  0.7421
  799MPD2     N11831   1.267   4.672  14.486  0.0471 -0.1248  0.9252
  799MPD2    H511832   1.277   0.038  14.476  3.2479 -0.6469 -1.0332
  799MPD2    N111833   1.490   4.282  14.674  0.1609  0.0628 -0.2368
  799MPD2    H711834   1.424   4.214  14.637  1.5241 -0.6851 -1.2719
  800MPD2     C11835   2.072   0.600  14.317  0.0713 -0.0685  0.1446
  800MPD2    C111836   2.182   0.658  14.258  0.0663 -0.1433 -0.7125
  800MPD2    C211837   2.198   0.640  14.119 -0.3509 -0.6580  0.2000
  800MPD2    C311838   2.111   0.578  14.043  0.7151 -0.2014 -0.3843
  800MPD2    C411839   2.018   0.498  14.101 -0.0624 -0.3066 -0.4482
  800MPD2    C511840   1.995   0.515  14.238 -0.6388  0.3288 -0.1377
  800MPD2     H11841   2.289   0.667  14.067 -0.3447 -1.1675 -0.0508
  800MPD2    H111842   1.949   0.437  14.045 -1.1594  1.5774 -1.1534
  800MPD2    H211843   2.039   0.610  14.420  0.2899  0.1172  0.1956
  800MPD2    H311844   1.905   0.467  14.275  0.5926 -2.3679 -0.6681
  800MPD2     N11845   2.147   0.581  13.904  0.2646 -0.4875  0.3792
  800MPD2    H511846   2.219   0.646  13.875 -0.2821 -0.5382 -1.1031
  800MPD2    N111847   2.271   0.733  14.344  0.3513 -0.3074 -0.0801
  800MPD2    H711848   2.264   0.715  14.444 -2.1265 -0.0554 -0.2171
  801MPD2     C11849   2.429   1.034  15.011 -0.3326 -0.6230  0.4277
  801MPD2    C111850   2.352   1.031  14.898  0.7705  0.3673 -0.4663
  801MPD2    C211851   2.233   1.103  14.896  0.2288 -0.5625  0.1126
  801MPD2    C311852   2.185   1.159  15.013  0.0922  0.7413  0.0935
  801MPD2    C411853   2.265   1.151  15.126  0.7213 -0.0614 -0.0157
  801MPD2    C511854   2.379   1.085  15.129 -0.2928 -0.3895 -0.3060
  801MPD2     H11855   2.171   1.113  14.807  1.2873 -2.6217 -0.8436
  801MPD2    H111856   2.237   1.202  15.218 -1.0482 -1.1586  0.0452
  801MPD2    H211857   2.526   0.984  15.014  1.6679  3.1906 -0.6417
  801MPD2    H311858   2.430   1.098  15.224 -1.6434  3.0351 -0.0621
  801MPD2     N11859   2.073   1.249  15.019  0.1483  0.0513 -0.7640
  801MPD2    H511860   2.070   1.308  15.101  0.2041 -0.0305 -0.7030
  801MPD2    N111861   2.400   0.986  14.772 -0.0742 -0.1616  0.2034
  801MPD2    H711862   2.349   1.020  14.691 -0.0737  0.0709  0.2991
  802MPD2     C11863   2.112   2.170   0.440 -0.1116 -0.5814 -0.0483
  802MPD2    C111864   1.981   2.145   0.408 -0.0611  0.0245 -0.6622
  802MPD2    C211865   1.956   2.048   0.308 -0.5365 -0.0892 -0.1934
  802MPD2    C311866   2.055   1.988   0.239  0.2196 -0.0620 -0.7954
  802MPD2    C411867   2.187   2.021   0.266  0.2800  0.6027  0.5902
  802MPD2    C511868   2.209   2.101   0.370  0.0453 -0.0834  0.0017
  802MPD2     H11869   1.853   2.023   0.286 -1.2148  1.4881  1.1650
  802MPD2    H111870   2.269   1.964   0.223  0.6464  2.5462 -1.3045
  802MPD2    H211871   2.141   2.229   0.526 -2.0601  2.0550 -1.1695
  802MPD2    H311872   2.312   2.104   0.402 -0.6078  3.0510  1.7752
  802MPD2     N11873   2.018   1.887   0.140 -0.0971  0.2698 -0.6456
  802MPD2    H511874   1.919   1.878   0.121 -0.2761 -0.5117  0.6787
  802MPD2    N111875   1.874   2.200   0.473 -0.3469 -0.0759 -0.5923
  802MPD2    H711876   1.787   2.160   0.441 -1.4268  1.4318  0.4065
  803MPD2     C11877   1.904   4.268  13.075  0.5225 -0.2939 -0.1983
  803MPD2    C111878   1.998   4.267  12.973  0.4594 -0.4731 -0.1384
  803MPD2    C211879   2.120   4.327  12.990  0.6533  0.4018 -0.0464
  803MPD2    C311880   2.156   4.370  13.120  0.1782  0.5685 -0.5279
  803MPD2    C411881   2.062   4.375  13.218  0.4868 -0.9355  0.1243
  803MPD2    C511882   1.940   4.326  13.194  0.0650  0.1567  0.0870
  803MPD2     H11883   2.195   4.330  12.912  1.0228  0.6548  0.3179
  803MPD2    H111884   2.088   4.412  13.317  1.7276 -0.1039 -0.5173
  803MPD2    H211885   1.798   4.250  13.057  0.5054  2.4600 -2.8158
  803MPD2    H311886   1.867   4.330  13.274  0.8894  3.4492  0.6423
  803MPD2     N11887   2.287   4.406  13.150 -0.4102 -0.6087 -0.1707
  803MPD2    H511888   2.303   4.463  13.233  0.5410 -0.2575 -0.5949
  803MPD2    N111889   1.954   4.222  12.845  0.7439 -0.0675  0.4347
  803MPD2    H711890   2.010   4.260  12.769 -0.9207  1.4203 -0.0527
  804MPD2     C11891   2.857   1.999  16.929  0.0531 -0.0990  0.1920
  804MPD2    C111892   2.760   2.029  17.028  0.5593  0.2108  0.4889
  804MPD2    C211893   2.782   2.144  17.103  0.6115 -0.7696  0.3693
  804MPD2    C311894   2.880   2.239  17.068  0.4664 -0.2966  0.3177
  804MPD2    C411895   2.948   2.217  16.951  0.3184 -0.2626 -0.2464
  804MPD2    C511896   2.942   2.098  16.891  0.1966 -0.3899  0.8505
  804MPD2     H11897   2.725   2.149  17.195 -0.3619  0.0951 -0.2843
  804MPD2    H111898   3.009   2.290  16.900 -2.8824  2.2983 -0.4022
  804MPD2    H211899   2.843   1.918  16.858  0.8931 -0.3404  0.3037
  804MPD2    H311900   3.015   2.083  16.812 -0.6484 -2.5640  0.4693
  804MPD2     N11901   2.905   2.346  17.156  0.1402  0.3373  0.3413
  804MPD2    H511902   2.838   2.361  17.230 -0.1805  0.3039  0.0593
  804MPD2    N111903   2.642   1.942  17.058 -0.0097 -0.2169 -0.0246
  804MPD2    H711904   2.592   1.967  17.143 -1.5900  0.1543 -1.0649
  805MPD2     C11905   1.482   0.175  15.522  0.4458  0.0904  0.5191
  805MPD2    C111906   1.599   0.142  15.447 -0.5083  0.1791 -0.4266
  805MPD2    C211907   1.713   0.149  15.517 -0.3724  0.0120  0.2154
  805MPD2    C311908   1.719   0.208  15.645  0.0109 -0.4488 -0.1799
  805MPD2    C411909   1.604   0.250  15.711  0.2235 -0.5251  0.6886
  805MPD2    C511910   1.488   0.231  15.645  0.0519 -0.2160  0.1378
  805MPD2     H11911   1.811   0.138  15.472 -0.1527  1.0038  0.4512
  805MPD2    H111912   1.610   0.289  15.812 -2.9002 -0.2847  0.7751
  805MPD2    H211913   1.386   0.160  15.474  1.1795 -1.3758 -0.4672
  805MPD2    H311914   1.394   0.248  15.695 -0.8278 -0.3406 -1.4623
  805MPD2     N11915   1.852   0.229  15.695 -0.6787 -0.1118  0.8692
  805MPD2    H511916   1.932   0.201  15.638  0.2327  1.8725  1.1676
  805MPD2    N111917   1.599   0.088  15.316  0.2944 -0.6675  0.4140
  805MPD2    H711918   1.677   0.041  15.272  0.1004 -1.1887  0.6276
  806MPD2     C11919   2.053   4.056   0.338  0.8057  0.3083  0.4799
  806MPD2    C111920   2.062   4.188   0.351 -0.4179 -0.1225  0.4836
  806MPD2    C211921   2.073   4.264   0.235 -0.1570 -0.0969 -0.6054
  806MPD2    C311922   2.059   4.210   0.112 -0.3641 -0.2407 -0.1595
  806MPD2    C411923   2.049   4.075   0.100 -0.2400  0.4175 -0.3014
  806MPD2    C511924   2.050   3.997   0.213 -0.1212 -0.8516 -0.1431
  806MPD2     H11925   2.075   4.373   0.234 -0.5672 -0.0780  0.4931
  806MPD2    H111926   2.051   4.017   0.009  0.8340  0.7505 -0.4928
  806MPD2    H211927   2.044   3.985   0.420  0.8494 -1.0191 -0.6742
  806MPD2    H311928   2.033   3.890   0.204 -3.6603 -0.3514  0.6628
  806MPD2     N11929   2.061   4.298   0.001  0.1799 -0.1829 -0.2646
  806MPD2    H511930   2.079   4.397   0.018 -0.8812 -0.3013  1.5849
  806MPD2    N111931   2.060   4.237   0.489 -0.1379 -0.3221  0.0168
  806MPD2    H711932   2.065   4.166   0.561  1.0181  0.2208  0.4696
  807MPD2     C11933   1.902   3.915   1.127  0.0010  0.1959 -0.0515
  807MPD2    C111934   2.024   3.977   1.137  0.6999  0.3794 -0.0782
  807MPD2    C211935   2.126   3.899   1.198  0.3182 -0.3859 -0.1143
  807MPD2    C311936   2.109   3.762   1.216 -0.3039 -0.7415 -0.1141
  807MPD2    C411937   1.983   3.708   1.197  0.0987 -0.4311  0.3689
  807MPD2    C511938   1.882   3.791   1.172 -0.3877  0.3952  0.5649
  807MPD2     H11939   2.223   3.947   1.201 -0.2351  0.6416  1.4389
  807MPD2    H111940   1.958   3.603   1.212  0.6600 -0.2731  2.4734
  807MPD2    H211941   1.812   3.969   1.099 -0.0288  1.8387  3.3012
  807MPD2    H311942   1.784   3.748   1.158  0.3483 -1.0295 -0.1906
  807MPD2     N11943   2.221   3.692   1.262  0.7659 -0.2213 -0.0237
  807MPD2    H511944   2.306   3.740   1.290 -1.0841  2.7362  0.4893
  807MPD2    N111945   2.049   4.099   1.075 -0.3164 -0.4431 -0.1874
  807MPD2    H711946   2.140   4.142   1.082 -1.2572  1.5719 -0.2298
  808MPD2     C11947   1.984   0.714   9.414  0.1756 -0.3173  0.2377
  808MPD2    C111948   1.873   0.771   9.476  0.1578 -0.4297  0.5281
  808MPD2    C211949   1.881   0.908   9.501  0.7123  0.9463  0.4359
  808MPD2    C311950   1.997   0.979   9.478 -0.6250  0.4828 -0.4503
  808MPD2    C411951   2.108   0.923   9.429  0.2442 -0.6661  0.0037
  808MPD2    C511952   2.096   0.793   9.387  0.2533 -0.5493 -0.4923
  808MPD2     H11953   1.795   0.959   9.542 -1.4301  0.5473 -3.5525
  808MPD2    H111954   2.199   0.981   9.423 -0.2712  0.1244 -0.1463
  808MPD2    H211955   1.985   0.608   9.393  0.3132  0.0106 -1.3867
  808MPD2    H311956   2.188   0.743   9.359  1.7635  1.9184  0.0238
  808MPD2     N11957   2.008   1.114   9.521  0.3359  0.0586 -0.1766
  808MPD2    H511958   2.100   1.156   9.513  0.8403 -1.3626 -1.6609
  808MPD2    N111959   1.752   0.703   9.505 -0.3747 -0.1334  0.3444
  808MPD2    H711960   1.682   0.750   9.561 -0.4904 -0.3218  0.3592
  809MPD2     C11961   2.311   2.065   9.435  0.1363  0.2521 -0.6450
  809MPD2    C111962   2.322   1.949   9.364  0.6385 -0.0824  0.7403
  809MPD2    C211963   2.268   1.831   9.420  1.1374 -0.4664  0.4699
  809MPD2    C311964   2.206   1.838   9.541 -0.4051 -0.8297  0.2184
  809MPD2    C411965   2.199   1.956   9.614 -1.0512 -0.4703  0.2502
  809MPD2    C511966   2.250   2.065   9.560 -0.5581  0.0771  0.5972
  809MPD2     H11967   2.293   1.739   9.370 -0.2121  1.6239 -4.0364
  809MPD2    H111968   2.163   1.957   9.716 -0.5014 -2.2760  0.4688
  809MPD2    H211969   2.350   2.160   9.398 -0.7757  0.9694  0.2553
  809MPD2    H311970   2.249   2.153   9.622 -1.1283 -0.4680  1.3616
  809MPD2     N11971   2.162   1.719   9.611 -0.1468 -0.8829 -0.3440
  809MPD2    H511972   2.120   1.735   9.702  1.3141 -0.7634  0.3169
  809MPD2    N111973   2.413   1.934   9.256  0.3781 -0.1069 -0.0473
  809MPD2    H711974   2.432   1.841   9.220  3.0069  0.2149  0.5573
  810MPD2     C11975   1.081   4.713  11.132  0.0675 -0.3698  0.0717
  810MPD2    C111976   0.996   0.007  11.033  0.2218  0.7150  0.1308
  810MPD2    C211977   1.003   0.131  10.969  0.3548 -0.3226 -0.0944
  810MPD2    C311978   1.098   0.231  11.008  0.6346 -0.6716 -0.1971
  810MPD2    C411979   1.183   0.192  11.113 -0.1133 -0.4196  0.1604
  810MPD2    C511980   1.172   0.069  11.172 -0.0746  0.1452  0.0303
  810MPD2     H11981   0.925   0.157  10.899  0.2227 -0.0164  0.1640
  810MPD2    H111982   1.265   0.258  11.140  0.1773 -0.9408  0.5432
  810MPD2    H211983   1.070   4.626  11.197 -3.5777 -2.0943 -2.8854
  810MPD2    H311984   1.241   0.041  11.251 -0.6719  1.3033  0.9566
  810MPD2     N11985   1.118   0.351  10.940 -1.3905  0.2833  0.0610
  810MPD2    H511986   1.186   0.418  10.974 -3.0451  2.7492 -1.4870
  810MPD2    N111987   0.903   4.635  11.001 -0.1295  0.4666 -0.1060
  810MPD2    H711988   0.908   4.550  11.057  0.1971 -0.8576 -2.1657
  811MPD2     C11989   0.899   4.136  10.324  0.0320  0.1943 -0.1456
  811MPD2    C111990   0.829   4.249  10.362 -0.2778  0.6260  0.2099
  811MPD2    C211991   0.828   4.356  10.266  0.0387 -0.3667  0.4988
  811MPD2    C311992   0.881   4.345  10.137 -0.1195 -0.3982 -0.3245
  811MPD2    C411993   0.935   4.223  10.100 -0.5317 -0.7523  0.9251
  811MPD2    C511994   0.941   4.122  10.192  0.3512  0.0080 -0.1069
  811MPD2     H11995   0.778   4.451  10.287 -0.6635 -0.2024 -1.9270
  811MPD2    H111996   0.965   4.202   9.998  0.8870  0.2569  1.1397
  811MPD2    H211997   0.912   4.047  10.384 -0.3832 -0.1737 -0.5926
  811MPD2    H311998   0.973   4.023  10.165 -0.6496 -0.4373  0.3239
  811MPD2     N11999   0.874   4.465  10.058 -0.5139  0.5970 -0.1635
  811MPD2    H512000   0.846   4.543  10.115  1.0729 -1.1609  3.0325
  811MPD2    N112001   0.777   4.262  10.494 -0.0665  0.6830 -0.0589
  811MPD2    H712002   0.789   4.181  10.555  2.2122  0.7876 -0.3604
  812MPD2     C12003   4.519   4.564  12.153 -0.2328  0.5120  0.1549
  812MPD2    C112004   4.611   4.658  12.123 -0.9122  0.5445 -0.8703
  812MPD2    C212005   0.000   4.649  12.185 -0.1646 -0.0506 -0.4045
  812MPD2    C312006   0.023   4.552  12.277  0.0614 -0.1424 -0.1144
  812MPD2    C412007   4.663   4.456  12.298 -0.2054  0.2202 -0.2186
  812MPD2    C512008   4.541   4.457  12.241  0.3270  0.4464  0.0426
  812MPD2     H12009   0.073   4.729  12.186 -1.6070  1.2423  1.1351
  812MPD2    H112010   4.681   4.377  12.370  0.7738 -0.7739 -1.5428
  812MPD2    H212011   4.421   4.580  12.110 -1.2368 -0.7707  1.9716
  812MPD2    H312012   4.471   4.377  12.260 -0.1339  0.4336 -1.6468
  812MPD2     N12013   0.132   4.570  12.369 -0.0004  0.6069 -0.2658
  812MPD2    H512014   0.218   4.609  12.332  0.8609 -0.5203  0.5280
  812MPD2    N112015   4.573   0.023  12.032 -0.1609 -0.3454  0.4445
  812MPD2    H712016   4.479   0.009  11.996 -0.1020  0.3477  0.0255
  813MPD2     C12017   4.686   1.825  12.916  0.1819 -0.3400  0.1419
  813MPD2    C112018   4.643   1.952  12.890 -0.1280  0.8496  0.3649
  813MPD2    C212019   4.559   2.021  12.978  0.1757 -0.1795 -0.0074
  813MPD2    C312020   4.522   1.955  13.094  0.1295 -0.1653  0.3870
  813MPD2    C412021   4.549   1.825  13.110  0.3715  0.3843 -0.1590
  813MPD2    C512022   4.633   1.764  13.022  0.3228  0.9564 -0.6400
  813MPD2     H12023   4.516   2.117  12.955 -0.6510 -0.4649  0.3325
  813MPD2    H112024   4.500   1.760  13.182 -1.8428  0.2639 -1.7530
  813MPD2    H212025   0.015   1.761  12.856  2.9247  1.3561  1.2963
  813MPD2    H312026   4.656   1.658  13.026  0.4207  0.9050 -2.3016
  813MPD2     N12027   4.435   2.024  13.184 -0.1003  0.3887 -0.7226
  813MPD2    H512028   4.426   2.123  13.168 -0.3402  0.5075  0.1294
  813MPD2    N112029   4.713   2.021  12.793  0.5007 -0.5090  0.8247
  813MPD2    H712030   0.054   1.975  12.744 -0.1102  2.3137 -2.8547
  814MPD2     C12031   4.732   3.301  12.066 -0.5032 -0.3814 -0.4984
  814MPD2    C112032   0.025   3.370  11.947 -0.5898  0.1308 -0.1284
  814MPD2    C212033   0.105   3.485  11.964 -0.2981 -0.2451 -0.2321
  814MPD2    C312034   0.140   3.534  12.093  0.1600 -0.4110  0.3468
  814MPD2    C412035   0.101   3.463  12.204  0.5405 -0.4830 -0.5315
  814MPD2    C512036   0.038   3.344  12.190  0.3192 -0.1606 -0.7036
  814MPD2     H12037   0.148   3.526  11.874 -1.1025 -2.2950 -1.5530
  814MPD2    H112038   0.111   3.496  12.306  0.1341 -2.3687  0.1208
  814MPD2    H212039   4.686   3.203  12.078  1.0866 -0.9403  0.9975
  814MPD2    H312040   0.012   3.292  12.282  1.9248 -1.5338 -1.0262
  814MPD2     N12041   0.202   3.659  12.122  0.4383  0.1140  0.3126
  814MPD2    H512042   0.200   3.676  12.222  1.3831 -1.7527  0.6432
  814MPD2    N112043   4.726   3.328  11.810 -0.4550  0.5817  0.6857
  814MPD2    H712044   0.026   3.379  11.729 -1.0864 -0.3090 -0.1454
  815MPD2     C12045   0.614   1.366  11.779  0.4148  0.5701 -0.9425
  815MPD2    C112046   0.502   1.350  11.703 -0.5223  0.2518 -0.0471
  815MPD2    C212047   0.383   1.310  11.768  0.2266  0.2495 -0.2644
  815MPD2    C312048   0.373   1.300  11.897  0.0678 -1.7102 -0.4351
  815MPD2    C412049   0.488   1.316  11.972  0.5855  0.3834 -0.6768
  815MPD2    C512050   0.609   1.358  11.910 -0.2691  0.6316  0.5481
  815MPD2     H12051   0.292   1.284  11.715  0.3733 -2.6252  0.8536
  815MPD2    H112052   0.497   1.308  12.080 -2.2278 -0.4010 -0.4962
  815MPD2    H212053   0.710   1.388  11.733  0.5127  2.1565  0.0147
  815MPD2    H312054   0.700   1.363  11.970  1.1161  2.5573 -1.7227
  815MPD2     N12055   0.247   1.272  11.949  0.5480 -0.2372 -0.5134
  815MPD2    H512056   0.166   1.256  11.889 -0.1122 -0.8603  0.5546
  815MPD2    N112057   0.505   1.380  11.570 -0.2817 -0.4381  0.2619
  815MPD2    H712058   0.589   1.429  11.540 -0.4259  0.7314  1.7984
  816MPD2     C12059   0.931   0.642  17.267 -0.3094  0.1966  0.0616
  816MPD2    C112060   0.985   0.764  17.261  0.0367 -0.3116 -0.0453
  816MPD2    C212061   1.094   0.775  17.178 -0.7077  0.5391  0.5225
  816MPD2    C312062   1.144   0.680  17.097  0.0477 -0.1903  1.0559
  816MPD2    C412063   1.091   0.549  17.113 -0.4499  0.1010  0.8367
  816MPD2    C512064   0.980   0.538  17.198 -0.1019 -0.0763 -0.0340
  816MPD2     H12065   1.147   0.869  17.170  1.1995 -0.4988  0.9169
  816MPD2    H112066   1.126   0.458  17.067  0.5883  1.8086 -1.7215
  816MPD2    H212067   0.853   0.619  17.338 -0.5650  1.4577  0.1949
  816MPD2    H312068   0.946   0.436  17.211 -0.6938  0.0222 -0.7740
  816MPD2     N12069   1.248   0.715  17.007 -0.3079 -0.9147 -0.3874
  816MPD2    H512070   1.279   0.812  17.007  0.6024 -1.2062 -0.9632
  816MPD2    N112071   0.928   0.868  17.332 -0.3602  0.7614  0.1158
  816MPD2    H712072   0.840   0.854  17.380 -0.5130  2.0581  0.2311
  817MPD2     C12073   4.687   2.901   9.509 -0.1183  0.1429  0.0760
  817MPD2    C112074   4.623   2.798   9.435  0.5330  0.6599 -0.6195
  817MPD2    C212075   4.513   2.839   9.362  0.8693 -0.1938 -0.6414
  817MPD2    C312076   4.463   2.963   9.354  0.1639 -0.2217  0.3793
  817MPD2    C412077   4.529   3.061   9.421  0.1051 -0.6406 -0.6041
  817MPD2    C512078   4.645   3.030   9.490  0.1006  0.4459  0.1469
  817MPD2     H12079   4.464   2.759   9.309  0.0320 -0.0877 -0.0122
  817MPD2    H112080   4.497   3.165   9.417 -1.9232 -1.2157  0.6505
  817MPD2    H212081   0.045   2.893   9.565 -0.5904 -0.8534  0.7340
  817MPD2    H312082   4.705   3.108   9.536 -0.0737  2.2888 -2.6934
  817MPD2     N12083   4.342   2.978   9.283 -0.3934  0.3281  0.6278
  817MPD2    H512084   4.299   2.899   9.235 -0.2129  0.9811 -0.6174
  817MPD2    N112085   4.667   2.662   9.436  0.2605 -0.5822  0.2136
  817MPD2    H712086   4.606   2.603   9.381  0.1634  0.3515 -0.6857
  818MPD2     C12087   3.641   2.823   9.891  0.6739 -0.8002 -1.0323
  818MPD2    C112088   3.536   2.745   9.940  0.5426  0.6283  0.3119
  818MPD2    C212089   3.469   2.657   9.855 -0.1469 -0.0734 -0.4810
  818MPD2    C312090   3.482   2.665   9.720 -0.0452  0.6461  0.0530
  818MPD2    C412091   3.584   2.740   9.669 -0.1585 -0.0203 -0.2602
  818MPD2    C512092   3.657   2.823   9.753  0.3567 -0.4336  0.0758
  818MPD2     H12093   3.404   2.583   9.903 -0.4197 -0.0788 -0.8623
  818MPD2    H112094   3.612   2.740   9.564 -2.3068  1.3169 -0.8269
  818MPD2    H212095   3.712   2.888   9.941 -0.7268  0.2226 -0.3516
  818MPD2    H312096   3.737   2.881   9.708  0.6679 -1.4645 -0.7106
  818MPD2     N12097   3.417   2.575   9.629  0.4512 -0.5765 -0.0574
  818MPD2    H512098   3.449   2.569   9.533 -2.6174 -2.5120 -0.9654
  818MPD2    N112099   3.512   2.728  10.074  0.9128  0.0845  0.5535
  818MPD2    H712100   3.430   2.673  10.098  0.1152  0.4497 -1.3764
  819MPD2     C12101   2.581   4.540  15.376  0.4522  0.6467  0.5731
  819MPD2    C112102   2.589   4.408  15.414  0.0383 -0.4697 -0.5192
  819MPD2    C212103   2.671   4.378  15.524 -0.4227 -0.0932 -0.1080
  819MPD2    C312104   2.744   4.469  15.598 -0.1946  0.2316  0.0063
  819MPD2    C412105   2.744   4.596  15.553  0.7738  0.2629 -0.5360
  819MPD2    C512106   2.652   4.626  15.455 -0.1365  0.1180 -0.2272
  819MPD2     H12107   2.677   4.273  15.550  2.4724  0.3940  1.1470
  819MPD2    H112108   2.788   4.680  15.606 -0.4481  0.2217  0.5619
  819MPD2    H212109   2.527   4.576  15.290 -1.6853 -0.8188  1.2988
  819MPD2    H312110   2.651   4.732  15.433 -1.4708  0.1456  0.0001
  819MPD2     N12111   2.805   4.425  15.719  0.1765  0.1675 -0.0838
  819MPD2    H512112   2.797   4.325  15.737  1.2932  0.1992  0.5714
  819MPD2    N112113   2.506   4.308  15.351  0.2146  0.6467  0.1783
  819MPD2    H712114   2.453   4.334  15.268 -0.8573  0.3334  0.7638
  820MPD2     C12115   1.590   4.025  15.135  0.2511  1.0534 -0.2471
  820MPD2    C112116   1.662   4.134  15.117  0.9305  0.1565  0.0961
  820MPD2    C212117   1.797   4.128  15.132  0.0323 -0.2598  0.7205
  820MPD2    C312118   1.860   4.007  15.165 -0.7100 -0.0751 -0.2605
  820MPD2    C412119   1.782   3.894  15.184  0.5553 -0.0623 -0.4959
  820MPD2    C512120   1.641   3.904  15.174 -0.2211 -0.0885 -0.5456
  820MPD2     H12121   1.860   4.215  15.120 -3.8404  2.7722  2.4403
  820MPD2    H112122   1.824   3.796  15.206 -2.1500 -1.0086  0.4029
  820MPD2    H212123   1.484   4.017  15.115  0.3924 -1.2905  0.0161
  820MPD2    H312124   1.581   3.816  15.190 -3.5114  2.2247 -0.2851
  820MPD2     N12125   1.996   3.999  15.176 -0.0163  0.2561 -0.3825
  820MPD2    H512126   2.040   3.908  15.183 -1.5939 -0.4693  0.1458
  820MPD2    N112127   1.596   4.257  15.090 -0.1243  0.0231  0.0811
  820MPD2    H712128   1.496   4.257  15.073 -0.2008  0.8048  0.5092
  821MPD2     C12129   2.100   0.608  13.017 -1.1084  0.1141  0.6745
  821MPD2    C112130   2.196   0.666  13.100 -0.8153 -0.1595  0.6918
  821MPD2    C212131   2.282   0.764  13.045 -0.9257  0.1483  0.5808
  821MPD2    C312132   2.285   0.795  12.918  0.1177 -0.0166  1.1634
  821MPD2    C412133   2.184   0.747  12.836  0.0742  0.0474  0.1629
  821MPD2    C512134   2.097   0.661  12.887 -0.4103 -0.4192 -0.3843
  821MPD2     H12135   2.338   0.821  13.118  0.9146 -0.1032 -0.6136
  821MPD2    H112136   2.187   0.779  12.733 -0.3473 -3.1590 -0.8703
  821MPD2    H212137   2.022   0.538  13.044 -0.3015 -1.2055 -0.4459
  821MPD2    H312138   2.011   0.625  12.831 -0.2645 -0.4913 -0.5629
  821MPD2     N12139   2.396   0.868  12.857 -0.0090 -0.2551  0.7712
  821MPD2    H512140   2.391   0.892  12.758 -1.5156 -0.5020  0.7871
  821MPD2    N112141   2.229   0.630  13.230 -0.0450 -0.1362  0.1924
  821MPD2    H712142   2.311   0.668  13.276 -0.4298  0.1832  0.6169
  822MPD2     C12143   3.348   1.135  15.667  0.1056 -1.2180  0.5652
  822MPD2    C112144   3.327   1.130  15.806 -0.4526 -0.4118 -0.6103
  822MPD2    C212145   3.281   1.244  15.866  0.3367  0.7407  0.2270
  822MPD2    C312146   3.262   1.363  15.801 -0.4970 -0.5876 -0.3507
  822MPD2    C412147   3.301   1.374  15.670  0.0701 -0.5886 -0.0365
  822MPD2    C512148   3.334   1.256  15.604  0.1528 -0.1399 -0.3512
  822MPD2     H12149   3.245   1.223  15.966  3.4109  2.9630  1.8248
  822MPD2    H112150   3.287   1.462  15.607  0.9728 -0.6517 -0.3311
  822MPD2    H212151   3.396   1.054  15.613  0.5986  0.2685 -1.2271
  822MPD2    H312152   3.356   1.255  15.498  0.0312 -0.9524 -0.3769
  822MPD2     N12153   3.214   1.473  15.873  1.2737  0.0842 -0.5219
  822MPD2    H512154   3.176   1.460  15.967  0.7422 -0.1359 -0.7674
  822MPD2    N112155   3.344   1.015  15.886 -0.7775  0.1815 -0.0227
  822MPD2    H712156   3.353   1.026  15.986  1.0424  0.1095 -0.1748
  823MPD2     C12157   3.046   1.802  16.638 -0.0133 -0.6819  0.7728
  823MPD2    C112158   3.009   1.726  16.526 -0.4615 -0.2902 -0.2034
  823MPD2    C212159   2.948   1.605  16.555  0.4044  0.1472 -0.1843
  823MPD2    C312160   2.935   1.560  16.687  0.0075 -0.1172 -0.1997
  823MPD2    C412161   2.960   1.649  16.788  0.2655  0.1497  0.4457
  823MPD2    C512162   3.020   1.769  16.768  0.6933 -0.3765 -0.5788
  823MPD2     H12163   2.918   1.545  16.470 -0.7588  2.0319 -1.1135
  823MPD2    H112164   2.946   1.621  16.892 -2.5032  1.4398  0.4305
  823MPD2    H212165   3.078   1.903  16.612 -0.6463 -0.6428  0.1513
  823MPD2    H312166   3.051   1.834  16.849  0.7901 -0.2491 -0.7178
  823MPD2     N12167   2.894   1.434  16.729  0.2695  0.9030 -0.7248
  823MPD2    H512168   2.873   1.421  16.827  1.8441 -1.1809 -0.6381
  823MPD2    N112169   3.059   1.763  16.398 -0.0375 -0.5107  0.1421
  823MPD2    H712170   3.126   1.839  16.402 -1.0550  0.3476  0.8866
  824MPD2     C12171   3.398   0.181  15.816  0.4995 -0.6266  0.0011
  824MPD2    C112172   3.482   0.286  15.768 -0.0963  0.3857 -0.5162
  824MPD2    C212173   3.539   0.281  15.646 -0.4317 -0.0999 -0.6185
  824MPD2    C312174   3.536   0.163  15.575 -0.3438 -0.2711  0.2276
  824MPD2    C412175   3.461   0.060  15.622  0.0730 -0.2650  0.0016
  824MPD2    C512176   3.401   0.066  15.746 -0.3699 -0.0124  0.2132
  824MPD2     H12177   3.593   0.364  15.602  0.6228 -1.9106 -2.7387
  824MPD2    H112178   3.449   4.705  15.563  0.6292 -0.9108  0.8793
  824MPD2    H212179   3.338   0.183  15.906  0.6694 -0.0423  0.1041
  824MPD2    H312180   3.333   4.718  15.758 -1.6766  0.7411 -1.8587
  824MPD2     N12181   3.605   0.148  15.452 -0.2754 -0.5277 -0.6399
  824MPD2    H512182   3.659   0.230  15.427 -0.9260 -0.2360 -1.0867
  824MPD2    N112183   3.498   0.407  15.836 -0.1450 -0.3624  0.0758
  824MPD2    H712184   3.540   0.486  15.787  0.1400  1.4164  3.1425
  825MPD2     C12185   4.244   0.476  15.233  0.5114  0.7340 -0.0012
  825MPD2    C112186   4.109   0.477  15.203  0.3238  0.1212  0.5922
  825MPD2    C212187   4.041   0.599  15.203  0.6664  0.5000  0.6964
  825MPD2    C312188   4.111   0.712  15.231 -0.3045 -0.2795  0.2993
  825MPD2    C412189   4.241   0.705  15.267 -0.2481  0.2375  0.1168
  825MPD2    C512190   4.307   0.584  15.270 -0.0281  0.0277 -0.8033
  825MPD2     H12191   3.933   0.596  15.195  0.8281  0.0497 -1.2916
  825MPD2    H112192   4.310   0.787  15.282  0.1976  0.0648 -0.9739
  825MPD2    H212193   4.308   0.390  15.219  1.3177  1.0375  1.8024
  825MPD2    H312194   4.410   0.584  15.302 -0.7028 -0.1882  1.4216
  825MPD2     N12195   4.050   0.836  15.235  0.3346  0.0237 -0.4104
  825MPD2    H512196   4.108   0.913  15.267 -0.5178  0.4304  0.1594
  825MPD2    N112197   4.062   0.346  15.193  0.4135 -0.1399 -0.2042
  825MPD2    H712198   4.122   0.265  15.186  0.5206  0.0357 -1.3868
  826MPD2     C12199   3.755   3.942  13.782 -0.6271 -0.3264 -0.1504
  826MPD2    C112200   3.726   4.057  13.711  0.4498 -0.2767 -0.3295
  826MPD2    C212201   3.601   4.117  13.731  0.2663  0.3521  0.7053
  826MPD2    C312202   3.516   4.079  13.836  0.0499  0.6703  0.7554
  826MPD2    C412203   3.547   3.968  13.909 -0.2451 -0.6555  0.0842
  826MPD2    C512204   3.657   3.898  13.870 -0.4246 -0.3904 -0.1814
  826MPD2     H12205   3.578   4.206  13.675 -0.2869  0.2264  0.7281
  826MPD2    H112206   3.490   3.958  14.001  0.3117 -0.6174  0.4311
  826MPD2    H212207   3.841   3.877  13.767  0.2922  0.7944  0.2727
  826MPD2    H312208   3.672   3.815  13.938 -0.1765 -0.8446 -0.7881
  826MPD2     N12209   3.399   4.152  13.871  0.5353 -1.0780 -0.3010
  826MPD2    H512210   3.357   4.124  13.959  0.9014 -0.9448 -0.0852
  826MPD2    N112211   3.827   4.098  13.621 -0.2370  0.3468  0.4682
  826MPD2    H712212   3.913   4.047  13.637  0.8716  1.6862 -1.3017
  827MPD2     C12213   4.222   1.818   9.973 -0.1138 -0.4019 -0.1006
  827MPD2    C112214   4.165   1.745  10.077  0.8989  0.0100 -0.5302
  827MPD2    C212215   4.040   1.689  10.057  0.3966 -0.2426 -0.5117
  827MPD2    C312216   3.981   1.695   9.928  0.3706  0.3897 -0.1225
  827MPD2    C412217   4.037   1.775   9.832  0.0317  0.1397 -0.2231
  827MPD2    C512218   4.155   1.835   9.859 -0.3128 -0.0637 -0.0205
  827MPD2     H12219   3.992   1.632  10.136  0.0556 -0.5854 -0.9666
  827MPD2    H112220   3.985   1.798   9.740  1.9538 -1.2061 -1.6276
  827MPD2    H212221   4.320   1.864   9.981  0.8204 -2.5153  0.7688
  827MPD2    H312222   4.197   1.903   9.786 -0.0095 -0.5324 -0.2810
  827MPD2     N12223   3.868   1.623   9.907 -0.2962  0.4049  0.3730
  827MPD2    H512224   3.829   1.572   9.986  1.8210 -1.5140  0.1717
  827MPD2    N112225   4.226   1.736  10.199  0.7810 -0.0559 -0.1282
  827MPD2    H712226   4.318   1.780  10.202  1.2614 -0.9612 -1.5849
  828MPD2     C12227   2.736   1.313  12.488 -0.1209  0.6501 -0.5883
  828MPD2    C112228   2.626   1.280  12.405  0.4716  0.8082 -0.2365
  828MPD2    C212229   2.651   1.266  12.268 -0.3611  0.5514 -0.1271
  828MPD2    C312230   2.774   1.285  12.208  0.4137 -0.2556  0.4483
  828MPD2    C412231   2.877   1.325  12.289  0.2928  0.6449  0.9037
  828MPD2    C512232   2.861   1.335  12.427 -0.2600  0.2517  0.0231
  828MPD2     H12233   2.567   1.229  12.211  0.3175 -0.7185 -0.3133
  828MPD2    H112234   2.979   1.339  12.256  0.0035 -0.1917 -0.3407
  828MPD2    H212235   2.726   1.332  12.594 -0.1239  3.3472 -1.0596
  828MPD2    H312236   2.949   1.360  12.485 -1.3352 -1.4286  2.3801
  828MPD2     N12237   2.812   1.254  12.077  0.5058 -0.6052  0.0463
  828MPD2    H512238   2.901   1.290  12.044 -0.3576  0.7519 -0.8077
  828MPD2    N112239   2.497   1.256  12.451  0.1113 -0.2291  0.7903
  828MPD2    H712240   2.433   1.231  12.376  0.7281 -0.3124  0.2973
  829MPD2     C12241   1.535   1.556  12.382 -0.4085  0.7401  0.5170
  829MPD2    C112242   1.631   1.499  12.300  0.7441 -0.0850 -0.4343
  829MPD2    C212243   1.754   1.456  12.355  0.1640 -1.1344 -0.2820
  829MPD2    C312244   1.789   1.472  12.484  0.9537 -0.4922 -0.5769
  829MPD2    C412245   1.694   1.525  12.560 -0.0035 -0.5967  0.0938
  829MPD2    C512246   1.563   1.560  12.515  0.0653  0.2614 -0.6537
  829MPD2     H12247   1.813   1.399  12.284 -0.2147 -0.5998 -1.0163
  829MPD2    H112248   1.704   1.538  12.667  1.4333 -3.3098  0.3016
  829MPD2    H212249   1.446   1.605  12.343  0.5499  1.8201 -0.3262
  829MPD2    H312250   1.499   1.601  12.592  0.3909 -0.9446  0.2582
  829MPD2     N12251   1.906   1.425  12.547  0.0983  0.1226 -0.0575
  829MPD2    H512252   1.908   1.441  12.647 -0.6545 -1.1961  0.1640
  829MPD2    N112253   1.597   1.485  12.165  0.2973  0.0888  0.6073
  829MPD2    H712254   1.509   1.523  12.130  0.8149  1.2683  0.5916
  830MPD2     C12255   3.103   3.878  15.968 -0.1771 -0.0196  0.4854
  830MPD2    C112256   3.003   3.961  15.945 -0.3183 -0.7603 -0.2974
  830MPD2    C212257   2.992   4.023  15.819 -0.1380  0.4602 -0.2914
  830MPD2    C312258   3.094   4.006  15.723  0.7194  0.6749 -0.3194
  830MPD2    C412259   3.203   3.932  15.759  0.2683 -0.3491 -0.2321
  830MPD2    C512260   3.210   3.869  15.882 -0.5937  0.0329  0.3595
  830MPD2     H12261   2.905   4.088  15.808 -0.7276  0.0360  1.7830
  830MPD2    H112262   3.289   3.912  15.697  1.4748 -0.7686  1.5918
  830MPD2    H212263   3.105   3.832  16.066  0.3690  1.4835  1.1669
  830MPD2    H312264   3.299   3.820  15.919  1.1508  2.7100 -0.3160
  830MPD2     N12265   3.089   4.073  15.600 -0.2177  0.2136  0.1147
  830MPD2    H512266   3.167   4.069  15.536 -0.7109 -0.6700 -0.4345
  830MPD2    N112267   2.901   3.978  16.047  0.3805  0.3335 -0.2454
  830MPD2    H712268   2.880   3.893  16.099  1.2243  1.4622  1.8972
  831MPD2     C12269   3.427   1.556  16.309 -0.2081  0.3990  0.6217
  831MPD2    C112270   3.392   1.490  16.189  0.0974 -1.0551  0.6617
  831MPD2    C212271   3.279   1.407  16.184 -0.3196  0.0468  0.0051
  831MPD2    C312272   3.193   1.397  16.290  0.3480  0.2846 -0.2301
  831MPD2    C412273   3.228   1.468  16.404  0.2774  0.3013  0.2739
  831MPD2    C512274   3.345   1.539  16.416  0.3264  0.3487  0.1481
  831MPD2     H12275   3.277   1.343  16.096 -0.6464 -1.1624  0.8973
  831MPD2    H112276   3.171   1.451  16.495 -1.2993  1.3797 -0.5081
  831MPD2    H212277   3.514   1.619  16.316  0.5701 -0.5318 -0.6685
  831MPD2    H312278   3.369   1.596  16.504  0.7902 -2.4937  1.8739
  831MPD2     N12279   3.064   1.329  16.281 -0.0207 -0.3694 -0.0279
  831MPD2    H512280   3.017   1.300  16.366  1.9949  0.7958  1.4842
  831MPD2    N112281   3.465   1.494  16.063  0.5300  0.1163 -0.5427
  831MPD2    H712282   3.456   1.410  16.005 -1.3682 -1.9835  2.7939
  832MPD2     C12283   1.773   1.826  17.182  0.7055 -0.5692 -0.4443
  832MPD2    C112284   1.755   1.936  17.100 -0.4591 -0.7451 -0.0240
  832MPD2    C212285   1.649   1.936  17.013  0.3372  0.5826 -0.4170
  832MPD2    C312286   1.571   1.820  17.001 -0.3485  0.0690 -0.5815
  832MPD2    C412287   1.599   1.710  17.081 -0.4336 -0.5398  0.4975
  832MPD2    C512288   1.700   1.712  17.167 -0.5721  0.5229 -0.3755
  832MPD2     H12289   1.646   2.024  16.951 -0.8796  0.5287 -0.4470
  832MPD2    H112290   1.540   1.620  17.068 -2.1766  0.7926 -0.6135
  832MPD2    H212291   1.850   1.838  17.258 -0.2793 -0.6604  0.5663
  832MPD2    H312292   1.724   1.623  17.225  0.3947  2.5787  2.3871
  832MPD2     N12293   1.456   1.814  16.921 -0.8654 -0.6447  0.4996
  832MPD2    H512294   1.409   1.724  16.916  0.3395 -1.2607  0.4196
  832MPD2    N112295   1.850   2.043  17.096  0.1150  0.1268 -0.2412
  832MPD2    H712296   1.902   2.053  17.183  0.3294 -1.9512 -0.1241
  833MPD2     C12297   3.423   3.408  12.666  0.4307 -0.0243  0.3206
  833MPD2    C112298   3.404   3.538  12.643 -0.2104  0.4659 -0.7892
  833MPD2    C212299   3.472   3.606  12.542 -0.5498 -0.5389 -0.6182
  833MPD2    C312300   3.552   3.536  12.455 -0.2102 -0.1968  0.1689
  833MPD2    C412301   3.562   3.396  12.469 -0.1463  0.5830  0.4514
  833MPD2    C512302   3.493   3.336  12.568  0.4728  0.0424  0.1541
  833MPD2     H12303   3.466   3.714  12.537  1.1678 -0.3949  0.2704
  833MPD2    H112304   3.623   3.342  12.398 -3.7999 -2.3733 -0.4401
  833MPD2    H212305   3.376   3.367  12.755  1.3152 -0.7571  0.4495
  833MPD2    H312306   3.504   3.228  12.570  2.9460  0.2440 -1.9381
  833MPD2     N12307   3.628   3.597  12.350  0.3946 -0.0736 -0.0485
  833MPD2    H512308   3.685   3.535  12.294  1.7216  0.5711  0.5885
  833MPD2    N112309   3.319   3.620  12.715 -0.2254 -0.2803 -0.0268
  833MPD2    H712310   3.330   3.721  12.711  0.1968 -0.3176  0.1217
  834MPD2     C12311   3.850   3.255  11.567  0.8899 -0.4753  0.1360
  834MPD2    C112312   3.737   3.230  11.644  0.2781 -0.5114 -0.4245
  834MPD2    C212313   3.714   3.310  11.750  0.3883  1.1493 -0.1403
  834MPD2    C312314   3.782   3.425  11.769  0.4920  0.1573  0.1307
  834MPD2    C412315   3.897   3.450  11.695  0.1038  0.2609 -0.4931
  834MPD2    C512316   3.928   3.365  11.594 -0.1965 -0.2869 -0.0015
  834MPD2     H12317   3.629   3.288  11.815 -0.4996 -0.1329 -1.7121
  834MPD2    H112318   3.962   3.536  11.703  1.9162 -1.0393 -1.4199
  834MPD2    H212319   3.882   3.198  11.481  0.6766  0.9912 -0.9047
  834MPD2    H312320   4.015   3.372  11.530 -0.8259 -0.2167 -0.8457
  834MPD2     N12321   3.738   3.511  11.871  0.9614  0.3329  0.3485
  834MPD2    H512322   3.660   3.491  11.933  1.5670 -1.1768  0.6187
  834MPD2    N112323   3.658   3.121  11.615  0.1966  0.3117  0.2206
  834MPD2    H712324   3.679   3.065  11.533  0.4925  0.4571  0.1949
  835MPD2     C12325   3.196   1.180  10.794 -0.4763  0.1804 -0.1997
  835MPD2    C112326   3.127   1.282  10.860 -0.3359  0.2754 -0.1630
  835MPD2    C212327   3.174   1.319  10.984 -0.2116  0.2430 -0.4581
  835MPD2    C312328   3.296   1.265  11.035 -0.0729  0.5497 -0.8203
  835MPD2    C412329   3.356   1.158  10.965  0.1170 -0.5180 -0.8399
  835MPD2    C512330   3.306   1.118  10.847  0.5422  0.1988  1.0187
  835MPD2     H12331   3.110   1.396  11.025  0.1547 -0.1660  0.8711
  835MPD2    H112332   3.456   1.120  10.986 -0.5464 -1.2004  1.0200
  835MPD2    H212333   3.156   1.142  10.700  0.1368  0.8349 -0.7232
  835MPD2    H312334   3.353   1.040  10.788  2.1566  1.4661  0.6423
  835MPD2     N12335   3.350   1.304  11.156 -0.2617 -0.2709 -0.1817
  835MPD2    H512336   3.413   1.246  11.210  0.6154  0.6907 -0.1683
  835MPD2    N112337   3.005   1.340  10.813 -0.2730  0.1372  0.1497
  835MPD2    H712338   2.961   1.414  10.866 -0.4407 -1.1853  1.8572
  836MPD2     C12339   2.826   1.484  11.592  0.3502  0.5060 -0.0417
  836MPD2    C112340   2.930   1.512  11.672  0.6467  0.5235  0.5972
  836MPD2    C212341   2.900   1.551  11.804 -0.5037  0.0484  0.7286
  836MPD2    C312342   2.771   1.580  11.857 -0.1156 -1.0042  1.1766
  836MPD2    C412343   2.667   1.558  11.770  0.1820  0.2524 -0.2671
  836MPD2    C512344   2.699   1.510  11.646  0.1158 -0.2240 -0.3558
  836MPD2     H12345   2.990   1.575  11.859  0.8276 -0.0589 -1.4081
  836MPD2    H112346   2.568   1.599  11.788  0.5835  1.1966 -0.2427
  836MPD2    H212347   2.839   1.446  11.491  1.0130  3.8584 -1.2455
  836MPD2    H312348   2.615   1.488  11.581 -1.2840  0.8735  1.1043
  836MPD2     N12349   2.745   1.651  11.976 -0.3777  0.5774  0.5582
  836MPD2    H512350   2.649   1.676  11.997 -0.6224 -0.8209  1.0839
  836MPD2    N112351   3.054   1.487  11.616 -0.4352 -0.1763 -0.0617
  836MPD2    H712352   3.058   1.466  11.516 -1.8818  0.1328 -0.1933
  837MPD2     C12353   1.308   0.368  10.173  0.0853  0.5941 -0.7017
  837MPD2    C112354   1.175   0.359  10.137 -0.1289 -0.1994  0.6874
  837MPD2    C212355   1.095   0.474  10.145 -0.0847 -0.1516 -0.3599
  837MPD2    C312356   1.144   0.586  10.203  0.3858  0.2335 -0.3568
  837MPD2    C412357   1.275   0.590  10.250  0.1216  0.0748  0.5637
  837MPD2    C512358   1.358   0.484  10.230  0.1629 -0.0888 -0.2053
  837MPD2     H12359   0.991   0.468  10.115 -0.0835 -1.6126 -0.0924
  837MPD2    H112360   1.325   0.682  10.279  1.4749 -0.7488  0.8502
  837MPD2    H212361   1.375   0.283  10.173 -0.8298 -0.1279  0.1422
  837MPD2    H312362   1.462   0.487  10.260  0.5798  1.2355 -1.7130
  837MPD2     N12363   1.061   0.693  10.209 -0.0788  0.0947  0.3128
  837MPD2    H512364   0.962   0.683  10.188 -0.2949  3.0016 -0.0753
  837MPD2    N112365   1.105   0.251  10.080 -0.9905 -0.1527 -0.0176
  837MPD2    H712366   1.010   0.269  10.051 -0.7163  0.3092 -0.6126
  838MPD2     C12367   4.701   4.339  11.671  0.6591 -0.1375  0.1772
  838MPD2    C112368   4.584   4.271  11.624 -0.6302  0.1482 -0.4616
  838MPD2    C212369   4.482   4.228  11.712  0.1251  0.4340  0.7436
  838MPD2    C312370   4.509   4.238  11.847 -0.2374 -0.3378 -0.2825
  838MPD2    C412371   4.629   4.290  11.891 -0.0511  0.2882  0.1080
  838MPD2    C512372   4.722   4.341  11.804  1.1510 -0.1841 -0.6030
  838MPD2     H12373   4.383   4.204  11.677  1.3835 -2.4449 -0.8160
  838MPD2    H112374   4.653   4.295  11.997 -1.1034  1.9346  0.2728
  838MPD2    H212375   0.042   4.384  11.607  0.4603  0.3584  0.2924
  838MPD2    H312376   0.079   4.380  11.847  0.3771  1.0439 -0.0607
  838MPD2     N12377   4.406   4.199  11.938  0.5112  0.1823  0.1459
  838MPD2    H512378   4.310   4.201  11.906  0.2154 -0.3337  0.9985
  838MPD2    N112379   4.553   4.249  11.486 -0.3152 -0.8409 -0.2672
  838MPD2    H712380   4.489   4.172  11.468 -1.5208 -0.0596  0.6557
  839MPD2     C12381   4.408   3.440  11.402 -0.4367  0.1442  0.9044
  839MPD2    C112382   4.366   3.487  11.278  0.2289 -0.7251  0.1588
  839MPD2    C212383   4.402   3.613  11.234  0.1962 -1.2706  0.3727
  839MPD2    C312384   4.469   3.698  11.316 -0.5470  0.2015  0.2601
  839MPD2    C412385   4.513   3.652  11.441  0.5776 -0.2067 -0.2865
  839MPD2    C512386   4.481   3.525  11.482 -0.2736  0.2298 -0.2540
  839MPD2     H12387   4.357   3.656  11.145 -1.0825 -1.7936  0.7563
  839MPD2    H112388   4.567   3.711  11.514 -1.1630 -0.4673  1.2163
  839MPD2    H212389   4.390   3.338  11.434 -0.2496 -0.3216 -0.4644
  839MPD2    H312390   4.505   3.493  11.582  0.2185  0.8133 -0.1809
  839MPD2     N12391   4.510   3.823  11.272  0.8440  0.0521 -1.0921
  839MPD2    H512392   4.559   3.881  11.339 -0.7247 -1.8885  1.7448
  839MPD2    N112393   4.271   3.415  11.197  0.3472 -0.5730 -1.1608
  839MPD2    H712394   4.244   3.446  11.104  3.4993 -1.3312 -2.3277
  840MPD2     C12395   0.103   1.957  10.277  0.0184 -0.2110 -0.4571
  840MPD2    C112396   0.084   1.871  10.386 -0.1553  0.5935  0.3465
  840MPD2    C212397   0.187   1.851  10.476  1.3432  0.0397 -0.8673
  840MPD2    C312398   0.312   1.902  10.450  0.0760 -0.5104  0.1160
  840MPD2    C412399   0.332   1.986  10.343  0.0454 -0.7239  0.4328
  840MPD2    C512400   0.226   2.010  10.254 -0.7741  0.1249 -0.5827
  840MPD2     H12401   0.164   1.785  10.559 -0.7543  1.5170 -0.2733
  840MPD2    H112402   0.427   2.035  10.324  0.2686 -1.9505 -1.7454
  840MPD2    H212403   0.023   1.979  10.207  2.1652  0.2952 -2.7307
  840MPD2    H312404   0.247   2.071  10.166  3.4264  0.0809  0.3609
  840MPD2     N12405   0.420   1.897  10.541  0.1392  0.5796  0.2513
  840MPD2    H512406   0.506   1.948  10.526 -0.1978  0.7256 -1.2162
  840MPD2    N112407   4.689   1.811  10.397  0.5147  0.3719  0.2333
  840MPD2    H712408   4.625   1.831  10.320  0.3444 -0.6041  0.1245
  841MPD2     C12409   4.331   2.055  14.980 -0.0810 -0.6097 -0.6830
  841MPD2    C112410   4.356   1.925  14.933  0.3514 -1.0661 -0.3902
  841MPD2    C212411   4.454   1.920  14.836 -0.2059  0.3634 -0.2708
  841MPD2    C312412   4.533   2.032  14.796  0.4183 -0.5944 -0.4775
  841MPD2    C412413   4.507   2.157  14.850  0.5121 -0.2564 -0.5361
  841MPD2    C512414   4.406   2.162  14.946 -0.1303 -0.1148 -0.0090
  841MPD2     H12415   4.476   1.822  14.795  1.5405  0.3460  0.7347
  841MPD2    H112416   4.566   2.245  14.828  1.9330 -0.7081  1.3378
  841MPD2    H212417   4.254   2.071  15.055 -2.1565 -1.7864 -2.5759
  841MPD2    H312418   4.389   2.258  14.993  0.5681 -0.9935  2.0158
  841MPD2     N12419   4.623   2.013  14.694 -0.6050 -0.8478  0.2931
  841MPD2    H512420   4.608   1.923  14.650 -0.3275  0.2853 -2.0815
  841MPD2    N112421   4.292   1.812  14.977  0.2820 -1.1584  0.6194
  841MPD2    H712422   4.304   1.728  14.922  1.4680 -0.5863  0.0061
  842MPD2     C12423   0.698   2.249  17.213 -0.5862 -0.2970 -0.0062
  842MPD2    C112424   0.556   2.235  17.202 -0.5853  0.6808 -0.3102
  842MPD2    C212425   0.480   2.331  17.270 -0.7867 -0.0593 -0.1894
  842MPD2    C312426   0.549   2.441  17.334 -0.3924  0.1825 -0.0952
  842MPD2    C412427   0.688   2.440  17.346 -0.7557  0.6163  0.4324
  842MPD2    C512428   0.760   2.337  17.290  0.2889 -0.1817  0.9912
  842MPD2     H12429   0.372   2.325  17.263 -0.5991 -1.8986 -1.5948
  842MPD2    H112430   0.751   2.513  17.395 -1.7062 -0.4099  3.1865
  842MPD2    H212431   0.760   2.171  17.170 -0.5226 -0.9323  1.2355
  842MPD2    H312432   0.865   2.333  17.319  0.8599  2.1465 -0.7667
  842MPD2     N12433   0.487   2.553  17.391 -0.0411  0.2584 -0.3463
  842MPD2    H512434   0.547   2.630  17.418  3.0315 -1.6229 -1.8664
  842MPD2    N112435   0.499   2.138  17.112 -0.2813  0.6802  0.1229
  842MPD2    H712436   0.563   2.079  17.060 -0.2051  2.3892 -1.7385
  843MPD2     C12437   2.566   2.739   0.367  0.6281 -0.3601  0.1076
  843MPD2    C112438   2.606   2.758   0.236 -0.0489  0.3331 -0.2305
  843MPD2    C212439   2.708   2.844   0.209  0.6963  0.2478  0.3299
  843MPD2    C312440   2.779   2.897   0.315 -0.5225  0.0583 -0.0723
  843MPD2    C412441   2.737   2.889   0.445 -0.1149  0.2633 -0.3601
  843MPD2    C512442   2.619   2.818   0.465 -0.6199  0.2667  0.0460
  843MPD2     H12443   2.750   2.860   0.111  1.0004  1.4637  0.6596
  843MPD2    H112444   2.791   2.927   0.531  0.5361 -0.1391 -0.5879
  843MPD2    H212445   2.482   2.678   0.398 -0.4193 -0.6226 -3.3378
  843MPD2    H312446   2.583   2.801   0.566 -0.1987 -0.3840  0.0873
  843MPD2     N12447   2.887   2.986   0.289  0.4443  0.2028 -0.0117
  843MPD2    H512448   2.903   3.010   0.192  3.3327  2.4529  1.0373
  843MPD2    N112449   2.548   2.668   0.137 -0.7922  0.7294 -0.3281
  843MPD2    H712450   2.478   2.603   0.171  0.6994 -1.1164 -0.7139
  844MPD2     C12451   1.045   1.335  16.516 -0.1173 -0.7068  0.1607
  844MPD2    C112452   1.106   1.379  16.404  0.2728  0.1022  0.2045
  844MPD2    C212453   1.220   1.459  16.421  0.1031  0.5811 -0.1232
  844MPD2    C312454   1.276   1.476  16.546 -0.4778 -0.2010  0.0369
  844MPD2    C412455   1.213   1.419  16.655  0.6232  0.2330  0.7122
  844MPD2    C512456   1.096   1.356  16.638  0.2033  0.1012  0.1474
  844MPD2     H12457   1.263   1.496  16.328  2.4744  0.6950  1.0179
  844MPD2    H112458   1.255   1.436  16.754  0.9053 -1.5434  0.8832
  844MPD2    H212459   0.950   1.284  16.513 -2.0939  2.8046  2.9284
  844MPD2    H312460   1.040   1.319  16.723 -2.4132  0.4676 -1.4409
  844MPD2     N12461   1.394   1.555  16.550  0.1253 -0.0093 -0.1324
  844MPD2    H512462   1.422   1.600  16.463 -1.1245  1.5490  0.2721
  844MPD2    N112463   1.047   1.364  16.279  0.0401 -0.1458  0.6228
  844MPD2    H712464   1.115   1.389  16.206  0.7702 -0.0678  1.3283
  845MPD2     C12465   1.512   2.530  16.725 -0.0944 -0.3634 -0.0004
  845MPD2    C112466   1.594   2.463  16.816 -0.1369 -0.5140  0.0672
  845MPD2    C212467   1.625   2.330  16.799  0.0557  0.5763  0.4196
  845MPD2    C312468   1.575   2.258  16.700  0.7454  0.1343  0.2863
  845MPD2    C412469   1.481   2.319  16.613  0.0973 -0.8055  0.0084
  845MPD2    C512470   1.449   2.452  16.632  0.3036 -0.1152 -0.1951
  845MPD2     H12471   1.704   2.285  16.859 -0.7832 -0.8818  0.4280
  845MPD2    H112472   1.430   2.266  16.533 -1.7923 -0.3159  0.8843
  845MPD2    H212473   1.487   2.636  16.726  0.5210 -0.2256  1.5517
  845MPD2    H312474   1.387   2.496  16.555  2.0714 -0.0662 -1.5959
  845MPD2     N12475   1.628   2.124  16.693  0.3065 -0.5566  0.1283
  845MPD2    H512476   1.703   2.086  16.751 -1.1481 -1.5238  1.3762
  845MPD2    N112477   1.645   2.536  16.926  0.2989  0.5563  0.4472
  845MPD2    H712478   1.644   2.637  16.915  0.1039  0.7476  2.1477
  846MPD2     C12479   2.765   2.993  13.666 -0.5687 -0.0315  0.1932
  846MPD2    C112480   2.654   3.055  13.725 -0.3166 -0.0642  0.6228
  846MPD2    C212481   2.644   3.058  13.861  0.1469  0.8839  0.0460
  846MPD2    C312482   2.740   3.001  13.940 -0.2834 -0.1369 -0.0216
  846MPD2    C412483   2.841   2.933  13.880  0.6587 -0.1891  0.3019
  846MPD2    C512484   2.855   2.930  13.742  0.3586 -0.1469 -0.7354
  846MPD2     H12485   2.565   3.116  13.908 -0.7956  0.7978 -1.3910
  846MPD2    H112486   2.919   2.889  13.942  0.2534 -0.9433  0.2764
  846MPD2    H212487   2.781   2.991  13.559  0.2250 -1.9402  0.3500
  846MPD2    H312488   2.942   2.883  13.699  0.5835 -1.9132  1.6510
  846MPD2     N12489   2.716   3.004  14.078  0.1799 -0.3224 -0.4645
  846MPD2    H512490   2.620   3.019  14.107  0.0233  2.0597 -2.1166
  846MPD2    N112491   2.569   3.131  13.647 -0.0969  0.5822  0.2264
  846MPD2    H712492   2.510   3.204  13.686  0.3390  1.4766 -0.8053
  847MPD2     C12493   2.864   4.212  14.777 -0.6627  1.2703  0.7162
  847MPD2    C112494   2.939   4.332  14.804 -0.8510 -0.0794  1.0730
  847MPD2    C212495   3.061   4.316  14.864 -0.2441 -0.0927  1.0880
  847MPD2    C312496   3.116   4.199  14.902 -0.4588 -1.0734  0.1872
  847MPD2    C412497   3.036   4.092  14.889  0.3754  0.2339  0.1860
  847MPD2    C512498   2.911   4.101  14.830  0.3677 -0.5753 -0.5041
  847MPD2     H12499   3.125   4.403  14.874 -0.9349  0.4088  1.0900
  847MPD2    H112500   3.068   3.992  14.915  0.2796 -0.1759 -1.2322
  847MPD2    H212501   2.764   4.214  14.735  0.8229  0.9917 -2.8738
  847MPD2    H312502   2.853   4.010  14.818  0.0183 -0.5384  0.7966
  847MPD2     N12503   3.249   4.207  14.961 -0.1425  0.0506  0.4519
  847MPD2    H512504   3.280   4.304  14.966  1.4709 -0.6028  2.8266
  847MPD2    N112505   2.910   4.463  14.770 -0.2444 -0.0277  0.3874
  847MPD2    H712506   2.976   4.539  14.787 -0.7603  0.2618  1.1040
  848MPD2     C12507   1.084   2.325  16.388 -0.4602  0.1112 -0.3703
  848MPD2    C112508   1.083   2.332  16.525 -0.1451  0.0712  1.0320
  848MPD2    C212509   1.078   2.456  16.588  0.3598  0.0048 -0.0564
  848MPD2    C312510   1.058   2.567  16.504  0.1766 -0.5052  0.3905
  848MPD2    C412511   1.067   2.557  16.370 -0.0464  0.2372 -0.0658
  848MPD2    C512512   1.086   2.437  16.305 -0.3614  0.0270 -0.2051
  848MPD2     H12513   1.070   2.461  16.696 -0.2915  1.5887 -0.1778
  848MPD2    H112514   1.048   2.651  16.318  0.5264  2.3742  3.6027
  848MPD2    H212515   1.086   2.228  16.339 -1.5791 -0.1036  0.0152
  848MPD2    H312516   1.099   2.424  16.198  1.9714 -2.0285  0.3049
  848MPD2     N12517   1.010   2.692  16.564 -0.3850 -0.3896  0.5149
  848MPD2    H512518   0.972   2.766  16.507  0.6363 -2.3798 -2.7245
  848MPD2    N112519   1.079   2.216  16.609  0.3890  0.0991 -0.2980
  848MPD2    H712520   1.077   2.236  16.709  0.1323  2.0539 -0.6820
  849MPD2     C12521   4.722   2.521  14.267  0.0009  0.5375 -0.0922
  849MPD2    C112522   0.087   2.590  14.201 -0.7805  0.4869 -0.5678
  849MPD2    C212523   0.202   2.627  14.278  0.1660 -0.7434 -1.0002
  849MPD2    C312524   0.210   2.588  14.407 -0.7325  0.6646  0.2664
  849MPD2    C412525   0.108   2.512  14.471 -0.1238  0.3339  0.3238
  849MPD2    C512526   0.001   2.476  14.391  0.4631 -0.3586  0.0888
  849MPD2     H12527   0.293   2.672  14.239  1.0547 -0.9389  0.8442
  849MPD2    H112528   0.117   2.486  14.576 -0.4128 -1.2458 -0.0493
  849MPD2    H212529   4.631   2.492  14.217  0.6786  2.4364 -2.3860
  849MPD2    H312530   4.656   2.416  14.434  2.4511 -0.8160  3.1235
  849MPD2     N12531   0.317   2.618  14.487 -0.5106 -0.1113 -0.0916
  849MPD2    H512532   0.330   2.578  14.579  0.5605 -2.3508 -1.2088
  849MPD2    N112533   0.071   2.623  14.063 -0.6032  0.4729  0.3273
  849MPD2    H712534   4.718   2.589  14.026  0.4813 -1.7338 -0.2393
  850MPD2     C12535   2.842   0.550  14.600  0.2801 -0.3494  0.4171
  850MPD2    C112536   2.801   0.577  14.730  0.4299  0.2735  0.4615
  850MPD2    C212537   2.901   0.623  14.820  0.2393  0.4174  0.2187
  850MPD2    C312538   3.033   0.640  14.777 -0.0639  0.4809  0.1604
  850MPD2    C412539   3.072   0.611  14.648 -0.3139  0.6889  0.5735
  850MPD2    C512540   2.970   0.568  14.559 -0.2689 -0.0303  0.1901
  850MPD2     H12541   2.875   0.664  14.917 -0.5694  0.0846  0.1373
  850MPD2    H112542   3.173   0.623  14.612 -0.2495  0.0170  0.5336
  850MPD2    H212543   2.784   0.504  14.521 -1.0815  2.0468  0.0120
  850MPD2    H312544   2.994   0.554  14.455 -1.3166  2.0605 -0.3397
  850MPD2     N12545   3.138   0.679  14.862  0.0211  0.1445 -0.6727
  850MPD2    H512546   3.231   0.674  14.821  2.1580  1.3004  3.9567
  850MPD2    N112547   2.659   0.574  14.751 -0.3520 -0.4225 -0.0509
  850MPD2    H712548   2.611   0.569  14.661  0.8558  0.5145 -0.7463
  851MPD2     C12549   3.004   0.292  15.510  0.5984  1.0721 -0.1037
  851MPD2    C112550   2.936   0.243  15.400 -0.1916 -0.1960 -0.1127
  851MPD2    C212551   2.954   0.115  15.355 -0.2139 -0.4301  0.2660
  851MPD2    C312552   3.053   0.031  15.417  0.2026 -0.2702 -0.0832
  851MPD2    C412553   3.133   0.082  15.518 -0.2163  0.1494  0.5421
  851MPD2    C512554   3.097   0.206  15.564  0.1705 -0.2616  0.1105
  851MPD2     H12555   2.901   0.080  15.267  0.5500  0.1792 -0.4336
  851MPD2    H112556   3.210   0.031  15.575 -0.1277 -1.1973 -0.7789
  851MPD2    H212557   2.979   0.382  15.565  1.7533  1.6918 -0.5884
  851MPD2    H312558   3.147   0.245  15.653  0.0279  0.8194 -0.2775
  851MPD2     N12559   3.068   4.634  15.379  0.2583  0.0492 -0.7397
  851MPD2    H512560   2.998   4.595  15.316 -0.7851 -0.5673  0.7986
  851MPD2    N112561   2.836   0.328  15.338  0.0226  0.1429 -0.3047
  851MPD2    H712562   2.816   0.421  15.374  1.1576 -1.0371  3.4179
  852MPD2     C12563   2.092   2.601  10.453  0.0375 -0.3820 -0.9255
  852MPD2    C112564   2.176   2.654  10.539 -0.0990  0.2629 -0.3734
  852MPD2    C212565   2.250   2.760  10.496  0.2909 -0.2148  0.7112
  852MPD2    C312566   2.241   2.824  10.372  0.0554  0.1023 -0.0978
  852MPD2    C412567   2.155   2.765  10.280 -0.2620 -0.6046 -0.4215
  852MPD2    C512568   2.081   2.652  10.321  1.2051 -0.2841 -0.5195
  852MPD2     H12569   2.305   2.813  10.574 -0.7098  1.7010  0.1186
  852MPD2    H112570   2.146   2.800  10.178 -1.5592 -1.2311 -0.5217
  852MPD2    H212571   2.023   2.523  10.485 -0.5426 -0.6498 -2.8118
  852MPD2    H312572   2.028   2.593  10.247  2.0433 -1.2968 -0.3093
  852MPD2     N12573   2.336   2.923  10.335 -0.0598  0.3718 -0.0772
  852MPD2    H512574   2.414   2.948  10.394 -0.2207  1.4415 -0.3075
  852MPD2    N112575   2.200   2.603  10.670 -0.0510  0.3013 -0.2541
  852MPD2    H712576   2.271   2.648  10.728  1.7541 -0.9148 -1.4982
  853MPD2     C12577   3.647   2.713  12.265  0.2534  0.4580 -0.2789
  853MPD2    C112578   3.781   2.694  12.236  0.4034  0.0550 -0.0187
  853MPD2    C212579   3.811   2.665  12.105  0.1844 -0.6110 -0.6598
  853MPD2    C312580   3.713   2.652  12.004  0.3173  0.2752  0.3321
  853MPD2    C412581   3.583   2.674  12.041  0.1380 -0.4455  0.3033
  853MPD2    C512582   3.548   2.695  12.169  0.3527 -0.2992 -0.3824
  853MPD2     H12583   3.913   2.636  12.082  0.2979 -2.0280  1.6499
  853MPD2    H112584   3.500   2.666  11.971 -0.8606 -0.0825  1.4387
  853MPD2    H212585   3.622   2.731  12.369 -3.7141 -0.4705 -1.1007
  853MPD2    H312586   3.446   2.692  12.204  0.2510  0.0921 -0.6377
  853MPD2     N12587   3.726   2.619  11.871  0.2228  0.1131 -0.0574
  853MPD2    H512588   3.650   2.585  11.812 -2.1043  0.6401  2.6284
  853MPD2    N112589   3.878   2.695  12.338  0.1505  0.8308 -0.3303
  853MPD2    H712590   3.839   2.685  12.431  0.5814 -1.3006 -0.3937
  854MPD2     C12591   0.696   2.941  12.597  0.4935  0.1387 -0.1336
  854MPD2    C112592   0.681   2.825  12.527 -0.9403  0.0259  0.0887
  854MPD2    C212593   0.734   2.712  12.587 -0.6493 -0.5397 -0.3404
  854MPD2    C312594   0.792   2.716  12.715  0.1138 -0.9562 -0.2366
  854MPD2    C412595   0.804   2.831  12.775  0.0006 -0.4784  0.0046
  854MPD2    C512596   0.761   2.946  12.713  0.2929  0.9623  0.0918
  854MPD2     H12597   0.735   2.618  12.533  1.6852 -1.1723  0.7959
  854MPD2    H112598   0.848   2.840  12.874 -1.6994  1.6862  0.5767
  854MPD2    H212599   0.665   3.035  12.555 -1.8197 -1.1088 -1.1941
  854MPD2    H312600   0.763   3.041  12.766 -1.5442  0.4776  1.0353
  854MPD2     N12601   0.858   2.602  12.778  0.2690  0.1126 -0.3070
  854MPD2    H512602   0.922   2.623  12.853 -1.7650  0.6214  1.2777
  854MPD2    N112603   0.623   2.827  12.400 -0.2643  0.1733 -0.1873
  854MPD2    H712604   0.586   2.918  12.373  0.8898  0.8816  0.6244
  855MPD2     C12605   1.476   2.590  13.367 -0.0453 -0.3507  0.3570
  855MPD2    C112606   1.474   2.457  13.349  0.1413 -0.2699 -0.3744
  855MPD2    C212607   1.372   2.408  13.266  0.3765  0.5356  0.1862
  855MPD2    C312608   1.291   2.487  13.187  0.0583  0.0954  0.0817
  855MPD2    C412609   1.315   2.622  13.192 -0.6074 -0.1695 -0.6535
  855MPD2    C512610   1.400   2.671  13.296 -0.1048 -0.5664  0.1102
  855MPD2     H12611   1.362   2.301  13.254  2.7318  0.0773  2.3782
  855MPD2    H112612   1.262   2.687  13.123  1.3796  0.7823 -1.2922
  855MPD2    H212613   1.550   2.636  13.432 -0.5831  0.7461  0.1804
  855MPD2    H312614   1.400   2.778  13.310 -0.3821 -0.4438 -0.8460
  855MPD2     N12615   1.196   2.442  13.088  0.0766  0.5418 -0.0660
  855MPD2    H512616   1.169   2.508  13.017 -1.5681 -0.5979 -0.5074
  855MPD2    N112617   1.559   2.375  13.417  0.3060  0.3964 -0.8401
  855MPD2    H712618   1.543   2.276  13.408  0.4852  0.5102 -2.4112
  856MPD2     C12619   4.042   3.258  13.798 -0.5008 -0.5587 -0.4980
  856MPD2    C112620   4.012   3.378  13.859 -0.0757  0.0015  0.5772
  856MPD2    C212621   3.883   3.434  13.847  0.0212  0.0980 -0.3694
  856MPD2    C312622   3.788   3.371  13.770  0.4082  0.1758  0.4145
  856MPD2    C412623   3.826   3.258  13.704 -0.7568 -0.2483 -0.1289
  856MPD2    C512624   3.950   3.203  13.714  0.1197 -0.2771  0.6786
  856MPD2     H12625   3.864   3.529  13.897  1.9312 -0.9306  2.3477
  856MPD2    H112626   3.754   3.218  13.634 -0.4501  2.2001 -1.8933
  856MPD2    H212627   4.133   3.201  13.814 -0.6344 -0.6281 -0.0054
  856MPD2    H312628   3.966   3.112  13.657  1.2424  0.4409 -0.1516
  856MPD2     N12629   3.657   3.424  13.759  0.2175  0.2569  0.6068
  856MPD2    H512630   3.595   3.391  13.685  1.6489 -1.0860  0.0081
  856MPD2    N112631   4.099   3.444  13.945  0.0659  0.0360  0.0140
  856MPD2    H712632   4.071   3.535  13.980 -0.6275 -0.9473  2.0347
  857MPD2     C12633   0.601   0.883  12.661  0.6007 -0.4389  0.6509
  857MPD2    C112634   0.680   0.864  12.770 -0.2680 -0.3048  0.3324
  857MPD2    C212635   0.733   0.972  12.837  0.4448  0.5469  0.0840
  857MPD2    C312636   0.699   1.102  12.793  0.9731 -0.2603  0.1327
  857MPD2    C412637   0.624   1.116  12.679  0.0159 -0.5745  0.2150
  857MPD2    C512638   0.566   1.007  12.623  0.8622  0.1852 -0.7158
  857MPD2     H12639   0.813   0.966  12.910  0.9554 -1.4611 -0.6309
  857MPD2    H112640   0.593   1.212  12.640  1.5293 -0.1832 -0.0462
  857MPD2    H212641   0.567   0.796  12.606 -0.8304 -0.2040  1.1479
  857MPD2    H312642   0.495   1.015  12.541 -1.0459 -0.1736  0.9006
  857MPD2     N12643   0.752   1.208  12.865  0.5424 -0.4439  0.6752
  857MPD2    H512644   0.805   1.184  12.948  0.5021  2.0216  1.4024
  857MPD2    N112645   0.694   0.729  12.813  0.3882 -0.4659  0.0836
  857MPD2    H712646   0.652   0.653  12.761 -0.5199  0.7538 -0.9407
  858MPD2     C12647   1.816   0.343  16.264 -0.0108  0.3558  0.0580
  858MPD2    C112648   1.771   0.218  16.290 -0.5593  0.0797 -0.2892
  858MPD2    C212649   1.753   0.171  16.422  0.2234 -0.3611 -0.3535
  858MPD2    C312650   1.771   0.256  16.518  0.0210 -0.3090 -0.3052
  858MPD2    C412651   1.822   0.382  16.492  0.4568 -0.0412  0.1423
  858MPD2    C512652   1.843   0.427  16.370 -0.1026 -0.5484 -0.0927
  858MPD2     H12653   1.710   0.073  16.443  1.1593 -0.9520 -1.2034
  858MPD2    H112654   1.839   0.448  16.576  0.2222  0.8199 -0.4917
  858MPD2    H212655   1.847   0.361  16.161 -1.7522  1.5176 -0.2579
  858MPD2    H312656   1.886   0.525  16.349  0.6406 -0.7122  0.6692
  858MPD2     N12657   1.747   0.229  16.653  0.7643  0.0319 -0.2325
  858MPD2    H512658   1.744   0.305  16.721 -0.7962  0.9215 -1.2719
  858MPD2    N112659   1.738   0.148  16.174  0.0825  0.3086  1.1233
  858MPD2    H712660   1.760   0.190  16.084  1.7499 -0.8492  0.9836
  859MPD2     C12661   0.399   2.379  15.698  0.0858 -0.4501 -0.3798
  859MPD2    C112662   0.352   2.360  15.573 -0.3145  0.1691  0.7842
  859MPD2    C212663   0.282   2.245  15.547  0.2797 -0.0145  0.9324
  859MPD2    C312664   0.264   2.146  15.638 -0.4111 -0.9280  0.4697
  859MPD2    C412665   0.310   2.167  15.763 -0.0877 -0.3698 -0.0914
  859MPD2    C512666   0.376   2.281  15.795 -0.3556  0.7135  0.0360
  859MPD2     H12667   0.251   2.235  15.444  0.1755  0.1593  0.9468
  859MPD2    H112668   0.280   2.089  15.832 -0.8596  0.7405  0.8356
  859MPD2    H212669   0.464   2.461  15.727  0.5122 -1.5305  1.7491
  859MPD2    H312670   0.413   2.290  15.896  0.0988 -0.3174 -0.0326
  859MPD2     N12671   0.186   2.031  15.619  0.0850  0.2731 -0.0046
  859MPD2    H512672   0.181   1.966  15.696  1.2369 -0.0594 -0.2184
  859MPD2    N112673   0.377   2.462  15.478  0.3908 -0.5373  0.2165
  859MPD2    H712674   0.422   2.546  15.514  0.1557 -1.2073  2.0350
  860MPD2     C12675   2.136   2.399  11.665 -0.4838 -0.6814  0.1306
  860MPD2    C112676   2.108   2.469  11.784 -0.4392 -0.0459 -0.2165
  860MPD2    C212677   1.970   2.489  11.808  0.2865 -0.7379  0.4634
  860MPD2    C312678   1.875   2.440  11.728  0.5475  0.8452  0.2853
  860MPD2    C412679   1.903   2.349  11.630  0.1769  0.8144  0.0705
  860MPD2    C512680   2.038   2.342  11.589 -0.4041  0.2330  0.0753
  860MPD2     H12681   1.944   2.553  11.891  2.2793  0.3891  0.2249
  860MPD2    H112682   1.832   2.298  11.566  1.0599 -0.1977 -0.1058
  860MPD2    H212683   2.233   2.371  11.625 -0.3326  0.6543 -0.4266
  860MPD2    H312684   2.060   2.276  11.505 -3.1993 -0.9968  0.3193
  860MPD2     N12685   1.743   2.476  11.775 -0.2038 -0.0283 -0.0488
  860MPD2    H512686   1.747   2.541  11.852 -0.7428  0.1485 -0.1726
  860MPD2    N112687   2.206   2.522  11.872  0.5344 -0.3030 -0.1714
  860MPD2    H712688   2.179   2.561  11.961  1.8876  1.9884 -0.7714
  861MPD2     C12689   0.640   0.175  11.111 -0.6617  0.5824 -0.5712
  861MPD2    C112690   0.700   0.289  11.059 -0.3380  0.2829 -1.0170
  861MPD2    C212691   0.652   0.347  10.936  0.1268 -0.5224 -0.4284
  861MPD2    C312692   0.539   0.289  10.870  0.1400  0.1602  0.1376
  861MPD2    C412693   0.496   0.170  10.920 -0.5481  0.5400 -0.8726
  861MPD2    C512694   0.544   0.114  11.034 -0.5234  0.0299 -0.3781
  861MPD2     H12695   0.699   0.436  10.895  0.2500 -0.0817  0.6616
  861MPD2    H112696   0.421   0.120  10.859  1.3236 -1.1565 -1.7619
  861MPD2    H212697   0.674   0.137  11.206  0.3292  0.9602 -0.7687
  861MPD2    H312698   0.505   0.020  11.073 -1.7925  0.2028 -1.2522
  861MPD2     N12699   0.479   0.337  10.756  0.4783 -0.2053 -0.1369
  861MPD2    H512700   0.390   0.297  10.726  0.9602  0.4852 -2.5143
  861MPD2    N112701   0.802   0.349  11.117  0.0456 -0.7038 -0.0169
  861MPD2    H712702   0.843   0.430  11.072 -3.6701  0.0301 -2.1299
  862MPD2     C12703   0.087   0.384  10.061 -0.2017  0.5076  0.4570
  862MPD2    C112704   0.133   0.301  10.160 -0.5758  0.0148  0.0149
  862MPD2    C212705   0.131   0.157  10.142 -0.4351  0.3021  0.0157
  862MPD2    C312706   0.088   0.112  10.021  0.4436 -0.0924 -0.4259
  862MPD2    C412707   0.029   0.205   9.930 -0.5065 -0.2489  0.4684
  862MPD2    C512708   0.034   0.341   9.948  1.2184 -0.0150  0.2695
  862MPD2     H12709   0.178   0.103  10.223  1.0182  0.1350 -0.9290
  862MPD2    H112710   4.702   0.175   9.846 -0.5801 -3.3390  1.6282
  862MPD2    H212711   0.092   0.491  10.076  1.3012  0.4153  0.6140
  862MPD2    H312712   4.714   0.408   9.882  0.0988 -2.6485 -1.4583
  862MPD2     N12713   0.087   4.706   9.999  0.1925 -0.6774 -0.7428
  862MPD2    H512714   0.110   4.644  10.077 -0.7350  0.3033  0.3059
  862MPD2    N112715   0.189   0.351  10.287 -0.6167  0.6997 -0.3726
  862MPD2    H712716   0.228   0.283  10.351  0.9818  2.7859  0.8542
  863MPD2     C12717   4.572   3.659  16.513 -0.1865 -0.1804 -0.7702
  863MPD2    C112718   4.651   3.755  16.578 -0.3588 -0.9107 -0.1778
  863MPD2    C212719   0.028   3.710  16.658 -0.3662 -0.9065  0.5677
  863MPD2    C312720   0.038   3.575  16.684 -0.3537  0.4625 -0.4374
  863MPD2    C412721   4.685   3.486  16.630 -0.8128 -0.4412 -0.4144
  863MPD2    C512722   4.595   3.523  16.540  0.2507  1.0786 -0.2591
  863MPD2     H12723   0.090   3.785  16.707  0.5214 -1.5567  0.4376
  863MPD2    H112724   4.684   3.381  16.656  0.4341 -0.4732 -0.4593
  863MPD2    H212725   4.489   3.688  16.450 -0.6498 -0.1033 -0.1181
  863MPD2    H312726   4.528   3.449  16.499  0.9240 -1.3511  3.0455
  863MPD2     N12727   0.132   3.525  16.779  0.6105 -0.4714  0.1298
  863MPD2    H512728   0.104   3.441  16.829 -0.5068 -1.9576 -3.0027
  863MPD2    N112729   4.626   3.891  16.540  0.0826 -0.1880 -0.3610
  863MPD2    H712730   4.563   3.908  16.462 -0.6738 -0.5549  0.1685
  864MPD2     C12731   0.675   4.348  17.197 -0.3468  0.3735  0.1246
  864MPD2    C112732   0.684   4.324  17.062  0.0622  0.3621  0.0498
  864MPD2    C212733   0.733   4.429  16.986  0.0156  0.3591  0.3377
  864MPD2    C312734   0.758   4.551  17.034 -0.1114  0.7162 -0.4471
  864MPD2    C412735   0.735   4.580  17.168  0.3081  0.1101 -0.4041
  864MPD2    C512736   0.695   4.471  17.246  0.1530 -0.2566  0.6913
  864MPD2     H12737   0.739   4.409  16.879  2.1288  0.5167  0.4084
  864MPD2    H112738   0.752   4.678  17.211  0.3769 -0.5121  0.9995
  864MPD2    H212739   0.653   4.265  17.263 -1.2019  1.0128  0.6499
  864MPD2    H312740   0.688   4.489  17.352 -2.3103 -2.9068  0.9744
  864MPD2     N12741   0.811   4.656  16.955  0.4809 -0.4359  0.1583
  864MPD2    H512742   0.839   0.012  16.993 -0.4843 -0.4672  0.9473
  864MPD2    N112743   0.658   4.191  17.024  0.1700  0.3489  0.3534
  864MPD2    H712744   0.602   4.137  17.090  0.9660 -1.6947 -0.6327
  865MPD2     C12745   0.821   0.585  16.348 -1.0112 -0.1014 -0.6816
  865MPD2    C112746   0.787   0.457  16.397 -0.3776 -0.0683 -0.0686
  865MPD2    C212747   0.783   0.436  16.531  0.7998  0.2165  0.2409
  865MPD2    C312748   0.824   0.533  16.619 -0.1419 -0.3405 -0.0638
  865MPD2    C412749   0.864   0.650  16.568  0.2155 -0.4086 -0.5142
  865MPD2    C512750   0.859   0.679  16.434 -0.1200  0.5477 -0.7840
  865MPD2     H12751   0.749   0.342  16.573  0.7022 -0.9057 -2.3716
  865MPD2    H112752   0.892   0.723  16.643 -0.3390 -2.0706  1.3032
  865MPD2    H212753   0.799   0.614  16.246  1.9321 -1.8014 -1.7963
  865MPD2    H312754   0.887   0.777  16.398  1.2957  0.1831 -0.6679
  865MPD2     N12755   0.837   0.521  16.760 -0.2709  0.3718 -0.0828
  865MPD2    H512756   0.823   0.601  16.820 -0.5721 -0.1105  0.4875
  865MPD2    N112757   0.769   0.351  16.302 -0.2587 -0.0696 -0.1170
  865MPD2    H712758   0.782   0.371  16.203 -0.4097 -1.0316 -0.3311
  866MPD2     C12759   1.479   0.888  11.028  0.2078  0.1899 -0.9231
  866MPD2    C112760   1.404   0.776  11.043 -0.6173 -0.3335  0.0694
  866MPD2    C212761   1.274   0.772  10.995  0.3208  0.1166  0.5792
  866MPD2    C312762   1.215   0.884  10.939  0.4499 -0.5589  0.6878
  866MPD2    C412763   1.298   0.992  10.918 -0.2058 -0.0508  0.2939
  866MPD2    C512764   1.425   0.991  10.957  0.0572 -0.4610  0.1449
  866MPD2     H12765   1.223   0.678  11.012 -1.4020  0.7440 -1.0750
  866MPD2    H112766   1.262   1.078  10.862  0.0980  1.2633  2.0838
  866MPD2    H212767   1.585   0.902  11.043  0.4263  0.0097 -2.2367
  866MPD2    H312768   1.478   1.085  10.945 -0.1035 -0.3436  0.3429
  866MPD2     N12769   1.079   0.886  10.902 -0.0303 -0.1531 -0.2350
  866MPD2    H512770   1.054   0.965  10.842  1.9151  1.9080  1.6659
  866MPD2    N112771   1.477   0.672  11.104  0.2363  0.3572 -0.5592
  866MPD2    H712772   1.566   0.694  11.147  0.0040 -0.5982  0.4275
  867MPD2     C12773   3.790   0.376  16.804  0.0398 -0.7933 -0.5727
  867MPD2    C112774   3.905   0.351  16.870 -0.1857  0.2870 -0.0857
  867MPD2    C212775   3.903   0.363  17.007  0.4927 -0.7024 -0.2469
  867MPD2    C312776   3.785   0.403  17.075 -0.2207  0.1371 -0.2843
  867MPD2    C412777   3.677   0.440  17.005  0.8621 -0.2499 -0.2641
  867MPD2    C512778   3.682   0.422  16.867  0.5818 -0.2132 -0.1110
  867MPD2     H12779   3.994   0.337  17.060  0.8487 -1.2244 -1.1181
  867MPD2    H112780   3.587   0.478  17.053  0.7462  0.5176 -1.0790
  867MPD2    H212781   3.783   0.363  16.696  1.4712 -0.2662 -0.7287
  867MPD2    H312782   3.598   0.440  16.800 -0.8064  1.5894  2.1251
  867MPD2     N12783   3.777   0.414  17.220  0.2025 -0.0101 -0.5498
  867MPD2    H512784   3.698   0.462  17.261 -1.2750 -1.4697 -1.7042
  867MPD2    N112785   4.014   0.295  16.799 -0.3433  0.1192 -0.4100
  867MPD2    H712786   4.005   0.287  16.698  0.1620 -0.9468 -0.3798
  868MPD2     C12787   0.869   3.911  12.907 -0.0529  0.0141  0.0102
  868MPD2    C112788   0.932   3.802  12.950 -0.3601  0.2427  0.5024
  868MPD2    C212789   0.871   3.725  13.044  0.7812  0.2699 -0.2740
  868MPD2    C312790   0.737   3.752  13.088  0.1405 -0.6251  0.0510
  868MPD2    C412791   0.672   3.858  13.032 -0.0679 -0.2555 -0.0288
  868MPD2    C512792   0.744   3.942  12.952  0.1637  0.0039 -0.0390
  868MPD2     H12793   0.921   3.643  13.095 -1.1365  0.1091  1.3425
  868MPD2    H112794   0.570   3.886  13.057  0.3930  0.4013  1.1191
  868MPD2    H212795   0.916   3.992  12.853  1.8824 -0.1138  1.5205
  868MPD2    H312796   0.691   4.030  12.917 -1.4345 -1.0369 -0.2107
  868MPD2     N12797   0.674   3.666  13.179 -0.1943  0.2230  0.3339
  868MPD2    H512798   0.732   3.588  13.208  1.0747  2.1968  3.1117
  868MPD2    N112799   1.064   3.785  12.906  0.6492  0.6795  0.4474
  868MPD2    H712800   1.108   3.854  12.847  0.5792 -0.7860 -1.3209
  869MPD2     C12801   2.330   1.880   1.177 -0.0257 -0.3641 -0.9213
  869MPD2    C112802   2.379   1.864   1.050  0.3549  1.1010  0.3235
  869MPD2    C212803   2.514   1.842   1.033 -0.5572 -0.3865 -0.2791
  869MPD2    C312804   2.596   1.840   1.144 -0.3449 -0.2202  0.1631
  869MPD2    C412805   2.544   1.837   1.270  0.3374 -0.5742 -0.3734
  869MPD2    C512806   2.413   1.876   1.285  0.1424  0.6537  0.3394
  869MPD2     H12807   2.549   1.848   0.931  1.3997 -2.7780  0.2570
  869MPD2    H112808   2.602   1.829   1.361 -1.5125 -0.7301  0.8015
  869MPD2    H212809   2.224   1.895   1.193 -0.0607  0.5633 -1.9792
  869MPD2    H312810   2.373   1.894   1.384  2.0869 -1.0246  1.4553
  869MPD2     N12811   2.737   1.805   1.130  0.2717 -0.0169 -0.7546
  869MPD2    H512812   2.795   1.771   1.205 -2.9621 -2.3388  0.6927
  869MPD2    N112813   2.283   1.848   0.942  0.1727 -0.0544  0.1372
  869MPD2    H712814   2.185   1.835   0.964  0.0828  1.0649  0.4144
  870MPD2     C12815   2.524   1.033   1.643 -0.0771  0.2236 -0.4414
  870MPD2    C112816   2.525   0.961   1.529  0.4184  0.1191  0.2160
  870MPD2    C212817   2.449   0.999   1.419  0.4536 -0.1035  0.2073
  870MPD2    C312818   2.349   1.089   1.438 -0.1082 -0.0187  0.1017
  870MPD2    C412819   2.349   1.164   1.554 -0.3157  0.0306  0.1075
  870MPD2    C512820   2.436   1.138   1.656  0.1145 -0.9628  0.0552
  870MPD2     H12821   2.461   0.950   1.323 -2.5632  0.0198 -0.2497
  870MPD2    H112822   2.287   1.250   1.577 -1.3815 -0.1393 -2.1567
  870MPD2    H212823   2.567   0.996   1.736  0.2799  3.2825  0.6068
  870MPD2    H312824   2.428   1.196   1.748 -0.4099  0.6164 -0.9853
  870MPD2     N12825   2.259   1.120   1.332 -0.1193 -0.5628  0.5165
  870MPD2    H512826   2.290   1.070   1.249  0.2058  0.5024 -0.0124
  870MPD2    N112827   2.615   0.849   1.525 -0.1469 -0.3181  0.2882
  870MPD2    H712828   2.681   0.837   1.601 -1.7151  0.8127  1.8404
  871MPD2     C12829   3.088   0.860  16.300 -0.7527 -0.0521 -0.8481
  871MPD2    C112830   3.059   0.801  16.413  0.2406 -0.2945  0.5172
  871MPD2    C212831   3.076   0.667  16.425 -0.1860 -0.1750 -0.5125
  871MPD2    C312832   3.121   0.586  16.319 -0.4061  0.5580  0.1348
  871MPD2    C412833   3.148   0.649  16.202 -0.1697  0.4383  0.3207
  871MPD2    C512834   3.124   0.784  16.192 -0.4632 -0.8710 -0.2971
  871MPD2     H12835   3.059   0.627  16.525  1.8388 -0.2045 -0.1719
  871MPD2    H112836   3.187   0.605  16.111  0.9973 -0.8065  1.4263
  871MPD2    H212837   3.069   0.965  16.282  0.5129  0.2646 -0.3492
  871MPD2    H312838   3.136   0.824  16.092 -0.9467 -0.1113 -0.0505
  871MPD2     N12839   3.146   0.447  16.338  0.4900 -0.1098  0.1104
  871MPD2    H512840   3.148   0.403  16.429 -0.4933  1.2382  0.7783
  871MPD2    N112841   3.013   0.887  16.515 -0.0412  0.1949  0.1006
  871MPD2    H712842   3.014   0.987  16.494  1.7966  0.4260  1.2918
  872MPD2     C12843   3.506   3.205  13.473 -0.1072  0.4126  0.2609
  872MPD2    C112844   3.562   3.091  13.515  0.6702 -0.7319  0.1081
  872MPD2    C212845   3.508   3.027  13.626  0.8877  0.0199  0.3530
  872MPD2    C312846   3.400   3.074  13.693 -0.7756 -0.8616 -0.2619
  872MPD2    C412847   3.337   3.184  13.641  0.2954 -0.0650 -0.2102
  872MPD2    C512848   3.386   3.242  13.528 -0.2281  0.1143 -0.4579
  872MPD2     H12849   3.554   2.937  13.668  2.2108  0.6111  0.1734
  872MPD2    H112850   3.254   3.224  13.699  1.2121  1.8970 -0.2320
  872MPD2    H212851   3.552   3.264  13.395  1.0209  0.8915  1.3000
  872MPD2    H312852   3.330   3.330  13.496 -1.9702 -1.7693 -2.5671
  872MPD2     N12853   3.341   3.009  13.806 -1.0201  0.6630 -0.6743
  872MPD2    H512854   3.282   3.062  13.869  2.6826  1.1719  2.3402
  872MPD2    N112855   3.683   3.044  13.462 -0.1739  0.2437  0.5014
  872MPD2    H712856   3.716   2.953  13.492 -0.5990 -0.7978 -2.2593
  873MPD2     C12857   1.298   2.539   0.929 -0.3667  1.0042  0.4168
  873MPD2    C112858   1.172   2.563   0.985 -0.1948  0.3707 -0.1978
  873MPD2    C212859   1.080   2.462   0.988  0.9867  0.1474 -0.2000
  873MPD2    C312860   1.105   2.338   0.933 -0.2925  0.5467  0.0130
  873MPD2    C412861   1.224   2.318   0.865  0.2826  0.1678 -0.5756
  873MPD2    C512862   1.321   2.413   0.874  0.0149 -0.0471  0.5609
  873MPD2     H12863   0.989   2.484   1.042  0.6072  0.8656 -1.1221
  873MPD2    H112864   1.250   2.220   0.827  0.5468  0.1737 -0.4110
  873MPD2    H212865   1.380   2.610   0.939 -0.9502  1.9780 -1.7042
  873MPD2    H312866   1.421   2.395   0.837 -0.4224 -1.5709  0.1331
  873MPD2     N12867   1.009   2.232   0.921 -0.0567  0.2551  0.1960
  873MPD2    H512868   1.049   2.142   0.899 -1.5116 -0.1969 -0.5541
  873MPD2    N112869   1.141   2.686   1.044  0.1604  0.4505  0.1237
  873MPD2    H712870   1.215   2.754   1.056  1.8349 -1.1457 -1.2612
  874MPD2     C12871   0.232   2.610  16.667  0.6392 -0.0194 -1.5441
  874MPD2    C112872   0.337   2.525  16.706  0.2327  0.4404 -0.2299
  874MPD2    C212873   0.461   2.584  16.733  0.6039 -0.2710  0.3572
  874MPD2    C312874   0.465   2.715  16.732  0.0530  0.4789  0.0850
  874MPD2    C412875   0.363   2.798  16.707 -0.0739  0.2097  0.1058
  874MPD2    C512876   0.248   2.746  16.671 -0.2463 -0.9126 -0.0694
  874MPD2     H12877   0.539   2.525  16.779  2.3752  0.5775 -1.5722
  874MPD2    H112878   0.371   2.906  16.709 -0.2839  0.2245  0.0797
  874MPD2    H212879   0.135   2.570  16.643  1.4770 -2.0588 -1.5062
  874MPD2    H312880   0.169   2.817  16.651 -0.4172 -1.1068 -0.0883
  874MPD2     N12881   0.600   2.760  16.755 -0.0454  0.4534 -0.3351
  874MPD2    H512882   0.681   2.699  16.747  0.5038  1.0938  0.3711
  874MPD2    N112883   0.308   2.385  16.710 -0.1656  0.2877  0.3533
  874MPD2    H712884   0.209   2.364  16.702 -0.0838  0.5153 -1.3329
  875MPD2     C12885   0.524   1.312  14.598  0.1112 -0.5360 -0.1881
  875MPD2    C112886   0.606   1.367  14.507  0.1723  0.9608 -0.1617
  875MPD2    C212887   0.710   1.444  14.546 -0.4619 -0.1987 -0.4755
  875MPD2    C312888   0.734   1.472  14.680  0.5613  0.2178  0.7206
  875MPD2    C412889   0.649   1.409  14.775 -0.4892  0.2506 -0.3221
  875MPD2    C512890   0.557   1.318  14.735 -0.4016 -0.5438 -0.2659
  875MPD2     H12891   0.781   1.478  14.472 -3.6677  2.4377 -2.3706
  875MPD2    H112892   0.681   1.413  14.878  0.4046 -2.3684 -0.5197
  875MPD2    H212893   0.443   1.251  14.561 -0.7924  0.5407  0.0068
  875MPD2    H312894   0.490   1.272  14.807 -0.0490 -0.5920  0.0314
  875MPD2     N12895   0.836   1.552  14.736  0.0126 -0.0124 -0.1415
  875MPD2    H512896   0.822   1.568  14.835  1.7987  0.0658  0.0900
  875MPD2    N112897   0.598   1.347  14.367 -0.4384 -0.5170 -0.5413
  875MPD2    H712898   0.645   1.407  14.301 -0.9489  1.6395  1.0776
  876MPD2     C12899   0.639   2.916  16.258 -0.0759 -0.1299  0.1098
  876MPD2    C112900   0.720   2.855  16.168  0.5620  0.2546  0.0095
  876MPD2    C212901   0.753   2.722  16.191  0.3172 -0.4440  0.1940
  876MPD2    C312902   0.707   2.660  16.304  0.0605  0.3929  0.8643
  876MPD2    C412903   0.626   2.721  16.399 -0.6466  0.1511 -0.5894
  876MPD2    C512904   0.588   2.848  16.367 -1.1586 -0.0084  0.0168
  876MPD2     H12905   0.811   2.678  16.110  0.3225  0.4836 -0.3066
  876MPD2    H112906   0.585   2.683  16.492  2.7133  0.2789  0.9751
  876MPD2    H212907   0.607   3.020  16.252 -0.3601 -0.3408 -1.9726
  876MPD2    H312908   0.532   2.903  16.442 -1.3317  1.0942 -0.9274
  876MPD2     N12909   0.731   2.520  16.311  0.0026  0.0953 -0.1619
  876MPD2    H512910   0.772   2.478  16.227  1.1947  0.2882  0.3255
  876MPD2    N112911   0.760   2.929  16.054  0.5272  0.7108  0.2132
  876MPD2    H712912   0.714   3.016  16.030  0.8971  0.8204 -0.0946
  877MPD2     C12913   0.484   2.991  15.340 -0.5256 -0.0992 -0.5784
  877MPD2    C112914   0.612   3.047  15.344  0.2804 -0.4251 -0.6928
  877MPD2    C212915   0.670   3.110  15.235  0.5436 -0.9328 -0.6466
  877MPD2    C312916   0.589   3.125  15.120 -0.0035  0.6295  0.4467
  877MPD2    C412917   0.465   3.059  15.113 -0.3170 -0.8931  0.0751
  877MPD2    C512918   0.415   2.993  15.220  1.1091  0.2616 -0.4213
  877MPD2     H12919   0.771   3.150  15.241  0.6930 -1.5561  0.9480
  877MPD2    H112920   0.404   3.066  15.024 -3.1066  1.5986  2.1862
  877MPD2    H212921   0.446   2.937  15.426  1.7131  1.0641  1.1291
  877MPD2    H312922   0.323   2.937  15.208  0.5243  1.2494 -0.5614
  877MPD2     N12923   0.637   3.195  15.007 -1.0660 -0.2580 -0.5860
  877MPD2    H512924   0.587   3.174  14.921 -1.0294 -0.6161 -0.5204
  877MPD2    N112925   0.693   3.064  15.460 -0.1551 -0.0341  0.0133
  877MPD2    H712926   0.782   3.107  15.439  0.4922 -1.9097 -1.0226
  878MPD2     C12927   0.096   2.076  13.195  0.4256 -0.3337  0.3798
  878MPD2    C112928   0.151   2.194  13.163  0.0054 -0.6043 -0.1376
  878MPD2    C212929   0.171   2.290  13.266  0.0610 -0.2441  0.0603
  878MPD2    C312930   0.110   2.275  13.388  0.8508 -0.5826 -0.2681
  878MPD2    C412931   0.034   2.157  13.414  0.8013 -0.2015 -0.4489
  878MPD2    C512932   0.035   2.052  13.324  0.1661  0.2745 -0.4498
  878MPD2     H12933   0.231   2.376  13.240  0.1522 -0.5453 -0.7206
  878MPD2    H112934   0.008   2.134  13.517 -3.3289  0.8202 -1.2622
  878MPD2    H212935   0.102   2.002  13.116 -1.1109 -0.4975  0.4098
  878MPD2    H312936   4.719   1.957  13.332 -1.7098  1.6887  4.2388
  878MPD2     N12937   0.143   2.376  13.483  0.4804  0.1134  0.4792
  878MPD2    H512938   0.219   2.440  13.461 -2.2150  2.5475 -1.7996
  878MPD2    N112939   0.190   2.200  13.029 -0.1935  0.0112  0.1930
  878MPD2    H712940   0.178   2.113  12.977 -3.5933  0.1356  0.7485
  879MPD2     C12941   1.328   3.198  16.647 -0.5410 -0.1197  0.3338
  879MPD2    C112942   1.242   3.240  16.751  0.1899  0.6447 -0.5274
  879MPD2    C212943   1.110   3.244  16.719  0.8083 -0.2065  0.2740
  879MPD2    C312944   1.062   3.204  16.597  0.0113  0.1170  0.1045
  879MPD2    C412945   1.149   3.164  16.502 -0.2622 -0.3484  1.0641
  879MPD2    C512946   1.282   3.177  16.521 -0.5457  0.6337  0.0796
  879MPD2     H12947   1.041   3.267  16.800  0.8829  1.8426 -0.2426
  879MPD2    H112948   1.113   3.131  16.405  0.5299  0.6021  0.4461
  879MPD2    H212949   1.436   3.201  16.653 -0.2359 -4.1190 -3.3999
  879MPD2    H312950   1.359   3.151  16.449 -2.4901  1.2060 -2.2259
  879MPD2     N12951   0.926   3.205  16.569 -0.1040 -0.7251  0.7855
  879MPD2    H512952   0.889   3.172  16.480  0.6036  1.9822 -0.5112
  879MPD2    N112953   1.297   3.274  16.879  0.3988  0.2688 -0.4160
  879MPD2    H712954   1.398   3.264  16.881  0.0797 -2.2856  2.4719
  880MPD2     C12955   2.102   0.316  17.650 -1.0348 -0.2944 -0.4407
  880MPD2    C112956   2.128   0.361   0.042  0.5358 -0.7398  0.4239
  880MPD2    C212957   2.162   0.268   0.138  0.0926 -0.4313 -0.7363
  880MPD2    C312958   2.159   0.130   0.106 -0.2803  0.2483  0.0424
  880MPD2    C412959   2.123   0.088  17.713 -0.5178 -0.3131  0.6316
  880MPD2    C512960   2.085   0.182  17.627  0.8287 -0.0964  0.5789
  880MPD2     H12961   2.191   0.302   0.237  2.0567  1.0867 -1.8391
  880MPD2    H112962   2.098   4.720  17.685  0.2838 -0.6657  1.2059
  880MPD2    H212963   2.075   0.378  17.565  1.5095 -0.2108 -1.1774
  880MPD2    H312964   2.058   0.146  17.528 -1.4318  0.0339  1.1556
  880MPD2     N12965   2.213   0.045   0.211 -0.2824  0.5684 -0.1632
  880MPD2    H512966   2.231   0.086   0.302  0.8680  0.8328 -0.5111
  880MPD2    N112967   2.134   0.492   0.077 -0.9399  0.2174 -0.1925
  880MPD2    H712968   2.174   0.511   0.168 -3.1997 -0.9993  1.0363
  881MPD2     C12969   2.374   1.574  17.641 -0.1594 -1.1525 -0.0564
  881MPD2    C112970   2.384   1.475  17.545 -0.1819 -0.3644 -0.2385
  881MPD2    C212971   2.333   1.345  17.577 -0.6523  0.0432  0.3042
  881MPD2    C312972   2.291   1.315  17.708  0.3391  0.5093  0.5041
  881MPD2    C412973   2.303   1.415   0.066  0.4716  0.0522  0.6789
  881MPD2    C512974   2.347   1.547   0.035  0.3256  0.2056  0.0655
  881MPD2     H12975   2.306   1.287  17.490 -2.1284 -1.2750  1.6333
  881MPD2    H112976   2.269   1.401   0.168  2.0153  1.3401  1.3666
  881MPD2    H212977   2.417   1.669  17.615 -2.8832  0.6327  1.9730
  881MPD2    H312978   2.356   1.616   0.118 -0.2967  1.1610 -0.6628
  881MPD2     N12979   2.237   1.191   0.014 -0.0537  0.0944  0.0269
  881MPD2    H512980   2.225   1.181   0.115 -0.0258  0.1866  0.0389
  881MPD2    N112981   2.403   1.508  17.409 -0.5159  0.1070  0.3636
  881MPD2    H712982   2.412   1.429  17.346 -0.5522  0.0785  0.3944
  882MPD2     C12983   0.759   3.007  14.213 -0.1665 -0.4369 -0.9081
  882MPD2    C112984   0.695   3.089  14.300 -0.1567  0.1930  0.0155
  882MPD2    C212985   0.559   3.109  14.270  0.3141  0.1143 -0.3905
  882MPD2    C312986   0.490   3.047  14.167 -0.4695 -0.1284  0.0881
  882MPD2    C412987   0.563   2.978  14.075 -0.4836 -0.2746 -0.8825
  882MPD2    C512988   0.697   2.957  14.100 -0.6792 -0.4121  0.0266
  882MPD2     H12989   0.502   3.174  14.336  0.6594  0.9292 -0.9000
  882MPD2    H112990   0.527   2.932  13.984 -0.5089 -1.3740 -0.3185
  882MPD2    H212991   0.858   2.979  14.246 -0.8213 -1.2286  0.3827
  882MPD2    H312992   0.757   2.903  14.027 -0.2409 -0.4111  0.3892
  882MPD2     N12993   0.354   3.052  14.141 -0.2257 -0.4731  0.2249
  882MPD2    H512994   0.320   2.995  14.065  1.2476  0.3888 -1.0777
  882MPD2    N112995   0.763   3.141  14.412  0.3455  0.3909  0.0823
  882MPD2    H712996   0.858   3.107  14.421  1.4306  3.5139  0.1539
  883MPD2     C12997   2.460   2.718  16.213  1.0574  0.0778  0.4004
  883MPD2    C112998   2.446   2.816  16.114  0.4504 -0.3793  0.2495
  883MPD2    C212999   2.518   2.933  16.126  0.6334  0.1342 -0.4194
  883MPD2    C313000   2.584   2.960  16.246 -0.3962  0.7952 -0.4782
  883MPD2    C413001   2.596   2.864  16.343  0.1477 -0.1216 -0.3607
  883MPD2    C513002   2.534   2.739  16.327 -0.5338 -0.4992 -0.0956
  883MPD2     H13003   2.509   3.007  16.047  2.0354  0.5009 -0.2340
  883MPD2    H113004   2.664   2.876  16.427 -1.1191  0.6149  0.5623
  883MPD2    H213005   2.398   2.629  16.208 -0.3427  1.1745 -1.4402
  883MPD2    H313006   2.546   2.657  16.397 -0.4524 -1.4662 -1.2341
  883MPD2     N13007   2.647   3.084  16.258 -0.0369  0.2366  0.1148
  883MPD2    H513008   2.657   3.137  16.172  0.7055 -0.4511 -0.2248
  883MPD2    N113009   2.371   2.798  15.996 -0.2219 -0.8033 -0.4247
  883MPD2    H713010   2.374   2.873  15.928  0.1112  0.0402  0.5232
  884MPD2     C13011   4.449   3.558  15.172  0.4285  0.0893 -0.2828
  884MPD2    C113012   4.399   3.578  15.042  0.5586 -0.0286  0.2147
  884MPD2    C213013   4.271   3.630  15.031 -0.8290  0.4768  0.3781
  884MPD2    C313014   4.191   3.660  15.138 -1.0343  0.1757 -0.4968
  884MPD2    C413015   4.233   3.627  15.259 -0.3940  0.2926  0.1291
  884MPD2    C513016   4.362   3.585  15.271 -0.8537  0.1801 -0.0084
  884MPD2     H13017   4.230   3.650  14.933  1.2510 -1.0283 -0.7729
  884MPD2    H113018   4.172   3.643  15.347  0.2533  2.2634  0.2144
  884MPD2    H213019   4.545   3.518  15.203 -0.0067 -0.4874  0.3137
  884MPD2    H313020   4.398   3.585  15.374 -3.6556 -1.0437  0.9665
  884MPD2     N13021   4.066   3.721  15.116  0.2030 -0.1093 -0.2100
  884MPD2    H513022   4.037   3.724  15.018  0.3986  0.9757 -0.2375
  884MPD2    N113023   4.488   3.585  14.929 -0.3779  0.5672 -0.2932
  884MPD2    H713024   4.452   3.600  14.835  0.3232 -1.4272 -0.8767
  885MPD2     C13025   2.337   3.908  17.642 -0.3102  0.2468 -0.5844
  885MPD2    C113026   2.467   3.859  17.650 -0.3825  0.0652 -0.0076
  885MPD2    C213027   2.552   3.855  17.545  0.2429  0.1436  0.2339
  885MPD2    C313028   2.503   3.914  17.430 -0.0388 -0.3724  0.4813
  885MPD2    C413029   2.372   3.941  17.417  0.6922  0.5070  0.6470
  885MPD2    C513030   2.289   3.952  17.523  0.5627  0.0933  0.4747
  885MPD2     H13031   2.654   3.818  17.558  1.1221  1.5394 -2.7126
  885MPD2    H113032   2.342   3.993  17.327  2.9366  0.3772 -0.1903
  885MPD2    H213033   2.274   3.907  17.730  1.4002 -4.8331  0.5516
  885MPD2    H313034   2.192   3.995  17.504  0.9571  0.8936  0.2630
  885MPD2     N13035   2.579   3.957  17.319  0.3073  0.5560  0.5265
  885MPD2    H513036   2.534   4.009  17.244 -1.3873  1.3134  2.0738
  885MPD2    N113037   2.511   3.820   0.045  0.1622 -0.2102  0.7648
  885MPD2    H713038   2.452   3.851   0.122  0.4768 -2.1106  1.7584
  886MPD2     C13039   3.722   2.569  15.470 -0.1392 -0.5259  0.2355
  886MPD2    C113040   3.853   2.606  15.490  0.0635 -0.0456  0.3548
  886MPD2    C213041   3.902   2.706  15.416  0.3485 -0.9289  0.4270
  886MPD2    C313042   3.839   2.771  15.313 -0.0811  0.1412 -0.1592
  886MPD2    C413043   3.716   2.720  15.288 -0.6816 -0.2562  0.2052
  886MPD2    C513044   3.654   2.621  15.363  0.7011  0.6908  0.7448
  886MPD2     H13045   4.010   2.715  15.424  0.3209 -0.4039  0.1888
  886MPD2    H113046   3.660   2.758  15.204 -2.4849  0.0687  1.5748
  886MPD2    H213047   3.676   2.488  15.525 -0.4761 -0.4371  0.0866
  886MPD2    H313048   3.559   2.577  15.337  0.1932  1.6903  0.9124
  886MPD2     N13049   3.903   2.858  15.218  0.1660  0.4548  0.7629
  886MPD2    H513050   3.848   2.869  15.133 -0.5694 -1.3913  1.0061
  886MPD2    N113051   3.939   2.556  15.588  0.3620  0.1146  0.1428
  886MPD2    H713052   4.032   2.596  15.590  0.4503 -0.0688 -0.3298
  887MPD2     C13053   4.621   2.441  15.620 -0.3020 -0.2388 -0.2459
  887MPD2    C113054   4.538   2.544  15.659  0.2449  0.6508  1.0521
  887MPD2    C213055   4.579   2.669  15.633  0.3749 -0.5465  0.0191
  887MPD2    C313056   4.694   2.708  15.573 -0.1766  0.4454 -0.5598
  887MPD2    C413057   0.045   2.603  15.539 -0.1252 -0.1082  0.0255
  887MPD2    C513058   0.005   2.472  15.562  0.4093 -0.0555 -0.5211
  887MPD2     H13059   4.514   2.750  15.663  0.8835  1.0993 -3.3331
  887MPD2    H113060   0.132   2.615  15.477  0.2341  1.2316  0.7748
  887MPD2    H213061   4.590   2.337  15.616 -2.0953  0.2402  1.4912
  887MPD2    H313062   0.063   2.390  15.521 -0.4570 -0.1189 -1.6322
  887MPD2     N13063   4.711   2.852  15.548 -0.3175  0.1102 -0.1272
  887MPD2    H513064   4.633   2.903  15.588  0.5289  0.8574  0.5825
  887MPD2    N113065   4.411   2.516  15.722 -0.1014  0.6673 -0.8266
  887MPD2    H713066   4.341   2.588  15.731  1.0967  1.7545 -0.2217
  888MPD2     C13067   1.215   2.199  14.869  0.1106 -0.2072 -0.3006
  888MPD2    C113068   1.246   2.239  15.002  0.2525 -0.2215 -0.4640
  888MPD2    C213069   1.341   2.331  15.023  0.2794  0.2248 -0.5146
  888MPD2    C313070   1.409   2.398  14.915  1.1705  0.0331  0.5930
  888MPD2    C413071   1.377   2.359  14.783 -0.0060  0.1923  0.0344
  888MPD2    C513072   1.280   2.261  14.770 -0.1315  0.1024  0.5930
  888MPD2     H13073   1.364   2.358  15.125  0.9538 -0.2597 -0.5409
  888MPD2    H113074   1.420   2.417  14.702 -0.5680  1.3919  0.6017
  888MPD2    H213075   1.129   2.141  14.838  1.4966 -2.0639 -0.6754
  888MPD2    H313076   1.251   2.230  14.670  1.8327  0.8420 -0.2023
  888MPD2     N13077   1.492   2.511  14.940  0.0393 -0.0807 -0.5907
  888MPD2    H513078   1.482   2.547  15.034 -1.1878 -1.8115 -0.0438
  888MPD2    N113079   1.182   2.184  15.117 -0.2906  0.1245 -0.2511
  888MPD2    H713080   1.194   2.227  15.208  1.1327  1.2531 -0.9746
  889MPD2     C13081   0.728   1.936  12.712 -0.3906 -0.8877 -0.2230
  889MPD2    C113082   0.745   1.917  12.846  0.2484 -0.7586  0.7880
  889MPD2    C213083   0.732   2.036  12.921  0.4981 -0.9442  0.0809
  889MPD2    C313084   0.654   2.145  12.879 -0.4464  0.3877 -0.7304
  889MPD2    C413085   0.621   2.142  12.743 -0.2733 -0.2231  0.7021
  889MPD2    C513086   0.663   2.042  12.659 -0.1431  1.0256  0.0666
  889MPD2     H13087   0.763   2.033  13.025  0.8156 -1.3438 -0.0249
  889MPD2    H113088   0.571   2.227  12.698  1.0508 -0.2123 -0.7587
  889MPD2    H213089   0.755   1.855  12.645  2.6822 -1.2529  1.4777
  889MPD2    H313090   0.644   2.049  12.552 -0.9108  0.1894  0.1503
  889MPD2     N13091   0.622   2.255  12.962 -0.2159  0.1765  0.3942
  889MPD2    H513092   0.641   2.244  13.061 -1.0407  1.4340  0.6992
  889MPD2    N113093   0.803   1.801  12.889 -0.2095  0.7646 -0.8775
  889MPD2    H713094   0.839   1.741  12.816  0.7650 -1.4769  1.4354
  890MPD2     C13095   0.798   3.705  14.483 -0.0830  0.0852  0.3874
  890MPD2    C113096   0.798   3.793  14.588  0.0851 -0.1735 -0.4974
  890MPD2    C213097   0.870   3.766  14.702 -0.0986  0.2951 -0.3322
  890MPD2    C313098   0.953   3.653  14.709 -0.4030 -0.0012 -0.4125
  890MPD2    C413099   0.961   3.575  14.597  0.1388  0.7048 -0.5386
  890MPD2    C513100   0.888   3.599  14.486  0.3184  0.6508 -0.6343
  890MPD2     H13101   0.867   3.839  14.782 -0.7098 -2.1002  1.8258
  890MPD2    H113102   1.035   3.495  14.593  0.1858  0.7335 -0.2369
  890MPD2    H213103   0.746   3.726  14.390  0.3059 -3.9365 -0.7719
  890MPD2    H313104   0.893   3.528  14.405 -0.1177  1.6391 -1.5421
  890MPD2     N13105   1.031   3.627  14.820 -0.5703  0.1579 -0.3279
  890MPD2    H513106   1.109   3.563  14.807 -1.1427 -0.8308  1.1187
  890MPD2    N113107   0.731   3.919  14.568 -0.6180 -0.1443  0.4530
  890MPD2    H713108   0.672   3.925  14.486  0.7155 -2.8355 -0.6827
  891MPD2     C13109   3.765   2.716  16.559  0.4166 -0.3243 -0.2221
  891MPD2    C113110   3.694   2.735  16.672  0.7237 -0.3824  0.1559
  891MPD2    C213111   3.744   2.695  16.799 -0.4326 -0.5358 -0.3599
  891MPD2    C313112   3.878   2.659  16.801 -0.0644  0.6022  0.0490
  891MPD2    C413113   3.952   2.638  16.692  0.1769  0.3993 -0.5609
  891MPD2    C513114   3.898   2.671  16.567  0.0002 -0.0904  0.4865
  891MPD2     H13115   3.688   2.712  16.890  1.0799  0.8256  0.3412
  891MPD2    H113116   4.058   2.616  16.694 -0.0096 -0.4995 -0.5636
  891MPD2    H213117   3.715   2.751  16.469  0.4412 -1.0954 -0.5299
  891MPD2    H313118   3.961   2.669  16.479  1.3787 -0.7422  1.5002
  891MPD2     N13119   3.932   2.646  16.933  0.2323 -0.5963  0.5532
  891MPD2    H513120   3.867   2.657  17.010  0.4621 -3.6337  1.1799
  891MPD2    N113121   3.559   2.767  16.651  0.1114  0.4335 -0.2380
  891MPD2    H713122   3.531   2.787  16.556  1.1575  1.7497 -0.2655
  892MPD2     C13123   4.439   3.218  14.894 -0.4305 -0.7548  1.2353
  892MPD2    C113124   4.358   3.247  14.784 -0.0671 -0.1659  0.0697
  892MPD2    C213125   4.410   3.215  14.655  0.6573  0.1988 -0.4633
  892MPD2    C313126   4.543   3.178  14.638  0.2341 -0.6818  0.4623
  892MPD2    C413127   4.628   3.170  14.747 -0.0167  0.0162  0.1969
  892MPD2    C513128   4.569   3.185  14.872  1.3749 -0.5870  0.6571
  892MPD2     H13129   4.335   3.218  14.576  1.6131  1.1488 -1.3301
  892MPD2    H113130   4.732   3.143  14.730 -0.0994  0.4861 -1.0402
  892MPD2    H213131   4.401   3.232  14.995  1.1349  0.6811  1.6348
  892MPD2    H313132   4.633   3.165  14.956  2.4934  0.2926  0.0183
  892MPD2     N13133   4.598   3.165  14.511  0.3510  0.3301 -0.2454
  892MPD2    H513134   4.698   3.151  14.514  0.5675  2.7212  2.9868
  892MPD2    N113135   4.226   3.304  14.792  0.4390  0.0268 -0.9739
  892MPD2    H713136   4.176   3.340  14.712 -1.1131  2.3492  1.0317
  893MPD2     C13137   1.606   2.588   1.983  0.0892 -0.0074 -0.2619
  893MPD2    C113138   1.559   2.537   1.870  1.1760 -0.4986 -0.2433
  893MPD2    C213139   1.424   2.506   1.855 -0.7881 -0.2722  0.1018
  893MPD2    C313140   1.329   2.561   1.942  0.1253 -0.1254 -0.2161
  893MPD2    C413141   1.373   2.621   2.055  0.4764  0.5474 -0.5229
  893MPD2    C513142   1.508   2.626   2.073  0.0463  0.2965 -0.7256
  893MPD2     H13143   1.390   2.451   1.768 -1.4796  1.3337 -0.6485
  893MPD2    H113144   1.303   2.674   2.119  3.8649 -0.6705  4.1616
  893MPD2    H213145   1.710   2.587   2.014 -0.8146  0.2857  2.8327
  893MPD2    H313146   1.534   2.682   2.162  0.6446 -2.0425  0.5718
  893MPD2     N13147   1.190   2.556   1.924  0.0257 -0.3248  0.0079
  893MPD2    H513148   1.126   2.612   1.978 -0.8939 -0.3551 -1.0415
  893MPD2    N113149   1.653   2.492   1.770 -0.2911 -0.0040  0.5131
  893MPD2    H713150   1.751   2.506   1.795 -0.5233 -0.7443  1.8558
  894MPD2     C13151   4.021   3.570   2.091 -0.3183 -0.6736 -0.0710
  894MPD2    C113152   3.951   3.587   1.976 -0.6028  0.7815  0.2017
  894MPD2    C213153   4.015   3.633   1.865  0.0789 -0.2356  0.3089
  894MPD2    C313154   4.149   3.654   1.857  0.5508  0.7848 -0.3338
  894MPD2    C413155   4.217   3.628   1.969  0.8482  0.7146  0.2287
  894MPD2    C513156   4.153   3.595   2.088  0.4730  0.5711  0.2623
  894MPD2     H13157   3.965   3.638   1.769 -1.1115  0.8810  0.9812
  894MPD2    H113158   4.322   3.651   1.986  0.4406  1.5486  1.5962
  894MPD2    H213159   3.972   3.532   2.180  0.5467 -0.7364  0.3750
  894MPD2    H313160   4.214   3.585   2.177 -1.5330  2.1588  1.8170
  894MPD2     N13161   4.204   3.710   1.738 -0.0152  0.0744 -0.2881
  894MPD2    H513162   4.140   3.732   1.663  0.0244 -1.8620 -0.8952
  894MPD2    N113163   3.810   3.572   1.963  0.0357 -0.1748  0.0941
  894MPD2    H713164   3.773   3.591   1.870 -1.8131  2.0844  1.2951
  895MPD2     C13165   3.422   2.045  13.454  0.2209  0.2701 -0.6508
  895MPD2    C113166   3.334   1.936  13.452  0.5385  1.0623  0.2376
  895MPD2    C213167   3.384   1.808  13.471  0.6856 -0.3600 -0.0909
  895MPD2    C313168   3.522   1.786  13.492  0.2852  0.9868 -0.1453
  895MPD2    C413169   3.612   1.890  13.488 -0.5129 -0.0044 -0.3768
  895MPD2    C513170   3.559   2.017  13.476 -0.1784  1.0225 -0.2375
  895MPD2     H13171   3.319   1.724  13.448  1.2370 -0.9731  0.5664
  895MPD2    H113172   3.718   1.876  13.505 -0.4580 -1.0288 -1.5817
  895MPD2    H213173   3.395   2.150  13.453  1.6199  0.6600  2.6999
  895MPD2    H313174   3.625   2.102  13.487  1.6214 -0.3120 -0.7654
  895MPD2     N13175   3.556   1.650  13.503  0.1618 -0.0647  0.2232
  895MPD2    H513176   3.486   1.577  13.495 -0.6766  0.2012  5.1725
  895MPD2    N113177   3.190   1.943  13.450  0.2501 -0.3140 -0.4022
  895MPD2    H713178   3.143   1.860  13.485 -1.9584  1.2146  0.2547
  896MPD2     C13179   1.941   4.144   1.436  0.0710 -0.1840  0.3155
  896MPD2    C113180   1.863   4.229   1.357 -0.6906 -0.2542 -0.8780
  896MPD2    C213181   1.723   4.200   1.338  0.2429 -0.1502  0.8000
  896MPD2    C313182   1.663   4.096   1.409 -0.3893 -0.8966  0.2745
  896MPD2    C413183   1.749   4.016   1.489  0.1524 -0.3976  0.6635
  896MPD2    C513184   1.885   4.038   1.494 -0.0000  0.2234  0.6120
  896MPD2     H13185   1.658   4.256   1.272  1.0242  0.2657  0.3752
  896MPD2    H113186   1.719   3.935   1.555 -0.9256  0.1639  0.8569
  896MPD2    H213187   2.048   4.160   1.447  0.0608 -0.7437  1.1897
  896MPD2    H313188   1.953   3.975   1.551 -1.1228 -1.3209  0.2234
  896MPD2     N13189   1.526   4.098   1.420  0.1026  0.2959 -0.2498
  896MPD2    H513190   1.474   4.174   1.378  0.0814  0.6597  0.4382
  896MPD2    N113191   1.922   4.347   1.299 -0.0010 -0.1746 -0.6930
  896MPD2    H713192   2.021   4.357   1.318  0.0032 -1.0528 -0.2163
  897MPD2     C13193   1.667   1.343  10.005  0.5097  0.1253 -0.3025
  897MPD2    C113194   1.697   1.463  10.061 -0.4457  0.2891  0.5710
  897MPD2    C213195   1.723   1.468  10.201 -0.3985 -0.0517 -0.4818
  897MPD2    C313196   1.714   1.359  10.285  0.4126  0.2791 -0.5869
  897MPD2    C413197   1.676   1.239  10.222  0.4905 -0.2079  1.0364
  897MPD2    C513198   1.658   1.231  10.086 -0.0216  0.1603 -0.7770
  897MPD2     H13199   1.722   1.561  10.257  0.1650 -1.3799  1.7287
  897MPD2    H113200   1.673   1.142  10.272  3.0730 -2.4960 -3.2913
  897MPD2    H213201   1.635   1.339   9.902  1.0839 -0.1497 -0.4691
  897MPD2    H313202   1.623   1.137  10.045  2.3618 -1.5598  1.1532
  897MPD2     N13203   1.731   1.376  10.426  0.9443 -0.3567 -0.4639
  897MPD2    H513204   1.725   1.473  10.456  1.1559 -0.5204  0.0894
  897MPD2    N113205   1.676   1.584   9.988 -0.3247 -0.7714 -0.6958
  897MPD2    H713206   1.665   1.575   9.887  1.0009 -1.2308 -0.7940
  898MPD2     C13207   0.348   3.511   0.795  0.0993  0.1102 -0.0323
  898MPD2    C113208   0.226   3.452   0.764 -0.0483  0.5022 -0.2592
  898MPD2    C213209   0.124   3.537   0.739  0.5657  0.1934 -0.3327
  898MPD2    C313210   0.140   3.673   0.717 -0.4746  0.2435 -0.3757
  898MPD2    C413211   0.264   3.730   0.739  0.2063 -0.8420  0.4167
  898MPD2    C513212   0.367   3.647   0.787 -0.1125  0.7964  0.0544
  898MPD2     H13213   0.028   3.488   0.724  0.8533 -0.1850 -0.9515
  898MPD2    H113214   0.280   3.837   0.725  2.9190 -1.0156  2.2450
  898MPD2    H213215   0.438   3.457   0.824  1.4181  1.8788 -0.8057
  898MPD2    H313216   0.463   3.692   0.810 -0.8794  1.4078  2.0680
  898MPD2     N13217   0.031   3.734   0.655  0.8403 -0.5324 -0.1560
  898MPD2    H513218   4.674   3.689   0.655  0.7565 -0.3799 -1.7660
  898MPD2    N113219   0.209   3.313   0.773  0.2082  0.3778  0.2121
  898MPD2    H713220   0.121   3.272   0.743  0.7878 -2.0739  1.8664
  899MPD2     C13221   4.637   3.168  17.227 -0.6651 -0.6082  0.0160
  899MPD2    C113222   0.014   3.223  17.292 -0.2529 -0.5507 -0.6111
  899MPD2    C213223   0.023   3.231  17.429  0.0552  0.2052  0.1870
  899MPD2    C313224   4.640   3.195  17.503 -0.2354  0.1238 -0.4687
  899MPD2    C413225   4.541   3.120  17.436  0.1609  0.0433 -0.1709
  899MPD2    C513226   4.540   3.108  17.301  0.5587  0.0384  0.0656
  899MPD2     H13227   0.103   3.290  17.473  0.6604 -2.0976  2.1706
  899MPD2    H113228   4.462   3.068  17.490 -0.6969  1.6460  0.1347
  899MPD2    H213229   4.649   3.151  17.120 -0.7319  1.6176 -0.3374
  899MPD2    H313230   4.464   3.050  17.251  0.9479 -1.1324  0.8313
  899MPD2     N13231   4.626   3.206  17.644 -0.0620  0.1644 -0.0425
  899MPD2    H513232   4.543   3.169  17.689  1.2563 -2.2838  0.3901
  899MPD2    N113233   0.106   3.285  17.208 -0.4905  0.0602  0.2676
  899MPD2    H713234   0.073   3.295  17.113 -0.2256 -1.7792 -0.0203
  900MPD2     C13235   4.324   0.103  12.335  0.2628  0.1772 -0.0779
  900MPD2    C113236   4.222   0.023  12.373 -0.5737  0.0587  0.6165
  900MPD2    C213237   4.091   0.073  12.339 -0.0441 -0.6416 -0.2810
  900MPD2    C313238   4.080   0.199  12.280  0.4075  0.8436  0.1667
  900MPD2    C413239   4.190   0.278  12.252 -0.1533 -0.3694  0.1085
  900MPD2    C513240   4.315   0.226  12.275 -0.3286 -0.2150  0.9545
  900MPD2     H13241   3.995   0.024  12.354 -1.4701  2.7614  1.5494
  900MPD2    H113242   4.183   0.375  12.204 -2.2804 -1.0659 -1.0048
  900MPD2    H213243   4.426   0.075  12.356  0.1825  0.1236  0.2381
  900MPD2    H313244   4.402   0.286  12.249 -0.1722  0.3829  2.8556
  900MPD2     N13245   3.954   0.239  12.231  0.1915 -0.6910  0.5567
  900MPD2    H513246   3.882   0.168  12.218  0.7826 -1.1784 -0.0696
  900MPD2    N113247   4.252   4.629  12.426 -0.5519  0.5166  0.2288
  900MPD2    H713248   4.350   4.617  12.449 -0.3408  0.6574 -0.6304
  901MPD2     C13249   3.909   3.593  12.662 -0.5313 -0.1783  0.4014
  901MPD2    C113250   4.045   3.602  12.657 -0.4764  1.1476  0.1869
  901MPD2    C213251   4.109   3.728  12.637 -0.2695  0.2158  0.1573
  901MPD2    C313252   4.032   3.836  12.595 -0.4857 -1.0377 -0.3917
  901MPD2    C413253   3.894   3.815  12.587 -0.1566 -0.3876 -0.8574
  901MPD2    C513254   3.831   3.700  12.630  0.1472 -0.3481  0.1589
  901MPD2     H13255   4.217   3.735  12.644 -0.3991  0.5755  1.7659
  901MPD2    H113256   3.827   3.893  12.552  0.8450  0.9007  0.0946
  901MPD2    H213257   3.861   3.499  12.689 -1.0994 -0.6660 -2.2529
  901MPD2    H313258   3.726   3.684  12.611  0.0621 -0.9544  1.1327
  901MPD2     N13259   4.091   3.961  12.567 -0.6140  0.4188 -0.0488
  901MPD2    H513260   4.192   3.956  12.574 -0.6219 -0.7109 -0.7477
  901MPD2    N113261   4.115   3.480  12.673  0.0322 -0.3028 -0.9511
  901MPD2    H713262   4.056   3.398  12.683  0.6965 -0.5308  1.0555
  902MPD2     C13263   2.986   2.452  12.917  0.2990  0.0582  0.4668
  902MPD2    C113264   3.120   2.497  12.908  0.5055 -0.4618 -0.4697
  902MPD2    C213265   3.211   2.408  12.864  0.6654 -0.6569 -0.0889
  902MPD2    C313266   3.173   2.273  12.845  0.7446 -0.4450 -0.5280
  902MPD2    C413267   3.049   2.223  12.870  0.1883 -0.0899  0.0800
  902MPD2    C513268   2.952   2.318  12.903 -0.1168  0.3354  0.6982
  902MPD2     H13269   3.316   2.437  12.864  1.1353 -2.3320  0.6835
  902MPD2    H113270   3.027   2.117  12.867 -0.6938  0.0922  0.0433
  902MPD2    H213271   2.904   2.521  12.933  1.1021  1.3233 -0.8594
  902MPD2    H313272   2.850   2.282  12.912  0.3088 -1.2630 -0.9975
  902MPD2     N13273   3.253   2.189  12.765 -0.5417 -0.2775  0.2528
  902MPD2    H513274   3.200   2.114  12.720 -0.4967  0.3980 -0.9340
  902MPD2    N113275   3.147   2.626  12.947  0.1242 -0.0500  0.0758
  902MPD2    H713276   3.074   2.678  12.996 -1.4156 -1.7037 -0.4587
  903MPD2     C13277   3.263   2.470  12.093  0.4424  0.2544  0.4159
  903MPD2    C113278   3.172   2.407  12.180  0.5115 -0.2292  0.3566
  903MPD2    C213279   3.028   2.448  12.190 -0.4313 -0.0420  0.0350
  903MPD2    C313280   2.980   2.549  12.112 -0.6241  0.2871 -0.1722
  903MPD2    C413281   3.065   2.597  12.014  0.1926  0.0310  0.5210
  903MPD2    C513282   3.204   2.565  12.012 -0.1468 -0.4635  0.0165
  903MPD2     H13283   2.958   2.403  12.259 -0.4258  0.2028  0.1966
  903MPD2    H113284   3.034   2.669  11.939 -2.2677  1.7850  3.2207
  903MPD2    H213285   3.366   2.449  12.070 -0.7745 -2.3835 -2.5882
  903MPD2    H313286   3.263   2.624  11.943 -0.4641 -0.8861 -0.6154
  903MPD2     N13287   2.841   2.574  12.116  0.4226  0.2176  0.0240
  903MPD2    H513288   2.790   2.513  12.179  0.7229  1.9689  1.9648
  903MPD2    N113289   3.213   2.317  12.287  0.6793  0.0228 -0.6196
  903MPD2    H713290   3.138   2.276  12.340 -0.4929  0.4549 -1.9457
  904MPD2     C13291   3.423   1.716  14.071  0.0140  0.2411 -0.0224
  904MPD2    C113292   3.403   1.776  14.195  0.0146  0.0168 -0.5355
  904MPD2    C213293   3.513   1.825  14.270  0.5267 -0.2667  0.2945
  904MPD2    C313294   3.641   1.816  14.217 -0.0529 -0.3727 -1.1704
  904MPD2    C413295   3.664   1.750  14.092  0.2781 -0.3498 -0.3040
  904MPD2    C513296   3.555   1.708  14.022 -0.0227  0.1301  0.0772
  904MPD2     H13297   3.496   1.861  14.371  0.2319  0.4092  0.0005
  904MPD2    H113298   3.765   1.746  14.055  0.4251 -0.5618  0.1161
  904MPD2    H213299   3.352   1.655  14.017 -0.4039  1.0947 -0.4378
  904MPD2    H313300   3.567   1.673  13.920 -1.7892  0.3597 -0.2167
  904MPD2     N13301   3.756   1.875  14.285 -0.8131  0.6891 -0.3677
  904MPD2    H513302   3.747   1.906  14.381 -0.9451 -0.6439  0.0454
  904MPD2    N113303   3.273   1.777  14.250 -0.1738 -0.4482 -0.3669
  904MPD2    H713304   3.269   1.773  14.351  0.4107  0.6752 -0.2897
  905MPD2     C13305   2.915   1.359  13.760  0.4040 -0.7690 -0.1670
  905MPD2    C113306   3.005   1.457  13.718  0.4789  0.1037 -0.0447
  905MPD2    C213307   3.116   1.427  13.648  0.4022  0.4866 -0.8218
  905MPD2    C313308   3.154   1.295  13.625 -0.5653 -0.0031 -0.1865
  905MPD2    C413309   3.060   1.197  13.659  0.2502  0.1977  0.7380
  905MPD2    C513310   2.944   1.234  13.721 -0.8637 -0.2850 -0.5530
  905MPD2     H13311   3.177   1.511  13.616  0.1383  1.0392  0.1318
  905MPD2    H113312   3.064   1.090  13.643  2.1278  0.4826 -0.6906
  905MPD2    H213313   2.823   1.387  13.809  1.4617  1.3806  0.6373
  905MPD2    H313314   2.877   1.157  13.757  0.0273  0.4828  2.6868
  905MPD2     N13315   3.277   1.257  13.564 -0.2965 -1.0174  0.5059
  905MPD2    H513316   3.302   1.159  13.560 -0.5154 -1.1041  1.1958
  905MPD2    N113317   2.973   1.589  13.763 -0.4338 -0.0151 -0.0172
  905MPD2    H713318   2.897   1.599  13.830 -0.9700  1.9115 -0.9028
  906MPD2     C13319   0.592   1.818  11.347  0.3313 -0.2668 -0.0052
  906MPD2    C113320   0.512   1.758  11.253  0.0475  0.1551 -0.0214
  906MPD2    C213321   0.382   1.718  11.285  0.0432 -0.7774 -0.2048
  906MPD2    C313322   0.348   1.708  11.418  0.3574  0.4231  0.6410
  906MPD2    C413323   0.439   1.751  11.512  0.3094 -0.8411 -0.6035
  906MPD2    C513324   0.557   1.811  11.475  0.2905 -0.0698 -0.0734
  906MPD2     H13325   0.318   1.675  11.208  0.2068 -1.5504  0.0965
  906MPD2    H113326   0.408   1.741  11.616  0.5969  1.5794 -0.2893
  906MPD2    H213327   0.695   1.850  11.334 -0.9351  3.4269 -0.9280
  906MPD2    H313328   0.627   1.841  11.553  0.5915 -2.5360  0.6280
  906MPD2     N13329   0.225   1.653  11.468 -0.2818  0.4013 -0.3511
  906MPD2    H513330   0.213   1.645  11.568  1.0238 -0.6793 -0.2829
  906MPD2    N113331   0.546   1.759  11.118 -0.4942 -0.0336 -0.2252
  906MPD2    H713332   0.473   1.727  11.055 -1.2829  1.4923 -0.0934
  907MPD2     C13333   4.049   1.420  15.630 -0.0621 -1.1225  0.2173
  907MPD2    C113334   4.092   1.307  15.574  0.1361 -0.4455 -0.2395
  907MPD2    C213335   4.185   1.233  15.643 -0.3467 -0.2313  0.2773
  907MPD2    C313336   4.238   1.280  15.757 -0.6246 -0.7635  0.5292
  907MPD2    C413337   4.201   1.403  15.815  0.5549  0.6783 -0.1455
  907MPD2    C513338   4.108   1.469  15.746 -0.0576 -0.7570  0.0852
  907MPD2     H13339   4.209   1.135  15.603  1.3595 -0.0812  0.9649
  907MPD2    H113340   4.239   1.450  15.906 -0.8114  1.0950  0.2172
  907MPD2    H213341   3.979   1.485  15.577  1.1854 -0.5454 -0.7318
  907MPD2    H313342   4.071   1.565  15.780 -0.0271 -0.6893 -0.0720
  907MPD2     N13343   4.333   1.196  15.813  0.1211  0.4133  0.0713
  907MPD2    H513344   4.353   1.106  15.771 -0.8215  0.2392  0.0156
  907MPD2    N113345   4.048   1.250  15.449 -0.0925 -0.4612 -0.6567
  907MPD2    H713346   4.092   1.165  15.418  1.1207 -0.5318  1.2413
  908MPD2     C13347   1.958   1.628   9.215  0.2159 -0.8206 -0.0100
  908MPD2    C113348   1.880   1.541   9.292  0.5889 -0.3623  0.4207
  908MPD2    C213349   1.803   1.594   9.398 -0.5956  0.2245  0.1980
  908MPD2    C313350   1.817   1.727   9.434  0.0706 -0.0463 -0.0139
  908MPD2    C413351   1.897   1.814   9.358 -0.2570  0.1898 -0.7738
  908MPD2    C513352   1.965   1.762   9.249  1.0020 -0.1968  0.7019
  908MPD2     H13353   1.736   1.525   9.448 -0.6150  0.0885 -0.0163
  908MPD2    H113354   1.906   1.918   9.388 -0.4494 -0.7132  2.4554
  908MPD2    H213355   2.019   1.600   9.130 -0.7448  0.4845 -1.1194
  908MPD2    H313356   2.028   1.831   9.195  1.1293 -1.7644 -1.1593
  908MPD2     N13357   1.749   1.777   9.547 -0.0500  0.1957 -0.7975
  908MPD2    H513358   1.690   1.710   9.595  1.1262 -0.5470 -0.3927
  908MPD2    N113359   1.885   1.399   9.244  0.2910 -0.6499 -0.2818
  908MPD2    H713360   1.934   1.382   9.156 -0.4692  1.0107 -1.0243
  909MPD2     C13361   1.813   4.246  11.913 -0.4411 -0.5470 -0.0752
  909MPD2    C113362   1.841   4.379  11.882  0.0196 -0.0165  0.2014
  909MPD2    C213363   1.751   4.476  11.930 -0.0890 -0.2347 -0.5798
  909MPD2    C313364   1.647   4.443  12.016  1.3174 -0.5895 -0.1950
  909MPD2    C413365   1.616   4.313  12.048  0.1622 -0.3689 -0.3780
  909MPD2    C513366   1.703   4.213  11.995 -1.1591 -0.4246  0.4841
  909MPD2     H13367   1.767   4.583  11.928  0.3162 -0.2579  1.2571
  909MPD2    H113368   1.531   4.280  12.106 -1.2322 -3.2395 -4.0784
  909MPD2    H213369   1.869   4.166  11.867  0.3231  0.1279 -0.3300
  909MPD2    H313370   1.696   4.108  12.020  2.4190 -0.7019  0.2444
  909MPD2     N13371   1.587   4.554  12.075  0.5199  0.2337  0.1854
  909MPD2    H513372   1.628   4.644  12.054  1.4731 -0.7782 -2.1881
  909MPD2    N113373   1.950   4.420  11.796 -0.6507 -0.0133  0.8873
  909MPD2    H713374   1.956   4.517  11.770 -0.4874 -0.1259  0.5068
  910MPD2     C13375   3.716   2.062  15.979  0.1105  0.1534 -0.3407
  910MPD2    C113376   3.810   1.961  15.977 -0.0962 -0.1254  0.3803
  910MPD2    C213377   3.861   1.925  15.855  0.4272  0.2523 -0.5414
  910MPD2    C313378   3.826   1.992  15.736  0.2955 -0.4585 -0.7560
  910MPD2    C413379   3.732   2.090  15.744  0.5657 -0.7164 -0.4653
  910MPD2    C513380   3.672   2.123  15.862  0.0746  0.6245 -0.3744
  910MPD2     H13381   3.930   1.842  15.854  0.2600  0.1324 -2.3337
  910MPD2    H113382   3.700   2.134  15.650  2.8790  0.3170 -0.7679
  910MPD2    H213383   3.674   2.101  16.071 -3.4181  0.4741 -2.0570
  910MPD2    H313384   3.586   2.189  15.867 -1.1296 -0.8578 -1.4099
  910MPD2     N13385   3.889   1.975  15.609 -0.4698 -0.5914 -0.1855
  910MPD2    H513386   3.881   2.047  15.538  0.1737  0.7164  1.0949
  910MPD2    N113387   3.867   1.907  16.095  0.0725 -0.7340 -0.2101
  910MPD2    H713388   3.934   1.832  16.082  1.3990  0.3149  0.5476
  911MPD2     C13389   2.054   1.646  16.503 -0.3897 -1.0051  0.5608
  911MPD2    C113390   2.073   1.779  16.477  0.2727 -0.0128  0.1385
  911MPD2    C213391   1.992   1.844  16.393 -0.3332 -0.2234  0.1080
  911MPD2    C313392   1.887   1.779  16.322 -0.2897  0.1706  0.5240
  911MPD2    C413393   1.857   1.654  16.378 -0.6452 -0.2707 -1.0321
  911MPD2    C513394   1.947   1.583  16.447  0.8089  0.5311 -0.7686
  911MPD2     H13395   1.997   1.947  16.362  1.3543 -1.0161 -2.2303
  911MPD2    H113396   1.775   1.599  16.334 -1.0433 -0.4988  0.0130
  911MPD2    H213397   2.122   1.583  16.559 -0.6714  0.2701  2.3232
  911MPD2    H313398   1.923   1.481  16.474  1.6532 -0.3172 -3.1654
  911MPD2     N13399   1.801   1.829  16.219 -0.5116 -0.1147 -0.2733
  911MPD2    H513400   1.718   1.778  16.192  0.1365 -1.5123  0.3725
  911MPD2    N113401   2.192   1.830  16.537  0.5502 -0.9225 -0.3583
  911MPD2    H713402   2.264   1.762  16.559 -0.5390 -1.1402  2.4478
  912MPD2     C13403   1.320   1.708  15.549 -0.2613 -0.2446  0.0840
  912MPD2    C113404   1.334   1.719  15.688  0.2314 -0.2824 -0.1427
  912MPD2    C213405   1.260   1.634  15.770 -0.3280 -0.7161 -0.0135
  912MPD2    C313406   1.184   1.528  15.722  0.3022  0.2429  0.1218
  912MPD2    C413407   1.168   1.529  15.587  0.1759 -0.7197 -0.1026
  912MPD2    C513408   1.222   1.626  15.506  0.5489 -0.6990 -0.4229
  912MPD2     H13409   1.252   1.642  15.877 -0.4793  1.1146 -0.1574
  912MPD2    H113410   1.101   1.455  15.545  1.5412  0.1713 -3.8074
  912MPD2    H213411   1.374   1.772  15.479  0.7064  0.1202  1.1757
  912MPD2    H313412   1.199   1.628  15.400  0.9542 -0.1955 -0.4976
  912MPD2     N13413   1.125   1.447  15.811  0.6052 -0.4020 -0.0113
  912MPD2    H513414   1.138   1.468  15.909 -1.1056  1.7048 -0.2561
  912MPD2    N113415   1.427   1.806  15.736  0.0833 -0.5071 -0.2947
  912MPD2    H713416   1.476   1.870  15.675  0.6313  0.1450  0.8219
  913MPD2     C13417   1.521   3.457  10.846 -0.9504  0.0897  0.0561
  913MPD2    C113418   1.636   3.497  10.904  0.2190 -0.5264 -0.7028
  913MPD2    C213419   1.725   3.578  10.830 -0.0520  0.5068 -0.5331
  913MPD2    C313420   1.684   3.632  10.713  0.0604  0.4065 -0.4437
  913MPD2    C413421   1.564   3.600  10.657  0.7842 -0.2066 -0.1531
  913MPD2    C513422   1.488   3.510  10.727 -0.1410 -0.3691 -0.3707
  913MPD2     H13423   1.824   3.610  10.862  1.9583 -3.8597 -2.3789
  913MPD2    H113424   1.527   3.638  10.563  1.1030 -3.2613 -1.5316
  913MPD2    H213425   1.448   3.385  10.883 -0.1437  0.4195  2.2897
  913MPD2    H313426   1.393   3.472  10.690  0.0404 -0.9292 -0.2589
  913MPD2     N13427   1.758   3.724  10.634 -0.1262  0.0965  0.5755
  913MPD2    H513428   1.721   3.739  10.540  0.3364  0.6832  0.4935
  913MPD2    N113429   1.666   3.451  11.035  0.0521  0.1616 -0.5489
  913MPD2    H713430   1.602   3.390  11.084 -0.0952  0.2786 -0.5971
  914MPD2     C13431   4.049   3.588  12.045  0.3925  0.2226  0.3103
  914MPD2    C113432   4.092   3.636  12.164  0.3454 -0.1202 -0.4661
  914MPD2    C213433   4.128   3.546  12.268 -0.1791  0.1403 -0.3505
  914MPD2    C313434   4.126   3.409  12.254 -0.0416  0.2908 -0.2135
  914MPD2    C413435   4.086   3.366  12.132  0.4531  0.1535 -0.2599
  914MPD2    C513436   4.046   3.451  12.033  0.1147  0.1735  0.1317
  914MPD2     H13437   4.157   3.587  12.363 -2.6513 -0.9044  0.8535
  914MPD2    H113438   4.079   3.263  12.100  1.9938 -0.2569  0.7357
  914MPD2    H213439   4.024   3.650  11.960  1.1355  0.8987  0.5867
  914MPD2    H313440   4.009   3.407  11.941  1.5739 -2.7450  0.9564
  914MPD2     N13441   4.170   3.336  12.370 -0.7154 -0.1846  0.6104
  914MPD2    H513442   4.194   3.386  12.455  1.0085 -1.2554  0.7641
  914MPD2    N113443   4.101   3.774  12.179 -0.0460 -0.0173  0.7766
  914MPD2    H713444   4.078   3.816  12.090  1.8684  1.0667  0.7744
  915MPD2     C13445   3.048   3.721  15.304  0.3393  0.1072 -0.2663
  915MPD2    C113446   2.942   3.801  15.255 -0.1516  0.5224  0.1842
  915MPD2    C213447   2.860   3.858  15.346  0.4776  0.0664  0.4857
  915MPD2    C313448   2.866   3.828  15.478 -0.4240 -0.8342 -0.0494
  915MPD2    C413449   2.974   3.753  15.532 -0.2323 -0.3701 -0.3768
  915MPD2    C513450   3.067   3.705  15.438 -0.2926  0.0470 -0.2324
  915MPD2     H13451   2.777   3.923  15.318 -0.4826 -1.9372 -1.3160
  915MPD2    H113452   2.974   3.734  15.639  3.2021 -1.3566 -0.5406
  915MPD2    H213453   3.109   3.661  15.237  0.1993  0.8867 -1.0946
  915MPD2    H313454   3.146   3.643  15.479  0.0199  0.5323 -0.1015
  915MPD2     N13455   2.764   3.881  15.558 -0.4471 -0.3874 -0.5256
  915MPD2    H513456   2.704   3.948  15.511  0.9821 -0.0800 -1.9103
  915MPD2    N113457   2.923   3.803  15.118  0.0442 -0.0570 -0.6047
  915MPD2    H713458   2.987   3.739  15.071  0.2734  0.2631 -0.7257
  916MPD2     C13459   0.806   2.221  15.819 -0.1758 -0.1401  0.6728
  916MPD2    C113460   0.726   2.135  15.892  0.2013 -0.5011  0.3062
  916MPD2    C213461   0.655   2.033  15.819 -0.1874  0.4048 -0.4600
  916MPD2    C313462   0.664   2.026  15.685 -0.2344 -0.3624 -0.0185
  916MPD2    C413463   0.761   2.107  15.621  0.4911 -0.2742 -0.1194
  916MPD2    C513464   0.826   2.204  15.686  0.6597 -0.0028 -0.5581
  916MPD2     H13465   0.587   1.966  15.870  2.0314 -0.1910  1.7177
  916MPD2    H113466   0.781   2.094  15.515  1.1401  0.3372 -0.0706
  916MPD2    H213467   0.863   2.304  15.860  0.7722  0.1036 -1.1520
  916MPD2    H313468   0.891   2.270  15.629  0.5978  0.0035 -0.6223
  916MPD2     N13469   0.596   1.921  15.621 -0.1105  0.6232 -0.1927
  916MPD2    H513470   0.555   1.861  15.692  0.7108 -1.2098 -1.2561
  916MPD2    N113471   0.711   2.160  16.028 -0.2019  1.0459 -0.2725
  916MPD2    H713472   0.767   2.235  16.067 -1.4863  1.4596  0.7848
  917MPD2     C13473   0.413   4.681  11.482  0.3864  0.2436 -0.2756
  917MPD2    C113474   0.343   4.585  11.413 -0.1651 -0.5553 -0.1953
  917MPD2    C213475   0.256   4.623  11.312  0.4545  0.2228  0.0527
  917MPD2    C313476   0.247   0.022  11.270 -0.7909 -0.8204  0.1200
  917MPD2    C413477   0.342   0.117  11.324  0.1926  0.2399 -0.1452
  917MPD2    C513478   0.409   0.076  11.437  0.1260 -0.1803  0.0538
  917MPD2     H13479   0.184   4.556  11.266  0.1327 -0.2062  1.1868
  917MPD2    H113480   0.343   0.221  11.293 -2.1833  0.0734 -0.8017
  917MPD2    H213481   0.482   4.654  11.561 -0.7438  0.5416  0.8136
  917MPD2    H313482   0.479   0.141  11.488 -0.5572  1.7646 -1.4907
  917MPD2     N13483   0.184   0.062  11.146  0.9373 -0.2037 -0.7679
  917MPD2    H513484   0.206   0.148  11.098  1.6872 -0.7011 -1.3183
  917MPD2    N113485   0.356   4.446  11.454 -0.3594  0.5258  0.3686
  917MPD2    H713486   0.416   4.438  11.535 -1.1989 -0.2204  0.9203
  918MPD2     C13487   0.393   4.292  12.282  0.8852 -0.0600 -0.5515
  918MPD2    C113488   0.494   4.286  12.192 -0.1690 -0.3891  0.5958
  918MPD2    C213489   0.478   4.253  12.064  0.1517  0.5834  0.5504
  918MPD2    C313490   0.359   4.205  12.016 -0.5727  0.6751  0.0328
  918MPD2    C413491   0.248   4.212  12.102 -0.3683 -0.2645 -0.5251
  918MPD2    C513492   0.268   4.267  12.233 -0.7101 -0.8379 -0.2620
  918MPD2     H13493   0.560   4.251  11.993  1.2132  3.6718  1.7003
  918MPD2    H113494   0.146   4.182  12.082 -1.4002  2.7838  0.1539
  918MPD2    H213495   0.405   4.321  12.386  1.4234 -1.7843 -0.1396
  918MPD2    H313496   0.180   4.282  12.294  1.1679 -0.0337  2.2647
  918MPD2     N13497   0.353   4.175  11.876 -0.2938  0.1012  0.0414
  918MPD2    H513498   0.433   4.193  11.817  1.8480 -0.4567  2.7772
  918MPD2    N113499   0.623   4.325  12.222  0.0133  0.2120  0.2479
  918MPD2    H713500   0.694   4.318  12.150  0.8496 -0.0214  1.1072
  919MPD2     C13501   1.221   2.619  11.767 -0.1860  0.4716  0.0486
  919MPD2    C113502   1.241   2.535  11.655  0.1097 -0.0503  0.5989
  919MPD2    C213503   1.308   2.587  11.548 -0.2179  0.0179  0.0940
  919MPD2    C313504   1.369   2.707  11.558  0.4660  0.5991 -0.3204
  919MPD2    C413505   1.356   2.782  11.674 -0.0655  0.5687  0.5142
  919MPD2    C513506   1.276   2.742  11.775 -0.2033 -0.0088 -0.2156
  919MPD2     H13507   1.313   2.532  11.455  0.0946 -1.3802  0.9453
  919MPD2    H113508   1.409   2.875  11.691  1.6746 -0.1982 -0.6849
  919MPD2    H213509   1.141   2.587  11.833  0.0097 -0.6345 -0.2420
  919MPD2    H313510   1.251   2.803  11.861 -0.1545 -0.5249  0.1669
  919MPD2     N13511   1.443   2.762  11.450 -0.6299  0.8080 -0.7122
  919MPD2    H513512   1.467   2.859  11.468 -1.1094  0.5922  1.0962
  919MPD2    N113513   1.187   2.403  11.645  0.0021  0.1290 -0.1912
  919MPD2    H713514   1.204   2.343  11.565  0.9987  0.9988 -0.6435
  920MPD2     C13515   1.112   3.475  10.941 -0.1007  0.2005  0.1916
  920MPD2    C113516   1.130   3.377  10.841 -0.0186  0.4582  0.4377
  920MPD2    C213517   1.197   3.258  10.877 -0.8268 -0.4207  0.3211
  920MPD2    C313518   1.248   3.241  11.004 -0.2799 -0.1283  0.3029
  920MPD2    C413519   1.235   3.341  11.099 -0.6928 -0.4175 -0.1449
  920MPD2    C513520   1.180   3.461  11.053 -0.0621  0.4555  0.0873
  920MPD2     H13521   1.206   3.175  10.809 -1.3716  0.8709 -1.3437
  920MPD2    H113522   1.270   3.339  11.201  0.2839  0.9470 -0.4510
  920MPD2    H213523   1.037   3.553  10.932  0.5093  0.8142  0.4449
  920MPD2    H313524   1.156   3.533  11.130 -1.1207  1.2372 -0.9873
  920MPD2     N13525   1.328   3.125  11.016 -0.6496 -0.4915  0.7657
  920MPD2    H513526   1.325   3.051  10.946  0.4484 -0.7293  0.9696
  920MPD2    N113527   1.071   3.388  10.710 -0.1514  0.2878 -0.3244
  920MPD2    H713528   1.067   3.302  10.657 -1.1030 -0.3037  0.7169
  921MPD2     C13529   2.690   2.682  16.957 -0.4638  0.4113  0.0768
  921MPD2    C113530   2.789   2.616  16.884  0.1010  0.6584 -0.2338
  921MPD2    C213531   2.767   2.488  16.841  0.8329  0.3095  0.0008
  921MPD2    C313532   2.651   2.424  16.862 -0.5712 -0.2275 -0.7742
  921MPD2    C413533   2.549   2.492  16.937  0.0965 -0.0381 -0.5170
  921MPD2    C513534   2.581   2.614  16.996  0.1155 -0.3646  0.9604
  921MPD2     H13535   2.841   2.433  16.785  1.4933  0.2864  0.8886
  921MPD2    H113536   2.453   2.450  16.963  0.5135 -1.1160 -0.7484
  921MPD2    H213537   2.700   2.781  17.000  0.9797  0.5861 -0.6991
  921MPD2    H313538   2.516   2.675  17.058 -0.6559  0.5482 -0.7664
  921MPD2     N13539   2.634   2.294  16.808 -0.3887  0.7515  0.4257
  921MPD2    H513540   2.701   2.268  16.736 -2.6685 -0.5781 -1.2076
  921MPD2    N113541   2.903   2.689  16.850  0.2781 -0.5119 -0.0130
  921MPD2    H713542   2.901   2.788  16.869  2.2002 -0.6764  1.0419
  922MPD2     C13543   3.238   4.727   0.024 -0.7542 -0.0296 -0.5106
  922MPD2    C113544   3.179   0.117   0.038  0.0954  1.0047  0.0875
  922MPD2    C213545   3.098   0.166  17.673 -0.0548 -0.5535  1.2557
  922MPD2    C313546   3.089   0.104  17.550  0.2944  0.0470  0.0820
  922MPD2    C413547   3.152   4.718  17.542 -0.5602  0.2689 -0.7198
  922MPD2    C513548   3.224   4.663  17.645  0.1446  0.4049 -0.4682
  922MPD2     H13549   3.044   0.258  17.688 -0.9340 -1.0918  1.4446
  922MPD2    H113550   3.149   4.652  17.456  1.0147  0.5331 -0.9778
  922MPD2    H213551   3.300   4.678   0.098 -0.9525  0.1310 -0.2399
  922MPD2    H313552   3.256   4.560  17.636  0.4652  0.5801 -1.3120
  922MPD2     N13553   3.014   0.152  17.448 -0.1690 -0.3165 -0.0858
  922MPD2    H513554   2.961   0.238  17.455 -1.3260 -0.9209 -1.3329
  922MPD2    N113555   3.190   0.185   0.160  0.0143 -0.0150  0.3550
  922MPD2    H713556   3.162   0.283   0.171  0.6837  0.1013  1.0000
  923MPD2     C13557   3.762   2.123   8.601 -0.7839 -0.1105 -0.3400
  923MPD2    C113558   3.733   2.119   8.735 -0.2115 -0.8052 -0.3545
  923MPD2    C213559   3.828   2.061   8.816  0.4498 -0.1484  0.8832
  923MPD2    C313560   3.941   2.006   8.764  0.2575  0.1548 -0.5208
  923MPD2    C413561   3.966   2.009   8.630  0.2572 -0.2598 -0.0037
  923MPD2    C513562   3.873   2.065   8.546  0.0069  0.2450 -0.5398
  923MPD2     H13563   3.812   2.027   8.918  0.4083 -0.5553  0.7414
  923MPD2    H113564   4.056   1.964   8.589  0.4447  0.0927  0.0218
  923MPD2    H213565   3.700   2.172   8.527  0.4188  1.3250 -0.3877
  923MPD2    H313566   3.891   2.082   8.441 -1.3328 -0.1020 -0.8190
  923MPD2     N13567   4.037   1.930   8.837  0.1077 -0.0600 -0.7497
  923MPD2    H513568   4.115   1.898   8.782  1.9932  1.1583  1.2133
  923MPD2    N113569   3.608   2.163   8.787  0.2400  0.0246  0.3003
  923MPD2    H713570   3.546   2.210   8.721  1.0565  0.0852 -0.4241
  924MPD2     C13571   4.150   0.480  16.348 -0.3678 -0.3073  0.1437
  924MPD2    C113572   4.228   0.574  16.412  0.1631  0.7402  0.5641
  924MPD2    C213573   4.314   0.654  16.338  0.4880  0.2727 -0.0012
  924MPD2    C313574   4.337   0.643  16.208 -0.2853  0.2574 -0.2292
  924MPD2    C413575   4.260   0.546  16.141  0.3339 -0.1452 -0.3043
  924MPD2    C513576   4.172   0.463  16.213  0.3604 -0.0527 -0.4233
  924MPD2     H13577   4.371   0.727  16.394  1.1534  1.7583 -2.5877
  924MPD2    H113578   4.269   0.523  16.035 -1.1328 -1.8348 -0.0736
  924MPD2    H213579   4.088   0.404  16.396 -1.0291  0.3158  0.2899
  924MPD2    H313580   4.118   0.384  16.162 -1.4155  1.2940 -0.5995
  924MPD2     N13581   4.425   0.736  16.143  0.5940 -0.6564 -0.1452
  924MPD2    H513582   4.471   0.804  16.203 -2.4839  1.1010  0.2306
  924MPD2    N113583   4.207   0.592  16.552  0.3934 -0.0913 -0.2933
  924MPD2    H713584   4.275   0.655  16.595 -0.0002  0.2080 -0.1087
  925MPD2     C13585   3.547   3.001  14.572 -0.0567 -0.7194  0.0308
  925MPD2    C113586   3.415   3.003  14.529 -0.0451  0.6434 -0.5614
  925MPD2    C213587   3.316   3.053  14.611 -0.0570  0.1429 -0.1035
  925MPD2    C313588   3.341   3.091  14.736  0.6933  0.1319  0.1067
  925MPD2    C413589   3.473   3.095  14.775 -0.6490  0.8904 -0.5246
  925MPD2    C513590   3.576   3.052  14.697 -0.5337  0.5645  0.5773
  925MPD2     H13591   3.218   3.063  14.566  0.5554  1.5850 -1.1271
  925MPD2    H113592   3.495   3.121  14.878  1.7780  0.7027 -0.9796
  925MPD2    H213593   3.628   2.962  14.512  2.9577 -1.1556  4.4035
  925MPD2    H313594   3.677   3.065  14.734  0.7411 -0.9172 -2.4602
  925MPD2     N13595   3.242   3.124  14.826 -0.0061 -0.3109  0.4773
  925MPD2    H513596   3.277   3.152  14.917 -0.3846 -1.0225  0.8450
  925MPD2    N113597   3.384   2.961  14.399  0.1351 -0.2637  0.1367
  925MPD2    H713598   3.284   2.953  14.383  0.2292 -1.6921  0.2924
  926MPD2     C13599   2.053   1.196  13.900 -0.0921  0.0749  0.1733
  926MPD2    C113600   1.966   1.263  13.816  0.2296  0.0358  0.3754
  926MPD2    C213601   2.016   1.313  13.696 -0.3520  0.1782  0.6400
  926MPD2    C313602   2.149   1.306  13.672  0.1497 -0.3263  0.6350
  926MPD2    C413603   2.236   1.244  13.756 -0.2811  0.7494 -0.7949
  926MPD2    C513604   2.185   1.199  13.877  0.2464 -0.2699 -0.1627
  926MPD2     H13605   1.955   1.358  13.619  0.0410  0.9101  0.7502
  926MPD2    H113606   2.344   1.233  13.752 -0.0934  1.7604  1.5487
  926MPD2    H213607   2.020   1.149  13.992  1.8265 -0.1345  0.7676
  926MPD2    H313608   2.255   1.145  13.940  1.1198 -1.0878 -1.8323
  926MPD2     N13609   2.205   1.352  13.556  0.2015 -0.1489  0.0143
  926MPD2    H513610   2.307   1.349  13.550  0.0088  0.7070 -3.5489
  926MPD2    N113611   1.824   1.275  13.840 -0.1016 -0.4342 -0.7156
  926MPD2    H713612   1.768   1.308  13.762  0.2190 -0.3932 -0.9272
  927MPD2     C13613   2.033   2.993  17.369 -0.4233 -0.4744 -0.4620
  927MPD2    C113614   1.942   3.095  17.364 -0.6503 -0.1022  0.4623
  927MPD2    C213615   1.912   3.159  17.245 -0.3007  0.0536 -0.8678
  927MPD2    C313616   1.956   3.116  17.128  1.2275 -1.2205 -0.5445
  927MPD2    C413617   2.042   3.007  17.133 -0.3521  0.4930 -0.3338
  927MPD2    C513618   2.081   2.949  17.247 -0.1626  0.0604 -0.3718
  927MPD2     H13619   1.854   3.251  17.247 -0.1993  0.1640 -2.3968
  927MPD2    H113620   2.075   2.956  17.043  1.5175  0.4687  0.3644
  927MPD2    H213621   2.061   2.937  17.457  0.2967  1.7090  0.6888
  927MPD2    H313622   2.130   2.853  17.242  1.2882  0.9453 -2.8864
  927MPD2     N13623   1.911   3.187  17.011  0.2698  0.4486 -0.3322
  927MPD2    H513624   1.852   3.267  17.028 -1.1125 -0.3355 -1.3779
  927MPD2    N113625   1.895   3.127  17.494  0.1669  0.0753 -0.4238
  927MPD2    H713626   1.940   3.082  17.573  1.0919  0.8029 -0.5259
  928MPD2     C13627   3.899   2.413   1.101  0.1542  0.0126 -0.5453
  928MPD2    C113628   4.023   2.424   1.166  0.2933  0.6749 -0.6463
  928MPD2    C213629   4.135   2.434   1.095 -0.5968 -0.3381  0.0440
  928MPD2    C313630   4.128   2.436   0.959 -0.3861 -0.1668  0.8107
  928MPD2    C413631   4.006   2.415   0.891 -0.4856  0.4097 -0.0636
  928MPD2    C513632   3.891   2.410   0.964  0.4292 -0.7492  0.0113
  928MPD2     H13633   4.232   2.448   1.140 -0.9746  3.9120 -0.5317
  928MPD2    H113634   4.000   2.419   0.783 -3.0050  0.0807  0.0718
  928MPD2    H213635   3.808   2.416   1.159  1.1358  1.2373  0.9514
  928MPD2    H313636   3.798   2.408   0.909  1.0294  1.0623 -1.0856
  928MPD2     N13637   4.241   2.446   0.863 -0.2780 -0.2245 -0.0083
  928MPD2    H513638   4.216   2.450   0.764  0.5418  1.1929 -0.1567
  928MPD2    N113639   4.018   2.424   1.308  0.3226  0.1102 -0.7716
  928MPD2    H713640   3.924   2.434   1.344  0.5207  2.0925 -0.7663
  929MPD2     C13641   3.993   2.173   9.759  0.0490 -0.4883 -0.9518
  929MPD2    C113642   3.877   2.100   9.802 -0.2171 -0.1636  0.2914
  929MPD2    C213643   3.772   2.098   9.711 -0.1495 -0.1220  0.6580
  929MPD2    C313644   3.776   2.157   9.583 -0.0473  0.6053 -0.2248
  929MPD2    C413645   3.892   2.217   9.547 -0.6533  0.7893  0.3164
  929MPD2    C513646   3.997   2.220   9.629 -0.0950  0.7752 -0.6463
  929MPD2     H13647   3.673   2.067   9.741 -0.2098 -0.4135  0.1606
  929MPD2    H113648   3.911   2.260   9.449 -0.6684  1.2407  0.5143
  929MPD2    H213649   4.080   2.187   9.822  0.3961  1.2132 -1.8121
  929MPD2    H313650   4.092   2.261   9.596 -0.3533  1.4281 -0.5608
  929MPD2     N13651   3.657   2.175   9.505 -0.0341 -0.1009  0.2687
  929MPD2    H513652   3.669   2.228   9.419  0.8150  1.5827  1.4398
  929MPD2    N113653   3.875   2.055   9.934 -0.2024  0.5393 -0.2071
  929MPD2    H713654   3.960   2.071   9.989 -1.2054 -0.2928  1.6072
  930MPD2     C13655   1.229   3.894  14.297 -0.7403  0.4226 -0.1980
  930MPD2    C113656   1.356   3.926  14.251 -0.1056 -0.2072 -0.0779
  930MPD2    C213657   1.396   3.907  14.121 -0.8269  0.1772 -0.2110
  930MPD2    C313658   1.303   3.865  14.028  0.5476 -0.4492  0.2899
  930MPD2    C413659   1.180   3.825  14.076 -0.3499  0.8251  0.3420
  930MPD2    C513660   1.143   3.840  14.204  0.8604  0.4080  0.2892
  930MPD2     H13661   1.493   3.936  14.083 -0.6230 -0.4498 -0.1738
  930MPD2    H113662   1.109   3.799  13.998  1.0484  2.0501 -1.3486
  930MPD2    H213663   1.196   3.900  14.400  2.8611  1.6788  0.8750
  930MPD2    H313664   1.042   3.814  14.232  1.0141 -0.6227 -0.1174
  930MPD2     N13665   1.318   3.861  13.886 -0.4436 -0.2882 -0.0638
  930MPD2    H513666   1.252   3.815  13.824 -2.6189 -0.4506  2.3638
  930MPD2    N113667   1.450   3.972  14.347 -0.0149 -0.2875 -0.2285
  930MPD2    H713668   1.405   4.015  14.427 -0.5842 -1.8274  0.2912
  931MPD2     C13669   2.215   3.042   0.247  0.8263 -1.1832  0.1869
  931MPD2    C113670   2.098   3.076   0.308  0.1562 -0.0149  0.0525
  931MPD2    C213671   2.078   3.049   0.440  0.0375  0.7945  0.2529
  931MPD2    C313672   2.175   2.983   0.513  0.3800 -0.5082  0.0016
  931MPD2    C413673   2.297   2.954   0.450  0.6912  0.5713  0.1602
  931MPD2    C513674   2.316   2.988   0.316 -0.3133  0.2636  0.0432
  931MPD2     H13675   1.990   3.089   0.490  0.9201  2.2483  0.6507
  931MPD2    H113676   2.377   2.893   0.492  1.0002  2.3469  2.1195
  931MPD2    H213677   2.239   3.061   0.143  1.9982  0.3384  0.7348
  931MPD2    H313678   2.416   2.975   0.275  0.4063  1.8924  1.2824
  931MPD2     N13679   2.155   2.947   0.644 -0.1682  0.2852 -0.1087
  931MPD2    H513680   2.240   2.915   0.690 -0.7807  1.1562  1.6581
  931MPD2    N113681   2.002   3.148   0.230 -0.5985 -0.3436 -0.0759
  931MPD2    H713682   2.039   3.169   0.138  1.0703 -0.0535  0.6737
  932MPD2     C13683   3.288   2.384  11.756  0.5317  0.3499 -0.2542
  932MPD2    C113684   3.194   2.461  11.708  0.2424  0.2069 -0.8565
  932MPD2    C213685   3.058   2.428  11.716  0.1836 -0.4207 -0.7599
  932MPD2    C313686   3.022   2.316  11.796 -0.1657  0.3197  0.4761
  932MPD2    C413687   3.124   2.235  11.851  0.2615  0.1700  0.7002
  932MPD2    C513688   3.247   2.263  11.810  0.3344  0.2359 -0.3387
  932MPD2     H13689   2.975   2.479  11.668  1.6219  0.8299 -1.8975
  932MPD2    H113690   3.103   2.148  11.913 -1.1784  0.6084  0.8277
  932MPD2    H213691   3.393   2.409  11.752  0.4713  0.6071 -0.2152
  932MPD2    H313692   3.332   2.202  11.836 -0.2330  0.2037  1.4571
  932MPD2     N13693   2.884   2.283  11.827 -0.7550 -0.9329 -1.0653
  932MPD2    H513694   2.865   2.212  11.897 -0.8253 -0.0507 -0.1891
  932MPD2    N113695   3.225   2.587  11.650  0.4515  0.1229 -0.1427
  932MPD2    H713696   3.147   2.642  11.615  1.6818  1.5998 -0.5480
  933MPD2     C13697   3.722   2.850   2.015  0.4194 -0.0026  0.3799
  933MPD2    C113698   3.713   2.788   1.893 -0.1151 -0.5721 -0.1650
  933MPD2    C213699   3.598   2.817   1.824  0.0498  0.3983 -0.2987
  933MPD2    C313700   3.493   2.881   1.880  0.1184 -1.0444 -0.5441
  933MPD2    C413701   3.503   2.935   2.008 -0.1202 -0.0255  0.3765
  933MPD2    C513702   3.622   2.917   2.072 -0.0571  0.2545  0.2763
  933MPD2     H13703   3.577   2.772   1.728 -0.4908  0.1650 -0.0741
  933MPD2    H113704   3.428   2.998   2.055  1.2166  1.8147  0.0140
  933MPD2    H213705   3.807   2.836   2.080  0.4957 -0.8018  0.1015
  933MPD2    H313706   3.645   2.965   2.167  1.9554 -0.3492  0.1022
  933MPD2     N13707   3.365   2.881   1.813 -0.0180 -0.3217 -0.1178
  933MPD2    H513708   3.356   2.856   1.715  3.4512  1.8166 -0.9402
  933MPD2    N113709   3.815   2.707   1.846 -0.3290 -0.7586  0.5818
  933MPD2    H713710   3.891   2.700   1.913 -1.7633 -0.5382  2.2531
  934MPD2     C13711   1.221   4.120   1.827  0.5651  0.9548 -0.1222
  934MPD2    C113712   1.259   3.983   1.826 -0.2978 -0.5160 -0.4767
  934MPD2    C213713   1.162   3.894   1.801 -0.0061  0.0517 -0.0831
  934MPD2    C313714   1.027   3.927   1.789 -0.0130  0.5381  0.2113
  934MPD2    C413715   0.994   4.058   1.804  0.3373 -0.6317  0.1169
  934MPD2    C513716   1.092   4.151   1.821  0.4001  0.1121  0.7623
  934MPD2     H13717   1.191   3.790   1.792 -0.0950  0.1290 -1.2189
  934MPD2    H113718   0.889   4.084   1.804  1.0995  2.3821 -0.1404
  934MPD2    H213719   1.296   4.198   1.838 -1.3776  2.8473 -0.3929
  934MPD2    H313720   1.060   4.254   1.826 -0.4476 -0.0332 -1.8798
  934MPD2     N13721   0.922   3.841   1.764 -0.1472 -0.0270 -0.3713
  934MPD2    H513722   0.829   3.876   1.740 -1.3313 -1.9846  1.3408
  934MPD2    N113723   1.395   3.941   1.828 -0.3511 -0.1566 -0.2991
  934MPD2    H713724   1.413   3.841   1.823 -0.8563 -0.0355 -4.1512
  935MPD2     C13725   1.156   3.191   1.090 -0.1355 -0.5801 -0.8368
  935MPD2    C113726   1.021   3.201   1.073  0.2407 -0.0103  0.1539
  935MPD2    C213727   0.951   3.279   1.169 -0.0201  0.8771  0.1198
  935MPD2    C313728   1.019   3.333   1.283  0.0829 -0.5775  0.4353
  935MPD2    C413729   1.153   3.323   1.297 -0.2914  0.0429 -0.1867
  935MPD2    C513730   1.220   3.252   1.199  1.0110  0.0982 -0.0502
  935MPD2     H13731   0.843   3.288   1.161 -0.1695 -2.1038 -1.1248
  935MPD2    H113732   1.205   3.348   1.388  1.7302  1.2840 -1.7016
  935MPD2    H213733   1.220   3.130   1.027  1.4312 -1.1916  1.3322
  935MPD2    H313734   1.325   3.230   1.212  1.5924  3.1378  0.3065
  935MPD2     N13735   0.944   3.403   1.383 -0.4554  1.0548 -0.2950
  935MPD2    H513736   1.001   3.443   1.456 -0.3550  0.0550  0.1756
  935MPD2    N113737   0.954   3.141   0.966 -0.1249  0.5108 -0.8729
  935MPD2    H713738   0.857   3.165   0.948 -0.3869 -0.7267 -1.1207
  936MPD2     C13739   3.764   1.557  11.774  0.3328 -0.1103  0.0039
  936MPD2    C113740   3.716   1.653  11.860 -0.4553 -0.4344  0.0467
  936MPD2    C213741   3.784   1.767  11.886 -0.1484 -0.7748 -0.2217
  936MPD2    C313742   3.898   1.795  11.818  0.7683  0.0500  0.7538
  936MPD2    C413743   3.947   1.698  11.735  0.4036  0.8516 -0.8824
  936MPD2    C513744   3.879   1.583  11.704  0.5815  0.3128 -0.0906
  936MPD2     H13745   3.745   1.840  11.955  0.1616  0.9456 -1.8632
  936MPD2    H113746   4.047   1.706  11.695  0.1788  3.7902 -0.8735
  936MPD2    H213747   3.705   1.468  11.755 -0.9760  0.4034  1.7105
  936MPD2    H313748   3.922   1.519  11.628 -0.5046  2.4165 -2.4646
  936MPD2     N13749   3.967   1.920  11.839 -0.0915  0.9346 -0.0141
  936MPD2    H513750   4.060   1.919  11.798  1.5235  0.0921  3.6854
  936MPD2    N113751   3.593   1.632  11.928  0.3758 -0.5246  0.0673
  936MPD2    H713752   3.564   1.712  11.983 -1.5368 -0.7697 -0.5873
  937MPD2     C13753   1.291   1.844  11.222 -0.6710  0.4306 -0.7648
  937MPD2    C113754   1.307   1.975  11.266  1.2376  0.3036  0.2247
  937MPD2    C213755   1.414   2.039  11.217 -0.7258  0.1817 -1.2873
  937MPD2    C313756   1.489   1.987  11.109 -0.3277  0.2895 -0.0072
  937MPD2    C413757   1.461   1.862  11.065  0.0092 -0.2146 -0.2386
  937MPD2    C513758   1.358   1.794  11.117 -0.3199  0.3382 -0.5138
  937MPD2     H13759   1.452   2.133  11.256  0.4663 -1.4346  1.3998
  937MPD2    H113760   1.515   1.804  10.991 -1.8929  0.4820 -2.1963
  937MPD2    H213761   1.225   1.777  11.276 -0.0035  0.5834  0.2559
  937MPD2    H313762   1.348   1.689  11.091 -2.0524  0.6113 -0.9210
  937MPD2     N13763   1.600   2.061  11.062  0.0155 -0.4719 -0.4647
  937MPD2    H513764   1.631   2.141  11.116  1.6218 -1.0838 -0.4916
  937MPD2    N113765   1.251   2.018  11.389 -0.0773 -0.1627  0.2409
  937MPD2    H713766   1.287   2.107  11.423  1.3794 -0.8095  0.3922
  938MPD2     C13767   4.452   3.592   1.194  0.2653  1.1667 -0.2489
  938MPD2    C113768   4.568   3.578   1.261 -0.3025 -0.5041 -0.0406
  938MPD2    C213769   4.570   3.524   1.389  0.0517  0.3311 -0.7077
  938MPD2    C313770   4.450   3.483   1.454  0.1357  0.5235  0.1444
  938MPD2    C413771   4.338   3.490   1.377 -0.6931  0.5581  0.4159
  938MPD2    C513772   4.333   3.547   1.252 -0.2137  0.3035  0.0590
  938MPD2     H13773   4.662   3.514   1.445  0.9302 -0.0029 -2.2433
  938MPD2    H113774   4.243   3.456   1.417 -1.0334  1.2156  0.1588
  938MPD2    H213775   4.445   3.633   1.094  1.3730  1.6677 -0.1199
  938MPD2    H313776   4.238   3.559   1.201  0.6717  0.1851 -1.6231
  938MPD2     N13777   4.436   3.425   1.585  0.3824 -0.0046 -0.1714
  938MPD2    H513778   4.342   3.389   1.598  0.4634  0.6072  2.0663
  938MPD2    N113779   4.693   3.631   1.206 -0.0258 -0.3107 -0.0661
  938MPD2    H713780   0.040   3.630   1.266 -0.1877  0.3800  0.1531
  939MPD2     C13781   1.608   4.301   0.879 -0.1701  0.3622 -0.1326
  939MPD2    C113782   1.506   4.378   0.890  0.1563  0.2437 -0.5151
  939MPD2    C213783   1.424   4.408   0.784  1.0306  0.5255  0.3090
  939MPD2    C313784   1.447   4.356   0.657 -0.1238  0.6351 -0.3401
  939MPD2    C413785   1.548   4.262   0.652 -0.2977 -1.4325 -0.3556
  939MPD2    C513786   1.633   4.234   0.758  0.7233 -0.7207 -0.4140
  939MPD2     H13787   1.337   4.471   0.797  0.7345 -0.3497  2.6901
  939MPD2    H113788   1.565   4.201   0.564  0.9806 -3.4083  1.2577
  939MPD2    H213789   1.679   4.291   0.960  0.3395  1.0777 -0.4887
  939MPD2    H313790   1.724   4.177   0.747  0.9128 -0.3627 -0.7173
  939MPD2     N13791   1.369   4.403   0.552  0.6836  0.0881 -0.5990
  939MPD2    H513792   1.310   4.483   0.570  0.8616  0.3286 -1.0849
  939MPD2    N113793   1.504   4.449   1.009  0.6184  0.3498  0.5957
  939MPD2    H713794   1.580   4.425   1.071  0.9332 -1.1161 -0.3629
  940MPD2     C13795   3.474   0.532  14.062 -0.4028 -0.5932 -0.2679
  940MPD2    C113796   3.607   0.574  14.091 -0.6589  0.5277  0.0624
  940MPD2    C213797   3.703   0.578  13.984  0.3022  0.7963  0.5365
  940MPD2    C313798   3.656   0.558  13.848 -0.2027  0.0801  0.2831
  940MPD2    C413799   3.529   0.515  13.825 -0.8564  0.3222 -0.3654
  940MPD2    C513800   3.444   0.504  13.930  0.0576  0.0632 -0.3608
  940MPD2     H13801   3.803   0.615  14.002 -0.2310  3.9445 -2.9924
  940MPD2    H113802   3.492   0.498  13.725 -0.0653 -0.3217 -0.5519
  940MPD2    H213803   3.387   0.529  14.126 -2.3172 -2.2227 -2.9290
  940MPD2    H313804   3.341   0.476  13.912 -0.2981  0.8301  0.4863
  940MPD2     N13805   3.746   0.585  13.740  0.0746  1.0478 -0.1052
  940MPD2    H513806   3.838   0.620  13.764 -0.1779  0.6931  1.3747
  940MPD2    N113807   3.637   0.638  14.212 -0.3585  0.4424  0.3121
  940MPD2    H713808   3.727   0.686  14.211  0.0366 -0.3507 -1.8801
  941MPD2     C13809   3.277   0.235  10.263 -0.6609  0.4796 -0.0536
  941MPD2    C113810   3.371   0.183  10.175 -0.0183  0.6776  0.2049
  941MPD2    C213811   3.372   0.048  10.157 -0.0138  0.0686 -1.0623
  941MPD2    C313812   3.283   4.702  10.224 -0.3902 -0.7665  0.1632
  941MPD2    C413813   3.200   0.021  10.325 -0.2093 -0.9273 -0.1532
  941MPD2    C513814   3.198   0.158  10.337 -0.2266  0.8140 -0.3351
  941MPD2     H13815   3.440   0.008  10.081 -1.8012 -0.7580 -2.2296
  941MPD2    H113816   3.132   4.698  10.387  0.0428  0.2168  1.1927
  941MPD2    H213817   3.268   0.340  10.285  0.9617  0.8938 -1.3427
  941MPD2    H313818   3.130   0.198  10.412  0.8132  0.0861  0.9837
  941MPD2     N13819   3.277   4.563  10.209  0.4386 -0.0036 -0.4360
  941MPD2    H513820   3.223   4.526  10.287  0.1521 -1.3262 -1.2624
  941MPD2    N113821   3.462   0.261  10.108  0.0355  0.0493  0.1841
  941MPD2    H713822   3.521   0.206  10.045 -1.0856 -1.6517  0.6232
  942MPD2     C13823   3.298   2.029   8.425 -0.4533  0.7887 -0.5153
  942MPD2    C113824   3.209   2.060   8.529  0.2994 -0.4657  0.5246
  942MPD2    C213825   3.229   1.986   8.642 -0.4235  0.2378  0.5436
  942MPD2    C313826   3.340   1.900   8.657 -0.2144 -0.6325 -0.3810
  942MPD2    C413827   3.431   1.878   8.560  0.0914  0.1895 -0.6195
  942MPD2    C513828   3.402   1.948   8.448  0.2176 -0.5097  0.2284
  942MPD2     H13829   3.153   1.995   8.719 -0.8065 -1.1649  0.3170
  942MPD2    H113830   3.515   1.809   8.556  1.4024  1.7276  0.5347
  942MPD2    H213831   3.295   2.063   8.322  2.4591 -2.0823 -1.5731
  942MPD2    H313832   3.473   1.941   8.366  0.8059  0.2637  0.6810
  942MPD2     N13833   3.373   1.845   8.774 -0.1367  0.1346  0.6927
  942MPD2    H513834   3.462   1.796   8.778 -0.6131 -0.9399 -2.7343
  942MPD2    N113835   3.103   2.152   8.524  0.4455  0.5352  0.2401
  942MPD2    H713836   3.031   2.150   8.596  0.0327 -0.6399 -0.2114
  943MPD2     C13837   2.411   0.657  10.413  0.2676 -0.6274 -0.0374
  943MPD2    C113838   2.350   0.545  10.472 -0.3223  0.0001  0.3544
  943MPD2    C213839   2.210   0.544  10.489  0.3250  0.1773  0.1060
  943MPD2    C313840   2.130   0.651  10.450 -0.2233 -0.7034 -0.1240
  943MPD2    C413841   2.196   0.763  10.399  0.0142  0.3202 -0.4065
  943MPD2    C513842   2.327   0.762  10.383  0.1496 -0.0318 -0.2825
  943MPD2     H13843   2.153   0.463  10.532  1.8428 -1.0529 -0.1804
  943MPD2    H113844   2.133   0.847  10.372  1.5414  1.6981  0.3490
  943MPD2    H213845   2.517   0.663  10.395  0.4113  1.5570  1.4693
  943MPD2    H313846   2.361   0.857  10.344  1.8824 -0.6170 -0.1989
  943MPD2     N13847   1.991   0.655  10.472 -0.2590 -0.1162  0.0303
  943MPD2    H513848   1.948   0.746  10.465  1.1402  0.5230 -0.1327
  943MPD2    N113849   2.426   0.432  10.505  0.1177  0.0145 -0.0530
  943MPD2    H713850   2.518   0.426  10.462 -0.3727  0.9244 -1.2185
  944MPD2     C13851   1.804   4.162  11.116 -0.1568  0.1028 -0.0308
  944MPD2    C113852   1.903   4.242  11.174  0.0370 -0.2446  0.5529
  944MPD2    C213853   1.856   4.336  11.263  0.1928 -0.4810 -0.4057
  944MPD2    C313854   1.724   4.342  11.313  0.1028 -0.2580 -0.4391
  944MPD2    C413855   1.629   4.255  11.261  0.1327 -0.1027 -0.0107
  944MPD2    C513856   1.673   4.169  11.163 -0.1079 -0.3175 -0.9676
  944MPD2     H13857   1.927   4.410  11.298 -0.2729  0.8616 -2.2901
  944MPD2    H113858   1.526   4.258  11.293 -0.0205  0.3179 -0.5471
  944MPD2    H213859   1.825   4.111  11.023  1.0793 -0.1055  0.3546
  944MPD2    H313860   1.599   4.115  11.105  1.7596 -2.0292 -1.7547
  944MPD2     N13861   1.693   4.450  11.398  0.9729 -0.4743 -0.5244
  944MPD2    H513862   1.758   4.527  11.403  0.0253  0.2665  0.4241
  944MPD2    N113863   2.038   4.219  11.141 -0.1128 -0.1337  0.7703
  944MPD2    H713864   2.061   4.151  11.070  2.2437 -0.0358  1.4140
    1TMC1    C113865   0.897   4.012  13.491  0.4357  0.1830  0.6930
    1TMC1    C213866   0.889   4.125  13.411 -1.1201  1.1492  0.8668
    1TMC1    C313867   0.923   4.106  13.279  0.7921 -0.2563 -0.0838
    1TMC1    C413868   0.967   3.901  13.447 -0.0847 -0.0228 -0.0741
    1TMC1    C513869   1.020   3.901  13.324  0.0040 -0.0351  0.0017
    1TMC1    C613870   0.994   3.999  13.230  1.0678 -0.4092 -0.4951
    1TMC1     C13871   0.904   4.039  13.632  0.1195  0.0345  0.8600
    1TMC1     O13872   0.953   3.951  13.701  0.1703  0.4679  0.1750
    1TMC1     H13873   0.857   4.223  13.446 -2.2420  1.4909 -1.1382
    1TMC1    H113874   0.971   3.812  13.508 -0.0048 -0.3950 -0.6273
    1TMC1    H213875   1.010   3.979  13.125  1.0442 -0.6265 -0.4572
    1TMC1    C713876   1.095   3.789  13.288 -0.4262 -0.1167  0.0520
    1TMC1    C813877   0.882   4.214  13.186  0.0054  0.1064 -0.5004
    1TMC1    O113878   1.083   3.677  13.336  0.7382 -0.2449 -0.7212
    1TMC1    O213879   0.914   4.213  13.067 -0.1006  0.1110 -0.2357
    1TMC1    O313880   1.209   3.835  13.240 -0.1893  0.5449  0.2802
    1TMC1    H313881   1.196   3.929  13.214 -0.5304  0.5865  0.6102
    1TMC1    O513882   0.799   4.306  13.245 -0.0412  0.1020  0.8592
    1TMC1    H513883   0.767   4.275  13.332 -0.0804 -1.4365  0.2999
    2MPD2     C13884   0.761   4.298  14.070 -0.3030  0.2871 -0.5373
    2MPD2    C113885   0.702   4.362  13.961  0.0668  0.0149  0.1168
    2MPD2    C213886   0.730   4.315  13.831  0.2642 -1.1017  0.7976
    2MPD2    C313887   0.806   4.197  13.804 -0.3659 -0.4931  0.2350
    2MPD2    C413888   0.858   4.137  13.917  0.1856 -0.3987 -0.1654
    2MPD2    C513889   0.844   4.193  14.041  0.4107 -0.1943  0.0736
    2MPD2     H13890   0.681   4.370  13.752 -0.5262  0.6191  2.4939
    2MPD2    H113891   0.910   4.044  13.902  0.4526 -0.4584  1.1678
    2MPD2    H213892   0.763   4.340  14.170 -1.5380 -0.6638 -0.1148
    2MPD2    H313893   0.910   4.157  14.119 -1.0035 -4.7523 -0.7815
    2MPD2     N13894   0.828   4.150  13.672  0.1019 -0.0417 -0.3182
    2MPD2    H513895   0.777   4.201  13.601  0.2605 -2.3448 -2.0752
    2MPD2    N113896   0.611   4.470  13.985 -0.0713  0.4860  0.3050
    2MPD2    H713897   0.599   4.493  14.083 -0.1200  0.0180  0.4048
    3TMC2    C113898   0.418   4.596  13.963  0.8090  0.1769  0.4650
    3TMC2    C213899   0.416   4.611  14.102  0.0013 -0.3210  0.0376
    3TMC2    C313900   0.306   4.681  14.150  0.4049  0.4708 -0.4838
    3TMC2    C413901   0.312   4.635  13.885 -0.1011  0.6293  0.5310
    3TMC2    C513902   0.208   4.703  13.944  0.7936 -0.2099  0.4566
    3TMC2    C613903   0.200   4.729  14.076 -0.1121  0.6321  0.2069
    3TMC2     C13904   0.523   4.533  13.894 -1.0042 -0.3355  0.4964
    3TMC2     O13905   0.519   4.536  13.771 -0.3593  0.0858 -0.5403
    3TMC2     H13906   0.508   4.615  14.158 -0.6423  2.4056  0.8912
    3TMC2    H113907   0.305   4.617  13.779  1.8507 -0.9521  0.6692
    3TMC2    H213908   0.109   0.031  14.123 -1.0466 -1.8341  0.3274
    3TMC2    C713909   0.100   0.003  13.858 -0.3086  0.0793 -0.2975
    3TMC2    C813910   0.310   4.713  14.298 -0.8368  0.8771 -0.5582
    3TMC2    O113911   0.093   4.682  13.752 -0.2436  0.0164  0.3812
    3TMC2    O213912   0.262   0.080  14.346  0.1858  0.5616 -0.8639
    3TMC2    O513913   0.333   4.598  14.362  0.5938  0.1604  1.0221
    3TMC2    H513914   0.357   4.528  14.298 -0.3210  0.6094  0.1747
    4TMC2    C113915   4.167   0.750  13.949 -0.2045  0.7521 -0.4754
    4TMC2    C213916   4.224   0.845  14.026 -0.1762  0.7536 -0.5080
    4TMC2    C313917   4.328   0.817  14.113  0.6410  0.3018 -0.1229
    4TMC2    C413918   4.216   0.619  13.945 -0.2813  0.3379 -0.4688
    4TMC2    C513919   4.317   0.595  14.035 -0.3091  0.7007  0.3172
    4TMC2    C613920   4.362   0.686  14.131 -0.2086  0.5968  0.1856
    4TMC2     C13921   4.064   0.786  13.850  0.5759 -0.0337  0.8034
    4TMC2     O13922   3.984   0.693  13.831  0.6480 -0.2099 -0.2659
    4TMC2     H13923   4.198   0.950  14.012 -1.0414  0.3549 -1.9164
    4TMC2    H113924   4.164   0.541  13.890  0.1508  0.1227 -0.5678
    4TMC2    H213925   4.449   0.659  14.190 -0.4514  2.4143  1.3697
    4TMC2    C713926   4.403   0.480  14.002 -0.2554  0.1029  0.1111
    4TMC2    C813927   4.369   0.921  14.209  0.3372  0.8694  0.5268
    4TMC2    O113928   4.478   0.446  14.093  0.1178 -0.8106 -0.5808
    4TMC2    O213929   4.475   0.908  14.273  0.5197 -0.1925  0.7099
    4TMC2    O513930   4.253   0.976  14.249 -0.3344  0.0881 -0.2116
    4TMC2    H513931   4.181   0.964  14.183  1.2369 -0.8356 -1.7210
    5MPD2     C13932   3.825   1.056  13.495 -0.0230  0.3045  0.2275
    5MPD2    C113933   3.948   1.119  13.515  0.0767 -0.0071 -0.1522
    5MPD2    C213934   4.036   1.062  13.606  0.2111  0.2606  0.9260
    5MPD2    C313935   4.000   0.948  13.675 -0.7141  0.2189  0.1636
    5MPD2    C413936   3.870   0.901  13.665  0.1259  0.1552 -0.0611
    5MPD2    C513937   3.786   0.949  13.572 -0.0812 -0.4764  1.2345
    5MPD2     H13938   4.137   1.100  13.606  0.1685  0.3829 -1.1115
    5MPD2    H113939   3.821   0.826  13.727 -0.7479 -0.0441 -1.0003
    5MPD2    H213940   3.747   1.102  13.435  1.1578  2.9353  0.7328
    5MPD2    H313941   3.689   0.905  13.551  0.1428 -0.6639  0.6068
    5MPD2     N13942   4.093   0.896  13.771 -0.2806  0.5715  0.2042
    5MPD2    H513943   4.178   0.948  13.789 -0.0481  0.2391  0.0621
    5MPD2    N113944   3.975   1.246  13.453 -0.3106 -0.6373 -0.2189
    5MPD2    H713945   3.909   1.268  13.379 -0.4789  2.7935  0.9485
    6MPD1     C13946   2.708   2.505  13.354 -0.1254  0.8227  0.2676
    6MPD1    C113947   2.810   2.580  13.398 -0.1825 -0.6691 -0.4158
    6MPD1    C213948   2.936   2.538  13.365 -0.8216  0.1143  0.3725
    6MPD1    C313949   2.958   2.417  13.286  1.1174  0.0868  0.1822
    6MPD1    C413950   2.853   2.340  13.250 -0.2594  0.1910  0.6426
    6MPD1    C513951   2.720   2.387  13.278  0.0258  0.1147 -0.0626
    6MPD1     H13952   3.018   2.598  13.401 -0.1343  0.0035 -0.9897
    6MPD1    H113953   2.863   2.238  13.214 -0.7018  0.9666 -1.6780
    6MPD1    H213954   2.605   2.533  13.370 -0.2762 -1.1656  2.9104
    6MPD1    H313955   2.637   2.329  13.239 -0.2243  0.3187  0.1662
    6MPD1     N13956   3.080   2.376  13.229  0.4385 -0.4691  0.6141
    6MPD1    H513957   3.078   2.304  13.158  3.4015 -0.8784  0.9533
    6MPD1    N113958   2.785   2.705  13.458  0.2731  0.4582  0.3093
    6MPD1    H613959   2.720   2.699  13.536  0.2256 -0.0686  0.2343
    6MPD1    H713960   2.874   2.742  13.490 -0.5906  0.8793  2.2112
    7MPD2     C13961   3.422   1.723  13.079  0.6450  0.1780  0.1177
    7MPD2    C113962   3.518   1.814  13.120 -0.3471  0.2256  0.1933
    7MPD2    C213963   3.640   1.770  13.158 -0.0979 -0.1080  1.0982
    7MPD2    C313964   3.669   1.640  13.149 -0.0831 -0.6818 -0.0609
    7MPD2    C413965   3.579   1.554  13.101 -0.5519  0.0592  0.0001
    7MPD2    C513966   3.455   1.590  13.059  0.5473  0.1555 -0.1718
    7MPD2     H13967   3.702   1.840  13.213 -1.8457  3.9424 -2.0990
    7MPD2    H113968   3.604   1.449  13.090 -1.5583 -0.3199  1.3728
    7MPD2    H213969   3.319   1.743  13.050 -0.3284 -2.2750  1.8315
    7MPD2    H313970   3.381   1.520  13.021 -0.7910  2.4450 -1.7842
    7MPD2     N13971   3.804   1.594  13.179 -0.1620 -0.4187  0.1004
    7MPD2    H513972   3.817   1.495  13.197 -1.1857 -0.6010 -0.1704
    7MPD2    N113973   3.503   1.954  13.123  0.3526 -0.5227  0.0676
    7MPD2    H713974   3.587   1.997  13.159  0.4136  1.4807 -2.4353
    8TMC3    C113975   4.043   1.594  13.238  0.0077  0.5141 -0.3079
    8TMC3    C213976   4.011   1.477  13.305  0.7961  0.1642  0.3136
    8TMC3    C313977   4.048   1.475  13.439 -0.1432  0.4922  0.7759
    8TMC3    C413978   4.123   1.693  13.285  0.6056 -0.2604 -0.2688
    8TMC3    C513979   4.151   1.696  13.416 -0.5949  0.4000 -0.8297
    8TMC3    C613980   4.107   1.586  13.495 -0.0999  0.3065  0.6963
    8TMC3     C13981   3.919   1.669  13.204 -0.0872  0.2986 -1.0096
    8TMC3     O13982   3.937   1.787  13.188  0.4589 -0.5345 -0.6367
    8TMC3     H13983   3.969   1.399  13.242  1.2852 -0.1078  0.3203
    8TMC3    H113984   4.157   1.772  13.219 -0.4471 -0.9464 -1.6101
    8TMC3    H213985   4.133   1.584  13.600 -1.1386  0.8063  0.9651
    8TMC3    C713986   4.126   1.822  13.486  0.0953  0.6978  0.1030
    8TMC3    C813987   4.058   1.345  13.505  1.2202  0.1903  0.4093
    8TMC3    O113988   4.152   1.830  13.606 -0.6464 -0.0473  0.0526
    8TMC3    O213989   4.132   1.346  13.605  0.2730  0.3430  0.3852
    9TMC3    C113990   3.311   2.342  13.227 -0.1330  0.6599  0.4174
    9TMC3    C213991   3.434   2.398  13.255 -0.5591  0.2103 -0.8281
    9TMC3    C313992   3.548   2.341  13.199  0.8258  0.1538  0.4772
    9TMC3    C413993   3.292   2.227  13.154 -0.4280 -0.1890 -0.2189
    9TMC3    C513994   3.405   2.166  13.116 -0.2996 -0.0212 -0.2174
    9TMC3    C613995   3.530   2.218  13.137  0.5110  0.2893  0.6476
    9TMC3     C13996   3.201   2.425  13.273  0.2272  0.0384 -0.1046
    9TMC3     O13997   3.221   2.518  13.353  0.2482 -0.0569  0.1476
    9TMC3     H13998   3.442   2.486  13.318  1.6110 -0.3891 -0.2700
    9TMC3    H113999   3.200   2.170  13.164  1.8806 -3.9969 -0.7680
    9TMC3    H214000   3.621   2.183  13.089  0.2145 -0.4881  0.6469
    9TMC3    C714001   3.398   2.026  13.075 -0.6325  0.4248  0.1589
    9TMC3    C814002   3.667   2.354  13.291 -0.6769 -0.0583 -0.1293
    9TMC3    O114003   3.289   1.981  13.042 -0.2080  0.0907 -0.5934
    9TMC3    O214004   3.658   2.447  13.372 -0.1028 -0.4192 -0.1958
   10MPD2     C14005   4.015   2.100  13.565  0.1898 -0.3273 -0.1713
   10MPD2    C114006   3.993   2.025  13.447 -0.3098  0.6441  0.1870
   10MPD2    C214007   3.915   2.090  13.356  0.4590  0.5414 -0.4429
   10MPD2    C314008   3.847   2.205  13.375 -0.0940  0.0259 -0.4187
   10MPD2    C414009   3.858   2.268  13.494  0.0328 -0.3143 -0.0154
   10MPD2    C514010   3.947   2.216  13.590  0.0881  0.3180  0.1587
   10MPD2     H14011   3.902   2.047  13.257  0.5235  1.3130 -0.7908
   10MPD2    H114012   3.814   2.363  13.521 -1.4155 -1.2977  1.0686
   10MPD2    H214013   4.079   2.050  13.637  1.4892 -0.8725 -1.7035
   10MPD2    H314014   3.970   2.279  13.675  2.9471 -0.9043  0.2836
   10MPD2     N14015   3.750   2.242  13.281  0.4563  0.0428  0.2889
   10MPD2    H514016   3.750   2.185  13.197 -0.2645 -0.9903  0.9907
   10MPD2    N114017   4.050   1.904  13.406 -0.1134  0.7548  0.1860
   10MPD2    H714018   4.020   1.870  13.315  2.0043  0.6834 -0.4748
   11MPD2     C14019   4.620   0.134  13.701 -0.2295 -0.4791  0.7070
   11MPD2    C114020   4.661   0.169  13.826 -0.2390 -0.2478  0.3830
   11MPD2    C214021   4.587   0.272  13.880  0.5384 -0.7356 -0.4263
   11MPD2    C314022   4.481   0.340  13.818 -0.0252 -0.3624  0.0554
   11MPD2    C414023   4.459   0.312  13.689 -0.0063  0.1817 -0.2879
   11MPD2    C514024   4.522   0.206  13.635 -0.1467 -0.0877 -0.2074
   11MPD2     H14025   4.607   0.292  13.985  0.0785  0.8087 -0.6302
   11MPD2    H114026   4.380   0.368  13.640  0.4681  2.0955  1.1325
   11MPD2    H214027   4.676   0.065  13.639 -2.0631  0.1672 -1.6706
   11MPD2    H314028   4.500   0.172  13.534 -2.9613 -2.5565  1.2490
   11MPD2     N14029   4.412   0.446  13.872  0.4371  0.2376 -0.0332
   11MPD2    H514030   4.348   0.497  13.812 -2.0562 -1.5312  1.1183
   11MPD2    N114031   0.031   0.113  13.902 -0.3841  0.3637  0.3182
   11MPD2    H714032   0.051   0.156  13.992 -0.2412 -3.1238  1.9234
    1MPD1     C14033   2.456   2.904  17.249 -0.3719  0.4569  0.6112
    1MPD1    C114034   2.536   2.862  17.351 -0.0407  0.1222 -0.7759
    1MPD1    C214035   2.675   2.878  17.335 -0.2289 -0.4569  0.1519
    1MPD1    C314036   2.723   2.952  17.232  0.2931  0.2599  0.2701
    1MPD1    C414037   2.650   3.006  17.135 -0.7256  0.0191  0.1642
    1MPD1    C514038   2.514   2.981  17.149  0.4499 -0.4080 -0.1744
    1MPD1     H14039   2.735   2.825  17.408  0.6348  1.9008  1.1588
    1MPD1    H114040   2.683   3.067  17.051 -2.4952  0.5273 -0.1575
    1MPD1    H214041   2.349   2.898  17.262 -0.4981 -0.1899 -0.8472
    1MPD1    H314042   2.444   3.025  17.079 -0.8184  0.0263  1.3392
    1MPD1     N14043   2.859   2.980  17.216 -0.2567  0.2939 -0.2650
    1MPD1    H514044   2.887   3.044  17.143  2.0743 -1.8393 -1.2640
    1MPD1    N114045   2.485   2.776  17.447  0.1182 -0.5895  0.3102
    1MPD1    H614046   2.394   2.804  17.481  1.5276  2.0775  1.9032
    1MPD1    H714047   2.541   2.782  17.532  0.5593  1.2708 -0.1272
    2MPD1     C14048   3.767   3.427  17.568  0.0445  0.3632 -0.1703
    2MPD1    C114049   3.752   3.446  17.430  0.0094  0.8944 -0.6881
    2MPD1    C214050   3.650   3.380  17.363  0.3045 -1.1360 -0.0244
    2MPD1    C314051   3.565   3.299  17.423  0.3957 -0.6552 -0.0016
    2MPD1    C414052   3.589   3.273  17.555  0.2597 -0.1145  0.1412
    2MPD1    C514053   3.691   3.331  17.627 -0.0462  0.0699  0.5659
    2MPD1     H14054   3.631   3.406  17.259  0.1211 -0.7444  0.1047
    2MPD1    H114055   3.529   3.203  17.612  1.9378 -2.4401 -0.9403
    2MPD1    H214056   3.852   3.461  17.626  0.5289 -0.0992 -0.6188
    2MPD1    H314057   3.700   3.323  17.735 -1.1840 -1.1803  0.5825
    2MPD1     N14058   3.461   3.239  17.350  0.0833 -0.2072  0.0115
    2MPD1    H514059   3.465   3.257  17.250 -1.0397 -0.6735 -0.1071
    2MPD1    N114060   3.857   3.499  17.360 -0.8341  0.4612 -0.3159
    2MPD1    H614061   3.818   3.552  17.282  0.2105 -0.3469 -1.3835
    2MPD1    H714062   3.912   3.568  17.410 -2.1713  0.7405  0.7869
    3TMC3    C114063   3.267   3.116  17.303 -0.0584  0.1996 -0.9943
    3TMC3    C214064   3.304   3.113  17.171  0.9587  0.6591 -0.4769
    3TMC3    C314065   3.232   3.037  17.085  0.2266 -0.2354  0.4790
    3TMC3    C414066   3.160   3.044  17.349 -0.0567 -0.4052 -0.6464
    3TMC3    C514067   3.077   2.989  17.252  0.1321 -0.7822 -0.2694
    3TMC3    C614068   3.116   2.975  17.121  0.4304  0.1000 -0.4811
    3TMC3     C14069   3.354   3.171  17.405 -0.2955 -0.4663  0.3188
    3TMC3     O14070   3.324   3.154  17.523  0.2196  0.1068  0.4437
    3TMC3     H14071   3.400   3.154  17.141  1.6006 -0.5927 -0.1350
    3TMC3    H114072   3.135   3.037  17.454  1.6068  0.4021 -0.1939
    3TMC3    H214073   3.047   2.938  17.046 -0.4662 -0.7245  0.7368
    3TMC3    C714074   2.959   2.929  17.298 -0.0069 -0.5080 -0.3314
    3TMC3    C814075   3.247   3.070  16.938  0.0674 -0.2927 -0.1879
    3TMC3    O114076   2.948   2.870  17.406 -0.3685 -0.0228  0.2841
    3TMC3    O214077   3.144   3.075  16.878 -0.2630  0.3396  0.1498
    4MPD1     C14078   3.531   3.181  16.545 -0.5210 -0.2666 -0.8245
    4MPD1    C114079   3.609   3.120  16.633  0.1342  0.1449 -0.1436
    4MPD1    C214080   3.554   3.090  16.758 -0.0311 -0.2818  0.1436
    4MPD1    C314081   3.421   3.120  16.781  0.4268 -0.1403  0.3953
    4MPD1    C414082   3.340   3.188  16.695 -0.4875 -0.6914 -0.3903
    4MPD1    C514083   3.401   3.216  16.573  0.0189 -0.0902 -0.1129
    4MPD1     H14084   3.606   3.040  16.839  0.8307  1.7054  0.8105
    4MPD1    H114085   3.243   3.232  16.715 -1.5392 -2.6533 -1.1417
    4MPD1    H214086   3.580   3.207  16.452  1.0614  1.6970  0.5490
    4MPD1    H314087   3.350   3.278  16.501  2.0172  1.6626 -0.0309
    4MPD1     N14088   3.374   3.078  16.907  0.0953  0.0558  0.0625
    4MPD1    H514089   3.436   3.025  16.968  2.0971  2.7232  0.3838
    4MPD1    N114090   3.749   3.115  16.609 -0.8396 -0.0879 -0.1566
    4MPD1    H614091   3.791   3.051  16.676 -1.0356 -1.2852 -1.1728
    4MPD1    H714092   3.763   3.078  16.515 -1.5348 -3.1270  0.9390
    1TCq1    O114093   2.924   0.076  11.185 -0.3251 -0.0283  0.5620
    1TCq1    C114094   2.795   0.131  11.204  0.0166  0.2707  0.9102
    1TCq1    O214095   2.690   0.071  11.184  0.1458 -0.1353  0.1695
    1TCq1    C214096   2.802   0.275  11.229 -0.0126  0.4236 -0.4659
    1TCq1    C314097   2.684   0.329  11.279 -0.1372  0.3088 -0.5577
    1TCq1    C414098   2.663   0.465  11.273 -0.2268  0.2141  0.1096
    1TCq1    C514099   2.768   0.548  11.226  0.7313 -0.0387  0.1973
    1TCq1    C614100   2.873   0.483  11.167 -0.5245 -0.0342 -0.6855
    1TCq1    C714101   2.902   0.353  11.169 -0.3782  0.1727  0.1212
    1TCq1    C814102   2.957   0.557  11.081 -0.0372  0.5181 -0.5110
    1TCq1    O414103   3.070   0.518  11.062  0.6068  0.2140  0.0215
    1TCq1    C914104   2.567   0.518  11.368  0.7512  0.6343  0.2332
    1TCq1    O514105   2.456   0.459  11.386 -0.0865  0.4901  0.3649
    1TCq1    O614106   2.594   0.626  11.424  0.1008 -0.2999 -0.0485
    1TCq1    H114107   2.996   0.131  11.222 -1.1430  1.1461  0.4215
    1TCq1    H214108   2.610   0.262  11.323  1.3753 -1.7662 -1.1890
    1TCq1    H314109   2.778   0.653  11.248 -0.1842 -0.3023  1.8977
    1TCq1    H414110   2.978   0.308  11.106  0.4504  2.9462 -0.8729
    2MPD1     C14111   3.017   0.907  10.715 -0.1631 -0.5107  0.4194
    2MPD1    C114112   2.900   0.931  10.785 -0.5762  0.0049 -1.1285
    2MPD1    C214113   2.865   0.848  10.888 -0.3131 -0.5039 -0.0107
    2MPD1    C314114   2.945   0.742  10.920 -0.0439  0.4382 -0.0432
    2MPD1    C414115   3.067   0.719  10.856  0.0622  0.3878 -0.2001
    2MPD1    C514116   3.108   0.803  10.752 -0.1333 -0.2317 -0.4957
    2MPD1     H14117   2.774   0.882  10.937 -0.1866 -0.7582  0.3988
    2MPD1    H114118   3.136   0.639  10.882 -2.1134 -1.4175  0.0459
    2MPD1    H214119   3.032   0.962  10.623  0.9701  0.4512  1.1743
    2MPD1    H314120   3.208   0.790  10.714  0.6725  0.1344  1.5162
    2MPD1     N14121   2.889   0.656  11.021  0.2630 -0.2209 -0.2579
    2MPD1    H514122   2.796   0.678  11.056 -0.4772  0.8394 -2.9096
    2MPD1    N114123   2.812   1.025  10.735 -0.0203 -0.1381 -0.3143
    2MPD1    H614124   2.871   1.098  10.697 -0.5753  1.2423  1.4816
    2MPD1    H714125   2.753   1.066  10.807 -1.3086 -1.7783 -0.4295
    1TMC1    C114126   1.566   0.327   0.684 -0.2168  0.5988 -0.3022
    1TMC1    C214127   1.570   0.301   0.818 -0.5223 -0.1390 -0.4302
    1TMC1    C314128   1.594   0.176   0.855 -0.3415  0.5282 -0.0286
    1TMC1    C414129   1.573   0.226   0.598  0.2950  0.8287  0.6844
    1TMC1    C514130   1.584   0.097   0.643 -0.1994 -0.8815  0.4045
    1TMC1    C614131   1.597   0.070   0.773  0.1310  0.0933  0.3910
    1TMC1     C14132   1.590   0.460   0.644 -0.4908  0.0449 -0.4088
    1TMC1     O14133   1.626   0.545   0.725 -1.1397  0.7255  0.5546
    1TMC1     H14134   1.572   0.381   0.892 -0.9390  0.2557 -0.8493
    1TMC1    H114135   1.581   0.244   0.492 -3.7409 -0.7008  0.1309
    1TMC1    H214136   1.624   4.705   0.807  1.4360 -0.4343 -2.1665
    1TMC1    C714137   1.597   4.714   0.555 -0.2791 -0.0387 -0.6139
    1TMC1    C814138   1.629   0.157   0.999 -0.0269 -0.8981  0.8222
    1TMC1    O114139   1.547   4.707   0.439 -0.0432  0.2800  0.6471
    1TMC1    O214140   1.696   0.063   1.033 -0.6984 -0.6239 -0.1438
    1TMC1    O314141   1.702   4.636   0.595  0.5461  0.6370  0.0698
    1TMC1    H314142   1.757   4.665   0.671  0.9882 -2.5464  0.9787
    1TMC1    O514143   1.568   0.244   1.080 -0.6550  0.2180 -0.2040
    1TMC1    H514144   1.500   0.299   1.034  0.3715 -0.0348 -2.0414
    2MPD1     C14145   1.572   0.848   0.307 -0.2249 -0.2071  0.5204
    2MPD1    C114146   1.544   0.731   0.236  0.0716 -0.1986  0.2266
    2MPD1    C214147   1.545   0.614   0.312  0.1872  0.3449  0.3861
    2MPD1    C314148   1.581   0.609   0.448 -0.3828  0.5788 -0.0042
    2MPD1    C414149   1.607   0.727   0.510 -0.0675 -0.8050 -0.5891
    2MPD1    C514150   1.612   0.842   0.436  0.2735  0.4542 -0.1536
    2MPD1     H14151   1.512   0.523   0.263  0.4241 -0.0003  0.8707
    2MPD1    H114152   1.626   0.734   0.617  1.4239 -1.9760 -0.7789
    2MPD1    H214153   1.559   0.945   0.260 -1.3648  0.4925  2.2987
    2MPD1    H314154   1.646   0.934   0.482 -0.2583  0.9281 -0.6986
    2MPD1     N14155   1.576   0.483   0.512  0.1207  0.1557  0.0538
    2MPD1    H514156   1.535   0.402   0.466  0.4879 -0.5346  0.9321
    2MPD1    N114157   1.498   0.743   0.106 -1.1566  0.1960 -0.3391
    2MPD1    H614158   1.522   0.669   0.041  0.7962 -1.3586  2.1841
    2MPD1    H714159   1.515   0.830   0.056  1.7472  1.6435  3.1762
    1MPD1     C14160   0.849   3.710  11.362  0.2761  0.0881 -0.4948
    1MPD1    C114161   0.844   3.618  11.259  0.0622  0.1844 -0.0529
    1MPD1    C214162   0.906   3.492  11.286  0.4812 -0.1324  0.9282
    1MPD1    C314163   0.929   3.456  11.426 -0.0474 -0.0980  0.3046
    1MPD1    C414164   0.907   3.550  11.524 -0.2538 -0.2360  0.0335
    1MPD1    C514165   0.876   3.679  11.498 -0.1370 -0.5337 -0.2744
    1MPD1     H14166   0.937   3.417  11.214 -0.0010  0.0221  0.5647
    1MPD1    H114167   0.935   3.518  11.624 -0.4554  0.2811  0.2543
    1MPD1    H214168   0.824   3.815  11.349 -0.3139  0.2772  2.1567
    1MPD1    H314169   0.859   3.747  11.581 -0.7277 -0.7411 -0.2202
    1MPD1     N14170   0.984   3.325  11.454 -0.1078 -0.2524  0.3449
    1MPD1    H514171   0.996   3.261  11.376  0.6764  0.1738  0.1147
    1MPD1    N114172   0.830   3.655  11.124  0.4944  0.0308 -0.1962
    1MPD1    H614173   0.809   3.573  11.068  0.0921 -0.8561  1.2460
    1MPD1    H714174   0.755   3.721  11.107  0.2365 -0.5533 -1.3060
    2MPD1     C14175   4.046   2.564  11.264 -0.2422 -0.4718 -0.3792
    2MPD1    C114176   4.178   2.554  11.304 -0.1265  0.2386 -0.5951
    2MPD1    C214177   4.245   2.432  11.291  0.0573 -0.8785  1.0114
    2MPD1    C314178   4.181   2.325  11.234 -0.1683 -0.5959  0.7226
    2MPD1    C414179   4.059   2.343  11.177 -0.7857  0.0221  0.7084
    2MPD1    C514180   3.992   2.459  11.193 -0.0553  0.3157 -0.1808
    2MPD1     H14181   4.344   2.428  11.333  0.4735 -0.3058  0.0807
    2MPD1    H114182   4.013   2.261  11.122 -1.2700  0.3601  0.6104
    2MPD1    H214183   3.970   2.634  11.292  0.5755  1.0240 -1.9114
    2MPD1    H314184   3.884   2.459  11.191 -0.0718 -0.8192  0.5823
    2MPD1     N14185   4.232   2.200  11.217 -0.3410  0.1545 -0.7484
    2MPD1    H514186   4.180   2.124  11.175  2.6240 -0.5642 -3.0820
    2MPD1    N114187   4.228   2.658  11.385  0.0999 -0.4937 -0.6008
    2MPD1    H614188   4.194   2.752  11.363 -1.7713 -0.7827  1.1255
    2MPD1    H714189   4.329   2.673  11.382 -0.2480  1.7578 -1.4522
    3MPD1     C14190   3.850   1.646  10.755 -0.0429 -0.2961 -0.3025
    3MPD1    C114191   3.822   1.722  10.869 -0.3225 -0.4022 -0.1127
    3MPD1    C214192   3.931   1.771  10.933  0.0349 -0.0964  0.0005
    3MPD1    C314193   4.063   1.754  10.896  0.0075 -0.2550 -0.6156
    3MPD1    C414194   4.084   1.685  10.783 -0.3744 -0.6864  0.4597
    3MPD1    C514195   3.983   1.614  10.714  0.1978  0.1428 -0.1656
    3MPD1     H14196   3.913   1.824  11.027  0.5263  1.2848 -0.6824
    3MPD1    H114197   4.182   1.668  10.740  0.1415  0.9045  0.9851
    3MPD1    H214198   3.768   1.605  10.697 -0.1111 -0.9453  0.2583
    3MPD1    H314199   3.995   1.553  10.626 -1.8074 -1.3830  0.5957
    3MPD1     N14200   4.167   1.821  10.963  0.3656 -0.3413  0.0562
    3MPD1    H514201   4.137   1.897  11.022 -1.1266  0.2752 -1.5021
    3MPD1    N114202   3.692   1.782  10.892 -0.2206 -0.4286  0.5230
    3MPD1    H614203   3.615   1.728  10.853  0.3005  0.9867 -2.3930
    3MPD1    H714204   3.675   1.818  10.986  2.9914  1.0871  0.5039
    4MPD2     C14205   1.175   2.702  11.095 -0.3031 -0.0585  0.0042
    4MPD2    C114206   1.125   2.657  11.221  0.3301  0.4489 -0.0367
    4MPD2    C214207   1.101   2.519  11.240  0.1964 -0.2072  0.1759
    4MPD2    C314208   1.115   2.433  11.137  1.0343  0.5466  0.4545
    4MPD2    C414209   1.156   2.470  11.016 -0.1121 -0.2745  0.4240
    4MPD2    C514210   1.188   2.601  11.001 -0.0728  0.9192  0.5466
    4MPD2     H14211   1.059   2.490  11.335 -0.5285 -0.1755 -0.1354
    4MPD2    H114212   1.157   2.404  10.930 -0.3749 -1.3945  1.2728
    4MPD2    H214213   1.201   2.805  11.071 -0.4042  0.1478  0.7695
    4MPD2    H314214   1.219   2.634  10.902 -1.2559 -1.5043 -0.6294
    4MPD2     N14215   1.055   2.307  11.144 -0.4276 -0.3604  0.1090
    4MPD2    H514216   1.020   2.265  11.059 -2.7090 -1.2884  1.4805
    4MPD2    N114217   1.105   2.741  11.335 -0.3869  0.8112 -0.0381
    4MPD2    H714218   1.071   2.700  11.422 -0.4749 -2.2182 -1.5284
    5TMC3    C114219   1.110   2.942  11.464 -0.2218 -0.3637 -0.2182
    5TMC3    C214220   1.107   3.079  11.474  0.2440  0.2776  0.0860
    5TMC3    C314221   1.037   3.132  11.578  0.0999  0.1664 -0.0156
    5TMC3    C414222   1.047   2.857  11.559  0.5554 -0.0680 -0.0751
    5TMC3    C514223   0.997   2.921  11.670 -1.1287 -0.4184  0.8185
    5TMC3    C614224   0.984   3.059  11.679 -0.0756  0.4598 -0.1695
    5TMC3     C14225   1.114   2.882  11.332  0.5869 -0.5413  0.0355
    5TMC3     O14226   1.145   2.958  11.241 -0.1166 -0.3086 -0.1370
    5TMC3     H14227   1.118   3.135  11.381 -4.3176 -1.0591 -1.2623
    5TMC3    H114228   1.049   2.748  11.561 -0.4414 -0.0702  0.8936
    5TMC3    H214229   0.920   3.107  11.753 -1.2312  0.0161 -0.8776
    5TMC3    C714230   0.912   2.840  11.756  0.0752 -0.1449 -0.4285
    5TMC3    C814231   1.011   3.275  11.577 -0.8140 -0.2781  0.0988
    5TMC3    O114232   0.910   2.863  11.877  0.2451  0.3122 -0.4030
    5TMC3    O214233   1.010   3.333  11.684  0.1212  0.1989 -0.2906
    6TMC3    C114234   4.407   2.038  11.210  0.1159  0.4517 -0.0168
    6TMC3    C214235   4.324   1.962  11.137 -0.4918  0.4246  0.0346
    6TMC3    C314236   4.379   1.864  11.056  0.2756  0.3007  0.5383
    6TMC3    C414237   4.538   2.018  11.213  0.2991  0.7071 -0.1470
    6TMC3    C514238   4.597   1.924  11.130 -0.3554 -0.1247 -0.1865
    6TMC3    C614239   4.516   1.850  11.049 -0.0494 -0.5876  0.3415
    6TMC3     C14240   4.353   2.164  11.269  0.2010  0.0432 -0.6839
    6TMC3     O14241   4.426   2.224  11.341 -0.3061 -0.4571  0.3013
    6TMC3     H14242   4.216   1.966  11.147 -0.1547  2.5667  2.6599
    6TMC3    H114243   4.599   2.082  11.276 -2.6535  0.7949  2.6062
    6TMC3    H214244   4.563   1.776  10.986  1.7696 -1.1632  2.3819
    6TMC3    C714245   0.005   1.944  11.109  1.0493 -0.0511  0.4660
    6TMC3    C814246   4.301   1.788  10.964  0.0362 -0.2523  0.0978
    6TMC3    O114247   0.062   2.018  11.193 -0.1026 -0.8486  0.2839
    6TMC3    O214248   4.348   1.688  10.910 -0.4402  0.2179  0.0783
    7MPD2     C14249   0.748   2.366  11.832 -0.9759 -0.4280 -0.5265
    7MPD2    C114250   0.732   2.393  11.697 -0.0930  0.6000  0.1504
    7MPD2    C214251   0.782   2.516  11.656 -0.2152 -0.1556  0.3466
    7MPD2    C314252   0.818   2.614  11.744 -0.0545 -0.3714 -0.5401
    7MPD2    C414253   0.804   2.587  11.879 -1.0828 -0.9748 -0.0103
    7MPD2    C514254   0.781   2.460  11.922  0.2295  0.1026  0.4620
    7MPD2     H14255   0.785   2.550  11.553 -1.3251 -0.3352  0.2583
    7MPD2    H114256   0.830   2.660  11.955 -1.0780 -0.4938 -0.4749
    7MPD2    H214257   0.738   2.265  11.872  0.2641 -0.2490  0.2175
    7MPD2    H314258   0.792   2.447  12.029 -2.8654  0.6254  0.8413
    7MPD2     N14259   0.852   2.734  11.687 -0.1991  0.1137  0.4938
    7MPD2    H514260   0.838   2.741  11.587  1.6618 -1.3657  0.1387
    7MPD2    N114261   0.716   2.279  11.610  0.2320 -0.2338 -0.2184
    7MPD2    H714262   0.706   2.183  11.643 -0.9350  0.7664  2.3325
    8TMC3    C114263   0.714   2.167  11.402 -0.0192  0.0902  0.4935
    8TMC3    C214264   0.637   2.176  11.292  0.3297  0.4131  0.0363
    8TMC3    C314265   0.696   2.167  11.167 -0.1719 -0.7214  0.5670
    8TMC3    C414266   0.849   2.151  11.388  0.4137 -0.1739 -0.0534
    8TMC3    C514267   0.905   2.165  11.262  0.3687 -0.3379  0.0807
    8TMC3    C614268   0.832   2.170  11.147  0.4535 -0.2421  0.5667
    8TMC3     C14269   0.689   2.283  11.475 -0.8809  0.9009  0.1603
    8TMC3     O14270   0.684   2.381  11.407  0.3308  0.4503  0.1344
    8TMC3     H14271   0.533   2.206  11.300  0.0269 -0.3565 -0.9616
    8TMC3    H114272   0.917   2.146  11.473  0.3927  0.0346 -0.0241
    8TMC3    H214273   0.880   2.177  11.050 -0.5547  1.0939  0.1510
    8TMC3    C714274   1.023   2.252  11.264 -0.8742  0.1911  0.5580
    8TMC3    C814275   0.614   2.160  11.049  0.1352  0.0133 -0.1814
    8TMC3    O114276   1.062   2.271  11.378  0.0668 -0.0153  0.0778
    8TMC3    O214277   0.658   2.216  10.950  0.3089  0.1404  0.1437
    9MPD2     C14278   0.399   2.119  10.848  0.2230  0.0332 -0.0158
    9MPD2    C114279   0.387   2.082  10.982  0.1065  0.7076  0.7821
    9MPD2    C214280   0.270   2.020  11.030  0.1528 -0.5789 -0.0286
    9MPD2    C314281   0.167   2.001  10.938 -0.0836  0.8414  0.2000
    9MPD2    C414282   0.177   2.041  10.810  0.1782  0.8747 -0.0699
    9MPD2    C514283   0.295   2.094  10.764 -0.5499  0.3090  0.5136
    9MPD2     H14284   0.262   1.979  11.130 -2.2945 -0.3507 -0.1125
    9MPD2    H114285   0.112   2.004  10.732 -0.1267  2.5556 -0.6038
    9MPD2    H214286   0.480   2.177  10.805  0.1029  0.7877  0.7647
    9MPD2    H314287   0.293   2.138  10.665 -2.4801  0.6430  0.7056
    9MPD2     N14288   0.044   1.943  10.979 -0.0892  0.3047 -0.0190
    9MPD2    H514289   4.709   1.930  10.906  0.4130 -1.9308 -0.1132
    9MPD2    N114290   0.489   2.100  11.073 -0.0463 -0.1676 -0.0424
    9MPD2    H714291   0.477   2.061  11.166  0.4041  1.8932  0.8848
    1MPD1     C14292   0.712   0.939  16.849  1.0419 -0.2507 -0.0790
    1MPD1    C114293   0.826   0.874  16.899  0.0652 -0.6574 -0.3113
    1MPD1    C214294   0.942   0.897  16.829 -0.5352  0.3242  0.3040
    1MPD1    C314295   0.944   0.990  16.722 -0.6601 -0.4088 -0.3713
    1MPD1    C414296   0.824   1.045  16.671 -0.2553  0.2205 -0.2238
    1MPD1    C514297   0.707   1.021  16.741  0.0898 -0.0200  0.0395
    1MPD1     H14298   1.034   0.848  16.857 -1.1296 -0.6354  0.5773
    1MPD1    H114299   0.816   1.108  16.584 -3.1106  1.8120  1.1725
    1MPD1    H214300   0.618   0.911  16.897 -0.9396  0.1485 -3.7024
    1MPD1    H314301   0.612   1.068  16.716  0.2567  0.7515  0.8441
    1MPD1     N14302   1.058   1.003  16.647 -0.6060 -0.3091 -0.5106
    1MPD1    H514303   1.047   1.043  16.554 -3.7331  0.4776  0.1809
    1MPD1    N114304   0.807   0.761  16.977 -0.2687  0.5465 -0.7407
    1MPD1    H614305   0.732   0.769  17.044  1.4192 -0.0196  1.2004
    1MPD1    H714306   0.888   0.732  17.032 -0.9668  0.8307  0.4277
    2TMC2    C114307   1.504   1.140  16.569  0.0808 -0.7039  0.7996
    2TMC2    C214308   1.478   1.166  16.442 -0.0666  0.1723  0.5023
    2TMC2    C314309   1.351   1.134  16.399 -0.3183  0.0906 -0.3304
    2TMC2    C414310   1.410   1.083  16.651  0.3697  0.3406  0.6444
    2TMC2    C514311   1.288   1.046  16.601 -0.2755  0.1468 -0.4634
    2TMC2    C614312   1.251   1.074  16.473 -1.3387  0.2000  0.5196
    2TMC2     C14313   1.629   1.178  16.630 -0.2921 -0.6756 -0.7128
    2TMC2     O14314   1.627   1.192  16.753 -0.4557 -0.4155 -0.3108
    2TMC2     H14315   1.542   1.225  16.378  0.7570 -0.9159  0.3345
    2TMC2    H114316   1.425   1.071  16.757 -1.1740 -0.0269  0.8204
    2TMC2    H214317   1.150   1.055  16.438 -0.8205 -0.0036 -0.8989
    2TMC2    C714318   1.192   0.999  16.698 -0.8581  0.1213  0.0949
    2TMC2    C814319   1.325   1.137  16.258  0.6664 -0.5048 -0.2529
    2TMC2    O114320   1.219   0.983  16.814  0.2107  0.6328  0.0531
    2TMC2    O214321   1.205   1.125  16.230 -0.3431  0.2857 -0.0966
    2TMC2    O514322   1.422   1.051  16.207 -0.0193 -0.3333 -0.7324
    2TMC2    H514323   1.509   1.045  16.250 -1.1069 -0.6775  1.3857
    3MPD1     C14324   2.127   1.283  16.634  0.7188 -0.5592 -0.1579
    3MPD1    C114325   2.095   1.253  16.501  0.3928 -0.1468  0.3652
    3MPD1    C214326   1.967   1.202  16.489 -0.1142  0.2754 -0.0603
    3MPD1    C314327   1.860   1.221  16.576  0.2494 -0.1540 -1.1088
    3MPD1    C414328   1.886   1.285  16.692  0.4975  0.1971  0.0451
    3MPD1    C514329   2.021   1.311  16.723  0.5097  0.4087  0.1861
    3MPD1     H14330   1.949   1.143  16.400  0.0939  2.2687 -1.4226
    3MPD1    H114331   1.801   1.313  16.754  1.5602  0.8185  1.2248
    3MPD1    H214332   2.226   1.303  16.672  0.5505 -1.0207  0.5325
    3MPD1    H314333   2.048   1.365  16.813  2.1217 -0.5569  0.2817
    3MPD1     N14334   1.731   1.182  16.539  0.3586  0.0191  0.4324
    3MPD1    H514335   1.723   1.141  16.447  2.4496  0.7202 -0.0741
    3MPD1    N114336   2.199   1.220  16.416  0.1707 -0.1960  0.5863
    3MPD1    H614337   2.274   1.288  16.431  1.8550 -2.0560  0.6438
    3MPD1    H714338   2.166   1.232  16.320  0.6128  0.5335  0.5282
    1TMC1    C114339   3.052   0.211  12.920 -0.0042 -0.4875 -0.1317
    1TMC1    C214340   2.996   0.331  12.882 -0.4679  0.0018  0.8356
    1TMC1    C314341   2.866   0.331  12.838  0.2559  0.8841  0.1024
    1TMC1    C414342   2.987   0.094  12.903  0.2044  0.4698  0.0462
    1TMC1    C514343   2.860   0.108  12.849 -0.2414  0.2031  0.8659
    1TMC1    C614344   2.792   0.221  12.813  0.8635 -0.9442  0.0848
    1TMC1     C14345   3.197   0.232  12.923 -0.3157 -0.7633 -0.3144
    1TMC1     O14346   3.245   0.327  12.860 -0.3973  0.8911  0.3050
    1TMC1     H14347   3.052   0.423  12.891  1.3510 -0.7896 -2.2798
    1TMC1    H114348   3.029   0.001  12.939  0.3890  0.1637 -0.9547
    1TMC1    H214349   2.691   0.228  12.775  0.3156 -0.5624  1.6281
    1TMC1    C714350   2.787   4.719  12.839  0.2833  0.0695  0.8622
    1TMC1    C814351   2.822   0.435  12.756  0.8732  0.3750  0.3567
    1TMC1    O114352   2.668   4.717  12.820 -0.0252 -0.4118  0.7793
    1TMC1    O214353   2.747   0.420  12.662  0.2596  0.0080 -0.1015
    1TMC1    O314354   2.865   4.613  12.816 -0.0092 -0.7571 -0.4111
    1TMC1    H314355   2.962   4.623  12.806  0.3748 -2.4657  1.6217
    1TMC1    O514356   2.874   0.553  12.789  0.2296  0.0391  0.0856
    1TMC1    H514357   2.914   0.557  12.878  0.0461 -0.6507  0.2014
    2MPD2     C14358   3.481   0.197  12.923 -0.7657 -0.5863  0.3210
    2MPD2    C114359   3.398   0.138  13.014  0.2273 -0.6523 -0.5070
    2MPD2    C214360   3.450   0.060  13.117 -0.2011  0.8173 -0.6693
    2MPD2    C314361   3.587   0.044  13.130  0.4677  0.2319  0.1308
    2MPD2    C414362   3.666   0.104  13.039 -0.5974 -0.1094 -0.0470
    2MPD2    C514363   3.610   0.170  12.936 -0.1300  0.2289 -1.0651
    2MPD2     H14364   3.375   0.014  13.180 -0.4875 -1.4931 -2.7145
    2MPD2    H114365   3.773   0.096  13.027 -0.7795  0.1497 -1.8355
    2MPD2    H214366   3.448   0.249  12.834  0.2842 -2.1541 -1.0056
    2MPD2    H314367   3.677   0.212  12.863  1.3554  1.5866  1.1029
    2MPD2     N14368   3.639   4.723  13.250  0.0319 -0.2588 -0.1577
    2MPD2    H514369   3.575   4.681  13.317  1.2377 -0.2030  1.0261
    2MPD2    N114370   3.257   0.146  13.005 -0.1573  0.1786  0.2361
    2MPD2    H714371   3.210   0.078  13.064 -0.8263 -1.0567 -1.6913
    3TCq1    O114372   3.599   4.576  13.721  0.8483 -0.3933 -0.6564
    3TCq1    C114373   3.723   4.614  13.742 -0.4171 -0.0068  0.0353
    3TCq1    O214374   3.768   4.643  13.851  0.1084 -0.2401  0.4225
    3TCq1    C214375   3.799   4.595  13.617  0.1919 -0.8192  0.6499
    3TCq1    C314376   3.933   4.565  13.623  0.1765  0.6793 -0.2855
    3TCq1    C414377   4.011   4.578  13.512 -1.2133  0.0462 -0.7070
    3TCq1    C514378   3.960   4.635  13.399  0.4483  0.3015 -0.5184
    3TCq1    C614379   3.825   4.656  13.390  0.1549  0.3304 -0.4651
    3TCq1    C714380   3.749   4.641  13.499 -0.0964 -0.6300  0.3663
    3TCq1    C814381   3.773   4.695  13.263  0.2853  0.1445 -0.4743
    3TCq1    O414382   3.861   4.700  13.178  0.2711 -0.2879 -0.8353
    3TCq1    C914383   4.155   4.551  13.532  0.6880 -0.0544 -0.3386
    3TCq1    O514384   4.195   4.516  13.647 -0.3917  0.0465 -0.0924
    3TCq1    O614385   4.227   4.553  13.429 -0.6264  0.2553  0.1986
    3TCq1    H114386   3.581   4.538  13.632 -1.9808  1.7531 -0.9931
    3TCq1    H214387   3.968   4.527  13.718 -0.4102 -0.6871 -0.6107
    3TCq1    H314388   4.027   4.654  13.316  0.4154 -0.3708 -0.7023
    3TCq1    H414389   3.647   4.676  13.493  0.2897  0.4816  0.1529
    1MPD2     C14390   3.326   1.841  14.643  0.4815  0.2529  0.3967
    1MPD2    C114391   3.201   1.782  14.608 -0.5945  0.3751 -0.7324
    1MPD2    C214392   3.200   1.645  14.607 -0.0361 -0.0312  0.2369
    1MPD2    C314393   3.314   1.570  14.632 -0.6026  0.1075 -0.1913
    1MPD2    C414394   3.431   1.631  14.668 -0.2817 -0.3675 -0.5452
    1MPD2    C514395   3.434   1.768  14.671 -0.0448 -0.8890  0.3394
    1MPD2     H14396   3.109   1.590  14.587  1.5919 -2.3283 -0.8470
    1MPD2    H114397   3.519   1.573  14.695 -0.8574 -2.7304 -3.7897
    1MPD2    H214398   3.345   1.948  14.643  1.0463  0.1527  1.2452
    1MPD2    H314399   3.525   1.812  14.710 -0.3789 -0.4589  0.6218
    1MPD2     N14400   3.295   1.431  14.641 -0.0285 -0.0844 -0.3140
    1MPD2    H514401   3.204   1.395  14.614  0.3874  0.0278 -1.8399
    1MPD2    N114402   3.099   1.866  14.567 -0.4191 -0.8275 -0.6654
    1MPD2    H714403   3.123   1.961  14.541 -0.9611 -0.9119 -1.4837
    2TMC3    C114404   2.875   1.896  14.489  0.4010 -0.1733  0.1841
    2TMC3    C214405   2.746   1.854  14.496  0.4058 -0.3466 -0.0237
    2TMC3    C314406   2.665   1.854  14.387 -0.2290  0.2396 -0.1993
    2TMC3    C414407   2.920   1.946  14.371 -0.0448 -0.6071 -0.1543
    2TMC3    C514408   2.833   1.957  14.266  0.6784 -0.8268 -0.5464
    2TMC3    C614409   2.705   1.909  14.271  0.2407 -0.9568  0.2188
    2TMC3     C14410   2.965   1.820  14.571 -0.1074 -1.1748  0.5300
    2TMC3     O14411   2.919   1.722  14.622 -0.5934  0.1599 -0.2161
    2TMC3     H14412   2.704   1.822  14.590 -0.7369  1.0780 -0.0639
    2TMC3    H114413   3.025   1.956  14.347  0.0550 -0.4719  0.3330
    2TMC3    H214414   2.644   1.919  14.182 -1.4458  0.1867  1.5226
    2TMC3    C714415   2.873   2.051  14.160  0.2524  0.0225 -0.0999
    2TMC3    C814416   2.599   1.727  14.379 -0.4411  0.4647  0.4056
    2TMC3    O114417   2.804   2.056  14.062 -0.0192  0.4002 -0.6489
    2TMC3    O214418   2.489   1.716  14.325 -0.7183 -0.1600  0.0039
    3TCq1    O114419   3.812   2.844  14.250 -0.1367  0.5742  0.0296
    3TCq1    C114420   3.834   2.745  14.341  0.2232 -0.5870  0.0816
    3TCq1    O214421   3.924   2.742  14.423  0.2621  0.1024  0.3774
    3TCq1    C214422   3.710   2.683  14.370 -0.7152  0.0065  0.2713
    3TCq1    C314423   3.690   2.635  14.496  0.2007  0.1606 -0.0428
    3TCq1    C414424   3.589   2.547  14.522  0.2292  0.5795 -0.3119
    3TCq1    C514425   3.514   2.491  14.421  0.1235  0.0364 -0.4762
    3TCq1    C614426   3.534   2.535  14.293 -0.2033  0.1355 -0.0782
    3TCq1    C714427   3.633   2.632  14.269  0.0659 -0.1800 -0.3437
    3TCq1    C814428   3.455   2.496  14.177 -0.0416  0.2277 -0.5493
    3TCq1    O414429   3.472   2.555  14.071 -0.2677 -0.2304 -0.2274
    3TCq1    C914430   3.561   2.512  14.656  0.3653  0.3481  0.5074
    3TCq1    O514431   3.659   2.511  14.740 -0.7573 -0.2298 -0.1358
    3TCq1    O614432   3.451   2.453  14.674  0.5668  0.2375  0.4386
    3TCq1    H114433   3.723   2.882  14.230 -0.4847 -0.9743 -1.3773
    3TCq1    H214434   3.736   2.679  14.584 -1.0803 -2.3391  1.8789
    3TCq1    H314435   3.429   2.430  14.449  1.3344 -0.4979  2.0604
    3TCq1    H414436   3.654   2.666  14.168  1.1009 -1.8611 -0.6888
    4MPD2     C14437   3.225   2.404  14.011  0.6611  0.2347 -0.0093
    4MPD2    C114438   3.255   2.366  14.136 -0.3269 -0.1978  1.0355
    4MPD2    C214439   3.161   2.288  14.193 -0.8572  0.4726 -0.2985
    4MPD2    C314440   3.054   2.226  14.128  0.1261  0.4619 -0.2877
    4MPD2    C414441   3.030   2.251  13.996  0.4322 -0.6694 -0.5018
    4MPD2    C514442   3.113   2.343  13.947 -0.3872  0.3707  0.9846
    4MPD2     H14443   3.174   2.262  14.297  1.1930 -1.1568 -0.9651
    4MPD2    H114444   2.943   2.223  13.938 -1.5582  1.4575  1.4799
    4MPD2    H214445   3.295   2.454  13.945  3.9440 -0.2435  3.1178
    4MPD2    H314446   3.108   2.355  13.839  0.7624 -0.9037  0.7968
    4MPD2     N14447   2.967   2.141  14.208 -0.5944 -0.2570 -0.3671
    4MPD2    H514448   2.994   2.126  14.305  1.2620  0.2936 -0.8136
    4MPD2    N114449   3.361   2.402  14.217  0.0249  0.2710  0.1376
    4MPD2    H714450   3.375   2.338  14.295 -2.4126 -0.4728 -0.0358
    5TMC2    C114451   3.095   1.170  14.615 -1.0501 -0.3034  0.0939
    5TMC2    C214452   3.054   1.130  14.743  0.0915  0.0189 -0.0134
    5TMC2    C314453   3.153   1.133  14.843  0.3104 -0.0200 -0.1924
    5TMC2    C414454   3.221   1.203  14.584 -0.1757 -0.1501 -0.4337
    5TMC2    C514455   3.312   1.214  14.687 -0.1296  0.4441 -0.0851
    5TMC2    C614456   3.279   1.178  14.816  0.3745 -0.4774  0.4490
    5TMC2     C14457   3.003   1.253  14.543 -0.0089  0.5112  0.1738
    5TMC2     O14458   3.057   1.343  14.481 -0.2203  0.8021 -0.0494
    5TMC2     H14459   2.948   1.114  14.760  0.2513  0.4929  1.4294
    5TMC2    H114460   3.253   1.212  14.481  0.9091 -1.0912 -0.1803
    5TMC2    H214461   3.359   1.185  14.889 -0.4059 -0.2769  1.2873
    5TMC2    C714462   3.387   1.342  14.683 -0.0666 -0.4126 -0.3821
    5TMC2    C814463   3.113   1.106  14.980  0.3823  0.1802 -0.1316
    5TMC2    O114464   3.483   1.358  14.758 -0.1207 -0.2092 -0.2980
    5TMC2    O214465   3.042   1.015  15.020  0.5177  0.0005  0.0063
    5TMC2    O514466   3.175   1.195  15.055 -0.0558 -0.1615 -0.2705
    5TMC2    H514467   3.220   1.270  15.012  2.0317 -0.1152  1.9664
    6MPD2     C14468   2.551   1.427  14.414 -0.1363  0.3353  0.1976
    6MPD2    C114469   2.663   1.496  14.451 -0.3223 -1.1085  0.8367
    6MPD2    C214470   2.766   1.425  14.504  0.3634  0.0935 -0.5938
    6MPD2    C314471   2.761   1.285  14.512  0.0071  0.6993 -0.8158
    6MPD2    C414472   2.641   1.224  14.490  0.0068  0.8897 -0.5536
    6MPD2    C514473   2.541   1.291  14.434 -0.5511 -0.3609 -0.3478
    6MPD2     H14474   2.851   1.482  14.540  0.8337 -0.3271 -1.0374
    6MPD2    H114475   2.625   1.117  14.480  1.8385  0.3543  2.3614
    6MPD2    H214476   2.471   1.473  14.357  1.8864 -0.8256 -3.5612
    6MPD2    H314477   2.444   1.249  14.409 -0.0343 -0.4991 -2.0542
    6MPD2     N14478   2.874   1.209  14.550 -0.4123  0.5723  0.1478
    6MPD2    H514479   2.861   1.117  14.591 -0.2884  1.2209  1.6488
    6MPD2    N114480   2.688   1.634  14.429  0.1318 -0.5831  1.4551
    6MPD2    H714481   2.771   1.675  14.469  2.4660 -1.2974 -2.6621
  945NH3     N114482   2.854   3.767   9.376  0.1953 -0.2471  0.9722
  945NH3     H214483   2.931   3.734   9.320 -0.5001 -0.7980  0.3485
  945NH3     H314484   2.867   3.866   9.360  1.0706 -0.4576  0.3922
  945NH3     H414485   2.898   3.763   9.468  1.1362  1.4176  0.5908
  946SOD     NA14486   0.208   3.628  16.187 -0.0490 -0.0843 -0.0573
  947SOD     NA14487   4.447   3.687  12.483  0.6602 -0.0736  0.5996
  948SOD     NA14488   2.186   3.425   2.975  0.3141 -0.3704  0.4768
  949SOD     NA14489   2.633   3.716   9.383  0.1275  0.3984 -0.1565
  950SOD     NA14490   4.035   4.288  10.757 -0.1207 -0.1835 -0.0418
  951SOD     NA14491   1.837   1.463   8.587  0.2355  0.7380  0.0211
  952SOD     NA14492   3.318   2.545  14.822 -0.2133  0.0326  0.5292
  953SOD     NA14493   3.049   4.613  16.814  0.0535  0.0191 -0.7802
  954SOL     OW14494   0.172   0.970   0.707  0.0834 -0.3242 -0.1054
  954SOL    HW114495   0.204   0.966   0.617  0.3675  0.2988 -0.0290
  954SOL    HW214496   0.172   0.878   0.733 -2.4524 -0.5898 -1.1189
  955SOL     OW14497   1.340   0.789   3.111 -0.3950  0.2234 -0.4447
  955SOL    HW114498   1.399   0.747   3.049 -2.0912 -0.2857 -1.7165
  955SOL    HW214499   1.341   0.740   3.192 -2.0095 -3.4770 -2.6664
  956SOL     OW14500   1.252   4.617   4.011 -0.7034 -0.9495  0.4551
  956SOL    HW114501   1.262   4.546   3.948  0.1091 -0.8405  0.4643
  956SOL    HW214502   1.338   4.635   4.049  0.6069 -2.0045 -1.9971
  957SOL     OW14503   0.429   3.381   8.744 -0.9103 -0.4604  0.3917
  957SOL    HW114504   0.340   3.351   8.766 -1.5027  0.9586 -0.0532
  957SOL    HW214505   0.485   3.310   8.775  0.7713  2.1643  3.3784
  958SOL     OW14506   2.846   3.077   5.286 -0.0944 -0.2158 -0.3410
  958SOL    HW114507   2.888   3.054   5.368 -0.4014 -3.8533 -1.2125
  958SOL    HW214508   2.906   3.142   5.249 -1.1368  1.4784  0.9181
  959SOL     OW14509   1.049   1.365   8.033 -0.4514  0.1046 -0.0849
  959SOL    HW114510   1.103   1.295   8.070  1.4671 -0.3051 -3.6817
  959SOL    HW214511   0.965   1.318   8.030 -0.0081 -0.6443 -0.9679
  960SOL     OW14512   3.386   2.590   8.445  0.5659  0.1864  0.3750
  960SOL    HW114513   3.366   2.553   8.531 -0.4061  0.7567  0.3881
  960SOL    HW214514   3.335   2.671   8.448 -0.4947 -0.3833 -1.8568
  961SOL     OW14515   1.995   0.349   3.200  0.0609 -0.1229  0.5305
  961SOL    HW114516   1.976   0.256   3.185 -0.3903 -0.2655  1.8977
  961SOL    HW214517   1.963   0.366   3.289 -1.5756  0.4131 -0.1554
  962SOL     OW14518   2.242   1.363   6.719  0.5565  0.1127  0.1349
  962SOL    HW114519   2.147   1.350   6.722  0.9646 -2.8660 -0.1099
  962SOL    HW214520   2.268   1.278   6.683 -0.1550 -0.3397  0.6694
  963SOL     OW14521   0.431   4.268   9.790 -0.1292  0.3770  0.4026
  963SOL    HW114522   0.366   4.314   9.737 -0.2084  0.2485  0.3864
  963SOL    HW214523   0.399   4.178   9.778 -1.6526  0.8712  0.7355
  964SOL     OW14524   1.584   1.182  15.689  0.0063 -0.2213  0.2187
  964SOL    HW114525   1.558   1.155  15.777  0.6787 -0.9163  0.1999
  964SOL    HW214526   1.524   1.129  15.637 -2.6849 -1.1101  4.2735
  965SOL     OW14527   0.048   4.623   2.812  0.2946  0.5314 -0.0324
  965SOL    HW114528   0.102   4.588   2.742 -2.3551 -0.1686 -1.7449
  965SOL    HW214529   0.021   4.540   2.851 -1.5166  1.7521  1.3263
  966SOL     OW14530   0.488   0.581   3.572 -0.0450  0.2135 -0.0037
  966SOL    HW114531   0.562   0.634   3.543  0.9531 -0.0416  2.0425
  966SOL    HW214532   0.412   0.628   3.538 -0.2790  0.0854  0.3448
  967SOL     OW14533   2.126   2.863  16.721 -0.3515 -0.0389 -0.1645
  967SOL    HW114534   2.098   2.942  16.768  0.4264  0.1245  0.0289
  967SOL    HW214535   2.098   2.794  16.781 -0.8637 -0.3795 -0.7997
  968SOL     OW14536   4.217   2.329   6.370  0.6862  0.3416 -0.6115
  968SOL    HW114537   4.235   2.396   6.304  1.3345 -0.3356 -1.1308
  968SOL    HW214538   4.297   2.350   6.419  0.8291 -3.9751  0.9288
  969SOL     OW14539   1.183   4.674   7.454  0.2040 -0.2915 -0.0061
  969SOL    HW114540   1.201   4.607   7.520  0.2642 -0.6867 -0.4240
  969SOL    HW214541   1.210   4.631   7.373 -1.9089  1.7302 -1.7900
  970SOL     OW14542   0.585   1.839   5.280 -0.0598 -0.3904 -0.2385
  970SOL    HW114543   0.602   1.873   5.368  0.0329  0.2835 -0.5180
  970SOL    HW214544   0.531   1.911   5.247  0.7816  0.1595 -0.4201
  971SOL     OW14545   1.343   2.895   1.011  0.5516 -0.1807 -0.2350
  971SOL    HW114546   1.388   2.972   0.974 -1.7407  0.5167 -1.5816
  971SOL    HW214547   1.256   2.916   0.977  0.8217 -2.3202 -2.2457
  972SOL     OW14548   4.684   4.429   3.163  0.0982 -0.3500  0.1213
  972SOL    HW114549   4.693   4.390   3.075  1.1779 -2.9469  1.3651
  972SOL    HW214550   4.631   4.506   3.143  1.7627  0.4464 -1.3245
  973SOL     OW14551   2.733   0.982   5.274  0.0698  0.3543 -0.2712
  973SOL    HW114552   2.668   1.002   5.206  0.4606 -4.5036 -2.0877
  973SOL    HW214553   2.801   0.970   5.207 -1.4551  1.4713 -2.0419
  974SOL     OW14554   0.832   3.645   9.386 -0.1305  0.2614  0.4058
  974SOL    HW114555   0.906   3.585   9.376  0.1637  0.5555  0.7949
  974SOL    HW214556   0.783   3.621   9.308 -0.0895 -0.7022  0.6840
  975SOL     OW14557   3.567   2.110   2.969  0.0844  0.3629  0.8685
  975SOL    HW114558   3.513   2.183   2.939  0.3202  0.1231 -0.1435
  975SOL    HW214559   3.503   2.065   3.024  0.5991 -1.7504 -0.2650
  976SOL     OW14560   3.602   0.227   4.830 -0.3509 -0.8346 -0.4754
  976SOL    HW114561   3.676   0.178   4.865  1.8481  2.3820 -0.5937
  976SOL    HW214562   3.535   0.213   4.898 -1.6297  1.0267 -1.3477
  977SOL     OW14563   2.978   1.351   5.168  1.0043  0.4105 -0.8450
  977SOL    HW114564   3.020   1.434   5.147  1.8820  0.1451 -0.1482
  977SOL    HW214565   3.005   1.338   5.259  0.9597 -1.0215 -1.0367
  978SOL     OW14566   4.690   1.430   5.947 -0.3768  0.9828  0.2060
  978SOL    HW114567   0.005   1.503   5.910  1.6650  0.4418  1.8537
  978SOL    HW214568   0.031   1.370   5.952 -1.3739 -0.1182  1.8990
  979SOL     OW14569   2.453   1.651   3.615 -0.0634  0.1705 -0.6258
  979SOL    HW114570   2.410   1.574   3.654  1.6420 -0.4158  0.0855
  979SOL    HW214571   2.402   1.665   3.535 -1.5843 -2.5658 -0.1426
  980SOL     OW14572   4.347   0.725  14.450  0.3250  0.6503  0.1970
  980SOL    HW114573   4.384   0.810  14.427  0.9190  0.3725  0.1302
  980SOL    HW214574   4.260   0.729  14.409 -0.2696  0.2079  1.3971
  981SOL     OW14575   0.831   2.968   6.556  0.4879 -0.0695 -0.0336
  981SOL    HW114576   0.839   3.044   6.498  1.9106  0.3278  0.6758
  981SOL    HW214577   0.743   2.977   6.592  0.6539  3.0509 -0.4030
  982SOL     OW14578   1.118   2.312   5.194 -0.1620 -0.1129 -0.8058
  982SOL    HW114579   1.213   2.319   5.183  0.0783  0.2796  1.3929
  982SOL    HW214580   1.098   2.404   5.215 -0.9935 -0.6538  0.7144
  983SOL     OW14581   4.686   3.501   2.979  0.1250 -0.2331  0.7558
  983SOL    HW114582   4.730   3.423   3.014 -1.7925 -3.1516 -3.3834
  983SOL    HW214583   4.709   3.572   3.039  2.0275  0.0006 -0.2277
  984SOL     OW14584   3.384   1.309   0.155 -0.0365  0.0709 -0.2310
  984SOL    HW114585   3.319   1.299   0.086 -0.6178 -0.3954  0.3787
  984SOL    HW214586   3.419   1.395   0.131  2.1035 -0.9021 -0.6123
  985SOL     OW14587   2.107   3.959   2.703  0.2499 -0.0567  0.1367
  985SOL    HW114588   2.034   3.962   2.766 -0.4353 -0.2939 -0.6428
  985SOL    HW214589   2.168   4.016   2.750 -0.3335  1.3904 -0.8544
  986SOL     OW14590   1.891   3.723  13.857 -0.0794 -0.0735  0.4452
  986SOL    HW114591   1.919   3.632  13.861 -0.9930 -0.4287 -1.3835
  986SOL    HW214592   1.804   3.709  13.895 -1.9291  1.8254 -3.1434
  987SOL     OW14593   4.487   0.839   9.490 -0.2532  0.6618 -0.5261
  987SOL    HW114594   4.539   0.783   9.433 -0.4576  0.7873 -0.8349
  987SOL    HW214595   4.431   0.772   9.530 -0.8243  0.4078 -1.7631
  988SOL     OW14596   4.606   0.405   9.183  0.2610  0.2260 -0.3117
  988SOL    HW114597   4.685   0.357   9.206  0.4572  0.6800 -0.0552
  988SOL    HW214598   4.606   0.380   9.090  1.2868 -0.5537 -0.0930
  989SOL     OW14599   0.719   2.669   0.251 -0.0260 -0.0469  0.2114
  989SOL    HW114600   0.709   2.753   0.206 -0.4220 -1.0903 -1.6591
  989SOL    HW214601   0.792   2.687   0.311  0.8894 -0.9893 -0.6238
  990SOL     OW14602   0.462   2.517   4.248  0.2679 -0.8748 -0.2981
  990SOL    HW114603   0.439   2.543   4.159  1.3494 -1.5362 -0.7669
  990SOL    HW214604   0.503   2.431   4.236  1.2815 -0.4118 -0.1469
  991SOL     OW14605   0.120   3.193   9.903 -0.8387 -0.0326 -0.1983
  991SOL    HW114606   0.031   3.223   9.888 -1.0098  0.4192  1.6405
  991SOL    HW214607   0.167   3.272   9.927 -2.3434  0.0453  2.4923
  992SOL     OW14608   3.879   0.054   5.235 -0.7456  0.0187  0.1286
  992SOL    HW114609   3.895   0.006   5.316  0.1176  1.0256  0.5569
  992SOL    HW214610   3.800   0.103   5.258 -0.9138 -1.1222  1.9393
  993SOL     OW14611   2.146   4.017   0.675  0.0724  0.2777  0.3173
  993SOL    HW114612   2.101   3.958   0.734  2.1118 -0.9765  0.6120
  993SOL    HW214613   2.191   3.955   0.618 -1.3060 -0.4847  0.0558
  994SOL     OW14614   0.385   3.542  17.529 -0.3171  0.0909 -0.3953
  994SOL    HW114615   0.393   3.617  17.470 -0.4146  2.0449  2.0527
  994SOL    HW214616   0.333   3.483  17.475 -1.2349 -1.8168  2.5587
  995SOL     OW14617   0.873   0.225   4.540 -0.0340  0.1813 -0.3410
  995SOL    HW114618   0.956   0.207   4.497  0.6485  1.4259  0.4528
  995SOL    HW214619   0.834   0.137   4.540 -0.6404  0.4509 -2.2265
  996SOL     OW14620   2.350   3.233   8.000  0.2826  0.2158 -0.2219
  996SOL    HW114621   2.412   3.258   7.931 -0.9041 -1.4391 -1.8651
  996SOL    HW214622   2.269   3.241   7.950  0.6828  1.8302 -0.6261
  997SOL     OW14623   1.743   2.026   6.756  0.2574 -0.2991 -0.0392
  997SOL    HW114624   1.829   2.045   6.794  0.0309  2.0583 -0.6640
  997SOL    HW214625   1.693   2.022   6.837  0.0694  0.1228 -0.1326
  998SOL     OW14626   3.021   1.368  11.329 -0.8472  0.3389 -0.2210
  998SOL    HW114627   3.078   1.421  11.274  0.8619 -1.7124 -0.4429
  998SOL    HW214628   3.034   1.278  11.298  0.0494  1.1559 -2.1981
  999SOL     OW14629   0.858   1.038   4.937  0.3862  0.6916  0.3513
  999SOL    HW114630   0.900   1.070   4.857  0.3579 -1.6668 -0.6111
  999SOL    HW214631   0.841   1.123   4.977 -1.4151  0.6614 -0.3619
 1000SOL     OW14632   0.743   3.626  16.703  0.0471  0.3433  0.3528
 1000SOL    HW114633   0.782   3.591  16.784  1.9893  1.7696  0.0318
 1000SOL    HW214634   0.809   3.689  16.675  0.8924 -1.2537 -1.2715
 1001SOL     OW14635   3.931   0.053  10.024 -0.1835  0.2778  0.0357
 1001SOL    HW114636   3.873   0.099   9.963  1.6872  1.2800 -1.0175
 1001SOL    HW214637   4.023   0.073  10.004  0.2080 -3.1846 -1.6797
 1002SOL     OW14638   3.770   2.550  10.407  0.0933 -0.0224  1.0675
 1002SOL    HW114639   3.755   2.630  10.458 -0.2157 -0.1128  1.1161
 1002SOL    HW214640   3.747   2.482  10.470 -1.6369 -1.9712 -1.6855
 1003SOL     OW14641   2.132   0.499   6.375  0.3143  0.2378 -0.0491
 1003SOL    HW114642   2.163   0.444   6.303  1.3394  0.6068  0.1030
 1003SOL    HW214643   2.044   0.523   6.346 -0.7212 -1.0818  1.9635
 1004SOL     OW14644   3.720   2.901   7.567 -0.4392 -0.1041 -0.2429
 1004SOL    HW114645   3.640   2.900   7.514 -0.2072 -0.6564 -0.5802
 1004SOL    HW214646   3.790   2.943   7.517 -2.2344  1.1049 -1.7861
 1005SOL     OW14647   3.558   4.348   9.065 -0.0773 -0.0547 -0.2769
 1005SOL    HW114648   3.624   4.341   9.133 -1.1078 -1.1073  0.6060
 1005SOL    HW214649   3.549   4.444   9.064  2.8088  0.1958 -0.2825
 1006SOL     OW14650   0.631   2.792   3.851  0.2790 -0.7362  0.1025
 1006SOL    HW114651   0.591   2.838   3.924  1.6437 -1.8822  1.5732
 1006SOL    HW214652   0.554   2.740   3.827  0.0636 -0.2191 -0.3278
 1007SOL     OW14653   3.043   1.519   7.064  0.3105 -0.2352 -0.4079
 1007SOL    HW114654   3.065   1.429   7.037 -2.4862  0.0381 -3.6156
 1007SOL    HW214655   3.068   1.514   7.156 -0.6819 -0.8732 -0.1685
 1008SOL     OW14656   1.544   2.730  13.730  0.0301 -0.3318 -0.4284
 1008SOL    HW114657   1.583   2.783  13.800 -0.9491 -1.4127  0.9438
 1008SOL    HW214658   1.495   2.799  13.686 -0.5842 -0.1625  0.5214
 1009SOL     OW14659   0.189   2.924   4.979  0.4539 -0.2657  0.1817
 1009SOL    HW114660   0.095   2.915   4.990 -0.1198  2.0776 -2.5521
 1009SOL    HW214661   0.191   3.017   4.999 -0.8101 -0.5808  1.7342
 1010SOL     OW14662   0.910   2.249   9.146 -0.4398  0.3916  0.7971
 1010SOL    HW114663   0.823   2.258   9.106  1.1470  0.6742 -2.6490
 1010SOL    HW214664   0.903   2.160   9.179  1.6955 -0.3882 -0.8568
 1011SOL     OW14665   0.899   3.408   0.710 -0.4090  0.1349  0.0192
 1011SOL    HW114666   0.923   3.479   0.650  1.1077  0.3221  0.8407
 1011SOL    HW214667   0.838   3.458   0.765  1.5610 -0.2711  2.5877
 1012SOL     OW14668   0.906   0.773   4.933 -0.1093  0.5051  0.0303
 1012SOL    HW114669   0.882   0.857   4.971  0.2574  0.0263  1.3263
 1012SOL    HW214670   0.866   0.780   4.846 -1.7990 -1.9029  0.6166
 1013SOL     OW14671   0.988   0.179   3.680  0.3095 -0.5985  0.0554
 1013SOL    HW114672   1.056   0.144   3.737  1.1354 -2.4559 -2.0893
 1013SOL    HW214673   0.910   0.145   3.723  0.1167 -0.6029 -0.2915
 1014SOL     OW14674   3.615   1.526   5.280 -0.1471  0.2504  0.2041
 1014SOL    HW114675   3.653   1.601   5.233  2.5138 -1.0637  0.2890
 1014SOL    HW214676   3.550   1.556   5.343  0.1532 -1.7462  1.4594
 1015SOL     OW14677   4.188   4.351   3.945 -0.3000 -0.4814 -0.9460
 1015SOL    HW114678   4.124   4.281   3.953 -2.1318  1.1308 -1.4558
 1015SOL    HW214679   4.253   4.308   4.001 -2.4767  0.3408  2.2469
 1016SOL     OW14680   1.508   2.540   3.115 -1.0964 -0.0004  0.3002
 1016SOL    HW114681   1.594   2.519   3.153  0.3108  1.9451 -1.8424
 1016SOL    HW214682   1.488   2.620   3.163 -1.5815 -0.5985  1.0966
 1017SOL     OW14683   3.759   4.355  15.422 -0.7790 -0.4463  0.2026
 1017SOL    HW114684   3.767   4.330  15.330  2.0451  2.2557 -0.2817
 1017SOL    HW214685   3.802   4.282  15.469 -1.3361 -0.1956  1.1084
 1018SOL     OW14686   1.745   4.343  16.749 -0.1154  0.1404 -0.7936
 1018SOL    HW114687   1.657   4.371  16.775 -0.1378 -0.3947 -0.2872
 1018SOL    HW214688   1.729   4.348  16.655 -0.9909  1.5843 -0.5647
 1019SOL     OW14689   4.436   1.737  17.618 -0.2048 -0.0402 -0.8465
 1019SOL    HW114690   4.456   1.648  17.648 -1.0362 -0.4445 -1.4837
 1019SOL    HW214691   4.348   1.746  17.654  0.7454 -0.6461  1.6961
 1020SOL     OW14692   3.195   4.629   3.994  0.0605  0.7767  0.2907
 1020SOL    HW114693   3.261   4.562   3.974 -0.2143  0.1732  1.4273
 1020SOL    HW214694   3.180   4.610   4.086 -3.5120 -1.0504 -0.6618
 1021SOL     OW14695   0.504   4.557   2.709  0.0791 -0.1808 -0.1735
 1021SOL    HW114696   0.503   4.542   2.804  0.9995 -1.6167 -0.4066
 1021SOL    HW214697   0.589   4.600   2.704 -0.0153  0.3318  2.4507
 1022SOL     OW14698   3.587   0.342   7.471  0.1289  0.0277  0.2341
 1022SOL    HW114699   3.630   0.419   7.433  1.2037 -1.2387 -1.1280
 1022SOL    HW214700   3.532   0.387   7.535  1.1891 -1.5601  2.2768
 1023SOL     OW14701   3.321   4.311   5.362 -0.2734 -0.1306 -0.3174
 1023SOL    HW114702   3.243   4.286   5.411 -0.3400 -0.9126 -0.8136
 1023SOL    HW214703   3.286   4.371   5.297  0.5209 -0.7497 -1.3183
 1024SOL     OW14704   3.103   3.433  14.807  0.0858  0.3670  0.4318
 1024SOL    HW114705   3.008   3.432  14.794  0.2563 -0.2018 -0.7491
 1024SOL    HW214706   3.129   3.379  14.732  1.9327  1.1115  0.5405
 1025SOL     OW14707   1.311   4.373   8.807  0.3597  0.5845  0.3503
 1025SOL    HW114708   1.254   4.404   8.877  1.0436  0.1724  1.0892
 1025SOL    HW214709   1.353   4.459   8.797 -1.1342  1.1777 -0.8093
 1026SOL     OW14710   2.530   3.001   7.314  0.2342  0.5163 -0.3453
 1026SOL    HW114711   2.449   2.964   7.277 -0.7015  2.4199 -0.1693
 1026SOL    HW214712   2.585   2.934   7.272  0.8674  1.3347 -0.8064
 1027SOL     OW14713   2.840   1.438  11.060  0.7032 -0.2247 -0.3078
 1027SOL    HW114714   2.756   1.399  11.087 -0.1192  0.8737 -1.2939
 1027SOL    HW214715   2.882   1.438  11.146  1.8021  2.9377 -0.8367
 1028SOL     OW14716   4.226   2.609   4.077  0.4916 -0.2861  0.4522
 1028SOL    HW114717   4.171   2.531   4.081  0.7407 -0.4310  1.0726
 1028SOL    HW214718   4.287   2.596   4.150  0.3767  0.0828  0.6177
 1029SOL     OW14719   1.852   0.945   7.041 -0.1234  0.1908  0.4517
 1029SOL    HW114720   1.940   0.926   7.074  0.0571 -0.4423 -0.4056
 1029SOL    HW214721   1.841   0.886   6.966 -0.6633  0.1400  0.5710
 1030SOL     OW14722   3.565   0.932   7.213  0.3530 -0.3636  0.1284
 1030SOL    HW114723   3.641   0.925   7.270 -0.0265 -2.0491  0.4402
 1030SOL    HW214724   3.593   0.998   7.150 -1.2086  0.7734  0.6094
 1031SOL     OW14725   2.895   1.624   6.842  0.6444  0.1335 -0.4788
 1031SOL    HW114726   2.924   1.588   6.926 -1.8128  0.9305  0.7214
 1031SOL    HW214727   2.800   1.628   6.852  0.5965  0.4102 -1.0315
 1032SOL     OW14728   1.863   3.894   4.358  0.2401  0.1571 -0.1105
 1032SOL    HW114729   1.785   3.862   4.314  1.0085  0.0775 -1.4304
 1032SOL    HW214730   1.857   3.989   4.353 -1.6207  0.0201 -0.3991
 1033SOL     OW14731   4.273   2.134  10.215  0.2888  0.0921  0.1401
 1033SOL    HW114732   4.195   2.168  10.170 -0.6217 -1.6601  0.3902
 1033SOL    HW214733   4.228   2.069  10.269  1.9667 -0.0915  1.3240
 1034SOL     OW14734   4.206   4.277  14.835  0.0494  0.3970  0.0463
 1034SOL    HW114735   4.190   4.260  14.927 -0.3613  1.7647  0.2350
 1034SOL    HW214736   4.212   4.373  14.843  0.2716  0.3822  0.0387
 1035SOL     OW14737   1.312   0.769   2.645 -0.2169  0.2976 -0.1210
 1035SOL    HW114738   1.308   0.714   2.567  2.1606 -1.1783  0.7783
 1035SOL    HW214739   1.250   0.718   2.696  0.8022 -0.1535  0.6763
 1036SOL     OW14740   3.761   1.146   7.515  0.3568  0.4888 -0.1115
 1036SOL    HW114741   3.757   1.079   7.447  2.7131  0.7151 -0.4640
 1036SOL    HW214742   3.817   1.099   7.578 -0.2827 -2.1254 -1.4956
 1037SOL     OW14743   1.580   2.848   5.028 -0.2174 -0.4509  0.2696
 1037SOL    HW114744   1.597   2.760   4.994 -2.4743  0.6131 -3.6278
 1037SOL    HW214745   1.640   2.900   4.975 -1.4177  0.6727  0.0097
 1038SOL     OW14746   2.498   0.916  12.356  0.1729 -0.3448 -0.1393
 1038SOL    HW114747   2.578   0.913  12.407  0.6213  3.4978 -0.5638
 1038SOL    HW214748   2.527   0.871  12.277  0.9777  1.0025 -0.6105
 1039SOL     OW14749   2.182   4.270   9.306  1.1079  0.0719 -0.1680
 1039SOL    HW114750   2.187   4.357   9.266 -1.5840  0.7445  0.9591
 1039SOL    HW214751   2.276   4.250   9.303  1.1645  0.6060 -1.8102
 1040SOL     OW14752   2.044   2.511   2.941  0.0444 -0.3521  0.1685
 1040SOL    HW114753   2.004   2.428   2.917  1.5080 -0.6795 -1.1666
 1040SOL    HW214754   2.099   2.471   3.009  0.9613  0.2332 -0.2201
 1041SOL     OW14755   4.423   4.183   2.062 -0.1342 -0.1328  0.4030
 1041SOL    HW114756   4.418   4.111   2.000 -1.0293  0.2557  0.0196
 1041SOL    HW214757   4.452   4.256   2.008 -0.3628  0.0127  0.4752
 1042SOL     OW14758   4.583   0.838  15.375 -0.0077  0.1135  0.1549
 1042SOL    HW114759   4.557   0.759  15.423 -0.6788 -0.1100 -0.5726
 1042SOL    HW214760   4.627   0.806  15.297  0.3215  1.4459 -0.1940
 1043SOL     OW14761   2.640   2.447   2.392  0.6500  0.5465 -0.5022
 1043SOL    HW114762   2.634   2.529   2.343  0.0973  0.6309 -0.2905
 1043SOL    HW214763   2.730   2.418   2.376 -0.2628 -2.0253 -0.9663
 1044SOL     OW14764   1.451   3.824   1.215 -0.1548  0.0477  0.2207
 1044SOL    HW114765   1.505   3.818   1.293  0.3500 -2.0682 -0.3121
 1044SOL    HW214766   1.504   3.875   1.154 -0.4134 -0.4385 -0.4051
 1045SOL     OW14767   0.045   1.633   0.538  0.3537 -0.4172 -0.2916
 1045SOL    HW114768   0.048   1.651   0.632  1.1710 -0.2342 -0.3550
 1045SOL    HW214769   0.137   1.619   0.518  0.6621  2.4229 -0.8522
 1046SOL     OW14770   2.807   0.349   3.036 -0.2933  0.2372  0.0544
 1046SOL    HW114771   2.841   0.396   3.112 -0.7638  1.0066 -0.2145
 1046SOL    HW214772   2.818   0.260   3.069  0.9690  0.3741  0.0202
 1047SOL     OW14773   4.357   4.416   3.119 -0.2599 -0.1077  0.5884
 1047SOL    HW114774   4.357   4.393   3.026  1.4693  0.0390  0.5484
 1047SOL    HW214775   4.381   4.507   3.103 -2.7362  0.3408 -0.4818
 1048SOL     OW14776   2.790   0.844   4.005 -0.5928  0.1126 -0.7449
 1048SOL    HW114777   2.808   0.922   3.952 -0.1422  0.4556 -0.0846
 1048SOL    HW214778   2.876   0.804   3.991 -0.3581  0.1423  0.6485
 1049SOL     OW14779   3.341   2.241   6.510 -0.3930  0.4566 -0.2817
 1049SOL    HW114780   3.385   2.321   6.481 -1.9917  0.6707 -2.0698
 1049SOL    HW214781   3.256   2.230   6.468 -0.8261 -1.7228  1.1793
 1050SOL     OW14782   3.272   4.620   6.209  0.0404  0.0095 -0.6501
 1050SOL    HW114783   3.220   4.581   6.280  1.2495 -0.4705 -0.0256
 1050SOL    HW214784   3.199   4.622   6.146  0.0131  0.2041 -0.6106
 1051SOL     OW14785   2.046   4.005  14.881 -0.8902  0.3356 -0.3917
 1051SOL    HW114786   1.999   4.075  14.926 -1.2715 -0.1657 -0.0068
 1051SOL    HW214787   2.084   4.062  14.813  0.5392  0.1453  0.2606
 1052SOL     OW14788   1.801   2.505  15.342  0.3572 -0.6520 -0.1295
 1052SOL    HW114789   1.724   2.450  15.359  0.3163  0.1624  2.3093
 1052SOL    HW214790   1.808   2.550  15.426  1.0688 -2.3303  0.7059
 1053SOL     OW14791   3.044   1.841   0.277  0.1357  0.0060 -0.2610
 1053SOL    HW114792   3.050   1.935   0.257 -2.2839 -0.0195 -1.1030
 1053SOL    HW214793   2.972   1.828   0.216 -1.2855 -0.5667  1.5234
 1054SOL     OW14794   3.994   4.519  11.393  0.5855 -0.1068 -0.2477
 1054SOL    HW114795   3.950   4.572  11.326 -0.6693  3.0000  3.0115
 1054SOL    HW214796   3.921   4.506  11.453  2.3409 -0.9784  1.6718
 1055SOL     OW14797   2.494   1.070   2.687  0.1531  0.1749 -0.0238
 1055SOL    HW114798   2.548   1.002   2.648 -0.6105  0.3516 -1.3713
 1055SOL    HW214799   2.548   1.092   2.763 -0.8735  0.8755  0.5177
 1056SOL     OW14800   2.359   4.030   0.231  0.0418 -0.6910  0.0784
 1056SOL    HW114801   2.271   3.991   0.233  0.3836 -1.5590 -2.0490
 1056SOL    HW214802   2.380   4.030   0.324 -1.5539 -1.3674  0.4341
 1057SOL     OW14803   4.299   1.189  12.335 -0.0875  0.0031 -0.3056
 1057SOL    HW114804   4.279   1.282  12.346  0.4289 -0.1768  2.1724
 1057SOL    HW214805   4.392   1.197  12.354  0.1267 -0.3569 -1.2247
 1058SOL     OW14806   0.307   1.408   9.214  0.6673 -0.4388 -0.1581
 1058SOL    HW114807   0.215   1.427   9.234  1.6642  2.9785  1.2981
 1058SOL    HW214808   0.299   1.322   9.174 -0.2478 -0.9604  1.1430
 1059SOL     OW14809   0.126   1.921  16.289  0.0605  0.0402 -0.3965
 1059SOL    HW114810   0.058   1.989  16.293 -0.0634 -0.1851  1.2911
 1059SOL    HW214811   0.100   1.871  16.366  1.9902  2.1145  1.6163
 1060SOL     OW14812   3.698   1.469   6.633  0.3007 -0.0009 -0.1356
 1060SOL    HW114813   3.627   1.532   6.618 -0.7952 -1.2222 -0.1651
 1060SOL    HW214814   3.670   1.395   6.579 -1.6575  0.8842 -0.3293
 1061SOL     OW14815   3.827   2.159   1.947  0.3723  0.7586  0.4934
 1061SOL    HW114816   3.747   2.147   1.999 -0.4209  1.3021 -0.6179
 1061SOL    HW214817   3.842   2.248   1.978 -1.0941  1.4171 -0.7142
 1062SOL     OW14818   2.924   0.607  16.934 -0.0556 -0.3707  0.3879
 1062SOL    HW114819   2.848   0.550  16.920 -0.1464  0.2351 -1.5888
 1062SOL    HW214820   2.927   0.654  16.850 -1.4648  0.4793  0.8058
 1063SOL     OW14821   1.598   1.627   2.235 -0.3087 -0.3842 -0.2329
 1063SOL    HW114822   1.641   1.710   2.257 -2.4275  1.2315 -2.0949
 1063SOL    HW214823   1.508   1.660   2.241 -0.5922 -0.9861 -1.1897
 1064SOL     OW14824   4.323   4.463  14.620 -0.1180  0.2494  0.2914
 1064SOL    HW114825   4.394   4.490  14.678  0.4017  0.5545 -0.4942
 1064SOL    HW214826   4.319   4.547  14.575 -0.9687 -1.0151 -1.9702
 1065SOL     OW14827   4.574   1.134  12.357 -0.0432  0.0412 -0.1193
 1065SOL    HW114828   4.586   1.055  12.304 -1.5006 -0.2400 -0.0349
 1065SOL    HW214829   4.664   1.164  12.366  0.6409 -2.0508 -0.0659
 1066SOL     OW14830   0.156   3.777   9.921 -0.2718 -0.3465 -0.6338
 1066SOL    HW114831   0.231   3.724   9.949  0.5919  2.0385  1.5789
 1066SOL    HW214832   0.138   3.733   9.838 -1.7089  1.4435 -1.2620
 1067SOL     OW14833   2.508   3.442   5.283 -0.2315 -0.0031 -0.3296
 1067SOL    HW114834   2.422   3.472   5.254 -1.5229 -1.3067  2.2396
 1067SOL    HW214835   2.478   3.374   5.343 -1.2079  1.2887  0.6454
 1068SOL     OW14836   4.483   2.111   5.982 -0.1580 -0.7758  0.1088
 1068SOL    HW114837   4.466   2.043   6.048 -1.4387 -0.5528  0.0033
 1068SOL    HW214838   4.404   2.165   5.980  0.0445 -0.6128 -2.7743
 1069SOL     OW14839   3.746   4.734   3.073 -1.0931  0.3152  0.4073
 1069SOL    HW114840   3.680   0.060   3.108 -2.1828  0.1655 -1.3601
 1069SOL    HW214841   3.692   4.663   3.040 -0.6101 -0.2906  0.9380
 1070SOL     OW14842   2.662   1.539   2.351  0.3255  0.3951 -0.1605
 1070SOL    HW114843   2.664   1.462   2.407  0.2679  0.3111 -0.2743
 1070SOL    HW214844   2.571   1.568   2.361  0.5310  0.4040  1.6787
 1071SOL     OW14845   0.802   0.584   8.015  0.9497  0.6419 -0.1747
 1071SOL    HW114846   0.888   0.610   8.048  2.0503 -0.0354 -2.5372
 1071SOL    HW214847   0.822   0.595   7.922  0.6647 -0.7663 -0.4022
 1072SOL     OW14848   3.873   1.662   8.732  0.0084 -0.5228  0.6192
 1072SOL    HW114849   3.932   1.736   8.741  1.3750 -1.4437 -0.7488
 1072SOL    HW214850   3.826   1.663   8.815 -1.1889 -1.9848 -0.0339
 1073SOL     OW14851   0.618   2.108   2.867 -0.3010 -0.4388  0.0664
 1073SOL    HW114852   0.538   2.078   2.911 -0.1761 -2.0978 -0.8618
 1073SOL    HW214853   0.667   2.133   2.946  1.0854  0.9676 -1.2526
 1074SOL     OW14854   4.373   0.030  13.418  0.3822 -0.0771 -0.1294
 1074SOL    HW114855   4.352   0.045  13.326  0.7881  0.6804 -0.0953
 1074SOL    HW214856   4.323   4.683  13.431  1.0174 -0.2685  1.1485
 1075SOL     OW14857   3.880   0.616   0.045 -0.0700  0.4089 -0.1871
 1075SOL    HW114858   3.970   0.618   0.013  0.6780 -0.3141  1.9049
 1075SOL    HW214859   3.822   0.643  17.711  1.2003  3.5359 -0.0303
 1076SOL     OW14860   2.124   3.387  12.666  0.0496  0.3223  0.2867
 1076SOL    HW114861   2.125   3.456  12.600  0.8496  1.9678  2.0199
 1076SOL    HW214862   2.031   3.370  12.679  0.3244 -1.1646  0.3331
 1077SOL     OW14863   2.595   1.836   2.686  0.3524 -0.0324 -0.2370
 1077SOL    HW114864   2.690   1.847   2.695  0.1724  0.4503  1.1311
 1077SOL    HW214865   2.574   1.763   2.745  2.9123  0.5727  1.4264
 1078SOL     OW14866   3.836   3.946   1.915 -0.3190  0.2077 -0.2177
 1078SOL    HW114867   3.916   3.945   1.967 -0.7792 -1.9356  0.4875
 1078SOL    HW214868   3.777   3.931   1.990 -0.1466  0.7956  0.0334
 1079SOL     OW14869   3.309   2.830   8.541 -0.2287 -0.0871  1.1040
 1079SOL    HW114870   3.215   2.831   8.557 -0.5806  0.4312 -0.9824
 1079SOL    HW214871   3.336   2.920   8.561 -0.6330  0.6592 -1.6335
 1080SOL     OW14872   4.204   2.949  13.764  0.5334 -0.6327  0.5185
 1080SOL    HW114873   4.205   2.946  13.669 -0.2557 -1.2394  0.5234
 1080SOL    HW214874   4.112   2.969  13.783  0.8177  1.5117 -0.4538
 1081SOL     OW14875   0.637   3.283  10.775 -0.3152 -0.3017 -0.5077
 1081SOL    HW114876   0.599   3.276  10.687  0.0230 -0.3422 -0.6523
 1081SOL    HW214877   0.567   3.327  10.823  0.0085 -3.1575  2.6336
 1082SOL     OW14878   2.515   0.506  14.041  0.4729  0.0102  0.1749
 1082SOL    HW114879   2.427   0.472  14.025 -0.0728  0.8531  1.3799
 1082SOL    HW214880   2.569   0.485  13.965  0.7765 -0.2741  0.4682
 1083SOL     OW14881   3.649   3.037   3.343  0.6866 -0.2569 -0.5949
 1083SOL    HW114882   3.715   3.010   3.407  0.5907 -0.0815 -0.4223
 1083SOL    HW214883   3.577   2.975   3.356  0.2489  0.9537  2.6296
 1084SOL     OW14884   1.734   1.137   3.417  0.1256 -0.0842  0.2177
 1084SOL    HW114885   1.813   1.104   3.375 -0.2762 -0.9249  0.1324
 1084SOL    HW214886   1.714   1.215   3.363  0.7519  0.7379  1.1848
 1085SOL     OW14887   3.880   3.639   8.742  0.0543 -0.4612  0.4456
 1085SOL    HW114888   3.935   3.652   8.665  0.8528 -0.2299  1.0420
 1085SOL    HW214889   3.905   3.712   8.799  0.8293 -0.3607 -0.0250
 1086SOL     OW14890   4.313   2.950   8.454 -0.0429 -0.5876  0.2215
 1086SOL    HW114891   4.328   2.921   8.544 -1.4365  1.3335  1.0944
 1086SOL    HW214892   4.401   2.962   8.418 -0.4243 -1.5452 -1.0228
 1087SOL     OW14893   0.229   1.799   3.713  0.3639 -0.2536  0.0413
 1087SOL    HW114894   0.263   1.875   3.666  0.8261 -0.9014 -0.6667
 1087SOL    HW214895   0.293   1.801   3.784 -0.0016  0.9200  0.3278
 1088SOL     OW14896   4.608   0.324   5.278 -0.1820  0.0505 -0.2025
 1088SOL    HW114897   4.642   0.331   5.189 -2.4110  1.0059 -0.9888
 1088SOL    HW214898   4.603   0.417   5.300 -2.7549 -0.1917  0.2740
 1089SOL     OW14899   2.992   1.711  10.577 -0.2732  0.5324  0.4857
 1089SOL    HW114900   2.934   1.787  10.571  0.6305  1.0331 -2.0101
 1089SOL    HW214901   3.072   1.749  10.613 -0.7855  0.7012  1.4299
 1090SOL     OW14902   1.623   1.474  15.713 -0.6048 -0.1426  0.0827
 1090SOL    HW114903   1.621   1.378  15.718 -0.0941 -0.0942  1.1026
 1090SOL    HW214904   1.602   1.499  15.623  0.4390  1.6248  0.3299
 1091SOL     OW14905   2.521   0.540  14.498 -0.3203  0.1916 -0.1297
 1091SOL    HW114906   2.551   0.558  14.409  2.1955  0.7238  0.8281
 1091SOL    HW214907   2.542   0.447  14.508  0.2331  0.3002 -0.2722
 1092SOL     OW14908   3.781   1.991  13.776  0.0568  0.1428  0.3147
 1092SOL    HW114909   3.690   1.979  13.750  0.8970 -0.6071 -2.3323
 1092SOL    HW214910   3.784   2.080  13.813 -0.4186 -0.0446  0.8010
 1093SOL     OW14911   1.142   4.404   7.858 -0.2470 -0.0768 -0.7383
 1093SOL    HW114912   1.121   4.374   7.769  1.3254 -0.1420 -1.0882
 1093SOL    HW214913   1.175   4.492   7.844  2.5706 -0.9736  0.2955
 1094SOL     OW14914   1.782   1.225   6.950  0.5061 -0.0577  0.3951
 1094SOL    HW114915   1.709   1.169   6.923  0.7239 -0.7514  1.2374
 1094SOL    HW214916   1.831   1.153   6.989 -0.3810 -1.5990 -1.3419
 1095SOL     OW14917   4.462   2.313   4.997  0.0278  0.2321 -0.4096
 1095SOL    HW114918   4.468   2.219   4.982 -0.5406 -0.4859  3.8431
 1095SOL    HW214919   4.551   2.340   4.973  0.7097 -0.5709  1.2218
 1096SOL     OW14920   0.264   1.138   2.005 -0.2542  0.9388 -0.2239
 1096SOL    HW114921   0.183   1.100   1.971  0.1592 -0.9102  0.8442
 1096SOL    HW214922   0.258   1.086   2.085  0.0792 -1.1433 -1.5430
 1097SOL     OW14923   3.921   3.904   7.042 -0.4089 -0.0042 -0.2481
 1097SOL    HW114924   3.996   3.943   7.088  0.3156 -1.8856  0.1463
 1097SOL    HW214925   3.938   3.817   7.077  0.1996 -0.9013 -2.7187
 1098SOL     OW14926   3.331   2.767   5.454  0.4495  0.1733 -0.1825
 1098SOL    HW114927   3.313   2.762   5.361 -2.4209 -2.2120  0.4858
 1098SOL    HW214928   3.345   2.678   5.487  0.3788  0.2338  0.0144
 1099SOL     OW14929   0.654   1.578   7.531 -0.2530  0.0927 -0.6297
 1099SOL    HW114930   0.568   1.536   7.526  0.4400 -1.4728  1.1959
 1099SOL    HW214931   0.634   1.663   7.490  1.6462  0.2826 -1.1793
 1100SOL     OW14932   4.361   0.103   5.535  0.2400  0.0401 -0.0014
 1100SOL    HW114933   4.286   0.053   5.503  1.1742 -0.5357 -1.2682
 1100SOL    HW214934   4.324   0.185   5.502 -0.5947 -0.1385  0.5073
 1101SOL     OW14935   0.789   2.201   8.432  0.0793  0.1128 -0.0489
 1101SOL    HW114936   0.773   2.289   8.468  1.4369 -0.8572  2.9333
 1101SOL    HW214937   0.868   2.176   8.480  1.0573  0.4787 -1.4598
 1102SOL     OW14938   3.786   0.569   4.632  0.2524  0.7753  0.0059
 1102SOL    HW114939   3.867   0.561   4.581 -0.8720  0.3694 -1.7320
 1102SOL    HW214940   3.741   0.629   4.573 -1.7660  1.1719  1.9754
 1103SOL     OW14941   4.461   3.609   4.788  0.4328  0.5096 -0.2880
 1103SOL    HW114942   4.422   3.521   4.798 -2.4677  1.6740 -1.1661
 1103SOL    HW214943   4.528   3.596   4.722  1.3120  0.3881  0.6359
 1104SOL     OW14944   3.515   2.814  16.352  0.1985  0.4770 -0.6801
 1104SOL    HW114945   3.504   2.898  16.307 -2.7147  0.5025  0.0788
 1104SOL    HW214946   3.435   2.780  16.311 -0.3416  0.0787  0.6887
 1105SOL     OW14947   4.178   3.576  16.932  0.4815 -0.0371  0.3776
 1105SOL    HW114948   4.133   3.586  16.848 -0.4532  0.2468  0.9123
 1105SOL    HW214949   4.178   3.663  16.970 -1.0405  0.0151  0.2814
 1106SOL     OW14950   1.334   1.391   7.546 -0.4267 -0.0461  0.0160
 1106SOL    HW114951   1.404   1.326   7.551 -2.1456 -2.1648 -3.2238
 1106SOL    HW214952   1.343   1.416   7.454 -2.7777  0.4957 -0.0652
 1107SOL     OW14953   1.809   1.473   5.021  0.0239 -0.8945 -0.0361
 1107SOL    HW114954   1.855   1.440   4.944 -1.2384  2.1597 -2.0928
 1107SOL    HW214955   1.782   1.396   5.071  2.6372 -2.3014 -0.7918
 1108SOL     OW14956   2.267   1.802  11.032  0.5216 -0.7795 -0.2126
 1108SOL    HW114957   2.334   1.792  11.100  0.6829 -2.3271 -0.5935
 1108SOL    HW214958   2.244   1.709  11.031  2.6309 -1.3108  0.7006
 1109SOL     OW14959   4.248   3.882   7.610  0.1111 -0.0337 -0.1867
 1109SOL    HW114960   4.244   3.800   7.562  1.2485 -0.8390  1.0863
 1109SOL    HW214961   4.173   3.935   7.584  1.0597  1.5723  0.3525
 1110SOL     OW14962   0.497   1.554   4.339 -0.8414  0.0534 -0.5788
 1110SOL    HW114963   0.503   1.579   4.246  2.4745  0.4907 -0.2735
 1110SOL    HW214964   0.416   1.594   4.368 -0.4232  1.0383 -0.7543
 1111SOL     OW14965   0.302   4.270   6.642 -0.2661 -0.2597 -0.3524
 1111SOL    HW114966   0.305   4.231   6.555 -0.6523  0.4865 -0.6941
 1111SOL    HW214967   0.373   4.217   6.679  0.9517  0.2909 -1.9508
 1112SOL     OW14968   1.760   2.827   4.761 -0.2420  0.0729  0.0230
 1112SOL    HW114969   1.832   2.879   4.724  0.0438 -0.3865 -0.0633
 1112SOL    HW214970   1.684   2.883   4.751  0.5648  1.4667  1.5260
 1113SOL     OW14971   0.862   2.391   2.322 -0.2222 -0.3898 -0.2667
 1113SOL    HW114972   0.852   2.359   2.233  1.3443 -1.6627  0.0043
 1113SOL    HW214973   0.869   2.312   2.375 -0.8009 -1.6048 -2.0323
 1114SOL     OW14974   0.203   0.920   1.460 -0.4097 -0.4452 -0.4508
 1114SOL    HW114975   0.132   0.983   1.445  0.7232  0.7189 -0.9960
 1114SOL    HW214976   0.267   0.987   1.487  0.0601 -1.2924  0.5099
 1115SOL     OW14977   2.330   4.163   1.099 -0.0669 -0.4081 -0.6386
 1115SOL    HW114978   2.401   4.153   1.162 -1.2880 -2.4075  0.4529
 1115SOL    HW214979   2.367   4.165   1.011 -0.4122  1.2122 -0.7501
 1116SOL     OW14980   4.267   3.340   4.335  0.1291 -0.4284  0.1089
 1116SOL    HW114981   4.355   3.304   4.325 -0.0478 -0.9861  0.5658
 1116SOL    HW214982   4.283   3.434   4.328 -0.5522 -0.1798  2.0820
 1117SOL     OW14983   3.227   1.694   2.666 -0.3830  0.8586 -0.0991
 1117SOL    HW114984   3.300   1.701   2.604  1.2148  3.3737  2.0555
 1117SOL    HW214985   3.186   1.612   2.637 -0.2724 -0.0514  2.3334
 1118SOL     OW14986   0.773   1.032   5.189 -1.1296 -0.1705 -0.0500
 1118SOL    HW114987   0.818   1.021   5.105 -1.2333 -0.0893 -0.1155
 1118SOL    HW214988   0.771   1.127   5.193 -1.5539 -0.2265  0.9679
 1119SOL     OW14989   3.379   3.258   3.849  0.2814 -0.0138  0.1126
 1119SOL    HW114990   3.298   3.271   3.799 -1.0893  0.5454  2.5152
 1119SOL    HW214991   3.432   3.213   3.783 -1.9813 -0.3887 -1.4625
 1120SOL     OW14992   4.174   3.870   4.991  0.2540  0.3530 -0.0170
 1120SOL    HW114993   4.266   3.847   5.007  0.1920  0.8382  1.0048
 1120SOL    HW214994   4.148   3.782   4.963 -0.4234  1.2113 -2.0869
 1121SOL     OW14995   1.266   1.370   1.687  0.2308  0.4605  0.1299
 1121SOL    HW114996   1.319   1.419   1.751 -2.2252 -0.2351  2.7008
 1121SOL    HW214997   1.269   1.439   1.621 -1.1722 -0.8742 -1.3034
 1122SOL     OW14998   1.413   1.891   1.121  0.1819  0.1082 -0.3228
 1122SOL    HW114999   1.400   1.870   1.029 -1.1534 -0.4163 -0.0079
 1122SOL    HW215000   1.366   1.974   1.121 -0.3181 -0.1939  3.0921
 1123SOL     OW15001   3.573   3.957   6.687 -0.1524  0.3270  0.2608
 1123SOL    HW115002   3.555   3.946   6.781 -2.3568  0.7159 -0.1293
 1123SOL    HW215003   3.632   3.884   6.666 -1.4407 -0.7998  0.5652
 1124SOL     OW15004   4.461   0.899   6.210  0.2932 -0.1121  0.5362
 1124SOL    HW115005   4.499   0.915   6.123 -0.3563  1.2375  0.4941
 1124SOL    HW215006   4.369   0.898   6.187  0.0836 -1.1910  1.4335
 1125SOL     OW15007   2.920   1.620   2.778  0.0410  0.3212  0.5970
 1125SOL    HW115008   2.920   1.714   2.759  2.4632  0.6281  2.1844
 1125SOL    HW215009   3.012   1.600   2.763 -0.5738  0.2065 -3.0440
 1126SOL     OW15010   3.035   2.750  12.628  0.2395  0.5980 -0.4269
 1126SOL    HW115011   3.006   2.749  12.536  0.1194 -1.5120 -0.3692
 1126SOL    HW215012   2.957   2.732  12.680  0.7254  2.5683  0.9660
 1127SOL     OW15013   1.827   2.008   9.097 -0.0799  0.0383  0.7455
 1127SOL    HW115014   1.855   2.035   9.185  1.3065  1.2029 -0.0531
 1127SOL    HW215015   1.878   2.071   9.046  0.0632 -0.1153  0.6982
 1128SOL     OW15016   1.141   3.073   4.920  0.4342  0.5401  0.2343
 1128SOL    HW115017   1.183   3.109   4.842 -1.1377  2.0815  0.0912
 1128SOL    HW215018   1.093   2.997   4.886  0.0829  1.1666 -0.6842
 1129SOL     OW15019   4.451   1.697   3.205  0.1687 -0.8058  0.5648
 1129SOL    HW115020   4.446   1.622   3.145  2.1823  0.1204 -0.7782
 1129SOL    HW215021   4.446   1.764   3.136 -0.7595  0.0380  1.4482
 1130SOL     OW15022   0.641   3.287  17.293 -0.0639 -0.3133 -0.1358
 1130SOL    HW115023   0.735   3.302  17.283 -0.0765 -0.6118 -0.7040
 1130SOL    HW215024   0.621   3.216  17.233  0.7946  1.0024 -1.9755
 1131SOL     OW15025   3.651   4.143   5.993 -0.4691 -0.2283  0.7723
 1131SOL    HW115026   3.679   4.073   6.052  2.1658  0.5274  0.4227
 1131SOL    HW215027   3.658   4.218   6.053  0.8520 -1.2083  1.8239
 1132SOL     OW15028   1.323   1.273   5.935 -0.0547  0.4754  0.4916
 1132SOL    HW115029   1.277   1.212   5.993  0.4332 -0.2464  0.1174
 1132SOL    HW215030   1.288   1.357   5.963 -0.1234  0.1614  1.3730
 1133SOL     OW15031   2.008   2.801   3.758 -0.3637 -0.3840 -0.0000
 1133SOL    HW115032   2.087   2.765   3.718  0.9360  0.1562  2.0837
 1133SOL    HW215033   2.014   2.889   3.720  1.2431 -0.1625  0.7568
 1134SOL     OW15034   2.963   4.438  16.435  0.0722 -0.4953  0.0922
 1134SOL    HW115035   2.979   4.488  16.515 -0.4761 -0.7234  0.3450
 1134SOL    HW215036   3.033   4.375  16.417  1.2546  0.9100 -0.2104
 1135SOL     OW15037   1.340   4.303   2.960  0.4763 -0.2783  0.5167
 1135SOL    HW115038   1.362   4.222   3.006 -2.2507 -0.3580  1.6399
 1135SOL    HW215039   1.250   4.304   2.992  1.2347 -1.3586  2.7005
 1136SOL     OW15040   0.384   2.685   4.482  0.7439 -0.6240  0.4529
 1136SOL    HW115041   0.347   2.624   4.546  0.4503 -0.9904 -0.0619
 1136SOL    HW215042   0.389   2.623   4.409  0.9098  0.5239 -0.5103
 1137SOL     OW15043   2.627   1.694   4.820 -0.8271  0.3561  0.2837
 1137SOL    HW115044   2.569   1.691   4.895 -1.1448  4.0630  0.1508
 1137SOL    HW215045   2.698   1.746   4.857  0.3142 -1.7027  1.0161
 1138SOL     OW15046   3.571   3.453   9.588 -0.4142  0.1078 -0.1512
 1138SOL    HW115047   3.567   3.542   9.555  1.4615  0.9974  2.0677
 1138SOL    HW215048   3.664   3.433   9.576 -0.4837 -1.1627  1.3946
 1139SOL     OW15049   0.183   0.624  16.210  0.1288 -0.0975  0.2380
 1139SOL    HW115050   0.100   0.619  16.258  0.2127 -0.3528  0.3522
 1139SOL    HW215051   0.236   0.565  16.262 -2.1843 -0.8158  1.8091
 1140SOL     OW15052   3.544   4.221   3.325  0.0004  0.2799 -0.0033
 1140SOL    HW115053   3.616   4.266   3.368 -0.3899 -1.4323  2.4583
 1140SOL    HW215054   3.480   4.221   3.397  0.0436 -1.5986  0.0528
 1141SOL     OW15055   0.817   0.850  14.288  0.5259  0.7096  0.2863
 1141SOL    HW115056   0.834   0.839  14.381  2.1904 -0.1329 -0.1082
 1141SOL    HW215057   0.870   0.929  14.276  1.2186  0.2866  0.5237
 1142SOL     OW15058   1.466   3.080   3.857 -0.2660  0.0538 -0.4259
 1142SOL    HW115059   1.518   3.000   3.861  0.9653  0.8719 -0.0097
 1142SOL    HW215060   1.386   3.040   3.823 -0.5547  1.5164 -1.4740
 1143SOL     OW15061   2.543   3.213   7.582 -0.6299 -0.1277 -0.4028
 1143SOL    HW115062   2.469   3.154   7.589 -0.7543  0.1630  0.7414
 1143SOL    HW215063   2.605   3.156   7.536 -1.0818 -1.0563  0.1501
 1144SOL     OW15064   3.281   0.688  11.113  0.3437 -0.1762  0.4764
 1144SOL    HW115065   3.201   0.635  11.106  1.2683 -1.2786 -1.6992
 1144SOL    HW215066   3.298   0.679  11.207 -1.0051  0.3718  0.7741
 1145SOL     OW15067   0.286   3.182  16.215 -0.2963 -0.0838 -0.1575
 1145SOL    HW115068   0.267   3.159  16.124  0.4231 -0.6870 -0.1469
 1145SOL    HW215069   0.348   3.254  16.201 -0.9716  0.0730 -2.3638
 1146SOL     OW15070   0.334   0.410   9.389  0.0527 -0.5419  0.7350
 1146SOL    HW115071   0.428   0.405   9.372 -0.3997 -3.1183 -1.0158
 1146SOL    HW215072   0.318   0.348   9.460  0.8558 -0.7996  0.6903
 1147SOL     OW15073   4.553   0.456   2.322 -0.3137 -0.1150  0.1871
 1147SOL    HW115074   4.635   0.475   2.275 -0.9388  0.6395 -0.6164
 1147SOL    HW215075   4.515   0.544   2.324 -0.7004 -0.2887  0.3770
 1148SOL     OW15076   1.798   4.721   4.655 -0.0808 -0.6317 -0.5035
 1148SOL    HW115077   1.826   4.661   4.724  2.4657  0.3844 -0.6486
 1148SOL    HW215078   1.722   0.020   4.702 -0.2513  1.0821 -1.9916
 1149SOL     OW15079   0.200   2.349   8.637  0.0847  0.0892 -0.6710
 1149SOL    HW115080   0.260   2.360   8.563 -1.0264  2.8968 -1.1712
 1149SOL    HW215081   0.225   2.263   8.670  0.2062  1.3448  2.5544
 1150SOL     OW15082   2.341   1.894  10.761 -0.4937  0.3758  0.3602
 1150SOL    HW115083   2.429   1.875  10.794 -0.7025  0.6666  1.0745
 1150SOL    HW215084   2.300   1.841  10.829  0.7693  0.8479  1.4695
 1151SOL     OW15085   2.859   2.423   3.130 -0.3409 -0.0147  0.3546
 1151SOL    HW115086   2.889   2.506   3.094  0.7724  0.2361  1.8741
 1151SOL    HW215087   2.769   2.426   3.098 -0.4376  0.0818  0.6303
 1152SOL     OW15088   1.731   0.366  12.839 -0.5177  0.4928  0.4451
 1152SOL    HW115089   1.810   0.332  12.881 -0.7204  0.1534  0.5480
 1152SOL    HW215090   1.742   0.456  12.869  2.2427  0.6147 -0.9191
 1153SOL     OW15091   3.435   0.510   4.573 -0.3072 -0.2638  0.2325
 1153SOL    HW115092   3.442   0.420   4.605 -1.3016 -0.0197  1.1285
 1153SOL    HW215093   3.366   0.505   4.507 -0.6131  1.9497  0.3753
 1154SOL     OW15094   4.031   3.903  11.925 -0.3361 -0.3456 -0.1589
 1154SOL    HW115095   4.063   3.980  11.878 -1.4205 -0.9794 -1.9395
 1154SOL    HW215096   3.958   3.870  11.872 -1.5344  1.1420  0.5586
 1155SOL     OW15097   4.110   0.944  16.392  0.0014 -0.0793 -0.5444
 1155SOL    HW115098   4.111   0.936  16.296 -2.5887  1.4837 -0.7128
 1155SOL    HW215099   4.030   0.899  16.420 -0.7225 -0.1215 -2.6514
 1156SOL     OW15100   1.125   0.415   8.576  0.4560  0.5492 -0.6710
 1156SOL    HW115101   1.131   0.510   8.586  1.3493  0.4287 -0.0629
 1156SOL    HW215102   1.129   0.415   8.480 -2.0139 -0.4864 -0.7455
 1157SOL     OW15103   4.585   3.608   4.108 -0.3552  0.1759  0.3536
 1157SOL    HW115104   4.514   3.671   4.113 -2.1544 -1.9257  1.5715
 1157SOL    HW215105   4.533   3.528   4.113  0.1854 -0.2404 -0.6622
 1158SOL     OW15106   0.935   3.416  12.865 -0.6241  0.5311 -0.0102
 1158SOL    HW115107   0.895   3.463  12.793 -1.2865 -0.2005 -0.1154
 1158SOL    HW215108   1.023   3.453  12.878 -0.2503 -1.4648  3.1121
 1159SOL     OW15109   3.352   2.566   5.222  0.2561 -0.1331 -0.2791
 1159SOL    HW115110   3.420   2.552   5.288 -0.1261 -4.3781 -0.8054
 1159SOL    HW215111   3.321   2.476   5.211 -2.9159  0.7024  2.0760
 1160SOL     OW15112   2.244   0.830  17.351  0.1186  0.1115  0.7776
 1160SOL    HW115113   2.274   0.862  17.266  0.1299  0.1819  0.8088
 1160SOL    HW215114   2.286   0.891  17.412  0.0844 -0.3064  1.2284
 1161SOL     OW15115   0.472   1.707  14.311  0.1156  0.2329 -0.0432
 1161SOL    HW115116   0.557   1.750  14.323  0.5647 -0.9189  0.8700
 1161SOL    HW215117   0.468   1.662  14.396 -1.1749  1.0198  0.3157
 1162SOL     OW15118   2.264   3.052   8.972 -0.1422 -0.1676 -0.1398
 1162SOL    HW115119   2.271   3.076   9.064  1.7351 -0.4054 -0.2125
 1162SOL    HW215120   2.229   2.963   8.975 -0.7292 -0.0924 -4.4253
 1163SOL     OW15121   3.995   3.701   4.415 -0.2767  0.2126 -0.3147
 1163SOL    HW115122   4.036   3.762   4.353 -0.3266  0.7250  0.1663
 1163SOL    HW215123   4.063   3.700   4.483  0.5223  0.7843 -1.1061
 1164SOL     OW15124   2.661   0.708   6.324  0.4479  0.3965 -0.0698
 1164SOL    HW115125   2.668   0.675   6.414 -1.1117  1.5899  0.4957
 1164SOL    HW215126   2.623   0.628   6.287  0.6473  1.0800 -1.7619
 1165SOL     OW15127   3.735   4.112  15.781  0.3764 -0.0304  0.5045
 1165SOL    HW115128   3.783   4.152  15.708 -2.0800 -0.1594 -1.1794
 1165SOL    HW215129   3.699   4.192  15.819  0.0628  0.3741 -0.6623
 1166SOL     OW15130   1.379   3.125   6.380 -0.0497  0.0378 -0.2891
 1166SOL    HW115131   1.402   3.134   6.473 -1.7877 -0.3783  0.1766
 1166SOL    HW215132   1.403   3.211   6.345 -2.0487  0.8529  0.3544
 1167SOL     OW15133   2.632   4.231   2.489  0.1192  0.8220  0.1844
 1167SOL    HW115134   2.712   4.227   2.541  1.4475  0.2774 -1.8829
 1167SOL    HW215135   2.631   4.320   2.453 -3.5423  1.4492  1.8587
 1168SOL     OW15136   4.237   3.848   9.300  0.3539  0.0046  0.2229
 1168SOL    HW115137   4.278   3.802   9.373  1.3697  0.2676 -0.1871
 1168SOL    HW215138   4.293   3.925   9.307  0.8693 -0.4556  1.1242
 1169SOL     OW15139   1.208   1.906   8.667  0.6364  0.6015 -0.0151
 1169SOL    HW115140   1.162   1.842   8.722 -0.6709  1.5413 -0.0283
 1169SOL    HW215141   1.294   1.863   8.667 -0.7518 -2.1458 -1.5504
 1170SOL     OW15142   1.652   2.663   9.291  0.4426  0.2358 -0.3488
 1170SOL    HW115143   1.640   2.701   9.378  1.2598 -0.2866 -0.0027
 1170SOL    HW215144   1.704   2.586   9.316  2.7468  1.6478 -0.7927
 1171SOL     OW15145   3.573   1.371   5.863 -0.5619 -0.1000  0.4322
 1171SOL    HW115146   3.516   1.294   5.864 -2.2731  1.1832  0.7151
 1171SOL    HW215147   3.510   1.443   5.873 -3.2360 -2.3167 -0.3458
 1172SOL     OW15148   3.405   4.654   7.081 -0.3348 -0.3556 -0.0009
 1172SOL    HW115149   3.311   4.666   7.093  0.2808  1.4900  2.8695
 1172SOL    HW215150   3.427   4.577   7.134 -0.8022  0.5238  1.4766
 1173SOL     OW15151   0.267   1.083   5.310  0.1101 -0.2647  0.0396
 1173SOL    HW115152   0.360   1.078   5.289 -0.1276  0.0691 -1.0940
 1173SOL    HW215153   0.252   1.175   5.287 -1.7213 -0.1479  1.7322
 1174SOL     OW15154   3.914   0.610   9.113 -0.2073 -0.6200 -0.2873
 1174SOL    HW115155   3.994   0.577   9.072 -0.6924  0.3879 -2.0440
 1174SOL    HW215156   3.851   0.562   9.059 -1.5247  1.8489 -0.9268
 1175SOL     OW15157   3.662   2.431   1.944  0.1886 -0.0058  0.3470
 1175SOL    HW115158   3.655   2.503   1.881  0.6149 -0.9377 -0.7780
 1175SOL    HW215159   3.586   2.379   1.917  1.4653 -0.6734 -1.9888
 1176SOL     OW15160   2.494   0.591   4.213 -0.1172  0.0131 -0.6776
 1176SOL    HW115161   2.587   0.609   4.222  0.1352 -1.2950 -0.7480
 1176SOL    HW215162   2.467   0.680   4.189 -0.3702  0.3837  0.9869
 1177SOL     OW15163   1.667   4.627   9.717 -0.0464 -0.0008 -0.1309
 1177SOL    HW115164   1.670   4.721   9.703  1.6371  0.0756  0.7306
 1177SOL    HW215165   1.640   4.616   9.808 -0.4582 -1.8519 -0.4689
 1178SOL     OW15166   3.092   2.388  14.660  0.1703  0.1732 -0.1377
 1178SOL    HW115167   3.150   2.461  14.636  2.0115 -1.4713 -0.7672
 1178SOL    HW215168   3.008   2.417  14.694 -0.4940 -3.9621  1.6800
 1179SOL     OW15169   2.883   0.445  16.612  0.3753  0.8516  0.6925
 1179SOL    HW115170   2.827   0.470  16.686 -1.3734  1.9254 -0.9672
 1179SOL    HW215171   2.882   0.527  16.563  2.0474 -1.3798 -3.1027
 1180SOL     OW15172   0.701   0.299   4.025 -0.0479  0.3466 -0.4825
 1180SOL    HW115173   0.733   0.338   4.107  0.4522  0.9834 -0.9825
 1180SOL    HW215174   0.649   0.224   4.056 -0.4275  0.5747 -0.5752
 1181SOL     OW15175   3.023   2.397   4.977 -0.3311 -0.2114 -0.6102
 1181SOL    HW115176   3.068   2.390   5.061 -1.5272 -4.2327 -0.2768
 1181SOL    HW215177   3.046   2.314   4.934  0.3012  0.4291 -1.5076
 1182SOL     OW15178   3.584   3.645   5.390 -0.2620  0.1575 -1.1248
 1182SOL    HW115179   3.563   3.660   5.482 -0.3887 -0.9605 -0.9684
 1182SOL    HW215180   3.554   3.728   5.353  0.6843  0.6403 -0.7911
 1183SOL     OW15181   3.872   0.853  16.456  0.2679  0.4978  0.0211
 1183SOL    HW115182   3.855   0.853  16.550 -1.9604 -1.1884 -0.3819
 1183SOL    HW215183   3.857   0.760  16.441  2.4156  0.2519 -0.6257
 1184SOL     OW15184   1.352   3.513   6.926  0.2005 -0.1526  0.4635
 1184SOL    HW115185   1.261   3.504   6.899 -0.5014  4.1884  1.3071
 1184SOL    HW215186   1.350   3.524   7.021 -0.3752  0.0430  0.4293
 1185SOL     OW15187   4.549   0.987  10.406  0.4561  0.2336  0.2290
 1185SOL    HW115188   4.521   0.971  10.496  0.5910  0.5038  0.3195
 1185SOL    HW215189   4.496   0.932  10.348  0.9284 -0.4703  0.4720
 1186SOL     OW15190   2.514   1.808  11.934  0.0832  0.2055 -0.0450
 1186SOL    HW115191   2.430   1.827  11.893 -0.4385 -2.1667 -0.0366
 1186SOL    HW215192   2.573   1.866  11.886  2.5277  1.3198  4.2703
 1187SOL     OW15193   2.750   4.446  16.264 -0.0413  0.2129  0.5209
 1187SOL    HW115194   2.835   4.435  16.307 -0.4148 -0.5129  1.0669
 1187SOL    HW215195   2.764   4.521  16.206  0.0664  1.4196  2.1142
 1188SOL     OW15196   3.112   2.498   0.664 -0.2493  0.2382 -0.4412
 1188SOL    HW115197   3.120   2.590   0.637  0.3485  0.6096  0.9790
 1188SOL    HW215198   3.074   2.513   0.751  1.2615  2.0172 -0.0712
 1189SOL     OW15199   3.831   2.332   3.778 -0.0064 -0.0344 -0.7561
 1189SOL    HW115200   3.789   2.295   3.855  1.2799 -1.6613 -0.8315
 1189SOL    HW215201   3.822   2.425   3.799 -1.0544  0.0635 -1.6529
 1190SOL     OW15202   0.937   3.283  17.483 -0.5070  0.1502 -0.5128
 1190SOL    HW115203   1.018   3.330  17.503  1.0136 -1.1393 -3.6189
 1190SOL    HW215204   0.921   3.304  17.391  1.5663 -3.9069 -1.8379
 1191SOL     OW15205   4.466   1.005   1.315  0.4529  0.0219  0.2536
 1191SOL    HW115206   4.443   1.098   1.319  0.7716  0.1475 -0.8526
 1191SOL    HW215207   4.399   0.959   1.365  0.3958  0.5570  0.6798
 1192SOL     OW15208   0.191   3.417  12.638  0.2798  0.3843  0.4643
 1192SOL    HW115209   0.131   3.351  12.601  1.9703 -1.3714  0.8849
 1192SOL    HW215210   0.149   3.423  12.724  2.4861 -0.1917  1.5865
 1193SOL     OW15211   1.700   1.269   0.488  0.0056  0.0685 -0.1551
 1193SOL    HW115212   1.676   1.283   0.396  0.5783 -1.8529 -0.6027
 1193SOL    HW215213   1.789   1.235   0.483 -0.0095 -0.2574  1.8052
 1194SOL     OW15214   2.249   2.586   5.933 -0.0055 -0.1771  0.2470
 1194SOL    HW115215   2.321   2.612   5.989 -0.5233  1.0319  0.3688
 1194SOL    HW215216   2.217   2.668   5.894  0.6673  0.7771  1.7147
 1195SOL     OW15217   0.563   1.028   4.378 -0.2464 -0.3081  0.8618
 1195SOL    HW115218   0.542   1.121   4.373 -0.6528 -0.4134  0.5977
 1195SOL    HW215219   0.508   0.978   4.318  0.5894 -2.7404  2.0934
 1196SOL     OW15220   3.373   2.819   6.954  0.0746  0.4946 -0.3333
 1196SOL    HW115221   3.442   2.883   6.973  1.7965 -1.6148  0.5065
 1196SOL    HW215222   3.425   2.739   6.958 -0.7489 -0.0256 -0.1049
 1197SOL     OW15223   3.053   1.210   6.405 -0.4663  0.6822 -0.4910
 1197SOL    HW115224   3.125   1.252   6.358 -1.0408  1.9455 -0.2540
 1197SOL    HW215225   3.054   1.271   6.479 -1.0822 -0.9753  0.8926
 1198SOL     OW15226   4.514   3.960  11.578  0.3821  0.3964  0.1970
 1198SOL    HW115227   4.511   3.960  11.673  2.9008  0.0735  0.2556
 1198SOL    HW215228   4.605   3.957  11.549 -0.8801 -4.5787 -3.3786
 1199SOL     OW15229   4.587   3.695  15.430  0.1814 -0.0246 -0.5605
 1199SOL    HW115230   4.573   3.606  15.464 -2.0309 -0.1902 -1.9332
 1199SOL    HW215231   4.673   3.693  15.388  0.0037  1.3881 -0.9882
 1200SOL     OW15232   1.939   3.472   5.793 -0.0021 -0.6046  0.2695
 1200SOL    HW115233   1.961   3.556   5.753 -1.1438  0.0244  0.9425
 1200SOL    HW215234   1.873   3.433   5.735  0.3665  0.2976 -0.7544
 1201SOL     OW15235   0.766   0.578  14.434  0.1631  0.2399 -0.1615
 1201SOL    HW115236   0.686   0.580  14.381  0.0556 -0.8364 -0.0516
 1201SOL    HW215237   0.731   0.609  14.517  0.6821 -1.7676  0.7983
 1202SOL     OW15238   3.590   1.422   3.392 -0.4265 -0.1165  0.3277
 1202SOL    HW115239   3.676   1.398   3.428 -0.4614 -0.6861  0.0380
 1202SOL    HW215240   3.621   1.485   3.327 -0.7192 -0.3472 -0.0320
 1203SOL     OW15241   0.415   1.502   6.178 -0.5345 -0.6022 -0.3374
 1203SOL    HW115242   0.368   1.580   6.148 -0.5677 -0.4127  0.2192
 1203SOL    HW215243   0.346   1.464   6.232  2.2907 -1.3620  2.7099
 1204SOL     OW15244   0.086   4.289   4.635  0.0760  0.1973  0.0140
 1204SOL    HW115245   0.004   4.289   4.684 -0.3645 -1.0899 -0.7250
 1204SOL    HW215246   0.058   4.297   4.544  0.4563 -0.4549 -0.1673
 1205SOL     OW15247   3.522   1.961   2.515  0.3688  0.3675 -0.0148
 1205SOL    HW115248   3.473   2.042   2.530 -2.0020 -1.2034  0.7995
 1205SOL    HW215249   3.474   1.928   2.438  0.9534  1.0147 -0.6563
 1206SOL     OW15250   0.666   3.930  10.417 -0.1405  0.5840  0.0681
 1206SOL    HW115251   0.718   3.991  10.468 -0.0037  0.1753  0.4149
 1206SOL    HW215252   0.740   3.889  10.371 -0.9786  0.9377 -1.5929
 1207SOL     OW15253   0.639   4.480  13.097  0.3049  0.3373  0.8618
 1207SOL    HW115254   0.693   4.413  13.139  1.3717  0.6141 -0.0681
 1207SOL    HW215255   0.710   4.544  13.085 -2.1769  2.6876 -1.2190
 1208SOL     OW15256   2.085   4.505   6.208  0.9975  0.0802  0.2354
 1208SOL    HW115257   2.029   4.468   6.275 -0.4166 -1.6886 -1.9362
 1208SOL    HW215258   2.165   4.541   6.246  0.3299  1.3217  0.4840
 1209SOL     OW15259   4.639   3.973   2.048  0.3696 -0.3999 -0.1380
 1209SOL    HW115260   4.725   3.932   2.055  0.4310 -0.5975 -2.0296
 1209SOL    HW215261   4.628   4.019   2.131 -2.5381  0.6278 -1.1046
 1210SOL     OW15262   1.799   1.738   7.830 -0.3464 -0.1879  0.0345
 1210SOL    HW115263   1.758   1.816   7.791  2.1778  0.5951 -1.0208
 1210SOL    HW215264   1.777   1.750   7.922 -1.3625  1.9704 -0.4914
 1211SOL     OW15265   0.329   1.206  16.783  0.6729  0.3754  0.3406
 1211SOL    HW115266   0.310   1.135  16.722  0.1773 -1.1021  2.2138
 1211SOL    HW215267   0.360   1.150  16.855 -0.9280 -0.8813  0.0407
 1212SOL     OW15268   2.077   2.436   0.779 -0.2142 -0.1888  0.1370
 1212SOL    HW115269   2.027   2.419   0.699 -0.1074 -0.1182  0.0555
 1212SOL    HW215270   2.161   2.472   0.750 -0.2526 -0.5604 -0.4344
 1213SOL     OW15271   1.968   0.206   8.587  0.5040 -0.4948  0.1039
 1213SOL    HW115272   1.926   0.146   8.526  1.9856 -0.4642 -0.9637
 1213SOL    HW215273   1.933   0.288   8.551  1.8640  0.3812  0.7633
 1214SOL     OW15274   3.735   1.926  14.821  0.3473  0.0259 -0.0442
 1214SOL    HW115275   3.762   1.986  14.890 -1.6700 -0.0247  0.8072
 1214SOL    HW215276   3.812   1.871  14.807  0.6303  0.3509  0.2622
 1215SOL     OW15277   3.803   4.457   4.593  0.3266 -0.1976 -0.1383
 1215SOL    HW115278   3.833   4.411   4.515 -2.3999 -2.7257  0.3306
 1215SOL    HW215279   3.833   4.408   4.669 -1.0924 -1.6851 -0.5572
 1216SOL     OW15280   2.437   0.216  11.930  0.4077 -0.3096 -0.2959
 1216SOL    HW115281   2.440   0.120  11.933  2.0335 -0.3072 -2.1693
 1216SOL    HW215282   2.388   0.227  12.012  0.8517  0.5076 -0.1473
 1217SOL     OW15283   2.915   3.765  14.444  0.2813  0.0063 -0.0522
 1217SOL    HW115284   2.868   3.720  14.514 -2.9795  2.5152 -0.6368
 1217SOL    HW215285   2.895   3.857  14.462  1.5932  0.2556  0.1457
 1218SOL     OW15286   1.912   2.105   8.633  0.1455  0.7039 -0.4880
 1218SOL    HW115287   1.873   2.190   8.614 -2.7534  0.0507  2.6022
 1218SOL    HW215288   1.950   2.117   8.720 -1.5102  4.4104 -0.3018
 1219SOL     OW15289   1.563   0.924   7.996  0.2542 -0.5746 -0.0043
 1219SOL    HW115290   1.514   1.006   8.006  1.9702  0.0965  3.1774
 1219SOL    HW215291   1.650   0.950   7.965  1.0142 -1.7994  1.1082
 1220SOL     OW15292   3.317   3.459  11.778 -0.2280 -0.0273 -0.4761
 1220SOL    HW115293   3.246   3.491  11.833 -0.0035  1.3000 -0.9695
 1220SOL    HW215294   3.379   3.419  11.839 -1.0338  0.3373  0.5752
 1221SOL     OW15295   2.694   3.345   8.785  0.3190 -0.5835  0.4852
 1221SOL    HW115296   2.624   3.282   8.768 -1.1662  1.6791 -1.7317
 1221SOL    HW215297   2.748   3.355   8.706 -1.0922  0.2696 -0.3695
 1222SOL     OW15298   2.014   2.300   6.662 -0.3332 -0.2886 -0.2938
 1222SOL    HW115299   1.973   2.226   6.617  0.9232 -1.0413 -0.1984
 1222SOL    HW215300   2.010   2.268   6.752  2.5329  0.8111  0.2306
 1223SOL     OW15301   1.106   0.815  12.363  0.6135 -0.3398  0.0594
 1223SOL    HW115302   1.147   0.815  12.450  0.7061  2.6317 -0.0147
 1223SOL    HW215303   1.022   0.776  12.388 -0.2207  0.1362 -1.9886
 1224SOL     OW15304   1.382   1.906   1.413 -0.1883 -0.3275  0.1115
 1224SOL    HW115305   1.379   1.828   1.469 -2.1530 -1.5314 -1.6797
 1224SOL    HW215306   1.356   1.874   1.327 -0.7454 -1.1681  0.5892
 1225SOL     OW15307   0.250   3.458   8.450 -0.2482  0.1078  0.2959
 1225SOL    HW115308   0.254   3.425   8.539  1.0774 -0.8291 -0.1061
 1225SOL    HW215309   0.192   3.534   8.455  0.4161  0.5385  1.3789
 1226SOL     OW15310   4.386   0.467   6.611 -0.0054  0.2990 -0.3743
 1226SOL    HW115311   4.332   0.488   6.688  0.0315 -3.7187  0.7583
 1226SOL    HW215312   4.322   0.398   6.591  0.7915 -0.0463 -1.7304
 1227SOL     OW15313   3.189   3.667   5.698 -0.3822 -0.3808 -0.4121
 1227SOL    HW115314   3.176   3.761   5.686  0.7300 -0.1390  0.2793
 1227SOL    HW215315   3.277   3.657   5.661 -0.2475 -0.8852  0.0433
 1228SOL     OW15316   3.809   0.668   5.270  0.0751  0.5584 -0.0427
 1228SOL    HW115317   3.731   0.632   5.229  1.2887  0.1982 -2.0495
 1228SOL    HW215318   3.850   0.730   5.210 -0.9233  0.2031 -1.0897
 1229SOL     OW15319   0.219   4.408   6.217 -0.3632  0.0091 -0.8208
 1229SOL    HW115320   0.278   4.336   6.241 -0.0388  0.7467  0.6131
 1229SOL    HW215321   0.138   4.359   6.207  0.6119 -1.9768  0.9338
 1230SOL     OW15322   1.885   3.199   9.622  0.1056 -0.6284  0.3759
 1230SOL    HW115323   1.884   3.282   9.575 -2.8861 -0.7009  0.3695
 1230SOL    HW215324   1.932   3.209   9.706  0.2548 -1.1597  0.3543
 1231SOL     OW15325   3.728   2.366  16.541 -0.0290 -0.0514  0.5517
 1231SOL    HW115326   3.761   2.434  16.600 -1.3482  2.4184 -1.5428
 1231SOL    HW215327   3.748   2.396  16.452 -0.0107 -0.1975  0.5068
 1232SOL     OW15328   2.133   2.241   8.443 -0.1239  0.3352 -0.2900
 1232SOL    HW115329   2.053   2.279   8.480 -0.1465  0.2235 -0.2247
 1232SOL    HW215330   2.090   2.189   8.375 -0.5768  2.2543 -1.4707
 1233SOL     OW15331   2.594   3.742  12.066  0.7059 -0.2278  0.0837
 1233SOL    HW115332   2.552   3.762  12.149  1.6090 -1.0161  0.7265
 1233SOL    HW215333   2.610   3.829  12.030  1.3545 -0.4990 -0.2963
 1234SOL     OW15334   0.938   4.092  11.580  0.0485 -0.1328  0.6696
 1234SOL    HW115335   0.953   4.017  11.638  0.3378 -0.4642  0.1587
 1234SOL    HW215336   0.932   4.037  11.502  1.7838 -1.4819  1.4994
 1235SOL     OW15337   1.115   2.772  12.144 -0.0118  0.4680  0.7877
 1235SOL    HW115338   1.087   2.687  12.111 -1.0578  0.8054  0.8010
 1235SOL    HW215339   1.035   2.804  12.186 -0.3859 -0.6547  0.9230
 1236SOL     OW15340   3.842   2.943   5.010  0.5613 -0.8408  0.4851
 1236SOL    HW115341   3.906   2.975   4.946  0.2652  2.3461  1.7800
 1236SOL    HW215342   3.895   2.871   5.042  0.7397 -1.2460 -0.7238
 1237SOL     OW15343   1.027   4.116   1.141  0.1720  0.3150  0.6391
 1237SOL    HW115344   1.087   4.158   1.081  1.0442 -2.0163 -0.1341
 1237SOL    HW215345   1.075   4.035   1.160  1.4095  0.6537 -1.1768
 1238SOL     OW15346   4.726   4.244   7.397  0.0160  0.1709 -0.1704
 1238SOL    HW115347   4.702   4.336   7.383 -0.9077 -0.3148 -1.7428
 1238SOL    HW215348   4.724   4.248   7.493  1.2501 -0.0422 -0.1380
 1239SOL     OW15349   2.166   0.874   3.977  0.4027 -0.4962 -0.1074
 1239SOL    HW115350   2.135   0.933   3.908  0.1271 -1.1515 -0.5387
 1239SOL    HW215351   2.185   0.797   3.924 -1.3596  0.2992 -1.9019
 1240SOL     OW15352   2.809   0.598  15.537  0.2847  0.8515  0.1827
 1240SOL    HW115353   2.848   0.685  15.527  0.9089  0.4726 -0.7109
 1240SOL    HW215354   2.737   0.610  15.475 -0.5766  1.5978  1.3298
 1241SOL     OW15355   4.615   4.413   7.891  0.1787 -0.6984 -0.2421
 1241SOL    HW115356   4.555   4.361   7.945  1.5634  1.0111  2.9980
 1241SOL    HW215357   4.581   4.501   7.906 -0.6123 -1.0710  0.1472
 1242SOL     OW15358   4.054   0.359   3.401  0.6845  0.4516  0.1255
 1242SOL    HW115359   4.051   0.354   3.496 -0.7153  2.8777  0.2367
 1242SOL    HW215360   3.969   0.332   3.366  0.2672  0.3473  1.2419
 1243SOL     OW15361   3.065   3.453   2.359 -0.7937 -0.1583 -0.1235
 1243SOL    HW115362   2.983   3.455   2.408 -0.1183 -2.2604  1.1194
 1243SOL    HW215363   3.091   3.545   2.357  2.8129 -1.1442  0.1817
 1244SOL     OW15364   3.445   1.499   6.995  0.3080  0.3452  0.3209
 1244SOL    HW115365   3.451   1.413   7.037 -0.8320  0.9654  1.7457
 1244SOL    HW215366   3.529   1.492   6.950 -0.6647 -1.5698 -1.2134
 1245SOL     OW15367   0.009   2.789  13.097  0.3308 -0.2028 -0.0268
 1245SOL    HW115368   0.006   2.879  13.130 -1.0162 -0.8841  1.6868
 1245SOL    HW215369   0.050   2.804  13.012 -0.9334  0.0714 -0.5709
 1246SOL     OW15370   1.081   1.845   2.090 -0.1208  0.2765  0.2526
 1246SOL    HW115371   1.117   1.761   2.061  0.1988  0.3177  0.5256
 1246SOL    HW215372   0.996   1.805   2.112 -0.4368 -0.3111 -2.1062
 1247SOL     OW15373   1.370   0.973  15.630 -0.3832 -0.3652  0.2887
 1247SOL    HW115374   1.353   0.918  15.707 -1.7919  1.1242  1.0657
 1247SOL    HW215375   1.295   0.946  15.578  1.4662  1.8019 -3.5293
 1248SOL     OW15376   2.728   1.810   7.218 -0.7863  0.3001  0.4103
 1248SOL    HW115377   2.662   1.760   7.170  0.7300  0.3956 -1.7342
 1248SOL    HW215378   2.684   1.892   7.239 -0.8035  0.5323 -0.5668
 1249SOL     OW15379   0.635   4.600   9.309 -0.2186  0.7815  0.4071
 1249SOL    HW115380   0.646   4.687   9.271  1.9732  0.1601 -0.3853
 1249SOL    HW215381   0.543   4.581   9.291  0.2704 -0.5479 -0.7383
 1250SOL     OW15382   1.962   3.695   5.170 -0.2561  0.0776  0.2945
 1250SOL    HW115383   1.872   3.667   5.188 -0.0510 -0.7790  0.0108
 1250SOL    HW215384   1.994   3.719   5.257 -0.3252  0.2011  0.2858
 1251SOL     OW15385   3.686   2.179   6.211 -0.2225 -0.1785  0.2510
 1251SOL    HW115386   3.717   2.266   6.236  0.2042 -0.3370  0.2819
 1251SOL    HW215387   3.766   2.132   6.188  0.2966  0.1739  1.3457
 1252SOL     OW15388   0.523   0.292   4.839 -0.5291  0.1554 -0.1021
 1252SOL    HW115389   0.540   0.261   4.927 -3.0480  1.1065  0.6933
 1252SOL    HW215390   0.603   0.320   4.793 -0.3062 -0.6955 -0.2312
 1253SOL     OW15391   3.352   1.577   3.183  0.0144  0.1284  0.0708
 1253SOL    HW115392   3.446   1.588   3.196  0.3328 -3.0855  0.6773
 1253SOL    HW215393   3.337   1.582   3.089 -3.2335 -1.0157  0.5297
 1254SOL     OW15394   0.340   0.628  12.433 -0.1613 -0.3279 -0.4354
 1254SOL    HW115395   0.246   0.644  12.423  0.4562  2.8141 -1.3150
 1254SOL    HW215396   0.350   0.551  12.378 -0.6758 -2.0612  1.8689
 1255SOL     OW15397   4.138   0.175   2.199 -0.0928  0.1789  0.1698
 1255SOL    HW115398   4.215   0.230   2.210  0.1217  0.4639 -2.7138
 1255SOL    HW215399   4.104   0.211   2.117 -0.8958 -0.4235  0.2408
 1256SOL     OW15400   2.306   1.743  16.254  0.5129 -0.1498  0.6376
 1256SOL    HW115401   2.243   1.717  16.187 -0.9673 -0.4537  2.1427
 1256SOL    HW215402   2.301   1.668  16.314  0.2015 -0.5644  0.0981
 1257SOL     OW15403   3.225   0.560   1.958  0.0573 -0.1651  0.5766
 1257SOL    HW115404   3.169   0.566   2.036  0.3886 -0.6372  0.8576
 1257SOL    HW215405   3.216   0.649   1.926 -0.1654 -0.0064  1.0724
 1258SOL     OW15406   1.126   2.520  12.412  0.2082 -0.1073  0.0035
 1258SOL    HW115407   1.124   2.491  12.321 -0.7987  1.7591 -0.5663
 1258SOL    HW215408   1.089   2.608  12.404 -0.1184 -0.3453 -1.2182
 1259SOL     OW15409   2.292   4.715   7.052 -0.6099 -0.0503  0.0179
 1259SOL    HW115410   2.248   4.731   7.135  1.1340 -1.2865  1.1737
 1259SOL    HW215411   2.361   0.047   7.059 -0.3487 -0.2555 -0.6244
 1260SOL     OW15412   1.091   1.867   6.279 -0.0571 -0.1782 -0.0315
 1260SOL    HW115413   1.058   1.828   6.198  0.1415  1.3063 -0.8211
 1260SOL    HW215414   1.104   1.792   6.337 -3.3192 -0.7032  0.0258
 1261SOL     OW15415   2.471   2.722   5.775  0.1318  0.8114 -0.1329
 1261SOL    HW115416   2.386   2.748   5.740  0.5262  1.3778 -0.6718
 1261SOL    HW215417   2.472   2.782   5.850 -1.8155  0.2512  0.3337
 1262SOL     OW15418   1.660   1.807   3.370  0.1005 -0.2811 -0.4605
 1262SOL    HW115419   1.662   1.860   3.450 -2.2958  0.8282 -1.1428
 1262SOL    HW215420   1.703   1.864   3.306  0.8472 -0.4112 -0.0771
 1263SOL     OW15421   1.875   4.355   5.551 -0.3438  0.4598 -0.1191
 1263SOL    HW115422   1.830   4.406   5.485  3.1963  2.4579 -0.9845
 1263SOL    HW215423   1.815   4.280   5.561  1.5311 -0.8932  1.1161
 1264SOL     OW15424   2.849   1.589   7.727 -0.7121 -0.3775 -0.1227
 1264SOL    HW115425   2.834   1.590   7.822  0.0318  0.1680 -0.0149
 1264SOL    HW215426   2.756   1.590   7.703 -0.4360 -2.5395 -1.2840
 1265SOL     OW15427   0.068   1.426  13.004 -0.2443  0.4377  0.3208
 1265SOL    HW115428   0.103   1.503  13.049  0.6864 -0.2653  0.8040
 1265SOL    HW215429   0.147   1.373  12.992 -1.6476 -2.0498  1.9273
 1266SOL     OW15430   1.468   0.234   5.288 -0.3993 -0.6316  0.2845
 1266SOL    HW115431   1.449   0.163   5.227 -0.3636  0.3683 -0.8853
 1266SOL    HW215432   1.425   0.311   5.249  0.8703  1.5363  3.0925
 1267SOL     OW15433   2.963   2.365   2.547  0.3584 -0.2077 -0.2936
 1267SOL    HW115434   3.014   2.399   2.621  0.2245 -1.5302  0.4084
 1267SOL    HW215435   2.874   2.385   2.575  0.6739  2.6989 -1.3628
 1268SOL     OW15436   2.052   3.556  12.424  0.1610 -0.5980 -0.0287
 1268SOL    HW115437   1.957   3.548  12.428  0.1793  0.1678  1.8658
 1268SOL    HW215438   2.050   3.649  12.400 -2.2706 -0.5542  0.3662
 1269SOL     OW15439   4.444   0.383   1.953 -0.5734 -0.3254  0.0559
 1269SOL    HW115440   4.428   0.341   1.869 -1.9757  1.3059 -0.4815
 1269SOL    HW215441   4.538   0.398   1.948 -0.5733 -0.3878 -0.0987
 1270SOL     OW15442   2.446   4.262   3.442  0.6283  0.2253 -0.2775
 1270SOL    HW115443   2.472   4.354   3.438 -1.3352  0.7368 -1.5840
 1270SOL    HW215444   2.465   4.245   3.534 -1.1679  3.5933  0.7317
 1271SOL     OW15445   1.068   3.068   7.860  0.6826  0.8053 -0.0117
 1271SOL    HW115446   1.081   3.154   7.898  0.7775  0.4128  0.8380
 1271SOL    HW215447   1.031   3.014   7.930 -0.5572 -0.4287 -1.5930
 1272SOL     OW15448   4.190   3.807  17.090  0.0641  0.1733 -0.2487
 1272SOL    HW115449   4.101   3.838  17.076  0.6318  1.7059 -0.4963
 1272SOL    HW215450   4.218   3.857  17.167  1.6868  0.0582 -0.7590
 1273SOL     OW15451   1.577   1.524   9.706 -0.1189 -0.6786 -0.4003
 1273SOL    HW115452   1.488   1.554   9.688 -0.1949  0.2628  1.5756
 1273SOL    HW215453   1.574   1.434   9.672 -0.2784  0.0509 -2.3217
 1274SOL     OW15454   2.801   4.637   3.708 -0.3204  0.0129  0.1404
 1274SOL    HW115455   2.797   4.642   3.613  2.7516 -0.2072  0.0042
 1274SOL    HW215456   2.815   4.543   3.714 -1.3232 -0.1503  0.0049
 1275SOL     OW15457   3.465   1.343   2.632 -0.3297 -0.7066 -0.3541
 1275SOL    HW115458   3.472   1.428   2.587 -1.8757  0.3939  1.5111
 1275SOL    HW215459   3.533   1.298   2.583 -0.0869 -1.1028  0.3533
 1276SOL     OW15460   3.035   2.238   0.558 -0.2331  0.2246 -0.0403
 1276SOL    HW115461   2.974   2.257   0.487 -1.7851  2.1711  1.8094
 1276SOL    HW215462   3.051   2.324   0.596 -2.2142  0.6845 -0.2264
 1277SOL     OW15463   4.215   3.262   5.336  0.1103 -0.3546  0.1617
 1277SOL    HW115464   4.121   3.275   5.324  0.0146 -2.9160 -1.8696
 1277SOL    HW215465   4.234   3.334   5.396 -1.4384 -1.0594  1.4798
 1278SOL     OW15466   0.558   4.143  13.201 -0.2820 -0.2998  0.1558
 1278SOL    HW115467   0.562   4.049  13.182  1.4715 -0.2824  0.4752
 1278SOL    HW215468   0.523   4.185  13.122 -0.7209  0.8376  0.9497
 1279SOL     OW15469   0.245   1.018  16.361 -0.1639 -0.8792  0.3676
 1279SOL    HW115470   0.278   1.106  16.379 -0.6502 -0.9500  1.5798
 1279SOL    HW215471   0.202   1.005  16.446 -2.3346 -0.1295 -0.6087
 1280SOL     OW15472   3.374   1.265   7.117 -0.1131 -0.3870  0.2932
 1280SOL    HW115473   3.334   1.315   7.188  2.3766 -0.9199  2.0737
 1280SOL    HW215474   3.340   1.179   7.140  1.2285 -1.3610 -1.3361
 1281SOL     OW15475   1.670   1.959   3.871  0.4276 -0.4870 -0.6528
 1281SOL    HW115476   1.645   1.876   3.913 -0.0010 -1.2590 -2.4232
 1281SOL    HW215477   1.668   2.019   3.945 -1.4142  1.8837 -2.6334
 1282SOL     OW15478   4.422   1.204   9.368  0.0002 -0.1926  0.0724
 1282SOL    HW115479   4.399   1.279   9.423  0.8445  0.2185 -0.1342
 1282SOL    HW215480   4.336   1.163   9.355  0.4138 -0.9263 -0.3320
 1283SOL     OW15481   4.034   2.547   0.381  0.7129 -0.1060 -0.2739
 1283SOL    HW115482   4.128   2.534   0.368  1.0207 -0.2669  2.1062
 1283SOL    HW215483   4.014   2.453   0.387  1.7489 -0.3947 -1.2557
 1284SOL     OW15484   3.789   3.254   8.827 -0.3202  0.2213  0.4392
 1284SOL    HW115485   3.848   3.297   8.765  0.9206 -3.0232 -0.5991
 1284SOL    HW215486   3.790   3.320   8.897  1.2932 -0.5928  1.1640
 1285SOL     OW15487   1.450   3.982   5.856 -0.3842  0.2914 -0.2677
 1285SOL    HW115488   1.503   3.909   5.823 -1.1435  0.6817 -2.3321
 1285SOL    HW215489   1.446   4.031   5.774 -3.5398  1.4141  0.5393
 1286SOL     OW15490   0.370   0.980   3.110 -0.3551  0.5639 -0.5426
 1286SOL    HW115491   0.408   1.051   3.059  0.9544 -0.8014 -1.4747
 1286SOL    HW215492   0.307   0.943   3.048  0.3298 -2.6708  0.6909
 1287SOL     OW15493   3.839   3.390  16.640  0.0197 -0.1184 -0.6352
 1287SOL    HW115494   3.809   3.300  16.629  1.5873 -0.7589  0.3870
 1287SOL    HW215495   3.836   3.386  16.735  0.8182 -2.8325 -0.7066
 1288SOL     OW15496   4.331   3.736   9.767  0.1685 -0.3205  0.0407
 1288SOL    HW115497   4.410   3.791   9.774  1.6665 -2.2344 -1.7728
 1288SOL    HW215498   4.357   3.655   9.812  0.2517  0.2551  1.0402
 1289SOL     OW15499   0.454   3.158   7.547  0.1684  0.4299  0.4020
 1289SOL    HW115500   0.546   3.134   7.560  1.1683  2.8842 -2.2046
 1289SOL    HW215501   0.466   3.236   7.602 -1.6117  0.2597  1.0453
 1290SOL     OW15502   3.105   3.395  15.123 -0.0750  0.2000 -0.0737
 1290SOL    HW115503   3.023   3.397  15.173  0.0877  0.2857  0.1925
 1290SOL    HW215504   3.094   3.423  15.033  1.7993  1.5157  0.1105
 1291SOL     OW15505   3.619   4.601   1.615 -0.4242  0.1412 -0.1120
 1291SOL    HW115506   3.684   4.597   1.685  0.2437 -1.3979 -0.8248
 1291SOL    HW215507   3.638   4.527   1.557  2.0593 -0.0855  0.9950
 1292SOL     OW15508   1.812   4.323   2.091 -0.3898  0.2033 -0.2060
 1292SOL    HW115509   1.872   4.322   2.016 -1.2012  1.2608 -0.8732
 1292SOL    HW215510   1.860   4.260   2.145  1.1024  0.7184 -0.9025
 1293SOL     OW15511   3.799   0.743  15.927 -0.1988 -0.5052  0.3984
 1293SOL    HW115512   3.806   0.728  16.021  0.8215 -1.7024  0.1314
 1293SOL    HW215513   3.746   0.823  15.924  3.2236  1.6161 -2.6879
 1294SOL     OW15514   3.561   2.383   8.015  0.0252 -0.3786  0.0453
 1294SOL    HW115515   3.630   2.426   8.064 -0.2917  2.1463 -1.7067
 1294SOL    HW215516   3.488   2.390   8.077  0.5540 -0.9855  0.7253
 1295SOL     OW15517   2.792   1.637   7.985 -0.0489  0.1531  0.4281
 1295SOL    HW115518   2.737   1.602   8.056  1.0557 -1.7103  0.3421
 1295SOL    HW215519   2.827   1.716   8.027 -2.0115  1.2668 -0.0318
 1296SOL     OW15520   1.413   1.161  10.589 -0.5238 -0.2811 -0.0680
 1296SOL    HW115521   1.410   1.242  10.538 -0.4561 -1.5385 -2.0695
 1296SOL    HW215522   1.342   1.180  10.650  0.7317  1.0296  0.9911
 1297SOL     OW15523   3.495   4.704  12.276  0.2592 -0.1956 -0.4616
 1297SOL    HW115524   3.585   4.735  12.287  0.2518 -0.4355  0.2466
 1297SOL    HW215525   3.502   4.616  12.313  0.4007  0.4026  0.9237
 1298SOL     OW15526   2.466   4.012   4.654  0.1583 -0.4429  0.4683
 1298SOL    HW115527   2.500   3.996   4.566 -1.0482  0.6943 -0.2094
 1298SOL    HW215528   2.407   3.937   4.666  2.3290 -2.0618  1.0690
 1299SOL     OW15529   1.503   0.480  15.289 -0.5475  0.1922 -0.4542
 1299SOL    HW115530   1.448   0.544  15.242  0.0309  0.3365 -0.9298
 1299SOL    HW215531   1.453   0.457  15.367 -1.8936  0.6201 -1.1761
 1300SOL     OW15532   2.038   2.272   4.711 -0.4949  0.7702  0.0736
 1300SOL    HW115533   2.075   2.283   4.624  1.0788  0.1668  0.6783
 1300SOL    HW215534   2.112   2.301   4.765  1.9574  1.4638 -3.7102
 1301SOL     OW15535   2.685   2.343   6.839  0.0369 -0.2870 -0.1948
 1301SOL    HW115536   2.624   2.334   6.912 -0.1505 -1.5819 -0.5152
 1301SOL    HW215537   2.762   2.305   6.880  0.4311  2.3823  1.5812
 1302SOL     OW15538   1.996   3.878  12.341 -0.1405  0.4263 -0.6271
 1302SOL    HW115539   2.091   3.865  12.349 -0.0949  1.3404  0.3368
 1302SOL    HW215540   1.984   3.951  12.280  0.6972  0.4774 -0.7305
 1303SOL     OW15541   0.276   3.483   4.947 -0.4553  0.2529  0.2460
 1303SOL    HW115542   0.351   3.448   4.995 -1.2604 -1.5170  0.2114
 1303SOL    HW215543   0.310   3.570   4.925  0.5088 -0.3822 -0.8328
 1304SOL     OW15544   3.764   0.055  14.661  0.0645  0.3424  0.0286
 1304SOL    HW115545   3.783   4.698  14.681 -2.6419 -0.3187 -0.5062
 1304SOL    HW215546   3.806   0.070  14.577  0.4617 -0.1785  0.1345
 1305SOL     OW15547   0.666   0.403  12.183 -0.0482 -0.3842 -0.1040
 1305SOL    HW115548   0.576   0.383  12.210 -1.0941  0.6829 -2.7870
 1305SOL    HW215549   0.720   0.349  12.242  0.5654 -0.2192 -0.5145
 1306SOL     OW15550   4.573   1.227  17.125 -0.1958 -0.4992 -0.0638
 1306SOL    HW115551   4.539   1.273  17.048 -2.3818 -2.8961 -0.5498
 1306SOL    HW215552   4.602   1.146  17.084 -0.1521 -1.1594  1.2613
 1307SOL     OW15553   3.807   2.466   6.910  0.0126 -0.4677 -0.0431
 1307SOL    HW115554   3.836   2.517   6.835  2.0907  0.7851  1.6088
 1307SOL    HW215555   3.865   2.509   6.973  0.8819 -0.9261 -0.5383
 1308SOL     OW15556   4.516   0.495   7.871 -0.0306  0.0683 -0.2252
 1308SOL    HW115557   4.533   0.566   7.810  0.7455  2.1577  2.4588
 1308SOL    HW215558   4.560   0.535   7.945  1.7355 -1.2298 -0.5765
 1309SOL     OW15559   1.011   2.083   4.670  0.3396  0.6559  0.2045
 1309SOL    HW115560   1.103   2.111   4.671  0.3719  0.4707  1.9156
 1309SOL    HW215561   0.968   2.165   4.695 -0.8565  0.7853 -2.3757
 1310SOL     OW15562   2.085   3.890   7.851 -0.6741  0.9697 -0.5206
 1310SOL    HW115563   1.999   3.932   7.850 -0.9550  0.4271  2.2351
 1310SOL    HW215564   2.061   3.797   7.859 -0.1685  1.0697  2.1431
 1311SOL     OW15565   0.746   1.312   9.735  0.2358  0.0890  0.0117
 1311SOL    HW115566   0.803   1.369   9.787 -1.3576  1.4292  0.3120
 1311SOL    HW215567   0.667   1.360   9.711  0.2326 -0.8591 -1.8326
 1312SOL     OW15568   0.387   4.518   7.477 -0.6137 -0.1511 -0.2083
 1312SOL    HW115569   0.398   4.423   7.482 -0.7807 -0.2565 -1.9415
 1312SOL    HW215570   0.428   4.539   7.562  2.1713 -0.4692 -1.4500
 1313SOL     OW15571   4.241   0.949  13.338  0.2047 -0.3435 -0.0535
 1313SOL    HW115572   4.267   1.024  13.285 -0.0929  0.3530  0.7830
 1313SOL    HW215573   4.257   0.979  13.428  0.2042  0.1572 -0.2217
 1314SOL     OW15574   2.643   3.597   4.502 -0.5554 -0.1395  0.0249
 1314SOL    HW115575   2.696   3.519   4.486 -1.3157 -0.5591 -0.4432
 1314SOL    HW215576   2.711   3.665   4.500 -1.0500  0.3427 -0.5610
 1315SOL     OW15577   4.266   2.267   5.942 -0.2238 -0.1955  0.1237
 1315SOL    HW115578   4.187   2.311   5.974 -0.9498 -1.4829  0.0726
 1315SOL    HW215579   4.277   2.301   5.854  2.6755  1.6000  1.1774
 1316SOL     OW15580   1.808   1.064   6.608  0.0960 -0.2054 -0.3744
 1316SOL    HW115581   1.868   1.124   6.564 -0.3365  1.0093  0.6595
 1316SOL    HW215582   1.720   1.088   6.578  0.2763 -1.2726 -1.7126
 1317SOL     OW15583   1.135   1.281   5.200 -0.2045 -0.2081 -0.2080
 1317SOL    HW115584   1.129   1.239   5.286  0.9683 -2.9910 -1.4717
 1317SOL    HW215585   1.175   1.210   5.150  0.6720  0.4483 -0.4467
 1318SOL     OW15586   3.417   2.493   7.790  0.4467  0.0654 -0.2272
 1318SOL    HW115587   3.430   2.578   7.748 -4.5281  0.2392 -1.4112
 1318SOL    HW215588   3.505   2.463   7.815  0.2906 -0.3274 -0.1517
 1319SOL     OW15589   0.431   3.139  13.341  0.5884 -0.2110 -0.2252
 1319SOL    HW115590   0.398   3.050  13.330 -1.0092  0.1637  1.4341
 1319SOL    HW215591   0.383   3.192  13.278  1.2450 -0.0097 -0.5622
 1320SOL     OW15592   3.777   3.020  13.980  0.0464  0.2377  0.1238
 1320SOL    HW115593   3.761   2.966  13.903 -0.9203  1.0975 -0.2878
 1320SOL    HW215594   3.763   3.108  13.943  0.5053  0.4770  0.5190
 1321SOL     OW15595   2.841   2.730   3.417  0.0740  0.5058  0.0682
 1321SOL    HW115596   2.766   2.672   3.405  0.6639  0.0700 -1.5448
 1321SOL    HW215597   2.861   2.731   3.323  0.1573  1.5733  0.0991
 1322SOL     OW15598   4.430   4.158   8.607  0.0052  0.3603  0.2089
 1322SOL    HW115599   4.480   4.181   8.685 -0.6110  1.1011  0.3782
 1322SOL    HW215600   4.493   4.173   8.536  1.7052 -1.8810  1.2561
 1323SOL     OW15601   4.621   0.980   6.675  0.3857 -0.2457 -0.4921
 1323SOL    HW115602   4.576   0.991   6.591  0.4581 -0.1407 -0.5171
 1323SOL    HW215603   4.698   1.032   6.653  1.6738 -1.0625  2.1479
 1324SOL     OW15604   3.798   0.722   5.649 -0.0147  0.0681 -0.2687
 1324SOL    HW115605   3.755   0.684   5.725  0.9345 -0.7181 -0.1283
 1324SOL    HW215606   3.858   0.654   5.618 -1.3024 -1.4746  0.6593
 1325SOL     OW15607   1.125   0.851   3.659  0.4380 -0.2005  0.0887
 1325SOL    HW115608   1.077   0.904   3.722 -0.8717 -1.0761 -0.1670
 1325SOL    HW215609   1.062   0.783   3.634 -2.1333  2.1575  0.1177
 1326SOL     OW15610   1.593   3.021   3.075  0.1643  0.4811 -0.4146
 1326SOL    HW115611   1.601   2.963   3.000  2.3330  0.6344 -0.3117
 1326SOL    HW215612   1.501   3.009   3.096  0.0911  0.6390 -0.6399
 1327SOL     OW15613   0.146   3.341   4.728 -0.1228  0.4220  0.2241
 1327SOL    HW115614   0.169   3.366   4.818 -0.9224  1.2754  0.1883
 1327SOL    HW215615   0.235   3.332   4.694 -0.1104  0.9942  0.1077
 1328SOL     OW15616   2.806   0.364   5.721 -0.0439 -0.2670 -0.8347
 1328SOL    HW115617   2.807   0.460   5.721  0.0945 -0.2754 -2.2526
 1328SOL    HW215618   2.794   0.347   5.628 -1.9424 -2.1679 -0.2600
 1329SOL     OW15619   1.360   3.023  13.261  0.5688 -0.2797 -0.6284
 1329SOL    HW115620   1.416   3.028  13.183  0.8103  0.7146 -0.3988
 1329SOL    HW215621   1.423   3.002  13.330 -0.8064 -2.1141  0.0550
 1330SOL     OW15622   2.820   4.126   9.106  0.6784 -0.5062 -0.3797
 1330SOL    HW115623   2.829   4.107   9.199  3.0374 -0.4122 -0.5785
 1330SOL    HW215624   2.787   4.216   9.109  0.8299 -0.3327 -3.1810
 1331SOL     OW15625   0.728   1.938   0.018  0.1597  0.0784  0.1943
 1331SOL    HW115626   0.812   1.902   0.046 -1.8338 -3.1698  2.0814
 1331SOL    HW215627   0.671   1.924   0.094  0.8172  2.2240  1.0740
 1332SOL     OW15628   1.012   3.041  10.559 -0.0049 -0.0105  0.2827
 1332SOL    HW115629   1.085   3.096  10.531  0.1379 -1.6971 -2.6715
 1332SOL    HW215630   1.010   2.975  10.489  1.3498 -0.3564  0.5633
 1333SOL     OW15631   1.916   1.777   8.934  0.2603 -0.4848  0.6188
 1333SOL    HW115632   2.000   1.821   8.924 -0.0741  0.3705  1.4687
 1333SOL    HW215633   1.887   1.817   9.017 -2.2698  0.1148 -0.5614
 1334SOL     OW15634   4.284   1.814   1.229 -0.3297 -0.5058  0.2206
 1334SOL    HW115635   4.232   1.889   1.199 -0.3007 -1.1765 -1.4658
 1334SOL    HW215636   4.355   1.821   1.165 -0.8299 -0.4847 -0.3366
 1335SOL     OW15637   4.348   1.354   4.646 -0.0321 -0.1601  0.2965
 1335SOL    HW115638   4.418   1.350   4.581 -0.7054 -0.4534 -0.4118
 1335SOL    HW215639   4.274   1.318   4.598  1.1877 -1.0058 -0.9340
 1336SOL     OW15640   2.052   0.015   9.084 -0.0707  0.1993  0.2492
 1336SOL    HW115641   2.025   4.715   8.999  1.9318 -2.0792  0.5583
 1336SOL    HW215642   2.044   0.110   9.075  1.5203  0.1350 -2.0190
 1337SOL     OW15643   1.668   1.506   6.723 -0.4423 -0.1498 -0.3813
 1337SOL    HW115644   1.601   1.574   6.725  1.3083  1.5761 -0.3158
 1337SOL    HW215645   1.665   1.470   6.634 -0.1997 -0.7691 -0.1402
 1338SOL     OW15646   0.568   1.029   7.262  0.6182  0.3593 -0.1875
 1338SOL    HW115647   0.549   1.010   7.354  0.7686  0.0821 -0.2127
 1338SOL    HW215648   0.577   0.940   7.226  0.0667 -0.3280  1.3731
 1339SOL     OW15649   2.189   3.452  15.904 -0.4064 -0.1413 -0.2583
 1339SOL    HW115650   2.109   3.503  15.899 -0.8392 -0.6760  1.2748
 1339SOL    HW215651   2.241   3.520  15.946 -1.2360 -0.6546  1.5593
 1340SOL     OW15652   2.133   0.926   7.047 -0.1792 -0.2121  0.1655
 1340SOL    HW115653   2.136   0.908   6.954 -0.1840 -1.2160  0.3614
 1340SOL    HW215654   2.215   0.882   7.073  0.6607  0.3344 -1.5809
 1341SOL     OW15655   2.787   3.225   1.946  0.2860  0.1057 -0.1287
 1341SOL    HW115656   2.840   3.259   2.017  0.0918  0.3349 -0.0914
 1341SOL    HW215657   2.823   3.136   1.940 -0.3834 -0.2222  0.7339
 1342SOL     OW15658   2.506   3.151   0.725  0.0198  0.8084  0.3591
 1342SOL    HW115659   2.507   3.131   0.631  3.0853 -0.4872  0.6719
 1342SOL    HW215660   2.595   3.124   0.749  0.0707 -0.2808 -1.0766
 1343SOL     OW15661   0.134   0.306   4.801  0.1971  0.1633  0.1726
 1343SOL    HW115662   0.184   0.225   4.810 -0.9141 -0.4880  0.4554
 1343SOL    HW215663   0.187   0.364   4.855 -1.3630  0.7512  1.0756
 1344SOL     OW15664   4.096   4.579  10.456 -0.1369 -0.2305  0.6934
 1344SOL    HW115665   4.119   4.654  10.401 -1.2573 -0.5142 -0.1552
 1344SOL    HW215666   4.184   4.542  10.463 -0.1703 -0.6011 -0.8480
 1345SOL     OW15667   1.574   4.584   8.276 -0.5304  0.0380  0.5402
 1345SOL    HW115668   1.545   4.626   8.195 -0.6977  0.4333  0.8042
 1345SOL    HW215669   1.654   4.543   8.243 -0.6869  0.7050 -0.6744
 1346SOL     OW15670   0.124   3.143   9.113  0.4259  0.1459  0.1999
 1346SOL    HW115671   0.126   3.218   9.173  0.9378  0.2610  0.0387
 1346SOL    HW215672   0.198   3.091   9.145  0.6792 -0.8723 -2.1120
 1347SOL     OW15673   0.574   1.689   1.699  0.4072  0.4226  0.0944
 1347SOL    HW115674   0.528   1.608   1.722  3.3990 -0.7902  1.7665
 1347SOL    HW215675   0.665   1.666   1.716  0.3651 -1.8206 -2.6679
 1348SOL     OW15676   4.537   0.615   5.886  0.0383 -0.1406  0.0782
 1348SOL    HW115677   4.486   0.584   5.960 -0.3809  0.9037  0.2139
 1348SOL    HW215678   4.625   0.604   5.921  0.5058  1.4868 -0.5854
 1349SOL     OW15679   2.730   2.293  16.550 -0.4264  0.2843  0.0326
 1349SOL    HW115680   2.733   2.389  16.548 -2.0202  0.2891 -1.4860
 1349SOL    HW215681   2.679   2.274  16.472  1.5337 -3.2077 -0.3737
 1350SOL     OW15682   2.065   4.306   7.132 -0.3858 -0.4507 -0.6696
 1350SOL    HW115683   2.101   4.243   7.195 -0.4297 -0.3369 -0.5285
 1350SOL    HW215684   1.977   4.285   7.164 -0.9882  1.3742 -1.1535
 1351SOL     OW15685   3.208   3.396   6.038 -0.0982  0.6424  0.4710
 1351SOL    HW115686   3.174   3.374   5.951  0.1731 -1.6054  0.9240
 1351SOL    HW215687   3.265   3.469   6.017  0.7136 -0.0088  0.4022
 1352SOL     OW15688   0.460   2.943   4.003 -0.3512  0.0430  0.0832
 1352SOL    HW115689   0.366   2.959   4.009 -0.2922 -0.8237  3.2221
 1352SOL    HW215690   0.479   2.948   4.096  2.9082 -2.1644 -0.4837
 1353SOL     OW15691   3.661   2.161   4.991  0.6660  0.3063  0.0248
 1353SOL    HW115692   3.740   2.146   4.939  1.4387 -0.2405  1.3757
 1353SOL    HW215693   3.639   2.073   5.020 -0.1921 -0.1752 -2.0581
 1354SOL     OW15694   1.044   0.303   1.053  0.3555  0.1212  0.2439
 1354SOL    HW115695   1.081   0.384   1.017  0.9364  0.2650  1.1672
 1354SOL    HW215696   1.110   0.259   1.106  0.8972  0.3504 -0.2386
 1355SOL     OW15697   2.587   0.669   1.102 -0.0963 -0.8576 -0.3968
 1355SOL    HW115698   2.655   0.736   1.103 -1.2356  0.2895  1.3881
 1355SOL    HW215699   2.554   0.690   1.190 -0.8831  1.1577 -1.1649
 1356SOL     OW15700   1.693   2.685  14.104 -0.3944 -0.3193 -0.0830
 1356SOL    HW115701   1.680   2.755  14.040 -0.6453 -2.7219 -2.6312
 1356SOL    HW215702   1.691   2.605  14.053  0.3213 -0.6798  0.4573
 1357SOL     OW15703   1.145   3.879   9.484  0.4621  0.1245 -0.1615
 1357SOL    HW115704   1.213   3.854   9.422 -0.0366 -1.0539 -0.2311
 1357SOL    HW215705   1.082   3.909   9.419  0.6257 -2.4865 -1.5405
 1358SOL     OW15706   3.407   1.215   1.455  0.3740  0.2286 -0.4124
 1358SOL    HW115707   3.338   1.247   1.513  1.0189 -0.2728  0.6380
 1358SOL    HW215708   3.458   1.295   1.444  0.4125  0.3639  0.7891
 1359SOL     OW15709   0.485   2.944  17.609  0.1664 -0.2350  0.1796
 1359SOL    HW115710   0.469   2.946  17.704 -1.6873  0.2996 -0.1422
 1359SOL    HW215711   0.426   3.017  17.594  0.1245 -0.1448  0.7635
 1360SOL     OW15712   3.980   1.511  12.062 -0.2025  0.1117  0.1184
 1360SOL    HW115713   3.941   1.586  12.107 -0.7682 -0.5432  0.7387
 1360SOL    HW215714   3.902   1.466  12.029 -1.2517  2.8404 -1.1368
 1361SOL     OW15715   1.072   1.036   8.416 -0.4257  0.0345  0.1301
 1361SOL    HW115716   1.026   1.106   8.463 -1.2246 -0.3732 -0.0543
 1361SOL    HW215717   1.162   1.060   8.441  0.5938 -0.0502 -3.4024
 1362SOL     OW15718   1.779   2.535   5.339 -0.2443 -0.1371  0.1825
 1362SOL    HW115719   1.837   2.469   5.377 -1.2906 -1.8524 -1.2330
 1362SOL    HW215720   1.764   2.509   5.249 -0.8094 -0.6454  0.4203
 1363SOL     OW15721   1.144   3.783   7.937 -0.1232 -0.1721  0.2735
 1363SOL    HW115722   1.097   3.818   8.012 -0.2755  0.5856 -0.1832
 1363SOL    HW215723   1.230   3.765   7.975  0.1295  1.4592  0.4724
 1364SOL     OW15724   2.840   2.677   2.482  0.0659 -0.0927 -0.1766
 1364SOL    HW115725   2.799   2.763   2.495  0.7956  0.4474 -1.5031
 1364SOL    HW215726   2.914   2.702   2.537  0.8301 -0.9949 -0.8025
 1365SOL     OW15727   1.940   2.806   1.957  0.3784  0.2738 -0.2004
 1365SOL    HW115728   1.923   2.811   2.051 -0.6052  1.9164 -0.4637
 1365SOL    HW215729   1.962   2.899   1.955  1.9385 -0.0766  0.6580
 1366SOL     OW15730   4.028   0.915  10.928 -0.1058 -0.0687  0.2295
 1366SOL    HW115731   4.002   0.950  11.013 -0.7678 -0.7410  0.2980
 1366SOL    HW215732   3.985   0.980  10.872  2.4788 -0.1127 -1.7928
 1367SOL     OW15733   0.270   1.606  16.409 -0.0233 -0.2080  0.0202
 1367SOL    HW115734   0.253   1.685  16.461  4.8730  0.9132 -0.0406
 1367SOL    HW215735   0.227   1.532  16.453  1.1445 -1.1880 -0.4851
 1368SOL     OW15736   1.750   4.306   1.639  0.0646  0.4372  0.0355
 1368SOL    HW115737   1.694   4.229   1.644  1.1949 -0.4371 -0.9017
 1368SOL    HW215738   1.692   4.349   1.577 -0.4777 -1.0170 -0.4649
 1369SOL     OW15739   0.814   0.894   6.457  0.6102 -1.1020 -0.1416
 1369SOL    HW115740   0.735   0.855   6.421  0.5345 -1.9744  0.9617
 1369SOL    HW215741   0.823   0.872   6.550  2.5758 -1.5231 -0.4427
 1370SOL     OW15742   2.853   3.835   1.133 -0.6777 -0.2897  0.1548
 1370SOL    HW115743   2.845   3.808   1.042 -0.2475  0.3987 -0.0821
 1370SOL    HW215744   2.819   3.757   1.177 -0.5899  0.1992  1.0968
 1371SOL     OW15745   0.907   3.968   3.069 -0.1991  0.4608 -0.5566
 1371SOL    HW115746   0.904   3.947   3.162 -0.5319  0.0745 -0.6569
 1371SOL    HW215747   0.819   4.004   3.061 -0.8955 -1.3410 -0.7772
 1372SOL     OW15748   0.677   3.177   5.627 -0.6135 -0.8718  0.0446
 1372SOL    HW115749   0.648   3.128   5.704  1.0260 -0.9406  0.6126
 1372SOL    HW215750   0.772   3.171   5.636 -0.4696  0.4756 -0.5069
 1373SOL     OW15751   2.248   1.850  11.918  0.0357 -0.2875 -0.0891
 1373SOL    HW115752   2.204   1.886  11.995  0.2354  0.8501 -0.4953
 1373SOL    HW215753   2.229   1.757  11.931  0.2966 -0.3911 -0.4383
 1374SOL     OW15754   0.058   1.730   4.241  0.3666 -0.1699  0.4267
 1374SOL    HW115755   4.728   1.788   4.281  0.8275 -1.6794  3.3129
 1374SOL    HW215756   0.012   1.707   4.160  0.5988 -1.1325  0.5746
 1375SOL     OW15757   1.569   2.378  11.159 -0.3809  0.2295 -0.1277
 1375SOL    HW115758   1.512   2.438  11.208  1.3998  1.6823  0.1609
 1375SOL    HW215759   1.645   2.371  11.216  0.2585 -2.3876 -1.3276
 1376SOL     OW15760   2.246   2.511   8.421  0.0245  0.2900 -0.0185
 1376SOL    HW115761   2.208   2.425   8.400 -0.5966  1.0077 -1.8587
 1376SOL    HW215762   2.164   2.555   8.444  0.8494  1.6388  0.2874
 1377SOL     OW15763   4.656   3.435  17.051 -0.2006 -0.4793 -0.0734
 1377SOL    HW115764   4.563   3.423  17.072  0.0430  0.1545  1.3812
 1377SOL    HW215765   4.671   3.495  17.124  0.8328 -1.4132  0.4662
 1378SOL     OW15766   1.710   0.774   9.877 -0.2998  0.0678 -0.1851
 1378SOL    HW115767   1.672   0.720   9.947  0.6749  0.2377  0.4780
 1378SOL    HW215768   1.771   0.715   9.833 -0.7769  0.9563 -2.0279
 1379SOL     OW15769   0.999   3.069  12.029  1.0369  0.0688 -0.3532
 1379SOL    HW115770   0.951   3.007  11.974 -0.7201 -0.5502  1.9000
 1379SOL    HW215771   0.969   3.048  12.117 -1.9924 -0.4899 -1.5304
 1380SOL     OW15772   3.787   1.800  12.844  0.1828 -0.4113 -0.4921
 1380SOL    HW115773   3.809   1.729  12.784 -2.5027 -2.7105  1.2708
 1380SOL    HW215774   3.707   1.769  12.886 -0.4472  0.2033 -1.2238
 1381SOL     OW15775   3.680   2.175   7.821 -0.5893 -0.0122 -0.3364
 1381SOL    HW115776   3.607   2.196   7.763  0.2802 -0.0225 -1.4199
 1381SOL    HW215777   3.678   2.222   7.905 -1.2290  0.2593 -0.5059
 1382SOL     OW15778   4.383   3.375   8.226  0.7257 -0.5142 -0.2228
 1382SOL    HW115779   4.452   3.406   8.168  1.2039  1.9982  1.7045
 1382SOL    HW215780   4.308   3.367   8.168 -0.2702  1.9363  0.7449
 1383SOL     OW15781   3.861   2.309  10.255 -0.0907 -0.4923 -0.1730
 1383SOL    HW115782   3.780   2.258  10.248 -0.9991  1.1195 -1.3646
 1383SOL    HW215783   3.825   2.387  10.299  1.1908  0.4670 -0.8449
 1384SOL     OW15784   3.854   1.531   4.690 -0.3201  0.5006 -0.0912
 1384SOL    HW115785   3.831   1.479   4.767  1.6211 -0.5907 -0.2555
 1384SOL    HW215786   3.792   1.480   4.637  0.3039 -1.6655  1.2629
 1385SOL     OW15787   2.933   0.127   7.986 -0.1252  0.1899  0.1718
 1385SOL    HW115788   2.909   0.119   8.078  0.9898 -2.2103  0.2525
 1385SOL    HW215789   3.028   0.121   7.995 -0.1755 -0.2450  0.4350
 1386SOL     OW15790   0.213   0.370   5.322  0.1142 -0.3753  0.1498
 1386SOL    HW115791   0.307   0.360   5.309 -0.2932 -3.1078 -0.8092
 1386SOL    HW215792   0.179   0.349   5.235  1.3974  2.0505 -0.9380
 1387SOL     OW15793   2.998   0.852   8.919 -0.1752  0.3508  0.0249
 1387SOL    HW115794   2.925   0.905   8.887 -1.4148 -1.5484 -0.2806
 1387SOL    HW215795   3.032   0.905   8.991 -3.0077  1.1384  0.7592
 1388SOL     OW15796   3.895   2.118   4.870  0.4578 -0.6113 -0.3225
 1388SOL    HW115797   3.948   2.041   4.850 -0.3067 -1.0553 -0.6409
 1388SOL    HW215798   3.960   2.183   4.897  0.0690 -0.0481 -0.7240
 1389SOL     OW15799   4.108   2.304   8.710  0.0399  0.0679 -0.1586
 1389SOL    HW115800   4.064   2.275   8.630 -2.6087 -0.0386  1.3601
 1389SOL    HW215801   4.199   2.318   8.683 -0.8297  1.9922 -2.0552
 1390SOL     OW15802   3.997   1.964   8.231 -0.2336  0.0578  0.4415
 1390SOL    HW115803   4.072   1.978   8.173 -0.0960 -0.3366  0.5296
 1390SOL    HW215804   3.943   2.028   8.184 -2.1380 -1.2828  0.7824
 1391SOL     OW15805   1.305   3.133   5.652 -0.8182 -0.1892 -0.5016
 1391SOL    HW115806   1.374   3.067   5.661 -0.0372  0.5964 -0.7221
 1391SOL    HW215807   1.271   3.125   5.563  0.8830 -2.1403 -1.0040
 1392SOL     OW15808   4.520   2.244  10.877  0.0852  0.2707  0.3612
 1392SOL    HW115809   4.439   2.296  10.877 -0.2014 -0.2168 -3.0487
 1392SOL    HW215810   4.474   2.163  10.858 -0.2795  0.4154  0.6257
 1393SOL     OW15811   1.213   4.035   9.097 -0.1143 -0.3678 -0.6211
 1393SOL    HW115812   1.214   4.041   9.001  1.2237  3.4489 -0.3485
 1393SOL    HW215813   1.283   3.971   9.111  0.0719  0.2068  1.0081
 1394SOL     OW15814   1.680   1.397   6.453 -0.6632  0.4074  0.2689
 1394SOL    HW115815   1.772   1.383   6.476 -0.0403  3.1235 -0.4680
 1394SOL    HW215816   1.667   1.337   6.380  0.3342 -1.0338  1.2893
 1395SOL     OW15817   0.551   1.136  15.961 -0.5456 -0.5726  0.4210
 1395SOL    HW115818   0.465   1.106  15.988 -1.0440 -1.2154 -1.8736
 1395SOL    HW215819   0.588   1.058  15.919  1.1200  0.2021  0.4155
 1396SOL     OW15820   2.711   1.768  10.411  0.4730 -0.0807 -0.1529
 1396SOL    HW115821   2.742   1.859  10.410  2.4743 -0.7248  1.9698
 1396SOL    HW215822   2.623   1.782  10.447  0.0179 -0.3437 -1.1636
 1397SOL     OW15823   1.090   1.265  10.483 -0.7040  0.0267 -0.1735
 1397SOL    HW115824   1.048   1.285  10.399 -0.8811  0.2679 -0.0301
 1397SOL    HW215825   1.139   1.343  10.509 -0.7145 -0.0648  0.1242
 1398SOL     OW15826   2.394   4.698   3.645  0.2031 -0.3055  0.0738
 1398SOL    HW115827   2.441   0.034   3.688 -2.8550  1.6895  0.1234
 1398SOL    HW215828   2.315   0.012   3.621  0.8633  0.3470 -0.7771
 1399SOL     OW15829   0.555   3.921  16.077  0.1115  0.4283 -0.2127
 1399SOL    HW115830   0.535   3.854  16.011  2.1995  0.9419 -1.3554
 1399SOL    HW215831   0.535   3.885  16.163 -0.9082 -1.7332 -1.3450
 1400SOL     OW15832   0.422   3.614   4.497 -0.2966  0.1947  0.0162
 1400SOL    HW115833   0.508   3.650   4.474  0.1281 -1.1847 -0.5680
 1400SOL    HW215834   0.439   3.585   4.586 -1.3663 -1.3885 -0.3056
 1401SOL     OW15835   4.582   1.308  13.831 -0.9385  0.3463  0.2758
 1401SOL    HW115836   4.598   1.341  13.920 -1.2068 -4.3247  2.0700
 1401SOL    HW215837   4.666   1.320  13.788 -0.5588  1.1203  1.2240
 1402SOL     OW15838   2.465   3.479   0.588 -0.4690  0.1113  0.2122
 1402SOL    HW115839   2.411   3.544   0.544 -1.5729 -2.1021 -1.7266
 1402SOL    HW215840   2.468   3.417   0.514 -2.0933  1.3677 -0.8851
 1403SOL     OW15841   2.312   4.225   1.530 -0.0936 -0.5767 -0.4389
 1403SOL    HW115842   2.325   4.133   1.509  1.6592 -0.6942  1.1400
 1403SOL    HW215843   2.270   4.219   1.616  3.4523 -0.5536  1.2960
 1404SOL     OW15844   3.998   0.419  10.050 -0.4370 -0.4699 -0.2228
 1404SOL    HW115845   4.082   0.426  10.004  0.2766  0.9866  1.2887
 1404SOL    HW215846   3.962   0.345  10.002 -2.7781  0.2211  0.4361
 1405SOL     OW15847   2.226   2.255   4.526 -0.3158  0.2758 -0.3479
 1405SOL    HW115848   2.224   2.329   4.465  0.6936  1.1134  0.6413
 1405SOL    HW215849   2.261   2.182   4.474  0.8734  1.0142 -0.5989
 1406SOL     OW15850   3.100   0.630   2.790 -0.2538 -0.5044  0.4754
 1406SOL    HW115851   3.175   0.570   2.789 -0.4234 -0.7152  0.6642
 1406SOL    HW215852   3.149   0.712   2.788 -0.8597 -0.1340  0.9927
 1407SOL     OW15853   3.464   3.767   6.300  0.1345 -0.0591 -0.1854
 1407SOL    HW115854   3.507   3.683   6.318 -0.4959 -0.4120 -0.3384
 1407SOL    HW215855   3.400   3.778   6.371  1.1318 -1.2909  0.9195
 1408SOL     OW15856   4.299   0.070   5.167 -0.7728 -0.3167  0.6908
 1408SOL    HW115857   4.352   0.065   5.087 -0.9330 -0.0184  0.5676
 1408SOL    HW215858   4.324   4.721   5.207 -0.0962  0.3834  1.7298
 1409SOL     OW15859   2.049   2.658   8.101  0.4071 -0.2354 -0.3930
 1409SOL    HW115860   1.982   2.590   8.107  1.5171 -1.4341 -1.6338
 1409SOL    HW215861   1.994   2.735   8.089 -1.1177 -1.1613  0.6375
 1410SOL     OW15862   4.475   4.548  10.347 -0.9497  0.0130  0.1602
 1410SOL    HW115863   4.516   4.498  10.277 -1.0076  1.5377 -0.9728
 1410SOL    HW215864   4.443   4.476  10.402 -0.7899 -0.9940 -1.0711
 1411SOL     OW15865   1.405   2.521   9.460  0.3821 -0.1995 -0.4514
 1411SOL    HW115866   1.396   2.501   9.553 -0.0172 -0.3411 -0.5197
 1411SOL    HW215867   1.414   2.616   9.466  0.9128 -0.3060  0.4349
 1412SOL     OW15868   4.466   1.071  15.270  0.4623  0.2084 -0.5811
 1412SOL    HW115869   4.540   1.117  15.309  1.1268  0.3335 -1.9989
 1412SOL    HW215870   4.504   0.983  15.263 -0.9225 -0.3162 -1.4686
 1413SOL     OW15871   0.524   0.660   7.713  0.1012  0.6648 -0.5309
 1413SOL    HW115872   0.578   0.591   7.674 -0.1443  0.1967 -0.0393
 1413SOL    HW215873   0.593   0.723   7.734  0.0309 -0.0115  1.7674
 1414SOL     OW15874   3.819   4.505   7.802  0.4680  0.1599 -0.3995
 1414SOL    HW115875   3.760   4.495   7.877 -1.1484  2.8342 -1.3289
 1414SOL    HW215876   3.902   4.502   7.850  0.4235  0.0324 -0.3288
 1415SOL     OW15877   4.164   0.495   5.644  0.1608 -0.3847  0.0295
 1415SOL    HW115878   4.137   0.586   5.634  2.2244  0.4019  1.6092
 1415SOL    HW215879   4.258   0.503   5.628 -0.3027  0.8056 -2.1453
 1416SOL     OW15880   0.306   2.540   7.819 -0.0640  0.2324  0.0506
 1416SOL    HW115881   0.390   2.585   7.822  0.7216 -1.1579 -1.4541
 1416SOL    HW215882   0.274   2.549   7.730 -1.1919  1.6038  0.5861
 1417SOL     OW15883   3.490   3.761   3.179  0.0773 -0.5688 -0.3735
 1417SOL    HW115884   3.548   3.830   3.213  0.5603 -1.4162  0.5136
 1417SOL    HW215885   3.471   3.796   3.092  0.3476  2.2422  0.6709
 1418SOL     OW15886   0.098   2.156   3.146 -0.6044 -0.2788  0.1566
 1418SOL    HW115887   0.069   2.068   3.120 -0.9220 -0.0746 -0.1877
 1418SOL    HW215888   0.012   2.194   3.163  0.6321  2.4354  0.3738
 1419SOL     OW15889   0.330   1.257   7.874  1.0000 -0.0656  0.3872
 1419SOL    HW115890   0.378   1.177   7.853  0.8616 -0.4431  1.4987
 1419SOL    HW215891   0.369   1.280   7.958 -2.2242 -0.3632  1.9552
 1420SOL     OW15892   3.827   3.973   9.372 -0.6750 -0.1396 -0.0240
 1420SOL    HW115893   3.827   4.043   9.437  1.1969  0.4285 -0.6346
 1420SOL    HW215894   3.875   3.901   9.413 -1.0550 -0.3005  0.1419
 1421SOL     OW15895   1.481   0.438   5.012 -0.1823 -0.4223 -0.1145
 1421SOL    HW115896   1.460   0.529   5.037  0.6730 -0.6717  1.5675
 1421SOL    HW215897   1.391   0.406   5.010 -1.2006  2.1306  2.6323
 1422SOL     OW15898   1.298   0.528  13.943  0.1511 -0.2062 -0.2884
 1422SOL    HW115899   1.271   0.474  14.017 -0.8219  1.1776  0.3771
 1422SOL    HW215900   1.387   0.501  13.918 -0.5121 -1.0689 -1.6962
 1423SOL     OW15901   4.135   0.462   1.634 -0.7780 -0.0692  0.3843
 1423SOL    HW115902   4.153   0.514   1.712 -0.3374 -0.8044  0.7769
 1423SOL    HW215903   4.039   0.457   1.638 -0.8623  0.5760 -0.6237
 1424SOL     OW15904   4.213   0.585   2.186 -0.3366  0.5979  0.3242
 1424SOL    HW115905   4.240   0.493   2.190 -0.7002  0.4742 -0.0562
 1424SOL    HW215906   4.123   0.569   2.213 -1.1174  3.4301 -0.6549
 1425SOL     OW15907   0.673   0.477   6.808  0.1445  0.5366 -0.3102
 1425SOL    HW115908   0.738   0.410   6.827 -1.7449 -1.6815 -1.7257
 1425SOL    HW215909   0.664   0.495   6.901 -1.9107 -0.3070 -0.3515
 1426SOL     OW15910   0.941   3.558   8.056 -0.6098  0.1315  0.4538
 1426SOL    HW115911   0.927   3.630   7.994  2.3701 -0.4024 -0.8439
 1426SOL    HW215912   0.858   3.511   8.056  0.1203 -1.1077 -4.1141
 1427SOL     OW15913   4.201   1.484  11.073  0.5114 -1.4031 -0.1909
 1427SOL    HW115914   4.208   1.566  11.025 -0.2888 -1.0314  0.3350
 1427SOL    HW215915   4.292   1.465  11.098  0.8352  0.9230  0.3416
 1428SOL     OW15916   4.557   2.814   6.400  0.0526 -0.0623 -0.5488
 1428SOL    HW115917   4.578   2.722   6.383 -3.2390 -1.3022  2.1359
 1428SOL    HW215918   4.622   2.833   6.467 -0.9843 -2.0939  1.0608
 1429SOL     OW15919   1.141   3.407   4.882  0.0762 -0.1486 -0.1819
 1429SOL    HW115920   1.205   3.380   4.949 -0.4767 -0.6247  0.1598
 1429SOL    HW215921   1.157   3.500   4.895  0.5801  0.0053 -1.9691
 1430SOL     OW15922   1.385   1.917   3.336  0.1772 -0.6209 -0.0924
 1430SOL    HW115923   1.358   1.966   3.413 -0.9485 -0.7740 -0.3938
 1430SOL    HW215924   1.456   1.868   3.377  2.4855  2.7240 -0.0720
 1431SOL     OW15925   1.818   1.675   8.433  0.2950 -0.0137  0.5624
 1431SOL    HW115926   1.821   1.667   8.338 -1.1095  0.4111  0.4774
 1431SOL    HW215927   1.734   1.714   8.460  0.6705  0.5379  0.9447
 1432SOL     OW15928   2.983   2.508   5.846  0.2134  0.4502  0.3358
 1432SOL    HW115929   3.010   2.543   5.761  0.3164 -1.0753 -0.2543
 1432SOL    HW215930   3.013   2.418   5.848 -0.5913  0.1838  0.5145
 1433SOL     OW15931   2.544   0.727   2.136  0.3227 -0.1884 -0.0838
 1433SOL    HW115932   2.609   0.674   2.182 -0.8428  0.4428  2.3101
 1433SOL    HW215933   2.463   0.679   2.151 -1.0183  1.1581 -2.9347
 1434SOL     OW15934   3.675   1.081   0.109  0.1341 -0.4145 -0.5869
 1434SOL    HW115935   3.637   1.014   0.167 -0.0527 -1.8366 -2.3608
 1434SOL    HW215936   3.710   1.134   0.180 -1.2626  1.0472 -0.9864
 1435SOL     OW15937   1.538   3.235   4.218 -0.2850  0.1942 -0.3088
 1435SOL    HW115938   1.452   3.271   4.195 -0.4781  0.6830  1.1595
 1435SOL    HW215939   1.580   3.319   4.234 -0.5163  0.0750  0.8883
 1436SOL     OW15940   0.694   3.551   9.187 -0.1741 -0.1936 -0.0442
 1436SOL    HW115941   0.607   3.540   9.149 -0.6837 -0.6972  1.2673
 1436SOL    HW215942   0.759   3.515   9.127  0.2628 -2.8983  2.0536
 1437SOL     OW15943   1.705   4.189  17.002  0.0381 -0.1002  0.4884
 1437SOL    HW115944   1.791   4.204  17.041  0.1994 -1.6244  0.7203
 1437SOL    HW215945   1.674   4.280  16.996  0.7882  0.0503 -1.0931
 1438SOL     OW15946   3.944   3.884   0.411 -0.3531  0.2746  0.0124
 1438SOL    HW115947   4.039   3.868   0.410 -0.4434 -0.1211 -1.8971
 1438SOL    HW215948   3.910   3.795   0.399  2.4605 -0.8910  0.6418
 1439SOL     OW15949   3.213   2.817   3.977 -0.0936 -0.0083 -0.1689
 1439SOL    HW115950   3.207   2.912   3.984 -1.6543 -0.1552  0.4547
 1439SOL    HW215951   3.305   2.798   3.958 -0.7517 -1.0878 -2.2738
 1440SOL     OW15952   2.011   4.411   7.491 -0.1534  0.2184 -0.2853
 1440SOL    HW115953   2.038   4.470   7.562 -0.5478  2.2334 -1.8287
 1440SOL    HW215954   2.060   4.332   7.515 -0.6579  0.1086  0.3864
 1441SOL     OW15955   0.461   2.687   6.163  0.5865  0.1740 -0.0066
 1441SOL    HW115956   0.490   2.738   6.088  2.1146  1.9342  1.7679
 1441SOL    HW215957   0.376   2.727   6.178 -1.1997 -3.0462 -1.6850
 1442SOL     OW15958   2.508   0.917   4.596 -0.2132 -0.3192  0.3855
 1442SOL    HW115959   2.532   0.984   4.533 -1.8869  1.7488  1.9243
 1442SOL    HW215960   2.465   0.856   4.536  0.4350 -0.9412  0.5509
 1443SOL     OW15961   0.896   1.660  15.999 -0.3480 -0.6934 -0.2697
 1443SOL    HW115962   0.970   1.671  16.059  0.6839 -0.0486 -1.6766
 1443SOL    HW215963   0.841   1.593  16.041 -3.4962  0.9564 -1.8018
 1444SOL     OW15964   1.321   1.619   9.235  0.4170  0.0974 -0.2400
 1444SOL    HW115965   1.262   1.571   9.178 -1.5235  1.1816  0.8504
 1444SOL    HW215966   1.370   1.551   9.280  1.8908  1.5419  0.3562
 1445SOL     OW15967   3.864   4.531  11.627  0.0931  0.0883 -0.2624
 1445SOL    HW115968   3.779   4.495  11.600  0.3573 -1.2159  0.6575
 1445SOL    HW215969   3.832   4.577  11.704 -1.5403  1.4371 -1.7454
 1446SOL     OW15970   4.432   2.330  13.117 -0.7703  0.2698  0.1156
 1446SOL    HW115971   4.521   2.359  13.136  0.1692 -3.3614  1.2326
 1446SOL    HW215972   4.417   2.359  13.027  0.1287  0.2807 -0.0330
 1447SOL     OW15973   3.876   4.152   5.773  0.0293  0.6496  0.0548
 1447SOL    HW115974   3.940   4.224   5.768  1.4855 -0.6131  0.5128
 1447SOL    HW215975   3.894   4.112   5.689 -1.0430  0.4624 -0.0834
 1448SOL     OW15976   1.488   0.924   4.247 -0.0266  0.1667 -0.8411
 1448SOL    HW115977   1.466   1.012   4.276 -0.8520 -0.1374 -0.5361
 1448SOL    HW215978   1.495   0.936   4.153 -2.1769 -0.9689 -1.1594
 1449SOL     OW15979   2.921   0.357  13.660 -0.4847 -0.1651 -0.1365
 1449SOL    HW115980   2.949   0.279  13.612  1.4714 -0.5564  1.6273
 1449SOL    HW215981   2.916   0.422  13.590  1.5871 -0.0471 -0.1666
 1450SOL     OW15982   2.933   4.515   1.678  0.1695  0.3800 -0.1071
 1450SOL    HW115983   2.931   4.554   1.766  0.0966  0.9273 -0.3487
 1450SOL    HW215984   2.908   4.594   1.630 -1.5101  0.8066  1.4402
 1451SOL     OW15985   1.046   2.102   7.981 -0.0415  0.2631  0.3223
 1451SOL    HW115986   1.055   2.154   8.061 -1.0267 -0.4093  0.8760
 1451SOL    HW215987   0.962   2.056   7.982  0.6399 -0.9649  1.7449
 1452SOL     OW15988   2.104   2.578   5.234 -0.0209  0.4276  0.9315
 1452SOL    HW115989   2.042   2.505   5.229 -0.6176  0.8450  2.2393
 1452SOL    HW215990   2.147   2.551   5.315  1.0389  0.5624  0.4203
 1453SOL     OW15991   0.692   2.296   3.919 -0.3440 -0.0692 -1.2108
 1453SOL    HW115992   0.685   2.383   3.879 -1.4178  1.3478  2.0626
 1453SOL    HW215993   0.729   2.321   4.004  1.8915  0.6932 -2.3958
 1454SOL     OW15994   0.823   1.599   1.705  0.2298  0.5103 -0.4564
 1454SOL    HW115995   0.835   1.556   1.790  1.1166 -0.4672 -1.0751
 1454SOL    HW215996   0.903   1.651   1.710  0.8529 -0.2578 -2.5834
 1455SOL     OW15997   4.721   1.565  10.997  0.5865  0.0054 -0.0863
 1455SOL    HW115998   0.016   1.620  11.069  3.2946 -0.7307 -0.6483
 1455SOL    HW215999   0.012   1.480  11.032  1.2058  0.8717  1.5622
 1456SOL     OW16000   2.606   4.217  16.653  0.1789  0.0122  0.1814
 1456SOL    HW116001   2.610   4.291  16.593 -3.2010  0.8451  0.9674
 1456SOL    HW216002   2.636   4.261  16.733 -3.0286  0.1096  1.3223
 1457SOL     OW16003   2.873   3.192  13.337  0.6212 -0.2717 -0.3124
 1457SOL    HW116004   2.833   3.145  13.264  1.2575  0.5521 -1.1947
 1457SOL    HW216005   2.859   3.283  13.311 -1.2155  0.0728  1.9044
 1458SOL     OW16006   1.472   0.048   6.971  0.4693 -0.6047  0.3418
 1458SOL    HW116007   1.525   0.107   6.918 -0.8182  0.1611 -0.0802
 1458SOL    HW216008   1.387   0.080   6.941  0.2955 -0.5465  0.8932
 1459SOL     OW16009   3.060   1.425   7.738  0.8057  0.5522  0.2085
 1459SOL    HW116010   3.028   1.348   7.786  0.4685 -0.4295 -1.5944
 1459SOL    HW216011   2.979   1.469   7.711  0.5854 -0.9744 -1.5678
 1460SOL     OW16012   4.288   1.095   0.603 -1.0338 -0.3716  0.4713
 1460SOL    HW116013   4.255   1.174   0.562 -0.5342 -0.4826 -0.1418
 1460SOL    HW216014   4.216   1.075   0.664 -0.8642 -2.8314 -0.1349
 1461SOL     OW16015   1.447   1.336   5.056 -0.3390 -0.6219  0.0851
 1461SOL    HW116016   1.418   1.409   5.112 -0.9722 -1.5072  0.9143
 1461SOL    HW216017   1.468   1.371   4.970 -2.9756  0.7601 -0.0213
 1462SOL     OW16018   3.257   2.371   7.285 -0.1369  0.1965  0.8927
 1462SOL    HW116019   3.218   2.402   7.203  2.3518  0.5821 -0.1600
 1462SOL    HW216020   3.328   2.433   7.303 -0.4856  0.8627  0.0056
 1463SOL     OW16021   0.615   1.848   9.227  0.2131  0.7233  0.4478
 1463SOL    HW116022   0.543   1.839   9.290 -1.2555  1.2137 -1.1396
 1463SOL    HW216023   0.675   1.784   9.264 -1.0584 -0.5411  0.3328
 1464SOL     OW16024   1.441   1.400  17.147 -0.0352 -0.2987 -0.5252
 1464SOL    HW116025   1.375   1.466  17.127  0.0684  0.2232  0.8105
 1464SOL    HW216026   1.437   1.360  17.060  0.6195 -0.2102 -0.5939
 1465SOL     OW16027   4.114   2.893   8.261  0.1681  0.2062  0.5458
 1465SOL    HW116028   4.120   2.799   8.247  0.9335 -0.0396  2.6082
 1465SOL    HW216029   4.175   2.899   8.334 -0.0340  3.8347  0.4540
 1466SOL     OW16030   1.026   1.403   9.788  0.0829 -0.1120  0.0856
 1466SOL    HW116031   1.112   1.371   9.814 -0.5699 -1.8537  0.1219
 1466SOL    HW216032   0.987   1.316   9.781 -1.6090  0.7124 -0.7024
 1467SOL     OW16033   4.684   0.631  16.336  0.3096  0.4050 -0.2345
 1467SOL    HW116034   4.642   0.590  16.412 -1.9487  0.1860 -1.5822
 1467SOL    HW216035   4.667   0.724  16.348 -1.0415  0.1267  0.0143
 1468SOL     OW16036   3.365   2.342   3.056 -0.1109  0.3906 -0.0693
 1468SOL    HW116037   3.273   2.324   3.039  0.3891 -0.6556 -1.7458
 1468SOL    HW216038   3.369   2.289   3.136 -1.2307 -0.0429 -0.3036
 1469SOL     OW16039   3.293   1.022   2.423 -0.0161 -0.1074  0.2832
 1469SOL    HW116040   3.275   0.965   2.349 -0.8570  0.3440  0.1356
 1469SOL    HW216041   3.358   0.971   2.471  0.9520  0.7770 -0.0864
 1470SOL     OW16042   0.716   4.323   4.044 -0.0585 -0.3116 -0.3937
 1470SOL    HW116043   0.664   4.243   4.050 -1.5432  0.6813 -0.0360
 1470SOL    HW216044   0.793   4.299   4.096  0.3022 -0.8001 -1.1509
 1471SOL     OW16045   2.242   0.945   8.240  0.0962  0.5852  0.1097
 1471SOL    HW116046   2.306   0.977   8.177 -4.4463  1.4923 -3.9900
 1471SOL    HW216047   2.156   0.961   8.203 -0.9924  0.2927  2.5391
 1472SOL     OW16048   0.070   0.077   0.384  0.7797 -0.2042  0.2299
 1472SOL    HW116049   4.733   0.067   0.446 -0.7614 -1.4448 -1.7670
 1472SOL    HW216050   0.030   0.123   0.310  2.6100 -0.0470 -0.6528
 1473SOL     OW16051   1.688   0.364   1.389 -0.3102 -0.1843  0.6236
 1473SOL    HW116052   1.625   0.373   1.318  0.5414  0.9214  0.0047
 1473SOL    HW216053   1.680   0.431   1.456  1.6376  1.7228 -1.0454
 1474SOL     OW16054   0.468   0.046   4.717 -0.3656  0.0656  0.3814
 1474SOL    HW116055   0.509   0.133   4.725  1.4842 -0.7431 -0.3546
 1474SOL    HW216056   0.383   0.068   4.757 -1.3074  2.1289 -2.7140
 1475SOL     OW16057   0.232   3.970   0.200 -0.2987 -0.1949  0.2121
 1475SOL    HW116058   0.286   3.956   0.277  0.8939  0.1077 -0.5608
 1475SOL    HW216059   0.239   3.881   0.164  0.7955  0.6405 -1.6423
 1476SOL     OW16060   0.790   3.379  11.906 -0.1926  0.4381 -0.8047
 1476SOL    HW116061   0.733   3.417  11.839 -0.6842 -0.4411 -0.8775
 1476SOL    HW216062   0.876   3.399  11.869  0.7038  1.4755  1.7898
 1477SOL     OW16063   0.885   0.668  13.679 -0.2814  0.0322 -0.4371
 1477SOL    HW116064   0.848   0.588  13.641 -0.5874 -0.9587  1.9674
 1477SOL    HW216065   0.978   0.648  13.693 -0.4575 -2.0774 -2.3663
 1478SOL     OW16066   4.276   0.084   9.073  0.0192 -0.3931 -0.3355
 1478SOL    HW116067   4.257   0.076   9.166 -4.5110  0.5906 -1.1757
 1478SOL    HW216068   4.366   0.052   9.063  0.0628 -0.4482  0.2746
 1479SOL     OW16069   2.712   4.413   9.623 -0.1506 -0.4201 -0.8066
 1479SOL    HW116070   2.705   4.343   9.688  0.6806 -1.1761 -1.5316
 1479SOL    HW216071   2.627   4.458   9.624  0.0958  0.0243 -0.1227
 1480SOL     OW16072   4.493   1.054   2.631  0.5760  0.1813  0.2510
 1480SOL    HW116073   4.418   1.113   2.631  1.9785  1.9568  2.5726
 1480SOL    HW216074   4.467   0.969   2.593 -0.7859  0.8732 -0.3537
 1481SOL     OW16075   3.471   3.881   5.942 -0.3798 -0.4928 -0.3998
 1481SOL    HW116076   3.488   3.910   5.852  0.3301 -2.4457 -0.9164
 1481SOL    HW216077   3.515   3.940   6.003 -3.2621  0.9642  0.2905
 1482SOL     OW16078   2.134   1.523  12.219 -0.3149 -0.2247 -0.5355
 1482SOL    HW116079   2.086   1.599  12.253  3.0158  1.2551  0.7799
 1482SOL    HW216080   2.098   1.447  12.266  1.8383  0.3325  1.9511
 1483SOL     OW16081   4.325   0.411   3.471  0.5212 -0.1484 -0.0181
 1483SOL    HW116082   4.233   0.407   3.447  0.8222 -1.4726 -0.9450
 1483SOL    HW216083   4.361   0.360   3.399 -0.4783 -1.8547  0.6830
 1484SOL     OW16084   2.055   3.881   9.307  0.4652  0.0563  0.4370
 1484SOL    HW116085   1.974   3.884   9.358 -0.5082  0.4135 -1.1435
 1484SOL    HW216086   2.121   3.901   9.373  1.6561 -2.2227 -0.0715
 1485SOL     OW16087   4.103   3.090  16.465  0.7557 -0.1457  0.2072
 1485SOL    HW116088   4.085   3.136  16.383  2.1381  0.8693  0.4787
 1485SOL    HW216089   4.112   3.162  16.528  2.2644  1.3510 -1.7218
 1486SOL     OW16090   1.134   3.843   6.825 -0.5312 -0.0758 -0.5074
 1486SOL    HW116091   1.166   3.871   6.740  2.0554 -4.0044 -0.8404
 1486SOL    HW216092   1.102   3.758   6.794 -2.1729 -0.7776  3.0533
 1487SOL     OW16093   1.723   2.827   4.256 -0.3348 -0.4745 -0.7372
 1487SOL    HW116094   1.733   2.874   4.339 -0.5461 -0.6041 -0.6401
 1487SOL    HW216095   1.652   2.768   4.280 -1.1400  0.9751  0.4908
 1488SOL     OW16096   3.453   2.228   2.522 -0.7548 -0.0493  0.4118
 1488SOL    HW116097   3.415   2.313   2.544 -1.0471 -0.7941  2.7436
 1488SOL    HW216098   3.548   2.240   2.521 -0.2968 -3.7713  0.3119
 1489SOL     OW16099   4.361   3.953   5.711  0.2526 -0.5502 -0.7184
 1489SOL    HW116100   4.421   3.959   5.786 -1.1528  1.1535  0.2610
 1489SOL    HW216101   4.421   3.912   5.649  0.2246 -0.5588 -0.7397
 1490SOL     OW16102   3.706   1.241   3.821 -0.3702  0.4154 -0.3820
 1490SOL    HW116103   3.654   1.218   3.898  0.2907  1.3121  0.3312
 1490SOL    HW216104   3.640   1.249   3.752  1.6719  0.7850 -2.3021
 1491SOL     OW16105   4.497   4.434   1.917  0.0160 -0.5913  0.2991
 1491SOL    HW116106   4.517   4.468   1.830 -1.9523 -0.1141  0.0389
 1491SOL    HW216107   4.458   4.508   1.964  1.8151  1.4120 -1.3454
 1492SOL     OW16108   0.496   3.753   8.151 -0.2181 -0.5583 -0.1545
 1492SOL    HW116109   0.507   3.661   8.176 -0.9426 -0.2791  1.2315
 1492SOL    HW216110   0.471   3.792   8.235  0.3795  0.4083 -0.4362
 1493SOL     OW16111   1.500   3.911   7.491  0.2152  0.0779 -0.5439
 1493SOL    HW116112   1.553   3.845   7.535 -1.8472 -0.2820  1.4102
 1493SOL    HW216113   1.422   3.911   7.546 -0.1303  2.0937 -1.0382
 1494SOL     OW16114   3.867   4.148   8.804 -0.3881  0.2027  0.0543
 1494SOL    HW116115   3.777   4.127   8.831 -1.0608  0.5054 -2.0198
 1494SOL    HW216116   3.885   4.196   8.885 -0.1754  1.0766 -0.5247
 1495SOL     OW16117   2.038   0.508   3.777  0.1418 -0.1022  0.1716
 1495SOL    HW116118   1.980   0.579   3.802  1.1094  0.4544  0.8388
 1495SOL    HW216119   2.026   0.456   3.856  1.7002 -1.6079 -0.5666
 1496SOL     OW16120   3.038   2.924   7.115  0.6684  0.3753  0.0410
 1496SOL    HW116121   3.093   2.851   7.085  3.0103  1.4440  1.6995
 1496SOL    HW216122   3.049   2.986   7.043  4.1216 -0.2644  0.0092
 1497SOL     OW16123   1.706   0.155   2.771  0.2170 -0.0184  0.2772
 1497SOL    HW116124   1.761   0.100   2.827  0.6717 -0.4655 -0.6116
 1497SOL    HW216125   1.757   0.233   2.750 -1.0133  0.7552  0.1496
 1498SOL     OW16126   2.277   3.169  17.591 -0.0280 -0.6934 -0.0099
 1498SOL    HW116127   2.289   3.198  17.500 -0.9209 -1.8557 -0.4920
 1498SOL    HW216128   2.367   3.156  17.620 -0.1207  0.6484  0.8703
 1499SOL     OW16129   3.208   2.565  12.538 -0.0630  0.1750  0.2014
 1499SOL    HW116130   3.152   2.633  12.576  0.7387  0.6524  0.5237
 1499SOL    HW216131   3.148   2.493  12.558 -0.9152  0.8795  0.1709
 1500SOL     OW16132   0.292   0.196  11.799  0.2536  0.0398 -0.8869
 1500SOL    HW116133   0.257   0.199  11.710  0.4169 -2.5615 -1.0591
 1500SOL    HW216134   0.287   0.288  11.823 -0.4889  0.3305 -2.1407
 1501SOL     OW16135   3.650   2.235   5.859  0.0458  0.1437 -0.4487
 1501SOL    HW116136   3.734   2.232   5.904 -0.6464  1.0834  0.8837
 1501SOL    HW216137   3.607   2.162   5.903  0.5091 -0.5059 -1.0627
 1502SOL     OW16138   4.065   1.451  17.354  0.0179  0.6111  0.2501
 1502SOL    HW116139   4.058   1.358  17.376  3.5961 -0.2346 -2.2504
 1502SOL    HW216140   4.096   1.440  17.264  1.3182  2.0023  0.5367
 1503SOL     OW16141   3.584   2.299  10.001 -0.1618 -0.5164  0.0948
 1503SOL    HW116142   3.633   2.367   9.955  1.2252 -0.0243  2.2651
 1503SOL    HW216143   3.553   2.238   9.934 -1.3948  0.2543 -0.0142
 1504SOL     OW16144   3.519   0.260   1.923  0.8230 -0.2198 -0.0060
 1504SOL    HW116145   3.505   0.167   1.944 -1.4233 -0.0590 -0.8173
 1504SOL    HW216146   3.458   0.299   1.985  1.8019 -0.5021  1.1404
 1505SOL     OW16147   2.829   1.139  11.125 -0.3426  0.4486 -0.2556
 1505SOL    HW116148   2.829   1.153  11.219 -1.5009 -0.4952 -0.1160
 1505SOL    HW216149   2.845   1.045  11.125  1.2240  0.7127 -1.7855
 1506SOL     OW16150   0.353   0.203  15.468 -0.7523  0.6205  0.8054
 1506SOL    HW116151   0.364   0.111  15.447 -1.4383  0.7631 -0.1831
 1506SOL    HW216152   0.402   0.200  15.550  1.5543  2.1927 -0.5055
 1507SOL     OW16153   2.684   2.319  10.340 -0.2011 -0.6878  0.0288
 1507SOL    HW116154   2.598   2.313  10.382 -0.6337  2.9536 -0.3047
 1507SOL    HW216155   2.714   2.410  10.348  3.1689 -1.7813  0.0681
 1508SOL     OW16156   1.577   4.515   9.495  0.7523  0.7734 -0.1171
 1508SOL    HW116157   1.547   4.434   9.536  1.9766  0.2794 -0.2153
 1508SOL    HW216158   1.621   4.556   9.570  0.1357 -1.0940  1.2746
 1509SOL     OW16159   0.987   4.074   8.016  0.2504 -0.0117 -0.3070
 1509SOL    HW116160   0.921   4.023   8.063  1.1768 -0.4175  0.5498
 1509SOL    HW216161   0.943   4.113   7.941 -0.4947  0.1423  0.2077
 1510SOL     OW16162   1.256   2.021   5.372 -0.0341  0.6843 -0.0161
 1510SOL    HW116163   1.322   1.951   5.371 -0.8052 -0.0462  0.4287
 1510SOL    HW216164   1.250   2.040   5.466 -0.1074  3.2860 -0.5295
 1511SOL     OW16165   3.071   2.817  13.523 -0.1522 -0.1666  0.3782
 1511SOL    HW116166   3.090   2.751  13.589 -0.4179  1.0511  1.6687
 1511SOL    HW216167   3.161   2.832  13.494  0.0672  1.5417  1.9842
 1512SOL     OW16168   2.735   2.380   4.977 -0.4238  0.1503 -0.0472
 1512SOL    HW116169   2.757   2.436   4.903  1.0388 -0.7656 -0.3153
 1512SOL    HW216170   2.822   2.377   5.018  0.0272  0.0736 -1.0234
 1513SOL     OW16171   4.471   3.114   9.805  0.2635 -0.1577  0.0767
 1513SOL    HW116172   4.419   3.164   9.868  1.9818 -1.2003  2.3291
 1513SOL    HW216173   4.428   3.028   9.811 -1.7010  0.9211  1.6258
 1514SOL     OW16174   2.499   1.593  15.704  0.2031 -0.0837  0.0965
 1514SOL    HW116175   2.416   1.600  15.656 -0.3817 -0.7171  1.0300
 1514SOL    HW216176   2.550   1.578  15.624 -0.3349 -0.0902 -0.2458
 1515SOL     OW16177   3.934   0.389  11.863  0.4323  0.0557  0.2606
 1515SOL    HW116178   3.929   0.300  11.827  2.1574  0.6253 -1.4022
 1515SOL    HW216179   4.026   0.411  11.879  0.8721 -1.0923 -0.7037
 1516SOL     OW16180   0.204   0.424   4.252  0.3141  0.1534  0.4408
 1516SOL    HW116181   0.273   0.391   4.309  1.0349  0.3774 -0.2976
 1516SOL    HW216182   0.192   0.514   4.280  0.0710 -0.2092  1.4745
 1517SOL     OW16183   2.638   0.537  11.995 -0.2408  0.8401 -0.1507
 1517SOL    HW116184   2.644   0.609  11.933  1.0580  0.2895 -0.6690
 1517SOL    HW216185   2.589   0.476  11.940  2.3986 -0.0546 -1.5138
 1518SOL     OW16186   4.628   4.557   1.405 -0.4263  0.2845 -0.2045
 1518SOL    HW116187   4.542   4.584   1.373 -0.3358  1.5715  0.6394
 1518SOL    HW216188   4.680   4.614   1.349 -1.2364  2.4285  1.2125
 1519SOL     OW16189   2.930   3.374   6.921  0.5003 -0.3899  0.3204
 1519SOL    HW116190   2.888   3.294   6.952 -0.9771  0.5370  0.6979
 1519SOL    HW216191   2.865   3.410   6.861  0.2407  0.9729  1.4477
 1520SOL     OW16192   3.589   3.693   7.324  0.4879  0.0641  0.2416
 1520SOL    HW116193   3.629   3.780   7.328  2.2737 -0.6925 -1.2756
 1520SOL    HW216194   3.523   3.700   7.256  1.4837  0.3278 -0.6837
 1521SOL     OW16195   3.614   2.659  13.889 -0.1107  0.5561 -0.2642
 1521SOL    HW116196   3.542   2.672  13.826 -1.1643 -0.1337  0.8060
 1521SOL    HW216197   3.565   2.602  13.948 -1.2369  1.7913  0.0044
 1522SOL     OW16198   4.721   2.394  16.240  0.1830 -0.3560 -0.6519
 1522SOL    HW116199   4.682   2.312  16.211 -0.5577 -0.2977  0.1638
 1522SOL    HW216200   4.671   2.463  16.197 -0.6465  1.1245  2.6234
 1523SOL     OW16201   3.119   2.416   9.958 -0.2080  0.5829  0.3134
 1523SOL    HW116202   3.130   2.447   9.868 -2.1268  0.4646  0.0445
 1523SOL    HW216203   3.138   2.323   9.941  0.2507  0.6262  0.5927
 1524SOL     OW16204   3.573   0.644   6.653 -0.7140 -0.2217 -0.2703
 1524SOL    HW116205   3.574   0.594   6.571  2.0243  2.3498 -1.8193
 1524SOL    HW216206   3.578   0.575   6.718  2.1998 -2.8299 -3.2555
 1525SOL     OW16207   4.508   3.530  10.801 -0.1577  0.1286  0.2836
 1525SOL    HW116208   4.425   3.573  10.823 -1.6018 -2.0920 -0.8047
 1525SOL    HW216209   4.533   3.492  10.885 -2.9340 -0.4135  0.8819
 1526SOL     OW16210   1.240   3.131  16.061 -0.3391 -0.3926  0.5593
 1526SOL    HW116211   1.251   3.186  15.984  0.6146 -0.2277  0.8118
 1526SOL    HW216212   1.310   3.166  16.117  0.5419  2.0939 -2.1341
 1527SOL     OW16213   1.850   2.127   5.064  0.1145 -0.0654 -0.2212
 1527SOL    HW116214   1.896   2.066   5.007 -0.7762  0.0980 -1.1177
 1527SOL    HW216215   1.759   2.110   5.040  0.0702 -1.2812  0.8443
 1528SOL     OW16216   0.498   1.243   3.290  0.2632  0.2010 -0.0837
 1528SOL    HW116217   0.520   1.331   3.319 -1.3217  0.9055 -0.9956
 1528SOL    HW216218   0.459   1.194   3.363  0.2023 -0.9393 -0.8727
 1529SOL     OW16219   3.721   1.554   0.756 -0.2087 -0.3867  0.1878
 1529SOL    HW116220   3.692   1.493   0.689  0.3331 -0.8860  0.4052
 1529SOL    HW216221   3.656   1.624   0.756  1.2222  0.9510  1.4850
 1530SOL     OW16222   0.584   1.825   2.122 -0.7706  0.3387 -0.0830
 1530SOL    HW116223   0.524   1.757   2.092 -0.8857  0.1641  0.5424
 1530SOL    HW216224   0.519   1.887   2.157 -0.4061 -0.0071  1.2173
 1531SOL     OW16225   1.664   1.163   8.225 -0.2262 -0.0558  0.2877
 1531SOL    HW116226   1.607   1.176   8.149  1.6014 -0.7907 -1.2101
 1531SOL    HW216227   1.659   1.067   8.230 -0.5705 -0.0781 -0.4913
 1532SOL     OW16228   1.563   2.920   5.287  0.8846  0.3252  0.0577
 1532SOL    HW116229   1.645   2.961   5.312  0.5309  0.6073  0.7449
 1532SOL    HW216230   1.576   2.891   5.196  0.4956 -2.2273  0.8289
 1533SOL     OW16231   4.181   1.087   7.597  0.0783 -0.0176  0.2560
 1533SOL    HW116232   4.206   1.177   7.576  0.6882 -0.4336 -0.8324
 1533SOL    HW216233   4.267   1.045   7.600  0.6059  1.0390 -0.0436
 1534SOL     OW16234   3.995   4.710   1.909 -0.4296 -0.2995  0.0763
 1534SOL    HW116235   4.083   0.008   1.930 -0.0867 -0.7602 -0.6325
 1534SOL    HW216236   3.949   0.058   1.898 -4.1853 -2.6582 -1.7933
 1535SOL     OW16237   0.472   2.287   2.691 -0.4687  0.3128 -0.2313
 1535SOL    HW116238   0.445   2.196   2.702  3.5602 -0.8157  0.3843
 1535SOL    HW216239   0.537   2.293   2.761 -1.1283 -2.3691  0.6041
 1536SOL     OW16240   0.541   0.075   2.077 -0.1516  0.0138  0.3035
 1536SOL    HW116241   0.506   4.722   2.057 -0.4530  0.0535  0.6550
 1536SOL    HW216242   0.631   0.045   2.083  0.1509  0.2333 -2.7796
 1537SOL     OW16243   4.094   4.110   2.628 -0.1349  0.1280  0.0217
 1537SOL    HW116244   4.037   4.054   2.680 -0.5301 -1.2616 -1.9075
 1537SOL    HW216245   4.163   4.047   2.607 -0.5538 -0.2902 -0.0695
 1538SOL     OW16246   2.963   0.877   7.260 -0.5179  0.2309 -0.5441
 1538SOL    HW116247   2.923   0.937   7.324 -2.1401 -0.5768 -0.8071
 1538SOL    HW216248   3.055   0.870   7.288 -0.2615 -0.2615 -1.5148
 1539SOL     OW16249   0.041   0.095  17.543  0.0954 -0.5678  0.6599
 1539SOL    HW116250   0.099   0.068  17.615 -0.2743 -1.6357  0.5646
 1539SOL    HW216251   0.088   0.166  17.501  0.6778 -1.9617 -1.0279
 1540SOL     OW16252   0.066   3.010   3.764  0.0467 -0.7100 -0.5151
 1540SOL    HW116253   0.056   3.064   3.685  0.2710 -3.1841 -2.2398
 1540SOL    HW216254   4.718   3.033   3.807  0.6382  0.3257  0.0375
 1541SOL     OW16255   1.361   0.691   8.456  0.2172 -0.2282 -0.1055
 1541SOL    HW116256   1.387   0.710   8.366  0.8909 -1.1724 -0.1099
 1541SOL    HW216257   1.271   0.722   8.469  1.3216  2.7759  0.4983
 1542SOL     OW16258   0.708   2.374   5.806  0.0469 -0.2723 -0.0776
 1542SOL    HW116259   0.646   2.392   5.876  3.3839  0.5191  2.7123
 1542SOL    HW216260   0.729   2.283   5.827 -0.1317 -0.2981 -0.0134
 1543SOL     OW16261   3.426   2.249   6.146  0.5841 -0.1837  0.2476
 1543SOL    HW116262   3.374   2.184   6.098  1.2233 -1.0367  0.7189
 1543SOL    HW216263   3.502   2.204   6.181 -0.6905 -0.5608  2.5227
 1544SOL     OW16264   0.939   2.108   3.367 -0.1703  0.2069 -0.1106
 1544SOL    HW116265   0.937   2.152   3.282 -0.5760  1.2951  0.4577
 1544SOL    HW216266   0.922   2.016   3.347  0.3576  0.4370 -1.6132
 1545SOL     OW16267   4.551   2.293   3.176  0.3708 -0.3223 -0.4314
 1545SOL    HW116268   4.551   2.329   3.265 -0.5195  1.6776 -1.2389
 1545SOL    HW216269   4.477   2.343   3.142 -0.1382  1.0881  2.7393
 1546SOL     OW16270   4.479   1.250   6.601 -0.0473 -0.4540 -0.0332
 1546SOL    HW116271   4.408   1.297   6.558 -0.3171 -1.3689 -0.6056
 1546SOL    HW216272   4.453   1.160   6.580 -0.9275 -0.0185 -0.8480
 1547SOL     OW16273   0.265   1.210   8.975 -0.0393  0.5302 -0.2390
 1547SOL    HW116274   0.184   1.238   8.932 -0.4587 -0.6571 -0.2489
 1547SOL    HW216275   0.301   1.175   8.894 -3.9098 -0.2461 -1.6261
 1548SOL     OW16276   4.326   1.195  13.230 -0.1120  0.2887  0.0075
 1548SOL    HW116277   4.376   1.276  13.225 -1.6940  1.3832  2.0764
 1548SOL    HW216278   4.242   1.214  13.188 -1.0859 -1.9962  0.9273
 1549SOL     OW16279   0.369   4.673   0.946 -0.7914  0.1006  0.2948
 1549SOL    HW116280   0.379   4.599   0.886 -2.3266  0.4868 -0.4333
 1549SOL    HW216281   0.364   4.636   1.035  1.5239  0.4040  0.5391
 1550SOL     OW16282   1.165   0.758   5.440 -0.0342 -0.6280  0.0535
 1550SOL    HW116283   1.125   0.798   5.362 -2.3738 -1.0458  1.0558
 1550SOL    HW216284   1.183   0.666   5.420  0.1495 -1.1218  2.4959
 1551SOL     OW16285   4.287   3.727   9.049  0.0840  0.1101  0.6627
 1551SOL    HW116286   4.345   3.758   9.119 -0.5546  0.2784  1.1220
 1551SOL    HW216287   4.206   3.728   9.100 -0.1762 -0.7953  0.2766
 1552SOL     OW16288   4.475   1.168   1.581  0.6501 -0.3866  0.5009
 1552SOL    HW116289   4.461   1.262   1.596 -3.5858 -0.5507 -2.3895
 1552SOL    HW216290   4.405   1.126   1.632  2.0639 -3.2133  0.1279
 1553SOL     OW16291   3.061   1.569   6.262 -0.4021  0.6256  0.4190
 1553SOL    HW116292   3.092   1.656   6.241 -0.0670  0.1624 -0.9743
 1553SOL    HW216293   2.990   1.597   6.320 -1.2325  2.1773 -1.3556
 1554SOL     OW16294   4.358   2.633  10.940 -0.1052 -0.2184 -0.1730
 1554SOL    HW116295   4.344   2.685  11.019 -1.0720  0.2607 -0.6526
 1554SOL    HW216296   4.396   2.697  10.880  1.2511  0.6510  1.6055
 1555SOL     OW16297   2.849   1.935  10.654 -0.2358 -0.1026  0.2574
 1555SOL    HW116298   2.776   1.922  10.715 -0.0597 -1.0693  0.2505
 1555SOL    HW216299   2.815   1.994  10.587 -1.9171  0.4031  1.5721
 1556SOL     OW16300   3.358   0.785  10.087  0.3271 -0.4671 -0.3226
 1556SOL    HW116301   3.297   0.837  10.139  1.7691  0.3074  0.5890
 1556SOL    HW216302   3.340   0.695  10.112  1.2830 -1.3009 -2.6054
 1557SOL     OW16303   2.806   3.397   8.558 -0.4476  0.0518 -0.2072
 1557SOL    HW116304   2.882   3.379   8.502  0.2327  0.3925  0.5960
 1557SOL    HW216305   2.752   3.452   8.502 -2.2428 -0.5428  0.9282
 1558SOL     OW16306   1.258   3.220   4.711 -0.0178  0.6542  0.1544
 1558SOL    HW116307   1.297   3.147   4.664  0.8435  0.9264  0.4246
 1558SOL    HW216308   1.216   3.268   4.640  0.2073  0.6600  0.0230
 1559SOL     OW16309   3.530   4.686   6.058 -0.2847 -0.2088 -0.2409
 1559SOL    HW116310   3.451   4.642   6.088 -0.7532  1.0570  0.3469
 1559SOL    HW216311   3.564   0.004   6.130  1.3270 -0.4356 -0.8158
 1560SOL     OW16312   3.562   4.215  10.884  0.3944 -0.0540 -0.5433
 1560SOL    HW116313   3.526   4.304  10.881  1.1449  0.2353 -0.9689
 1560SOL    HW216314   3.651   4.249  10.894 -0.2093  1.0413  1.1228
 1561SOL     OW16315   4.480   4.134   4.661  0.3443  0.2723 -0.8332
 1561SOL    HW116316   4.433   4.050   4.658 -0.9981  1.0773 -2.1016
 1561SOL    HW216317   4.473   4.156   4.569 -0.0180  1.3077 -0.5580
 1562SOL     OW16318   2.560   4.463  12.051  0.1231  0.0792 -0.1947
 1562SOL    HW116319   2.536   4.370  12.052  1.1549 -0.2047 -2.2569
 1562SOL    HW216320   2.653   4.451  12.067 -0.2018 -1.9828  0.1011
 1563SOL     OW16321   3.448   3.018  15.262 -0.1717 -0.3240  0.0167
 1563SOL    HW116322   3.422   2.929  15.237 -2.1449 -0.0418  1.0692
 1563SOL    HW216323   3.368   3.068  15.279  0.8297  1.6918 -1.3012
 1564SOL     OW16324   3.663   2.632   7.628  0.1752  0.4463  0.2156
 1564SOL    HW116325   3.674   2.723   7.599 -1.4615  0.6967  0.3521
 1564SOL    HW216326   3.754   2.603   7.632  0.1614  0.3659 -0.0132
 1565SOL     OW16327   1.732   1.483   2.484 -0.5376  0.2155 -0.7510
 1565SOL    HW116328   1.824   1.492   2.510 -0.7349  2.0372 -0.6603
 1565SOL    HW216329   1.719   1.554   2.421  0.5447  0.5816 -0.5641
 1566SOL     OW16330   0.552   3.089   8.575 -0.0876  0.2555 -0.5507
 1566SOL    HW116331   0.463   3.098   8.542  0.0179 -0.5685 -1.0861
 1566SOL    HW216332   0.534   3.098   8.668  0.1244  0.2706 -0.5106
 1567SOL     OW16333   0.156   0.177  16.440 -0.3718  0.4632  0.9899
 1567SOL    HW116334   0.125   0.224  16.518 -2.6183  1.7130 -0.6397
 1567SOL    HW216335   0.222   0.118  16.475  1.2819  1.0655 -1.1292
 1568SOL     OW16336   0.481   0.378   5.996  0.2193 -0.2399  0.0132
 1568SOL    HW116337   0.463   0.442   5.928  0.8093 -0.4535 -0.3377
 1568SOL    HW216338   0.457   0.295   5.954  0.5935 -0.5549  0.4259
 1569SOL     OW16339   1.994   1.143   5.873  0.2755  0.4876  0.5855
 1569SOL    HW116340   2.041   1.218   5.911  1.6642 -0.1595  0.1179
 1569SOL    HW216341   1.929   1.187   5.817  0.1929  0.9326  1.0272
 1570SOL     OW16342   3.312   2.013  11.520 -0.3464  0.2626 -0.1443
 1570SOL    HW116343   3.288   2.106  11.526  3.6376  1.2284  0.9943
 1570SOL    HW216344   3.308   1.985  11.429  0.5447 -0.1911 -0.0425
 1571SOL     OW16345   3.040   4.276  12.673 -0.1653 -0.0055 -0.2737
 1571SOL    HW116346   3.011   4.355  12.627 -0.8586  0.2913  0.6582
 1571SOL    HW216347   3.090   4.320  12.742 -0.8234  0.0492  0.1766
 1572SOL     OW16348   1.377   3.627   8.864 -0.2241 -0.5617  0.2470
 1572SOL    HW116349   1.450   3.671   8.822 -0.6392 -0.2675 -0.1713
 1572SOL    HW216350   1.397   3.641   8.956 -2.2884  1.1477  0.4349
 1573SOL     OW16351   1.212   1.058   4.806 -0.0427  0.4417  0.3748
 1573SOL    HW116352   1.162   1.108   4.741 -1.3531  0.1313  1.1370
 1573SOL    HW216353   1.273   1.015   4.746 -1.7491  0.8399 -1.6725
 1574SOL     OW16354   4.310   2.971   3.473  0.0270 -0.5708  0.0204
 1574SOL    HW116355   4.270   2.943   3.555 -0.1183 -0.0649  0.1217
 1574SOL    HW216356   4.355   3.050   3.502  0.0860  0.4641 -2.8742
 1575SOL     OW16357   0.087   1.061   3.781 -0.3206 -0.0016  0.1228
 1575SOL    HW116358   0.103   1.093   3.692  2.0165 -2.0698 -0.1966
 1575SOL    HW216359   4.728   1.081   3.785 -0.2962  0.0145  0.6179
 1576SOL     OW16360   2.208   2.254  10.428  0.1274  0.6002  0.4761
 1576SOL    HW116361   2.244   2.334  10.389 -1.6094  0.6562 -0.9766
 1576SOL    HW216362   2.154   2.287  10.500 -0.3430 -0.8901  0.8029
 1577SOL     OW16363   4.648   1.917  15.107  0.1092 -0.1511  0.7576
 1577SOL    HW116364   4.571   1.920  15.164 -1.2420 -0.3736 -1.0926
 1577SOL    HW216365   4.616   1.977  15.041  1.0966  1.0250  1.3467
 1578SOL     OW16366   3.461   2.169  12.054 -0.2231 -0.2128  0.9260
 1578SOL    HW116367   3.511   2.213  11.986  0.9269 -0.7519  1.4290
 1578SOL    HW216368   3.469   2.238  12.120  0.6893  1.3160 -0.7917
 1579SOL     OW16369   1.295   2.104   2.659 -0.1838  0.0467 -0.8657
 1579SOL    HW116370   1.224   2.084   2.598 -0.0200  0.2774 -1.1378
 1579SOL    HW216371   1.285   2.199   2.648 -0.3300  0.2943  1.4023
 1580SOL     OW16372   1.017   0.459   4.168 -0.1816 -0.3675 -1.0923
 1580SOL    HW116373   1.010   0.460   4.072  1.0840  0.1720 -1.1859
 1580SOL    HW216374   1.105   0.421   4.176  0.7687  1.8985 -0.9827
 1581SOL     OW16375   0.280   2.144   8.299 -0.1788  0.1490  0.4553
 1581SOL    HW116376   0.208   2.168   8.241 -0.5185  1.0888  1.2785
 1581SOL    HW216377   0.350   2.145   8.234 -1.1520 -2.1190 -0.6594
 1582SOL     OW16378   3.576   1.063   2.550  0.1651 -0.1602  0.0325
 1582SOL    HW116379   3.601   0.973   2.571  1.5234 -0.0022 -0.8906
 1582SOL    HW216380   3.616   1.097   2.630  1.5202  1.3782 -1.3040
 1583SOL     OW16381   4.104   3.900   5.779 -0.6195  0.0814  0.0535
 1583SOL    HW116382   4.195   3.917   5.756 -1.0432  0.4641 -1.3043
 1583SOL    HW216383   4.059   3.946   5.709  1.0855  2.0645  0.2872
 1584SOL     OW16384   3.344   1.049   9.920  0.0219  0.1234  0.6938
 1584SOL    HW116385   3.308   1.096   9.995  1.7462  0.4337  1.3017
 1584SOL    HW216386   3.329   0.959   9.948  2.7823  0.1168  2.0952
 1585SOL     OW16387   4.254   1.876  13.846 -0.1288 -0.0187 -0.8614
 1585SOL    HW116388   4.167   1.906  13.870  0.0153 -1.3320  1.3098
 1585SOL    HW216389   4.230   1.853  13.756 -0.1008  0.7696 -1.0638
 1586SOL     OW16390   0.170   2.620   5.408  0.0543  0.1031 -0.2784
 1586SOL    HW116391   0.127   2.705   5.416  1.0199  0.5642  0.0564
 1586SOL    HW216392   0.261   2.647   5.418 -0.2728  1.1092 -0.0568
 1587SOL     OW16393   4.359   1.027   5.839  0.0132 -0.3659  0.9616
 1587SOL    HW116394   4.443   1.074   5.837  0.2437 -0.8111  0.0284
 1587SOL    HW216395   4.361   0.961   5.769  0.8776 -0.5010  1.1093
 1588SOL     OW16396   0.436   3.237   8.192  0.3319  0.1207  0.0654
 1588SOL    HW116397   0.353   3.212   8.152  1.6233 -2.9585 -0.6728
 1588SOL    HW216398   0.447   3.163   8.252  0.5420  0.4060  0.3825
 1589SOL     OW16399   4.293   0.854   9.282 -0.3229  0.1291 -0.1612
 1589SOL    HW116400   4.313   0.770   9.240  1.0573  0.9573 -1.1563
 1589SOL    HW216401   4.356   0.847   9.354 -2.2237 -0.8140  1.4273
 1590SOL     OW16402   0.434   1.256  13.442  0.1544  0.3875  0.3897
 1590SOL    HW116403   0.433   1.237  13.348 -0.2306  0.7686  0.3175
 1590SOL    HW216404   0.496   1.329  13.452 -0.1924  0.6627  0.5359
 1591SOL     OW16405   1.567   1.989   2.165  0.2352  0.4419 -0.1700
 1591SOL    HW116406   1.556   2.038   2.246 -0.8603 -1.3137  0.7356
 1591SOL    HW216407   1.653   2.026   2.143 -1.1673  1.2486 -4.3203
 1592SOL     OW16408   1.437   2.811   9.971  0.2573  0.6366 -0.2941
 1592SOL    HW116409   1.489   2.891   9.983 -0.8982  1.0107  2.2373
 1592SOL    HW216410   1.401   2.823   9.883 -3.4149 -0.4927  1.0728
 1593SOL     OW16411   1.280   3.153   1.756  0.2778 -0.7419  0.8002
 1593SOL    HW116412   1.190   3.180   1.771  0.3216 -0.0268 -0.2355
 1593SOL    HW216413   1.276   3.122   1.666  0.0340  0.1366  0.5076
 1594SOL     OW16414   1.876   1.683  12.074  0.1941 -0.2437  0.2097
 1594SOL    HW116415   1.909   1.674  12.164  4.2061  2.3357 -1.0040
 1594SOL    HW216416   1.864   1.589  12.062  0.0350  0.1907 -2.9869
 1595SOL     OW16417   0.325   0.750   7.518  0.5381  0.3578  0.3340
 1595SOL    HW116418   0.370   0.715   7.595  0.5895 -0.0704  0.1087
 1595SOL    HW216419   0.386   0.819   7.494  1.3433 -0.7500 -0.8161
 1596SOL     OW16420   4.190   0.363   3.953  0.3663 -0.3442 -0.1606
 1596SOL    HW116421   4.147   0.442   3.919  0.3137  0.5917  2.0571
 1596SOL    HW216422   4.238   0.332   3.877 -0.8394 -0.3480 -0.9130
 1597SOL     OW16423   3.998   2.618   7.024 -0.1402  0.1882 -0.2827
 1597SOL    HW116424   4.079   2.594   7.070  0.1135 -0.0480 -0.8589
 1597SOL    HW216425   3.971   2.692   7.079 -2.9747 -0.7235 -0.4463
 1598SOL     OW16426   4.608   0.396   3.989  0.6639  0.0614  0.0490
 1598SOL    HW116427   4.572   0.484   4.000  1.1206  0.0993  1.2758
 1598SOL    HW216428   4.526   0.347   3.985  1.2080 -0.9211  0.9177
 1599SOL     OW16429   4.014   3.735   6.395  0.2280 -0.3553  0.1442
 1599SOL    HW116430   3.980   3.793   6.327  0.2392 -0.0581  0.3933
 1599SOL    HW216431   3.930   3.691   6.410  0.8634 -1.4796  0.4264
 1600SOL     OW16432   2.017   1.537   3.696  0.2920  0.5628  0.1609
 1600SOL    HW116433   1.982   1.464   3.748 -2.3521 -0.2400 -2.7455
 1600SOL    HW216434   1.940   1.595   3.701 -0.4368 -0.3561 -0.4765
 1601SOL     OW16435   2.924   1.764   1.851  0.1359  0.9381 -0.1726
 1601SOL    HW116436   2.840   1.810   1.845 -0.4381  0.1314  1.7189
 1601SOL    HW216437   2.946   1.763   1.944  1.8604  0.3694 -0.5806
 1602SOL     OW16438   2.298   2.849   9.368 -0.1646  0.1488 -0.0325
 1602SOL    HW116439   2.216   2.800   9.373 -1.0824  1.5125 -1.7255
 1602SOL    HW216440   2.314   2.832   9.275  0.0641  2.7519 -0.4845
 1603SOL     OW16441   0.207   3.104  14.871  0.0938 -0.7505  0.1309
 1603SOL    HW116442   0.214   3.117  14.776 -0.7872  0.5168  0.2275
 1603SOL    HW216443   0.183   3.012  14.874 -1.5774 -0.3317  0.1086
 1604SOL     OW16444   0.673   2.307   4.322 -0.2914 -0.3922  0.5208
 1604SOL    HW116445   0.712   2.221   4.339  2.6500  0.6966 -0.7224
 1604SOL    HW216446   0.742   2.349   4.270 -1.2190 -0.0058 -0.3957
 1605SOL     OW16447   1.682   3.920   7.980 -0.6428  0.1478 -0.5710
 1605SOL    HW116448   1.593   3.888   7.992  0.7622 -3.7181 -0.7354
 1605SOL    HW216449   1.708   3.875   7.900 -0.5370 -1.6262  0.4746
 1606SOL     OW16450   0.981   4.596   4.755 -0.1568 -0.0842 -0.2761
 1606SOL    HW116451   1.015   4.681   4.728  1.0081 -0.2888  0.5511
 1606SOL    HW216452   0.982   4.551   4.670 -1.4400  1.1395 -0.9283
 1607SOL     OW16453   3.989   0.182   3.181  0.0505 -0.1164  0.3654
 1607SOL    HW116454   3.938   0.101   3.177 -0.3407  0.3245 -3.5628
 1607SOL    HW216455   4.061   0.143   3.229 -0.4429 -1.7671 -0.2583
 1608SOL     OW16456   1.362   3.682   6.157 -0.1417  0.2468 -0.1794
 1608SOL    HW116457   1.370   3.647   6.068  0.8954  2.0301 -0.7826
 1608SOL    HW216458   1.268   3.695   6.162 -0.3137 -1.0977  0.1047
 1609SOL     OW16459   1.704   0.591   6.702  0.3770  0.0408 -0.1954
 1609SOL    HW116460   1.618   0.630   6.684 -0.2091 -1.7150 -1.1152
 1609SOL    HW216461   1.766   0.664   6.703  1.2982 -0.7227 -1.3938
 1610SOL     OW16462   1.088   3.988  14.590 -0.2601  0.3906  0.4044
 1610SOL    HW116463   1.131   3.921  14.643  1.6774  1.0391 -0.3288
 1610SOL    HW216464   1.014   4.002  14.649 -2.3825  1.7887 -2.5808
 1611SOL     OW16465   4.644   2.498  10.875  0.1363 -0.0641  0.4475
 1611SOL    HW116466   4.615   2.523  10.963  1.4005  0.3610  0.7481
 1611SOL    HW216467   4.601   2.417  10.849  1.8917 -0.7334 -0.3748
 1612SOL     OW16468   0.918   3.406   9.071  0.1728 -0.1238 -0.3723
 1612SOL    HW116469   0.974   3.442   9.003  1.2946  0.9069  1.1066
 1612SOL    HW216470   0.982   3.402   9.142 -0.7676  1.0459  0.5387
 1613SOL     OW16471   4.238   1.349   0.144  0.3848 -0.0963 -0.1340
 1613SOL    HW116472   4.175   1.420   0.135 -1.8550 -1.7530  2.5473
 1613SOL    HW216473   4.172   1.283   0.167  0.5955 -0.6264 -1.0389
 1614SOL     OW16474   0.729   2.848   8.425  0.4807 -0.6089 -0.4857
 1614SOL    HW116475   0.706   2.857   8.518 -2.1439 -0.5522 -1.1244
 1614SOL    HW216476   0.790   2.921   8.424 -0.8639  0.4945 -1.9751
 1615SOL     OW16477   0.478   2.969   8.296 -0.3781 -0.1317 -0.0979
 1615SOL    HW116478   0.552   2.975   8.356 -2.9826 -2.2189  3.3542
 1615SOL    HW216479   0.417   2.912   8.344 -0.9254 -0.0486 -0.6968
 1616SOL     OW16480   4.175   1.436  12.399  0.3240 -0.5800 -0.0338
 1616SOL    HW116481   4.172   1.478  12.485 -1.4596  0.0947 -0.4124
 1616SOL    HW216482   4.082   1.416  12.387  0.3580 -0.0006 -1.2658
 1617SOL     OW16483   2.084   3.641   7.085 -0.1274  0.3415 -0.0786
 1617SOL    HW116484   2.089   3.736   7.094  0.3155  0.1142  1.9731
 1617SOL    HW216485   2.172   3.625   7.119  0.9708  2.2545 -1.9793
 1618SOL     OW16486   3.772   0.644   9.340 -0.5742  0.2444 -0.5216
 1618SOL    HW116487   3.700   0.707   9.344 -0.9072 -0.1904  0.3788
 1618SOL    HW216488   3.807   0.668   9.255 -0.1389 -0.5217 -0.5578
 1619SOL     OW16489   0.495   2.207   7.589  0.0078 -0.6101  0.1059
 1619SOL    HW116490   0.547   2.128   7.576  0.2082 -0.8632  2.5889
 1619SOL    HW216491   0.427   2.195   7.523 -0.5925  1.7124  0.2870
 1620SOL     OW16492   1.930   2.756   5.454  0.0119 -0.0998 -0.9354
 1620SOL    HW116493   1.910   2.819   5.385 -1.3998 -1.3279 -1.6513
 1620SOL    HW216494   1.902   2.675   5.410  1.5408 -2.9626  3.3821
 1621SOL     OW16495   3.867   0.136   2.310  0.2839 -0.0719  0.2817
 1621SOL    HW116496   3.901   0.120   2.398  0.4301 -3.4773 -0.3858
 1621SOL    HW216497   3.943   0.125   2.253 -1.3713 -1.7576 -1.6076
 1622SOL     OW16498   3.824   0.491   5.838 -0.1066  0.0476 -0.3360
 1622SOL    HW116499   3.809   0.400   5.812  1.9345  0.4396 -2.8443
 1622SOL    HW216500   3.841   0.496   5.932 -0.4427 -1.0325 -0.2165
 1623SOL     OW16501   1.979   3.646  15.918  0.2803 -0.7715  0.1982
 1623SOL    HW116502   1.918   3.639  15.991  0.5195  3.4310  0.7970
 1623SOL    HW216503   2.040   3.702  15.965  0.1369  0.0180 -0.5621
 1624SOL     OW16504   0.734   0.171   7.229  0.3186  0.4046  0.1095
 1624SOL    HW116505   0.666   0.172   7.296  1.0739  3.3858  0.8410
 1624SOL    HW216506   0.808   0.125   7.270  1.8293 -0.1845 -3.2361
 1625SOL     OW16507   0.096   1.201   0.877 -0.3873 -0.1688 -0.1856
 1625SOL    HW116508   0.152   1.277   0.861 -0.0789 -0.7373 -1.7653
 1625SOL    HW216509   0.138   1.133   0.825  1.1260  0.3114  0.4037
 1626SOL     OW16510   2.736   0.440  15.731  0.2949  0.0386 -0.1866
 1626SOL    HW116511   2.766   0.524  15.697 -1.9578 -0.5877 -3.7532
 1626SOL    HW216512   2.812   0.384  15.743 -1.1670 -1.3894  2.6050
 1627SOL     OW16513   2.869   1.461   5.695  0.1206 -0.5181  0.3133
 1627SOL    HW116514   2.844   1.553   5.703  0.8304 -0.1597 -1.7910
 1627SOL    HW216515   2.802   1.423   5.752 -0.6137  0.1924 -0.0794
 1628SOL     OW16516   2.574   0.767   3.621 -0.7043  0.2039 -0.0463
 1628SOL    HW116517   2.626   0.844   3.599 -0.4738 -0.0511 -0.4011
 1628SOL    HW216518   2.590   0.747   3.713 -1.1632  0.5013  0.0953
 1629SOL     OW16519   0.605   4.387  16.648 -0.0043  0.2255 -0.4606
 1629SOL    HW116520   0.566   4.340  16.722  0.9070  1.5845  0.9025
 1629SOL    HW216521   0.689   4.405  16.692 -1.7755 -1.7446  3.7188
 1630SOL     OW16522   4.294   3.590   4.240 -0.2181 -0.6014  0.0932
 1630SOL    HW116523   4.297   3.676   4.283 -0.4726  0.6287 -2.3681
 1630SOL    HW216524   4.277   3.608   4.148  4.7326  0.2515 -0.6294
 1631SOL     OW16525   2.762   1.923   5.849 -0.6805  0.1495 -0.4586
 1631SOL    HW116526   2.785   1.849   5.905 -4.5407 -0.3060  0.5329
 1631SOL    HW216527   2.715   1.979   5.911 -0.9210  1.3264 -1.6852
 1632SOL     OW16528   0.538   0.170   8.591  0.0442  0.2517  0.1794
 1632SOL    HW116529   0.461   0.140   8.544 -0.7210 -0.6540  2.0311
 1632SOL    HW216530   0.536   0.115   8.669  1.0074 -1.1053 -0.7595
 1633SOL     OW16531   4.454   4.655   3.964 -0.8314  0.0296  0.1382
 1633SOL    HW116532   4.364   4.680   3.982 -1.1884 -2.6311  2.0850
 1633SOL    HW216533   4.466   4.703   3.882  1.7577 -2.2066 -0.8096
 1634SOL     OW16534   0.566   3.104  17.111  0.0619 -0.4135  0.2785
 1634SOL    HW116535   0.514   3.034  17.150  1.1329 -2.0269 -1.1927
 1634SOL    HW216536   0.560   3.079  17.018 -0.5224 -1.6132  0.6327
 1635SOL     OW16537   1.316   0.275  16.787  0.3030  0.1574 -0.0797
 1635SOL    HW116538   1.292   0.361  16.822  1.0236 -0.0576  0.9609
 1635SOL    HW216539   1.354   0.298  16.703  0.4615 -1.0570 -0.3294
 1636SOL     OW16540   3.530   2.578   7.009  0.3676  0.3309  0.3466
 1636SOL    HW116541   3.604   2.567   6.950 -0.6463  1.5387 -1.1384
 1636SOL    HW216542   3.542   2.503   7.067 -1.3880 -0.3840 -0.2219
 1637SOL     OW16543   3.007   0.972   8.487 -0.2974 -0.0679 -0.7872
 1637SOL    HW116544   2.967   1.056   8.511 -0.4142 -0.2612 -0.3084
 1637SOL    HW216545   2.946   0.937   8.422 -1.4473  0.0496  0.2293
 1638SOL     OW16546   1.761   2.873   2.618  0.5827 -0.3115  0.4853
 1638SOL    HW116547   1.723   2.905   2.536 -0.0663 -0.5560  0.6993
 1638SOL    HW216548   1.740   2.779   2.623  1.0621 -0.4829 -0.6903
 1639SOL     OW16549   2.273   2.607   6.326  0.0496 -0.7512 -0.3121
 1639SOL    HW116550   2.193   2.559   6.349 -1.9364  2.5748 -0.2360
 1639SOL    HW216551   2.341   2.569   6.381  2.3869  0.8989 -2.0638
 1640SOL     OW16552   3.487   1.905  11.995  0.2945  0.6042  0.3079
 1640SOL    HW116553   3.405   1.903  11.945  1.2343  1.0499 -1.2372
 1640SOL    HW216554   3.508   1.998  11.996  0.8092  0.4942 -0.2323
 1641SOL     OW16555   0.193   2.267  14.870  0.3862  0.1710 -0.5937
 1641SOL    HW116556   0.130   2.269  14.798  0.0878 -1.6354 -0.3670
 1641SOL    HW216557   0.141   2.298  14.944  0.1452 -0.3642 -0.5424
 1642SOL     OW16558   1.485   1.036   5.926 -0.0406 -0.5206 -0.8105
 1642SOL    HW116559   1.572   1.003   5.905 -0.1957 -1.5873  0.2559
 1642SOL    HW216560   1.504   1.129   5.911  1.5847 -0.4676  1.7342
 1643SOL     OW16561   0.319   1.041  17.706  0.1886  0.2042 -0.2978
 1643SOL    HW116562   0.304   1.133  17.730  1.0420  0.4023 -0.5314
 1643SOL    HW216563   0.230   1.007  17.717  0.9696 -0.6043  3.7678
 1644SOL     OW16564   2.627   3.435   5.586  0.2031 -0.6912  0.2844
 1644SOL    HW116565   2.556   3.383   5.623 -1.7528  0.5519 -1.6409
 1644SOL    HW216566   2.613   3.523   5.622 -0.5694 -0.8088  0.2784
 1645SOL     OW16567   0.199   3.127  14.596  0.4057  0.3714  0.4121
 1645SOL    HW116568   0.212   3.162  14.507  0.8573  0.1690  0.3978
 1645SOL    HW216569   0.267   3.060  14.592 -2.3862 -2.5276  1.1614
 1646SOL     OW16570   0.617   3.563   4.794  0.1215 -0.1410  0.4129
 1646SOL    HW116571   0.701   3.587   4.756  0.5331 -0.6414  1.0198
 1646SOL    HW216572   0.620   3.470   4.770  0.3540 -0.0182 -0.0317
 1647SOL     OW16573   4.101   1.238   1.043 -0.1963 -0.0296  0.3960
 1647SOL    HW116574   4.103   1.301   0.972 -0.3502 -1.2125 -0.6578
 1647SOL    HW216575   4.140   1.290   1.114 -1.8142 -0.9840  1.9931
 1648SOL     OW16576   3.638   1.873   3.539 -0.4795 -0.6036 -0.0758
 1648SOL    HW116577   3.591   1.893   3.458 -0.7368 -0.6592  0.0596
 1648SOL    HW216578   3.644   1.962   3.575  1.1857 -0.7723  0.0489
 1649SOL     OW16579   0.332   1.807   8.274 -0.5788 -0.3075 -0.1471
 1649SOL    HW116580   0.373   1.828   8.191  1.3916 -0.0274  0.9017
 1649SOL    HW216581   0.247   1.849   8.258  0.0242  0.0036 -2.4558
 1650SOL     OW16582   4.390   1.921   2.201 -0.4280  0.2598  0.2912
 1650SOL    HW116583   4.416   1.880   2.119 -0.5654 -0.2460  0.5025
 1650SOL    HW216584   4.450   1.996   2.196 -0.4510  0.1553 -1.4585
 1651SOL     OW16585   2.432   1.068   8.619  0.6650  0.4995  0.0254
 1651SOL    HW116586   2.429   1.080   8.714  0.8892  2.1832 -0.1769
 1651SOL    HW216587   2.389   1.151   8.597  1.1983  0.1434 -2.3271
 1652SOL     OW16588   4.220   4.586   8.477 -0.2418 -0.3511 -0.1886
 1652SOL    HW116589   4.244   4.567   8.387 -0.4506 -0.2070 -0.2724
 1652SOL    HW216590   4.210   4.498   8.512 -0.1087  0.4031  1.7658
 1653SOL     OW16591   4.143   4.541  10.024 -0.0575 -0.4037 -0.0499
 1653SOL    HW116592   4.162   4.488  10.102  0.0836 -0.8459 -0.3800
 1653SOL    HW216593   4.105   4.624  10.052  1.1656  0.2427 -0.3300
 1654SOL     OW16594   0.071   2.503   7.228  0.0349 -0.1075 -0.1839
 1654SOL    HW116595   0.157   2.461   7.224 -0.2609 -0.8104  0.7879
 1654SOL    HW216596   0.086   2.568   7.297 -3.8067  0.9342 -0.2998
 1655SOL     OW16597   4.150   0.330   6.562  0.0390 -0.1585 -0.4695
 1655SOL    HW116598   4.118   0.292   6.480 -3.2383  0.6344  0.4449
 1655SOL    HW216599   4.216   0.263   6.580  0.7123  0.8799  0.8723
 1656SOL     OW16600   1.667   2.615   4.892 -0.4464 -0.4734 -0.2905
 1656SOL    HW116601   1.717   2.680   4.842  0.1282 -0.6293  0.0871
 1656SOL    HW216602   1.730   2.543   4.889  3.1551  2.6432  0.6323
 1657SOL     OW16603   3.449   3.238  12.228  0.2008  0.3021 -0.4269
 1657SOL    HW116604   3.421   3.179  12.158  1.1630 -0.6502 -0.0183
 1657SOL    HW216605   3.528   3.192  12.258 -0.6464 -0.0050  1.2890
 1658SOL     OW16606   3.712   1.612  17.150  0.1867  0.5909  0.3817
 1658SOL    HW116607   3.754   1.527  17.166  0.1935  0.1142 -2.0920
 1658SOL    HW216608   3.790   1.667  17.150  0.1793  0.5962  0.7121
 1659SOL     OW16609   4.493   2.154   3.755 -0.0628  0.4422 -0.1691
 1659SOL    HW116610   4.421   2.189   3.807  0.9148 -0.1624  1.6111
 1659SOL    HW216611   4.542   2.107   3.823 -2.4594  1.0549  1.9988
 1660SOL     OW16612   2.905   0.110   7.359  0.4109 -0.2924 -0.5176
 1660SOL    HW116613   2.998   0.087   7.348  0.3073 -0.5377 -0.8504
 1660SOL    HW216614   2.909   0.195   7.403 -0.1911  0.0139 -1.0635
 1661SOL     OW16615   2.926   3.638   1.610 -0.8571 -0.1834 -0.2801
 1661SOL    HW116616   2.912   3.591   1.527  0.5785  1.1482 -1.2760
 1661SOL    HW216617   2.909   3.727   1.579 -1.2066 -1.1958 -3.0542
 1662SOL     OW16618   2.794   2.744   7.056  0.4177 -0.0964 -0.1071
 1662SOL    HW116619   2.847   2.684   7.003 -1.1615  0.7531 -2.6358
 1662SOL    HW216620   2.813   2.833   7.025  0.5117 -0.4114 -0.9448
 1663SOL     OW16621   4.550   0.319   5.600 -0.6173  0.0589 -0.0755
 1663SOL    HW116622   4.499   0.399   5.612  0.4689  0.8194 -0.6048
 1663SOL    HW216623   4.488   0.254   5.634  0.8761 -0.4253  1.7264
 1664SOL     OW16624   2.714   1.947   6.851 -0.9943  0.1571 -0.5500
 1664SOL    HW116625   2.726   1.923   6.760  0.2977  3.6690 -1.3076
 1664SOL    HW216626   2.682   1.865   6.887  1.1246 -1.2620 -1.9271
 1665SOL     OW16627   3.539   1.169   4.047  0.4379  0.1279 -0.0890
 1665SOL    HW116628   3.516   1.077   4.058 -0.3134  0.1886 -1.0819
 1665SOL    HW216629   3.492   1.184   3.965  2.4161  0.5446 -1.1351
 1666SOL     OW16630   1.851   2.274   9.558  0.1586  1.2287  0.0499
 1666SOL    HW116631   1.809   2.303   9.639  0.1279  0.7266  0.2142
 1666SOL    HW216632   1.823   2.183   9.563 -2.2970  2.1727  3.1648
 1667SOL     OW16633   3.063   0.399   6.857 -0.3295  0.0845  0.5127
 1667SOL    HW116634   3.053   0.491   6.882  0.7162 -0.4334  2.8304
 1667SOL    HW216635   3.123   0.417   6.785 -3.0601 -0.6628 -1.9778
 1668SOL     OW16636   2.667   3.332  11.625 -0.1180  0.4712  0.2049
 1668SOL    HW116637   2.706   3.398  11.683 -0.3316 -0.5421  1.4972
 1668SOL    HW216638   2.641   3.268  11.691 -1.4731 -1.2488 -2.0123
 1669SOL     OW16639   1.076   2.289   6.720  0.0220  0.2969 -0.8753
 1669SOL    HW116640   1.146   2.330   6.773 -0.0166  1.2366 -1.5488
 1669SOL    HW216641   1.002   2.346   6.741 -0.5563 -0.2285 -1.5077
 1670SOL     OW16642   0.030   2.796  16.008  0.4575  0.1890 -0.2605
 1670SOL    HW116643   0.012   2.785  16.102  1.1501  0.2269 -0.1212
 1670SOL    HW216644   0.121   2.822  16.021  0.1456  0.9858  0.3697
 1671SOL     OW16645   3.746   1.177   3.100  0.6450  0.0746 -0.8046
 1671SOL    HW116646   3.755   1.172   3.196  0.2170  0.0200 -0.7699
 1671SOL    HW216647   3.785   1.263   3.087 -0.9274  1.0817  1.0712
 1672SOL     OW16648   4.336   1.703   7.079  0.4267  0.4984 -0.4053
 1672SOL    HW116649   4.345   1.789   7.039 -1.5414  1.7021  1.7496
 1672SOL    HW216650   4.287   1.728   7.157  0.2077 -0.2440 -0.3030
 1673SOL     OW16651   0.913   0.420   1.885  0.3148  0.7591  0.1550
 1673SOL    HW116652   0.943   0.451   1.970 -1.0117 -0.1721  0.9739
 1673SOL    HW216653   0.832   0.386   1.922 -0.1653  1.3029 -0.3891
 1674SOL     OW16654   1.196   4.465   4.334  0.3576  0.3357  0.1009
 1674SOL    HW116655   1.137   4.421   4.396 -0.1482 -0.2809 -0.8121
 1674SOL    HW216656   1.189   4.400   4.265  0.4376  2.9685 -2.3746
 1675SOL     OW16657   3.949   3.153  11.917 -0.5498 -0.5054  0.4375
 1675SOL    HW116658   3.860   3.161  11.881 -0.2020  1.4414  0.0547
 1675SOL    HW216659   3.935   3.105  11.998  0.9845 -0.4982  0.7003
 1676SOL     OW16660   4.657   0.878   8.017  0.3959 -0.1524  0.2118
 1676SOL    HW116661   4.590   0.888   8.085 -1.3972  1.5965 -1.8106
 1676SOL    HW216662   4.731   0.845   8.068 -0.8978 -0.4504  1.8933
 1677SOL     OW16663   4.061   1.738   8.389  0.2322  0.3764  0.0017
 1677SOL    HW116664   3.978   1.690   8.392  0.0601  0.7260  0.7095
 1677SOL    HW216665   4.039   1.823   8.351  1.2484  1.5692  2.0746
 1678SOL     OW16666   3.504   1.895   5.003  0.1963 -0.1486  0.5884
 1678SOL    HW116667   3.414   1.922   5.022 -0.1790  0.3557 -1.8859
 1678SOL    HW216668   3.504   1.857   4.915  2.1166  1.5048 -0.1196
 1679SOL     OW16669   0.759   1.534   1.404  0.4573  0.2269  0.0271
 1679SOL    HW116670   0.765   1.553   1.497 -0.2363 -0.7771  0.2795
 1679SOL    HW216671   0.762   1.438   1.412 -1.1261  0.0174 -1.7112
 1680SOL     OW16672   0.431   1.688  13.487 -0.1560 -0.6532 -0.0220
 1680SOL    HW116673   0.464   1.776  13.473  2.6457 -1.9260 -1.4290
 1680SOL    HW216674   0.340   1.696  13.457 -0.0459  0.7964  0.0320
 1681SOL     OW16675   3.557   3.216   9.786 -0.2948  0.5750 -0.3749
 1681SOL    HW116676   3.533   3.152   9.719  2.1251 -0.7991  0.0678
 1681SOL    HW216677   3.578   3.294   9.737  2.3053 -1.1961 -2.0515
 1682SOL     OW16678   0.265   2.053  17.422 -0.2558 -0.0617 -0.0404
 1682SOL    HW116679   0.257   2.087  17.333  0.5090  2.9318  1.0495
 1682SOL    HW216680   0.251   1.958  17.419  1.4208 -0.2978 -0.7398
 1683SOL     OW16681   1.275   1.327  12.897 -0.8116 -0.5813  0.3483
 1683SOL    HW116682   1.353   1.273  12.909  0.3266  1.4660  2.2739
 1683SOL    HW216683   1.220   1.260  12.858 -1.7882  0.7512 -0.5493
 1684SOL     OW16684   2.473   0.952   7.161  0.6299 -0.4833 -0.0157
 1684SOL    HW116685   2.416   0.961   7.084  0.7085 -2.0893 -0.2585
 1684SOL    HW216686   2.559   0.976   7.126  0.8980 -3.3514 -1.3292
 1685SOL     OW16687   1.749   1.487   2.959  0.4579 -0.6189  0.5295
 1685SOL    HW116688   1.704   1.417   2.911  1.6017  1.2802 -3.2759
 1685SOL    HW216689   1.729   1.573   2.922  1.8281 -0.2127  0.7458
 1686SOL     OW16690   3.023   0.119   6.125 -0.0015  0.3336 -0.3349
 1686SOL    HW116691   2.976   0.178   6.184 -1.4564 -0.6773 -0.4861
 1686SOL    HW216692   2.960   0.123   6.053 -1.2073  2.4920  0.8326
 1687SOL     OW16693   2.864   2.241   3.529  0.2125 -0.3729  0.5324
 1687SOL    HW116694   2.898   2.331   3.526  1.2465 -0.7506  1.0421
 1687SOL    HW216695   2.827   2.242   3.441 -1.9787 -2.0198  1.4448
 1688SOL     OW16696   1.977   3.897   7.182  0.0626 -0.3390 -0.0117
 1688SOL    HW116697   2.046   3.962   7.195 -0.0189  0.2865 -2.7300
 1688SOL    HW216698   1.976   3.888   7.087 -2.0945 -0.4701  0.0244
 1689SOL     OW16699   4.052   4.592   5.791 -0.1998 -0.4166 -0.1337
 1689SOL    HW116700   4.068   4.644   5.869 -0.8243 -1.4953  0.7240
 1689SOL    HW216701   3.963   4.618   5.765 -0.7527 -0.0755  2.0851
 1690SOL     OW16702   1.913   2.229   3.754  0.3267  0.1686  0.4335
 1690SOL    HW116703   1.876   2.274   3.677 -0.3782  0.1169  0.7386
 1690SOL    HW216704   1.870   2.274   3.827 -2.1326 -1.6691  0.1158
 1691SOL     OW16705   0.791   4.715  10.162 -0.0281 -0.3427 -0.2720
 1691SOL    HW116706   0.696   4.706  10.157 -0.3030  0.6959  2.7424
 1691SOL    HW216707   0.795   0.027  10.246 -0.5076 -0.3191 -0.2607
 1692SOL     OW16708   1.515   0.597   6.088  0.6983  0.7099 -0.1573
 1692SOL    HW116709   1.456   0.666   6.059 -0.3071 -1.0654 -2.3267
 1692SOL    HW216710   1.501   0.609   6.182  1.3897 -0.0131  0.0386
 1693SOL     OW16711   1.767   3.225   3.012  0.8332 -0.4704  0.9058
 1693SOL    HW116712   1.711   3.155   3.048 -0.0189  1.3855  3.1694
 1693SOL    HW216713   1.787   3.196   2.923 -0.0180  1.0810  0.2138
 1694SOL     OW16714   2.405   2.933  14.084 -0.1830 -0.5893 -0.8469
 1694SOL    HW116715   2.336   2.954  14.020  1.2039 -0.4319 -2.2942
 1694SOL    HW216716   2.365   2.861  14.131  1.0253 -1.9613 -1.9220
 1695SOL     OW16717   1.591   2.996  16.163 -0.1282  0.4317 -0.0526
 1695SOL    HW116718   1.615   2.994  16.255 -0.8252 -1.6622  0.0886
 1695SOL    HW216719   1.615   3.086  16.142  0.9398  0.3737  0.9635
 1696SOL     OW16720   3.413   4.240   2.059 -0.3560  0.4538 -0.3002
 1696SOL    HW116721   3.382   4.311   2.002 -0.4096  0.1370 -0.6650
 1696SOL    HW216722   3.475   4.192   2.004 -0.5753  0.3391 -0.4485
 1697SOL     OW16723   0.616   1.782  14.742  0.0315 -0.1837  0.1157
 1697SOL    HW116724   0.666   1.762  14.821  1.2108  0.9777 -0.3455
 1697SOL    HW216725   0.569   1.700  14.728 -0.5964 -0.0515  1.4610
 1698SOL     OW16726   4.599   1.467  14.041 -0.5036 -0.0897  0.1085
 1698SOL    HW116727   4.536   1.511  13.983 -0.2281 -0.1878 -0.2643
 1698SOL    HW216728   4.672   1.529  14.037 -1.1264  0.4462 -3.1222
 1699SOL     OW16729   1.355   4.010  17.652 -0.0494 -0.2967  0.6153
 1699SOL    HW116730   1.400   3.993  17.735  2.5988  1.3156 -0.5013
 1699SOL    HW216731   1.325   4.101  17.662  2.3168  1.0440 -4.3166
 1700SOL     OW16732   3.232   0.152   7.724  0.0624  0.1042  0.6575
 1700SOL    HW116733   3.233   0.122   7.815 -0.9724 -0.2330  0.5636
 1700SOL    HW216734   3.179   0.231   7.733 -2.1736 -0.9891 -2.7959
 1701SOL     OW16735   1.306   4.345  13.163  0.2270  0.0885  0.2856
 1701SOL    HW116736   1.275   4.290  13.236  0.6688  0.2868  0.6239
 1701SOL    HW216737   1.285   4.427  13.207 -1.3214 -0.3238  0.3168
 1702SOL     OW16738   1.686   1.549   5.956  0.1760 -0.3590  0.1568
 1702SOL    HW116739   1.688   1.558   5.861  0.2846  0.0855  0.2014
 1702SOL    HW216740   1.774   1.573   5.984  0.4031 -1.1030  0.0653
 1703SOL     OW16741   4.202   1.456   7.747  0.3109 -0.1477  0.4805
 1703SOL    HW116742   4.107   1.446   7.756  0.4842 -2.2266 -0.1768
 1703SOL    HW216743   4.234   1.383   7.799  0.4543 -0.4949 -0.1002
 1704SOL     OW16744   4.044   1.454  13.911  0.6179 -0.3868 -0.5259
 1704SOL    HW116745   4.138   1.457  13.890  0.4509  0.5748 -1.1131
 1704SOL    HW216746   4.015   1.525  13.854 -0.3999 -1.6936 -1.6477
 1705SOL     OW16747   0.512   4.108   7.399  0.1060 -0.1794 -0.1948
 1705SOL    HW116748   0.442   4.167   7.374  0.1822 -0.0238 -0.0328
 1705SOL    HW216749   0.473   4.062   7.473  0.0910  0.2177  0.0372
 1706SOL     OW16750   1.170   0.192  16.992 -0.3836  0.2813 -0.0330
 1706SOL    HW116751   1.198   0.197  16.901 -3.6160  0.3957 -0.9987
 1706SOL    HW216752   1.241   0.231  17.044  1.0670 -0.7887 -1.2437
 1707SOL     OW16753   1.061   1.834   4.816 -0.2477  0.1436 -0.1369
 1707SOL    HW116754   1.050   1.905   4.753 -0.7016  1.5948  1.6057
 1707SOL    HW216755   1.072   1.757   4.759 -1.7779 -1.3173  1.5305
 1708SOL     OW16756   4.656   2.184  15.311 -0.3876 -0.5018 -0.1148
 1708SOL    HW116757   4.734   2.137  15.342 -1.0114 -1.6860 -0.3245
 1708SOL    HW216758   4.595   2.115  15.286 -0.6321  0.1075 -1.1802
 1709SOL     OW16759   3.288   2.946   9.557 -0.0152  0.0097  0.0308
 1709SOL    HW116760   3.282   2.851   9.562 -2.6910  0.2260  0.9308
 1709SOL    HW216761   3.244   2.976   9.478 -0.6886  0.2108  0.4818
 1710SOL     OW16762   1.862   2.161   6.453  0.1066  0.1600 -0.2199
 1710SOL    HW116763   1.858   2.155   6.358  0.8719 -1.1782 -0.1673
 1710SOL    HW216764   1.808   2.083   6.467 -2.2047  1.1897 -3.4115
 1711SOL     OW16765   0.628   0.046   7.723 -0.2834  0.2701  0.1248
 1711SOL    HW116766   0.634   0.063   7.817  0.0091  0.0012  0.1546
 1711SOL    HW216767   0.576   4.700   7.718  2.0298 -1.1037 -2.0881
 1712SOL     OW16768   0.846   1.515   4.911 -0.1851  0.3585 -0.0779
 1712SOL    HW116769   0.827   1.590   4.968 -2.9486 -0.9164  0.6544
 1712SOL    HW216770   0.875   1.563   4.833  2.4198 -1.1678 -0.0475
 1713SOL     OW16771   3.993   3.350   4.277  0.1613 -0.3006  0.2552
 1713SOL    HW116772   4.075   3.340   4.327  0.1638  1.0440  0.5012
 1713SOL    HW216773   4.027   3.333   4.190  0.4215  1.5848  0.0058
 1714SOL     OW16774   2.800   4.304   4.861 -0.1069 -0.3610 -0.1396
 1714SOL    HW116775   2.851   4.383   4.880  0.1864 -0.6469  0.2634
 1714SOL    HW216776   2.714   4.333   4.889 -0.1416 -1.1077  0.4962
 1715SOL     OW16777   2.567   2.757   6.398  0.1353  0.0576  0.7504
 1715SOL    HW116778   2.568   2.847   6.367  0.8701 -0.1186  0.2505
 1715SOL    HW216779   2.652   2.728   6.366 -0.4947 -2.2188  1.1266
 1716SOL     OW16780   2.029   1.700   1.006 -0.1807 -0.2385 -0.8750
 1716SOL    HW116781   1.984   1.666   0.929 -1.8516  0.6409 -0.2896
 1716SOL    HW216782   2.083   1.627   1.037 -1.4593 -1.3128 -1.1868
 1717SOL     OW16783   0.180   2.731  11.014 -0.3761 -0.0261 -0.1443
 1717SOL    HW116784   0.204   2.664  11.077 -2.4869 -0.4489  0.2111
 1717SOL    HW216785   0.169   2.805  11.074  0.0226  0.4700 -0.6730
 1718SOL     OW16786   2.860   2.459  13.684  0.7921  0.2028 -0.3725
 1718SOL    HW116787   2.820   2.372  13.692 -0.4493  0.8626  0.7452
 1718SOL    HW216788   2.789   2.522  13.698  1.3009  1.1660 -2.1342
 1719SOL     OW16789   0.726   4.715   5.315  0.5423  0.3464 -0.4973
 1719SOL    HW116790   0.787   0.023   5.375  1.6789  0.5061 -1.7726
 1719SOL    HW216791   0.732   0.041   5.241  2.0272 -1.8711 -2.1820
 1720SOL     OW16792   3.894   2.396   8.316  0.5008 -0.1838 -0.4033
 1720SOL    HW116793   3.868   2.458   8.248  0.3055  1.6336  1.3312
 1720SOL    HW216794   3.830   2.400   8.387  0.4189 -3.2385 -0.3424
 1721SOL     OW16795   3.620   3.228   8.594  1.0308  0.2762  0.0217
 1721SOL    HW116796   3.670   3.236   8.676 -1.1257  0.2478  1.3553
 1721SOL    HW216797   3.575   3.312   8.600  1.1325  0.2709  0.9708
 1722SOL     OW16798   4.119   2.845   2.310 -0.3432 -0.1267 -0.5357
 1722SOL    HW116799   4.197   2.833   2.365 -0.3053 -0.0166 -0.5660
 1722SOL    HW216800   4.090   2.935   2.328  0.0345 -0.4965  1.9056
 1723SOL     OW16801   4.268   3.271   6.245 -0.3746 -0.4401  0.2127
 1723SOL    HW116802   4.320   3.305   6.317  1.9304 -3.2393 -0.1309
 1723SOL    HW216803   4.309   3.187   6.226  1.0882 -0.2317  2.5058
 1724SOL     OW16804   3.801   3.118   4.078 -0.5705 -0.1191  0.5334
 1724SOL    HW116805   3.775   3.145   4.166 -0.8367 -0.1376  0.4608
 1724SOL    HW216806   3.738   3.172   4.031  1.2805  1.6321  0.0441
 1725SOL     OW16807   1.279   0.443   6.148  0.7877  0.4706  0.8533
 1725SOL    HW116808   1.248   0.354   6.167 -0.4089  0.7873  0.3925
 1725SOL    HW216809   1.374   0.431   6.140  1.1785  2.5386  2.2448
 1726SOL     OW16810   1.651   2.922  17.609  0.4085  0.0125 -0.1999
 1726SOL    HW116811   1.731   2.873  17.630  1.5423  2.2031  0.5577
 1726SOL    HW216812   1.585   2.853  17.615  0.6912 -0.4301 -2.2673
 1727SOL     OW16813   0.781   4.170   5.466  0.1297 -0.1010  0.1566
 1727SOL    HW116814   0.755   4.081   5.442  1.9387  1.0400 -6.0604
 1727SOL    HW216815   0.736   4.226   5.403  1.5991  2.1512  1.1243
 1728SOL     OW16816   0.409   2.427  14.743 -0.2076  0.3604 -0.1360
 1728SOL    HW116817   0.433   2.366  14.673  1.0904  0.4470  0.2278
 1728SOL    HW216818   0.349   2.372  14.792  0.7789 -1.5272 -1.0520
 1729SOL     OW16819   4.427   3.062   1.439 -0.2755 -0.2194  0.1653
 1729SOL    HW116820   4.419   2.968   1.427  0.2861 -0.3324  0.6756
 1729SOL    HW216821   4.442   3.101   1.353 -2.4729  0.6078  0.1590
 1730SOL     OW16822   4.227   3.213   1.585  0.1574  0.3801  0.0972
 1730SOL    HW116823   4.295   3.158   1.545 -1.2337 -0.5906 -0.9192
 1730SOL    HW216824   4.146   3.198   1.536  0.6995 -0.6766 -0.4787
 1731SOL     OW16825   3.055   2.632   4.099  0.2835 -0.2223 -0.0607
 1731SOL    HW116826   3.102   2.706   4.059  2.6355 -1.2482  0.8290
 1731SOL    HW216827   3.127   2.583   4.138  0.8103 -2.1978 -3.5112
 1732SOL     OW16828   0.086   3.040   1.488  0.5092 -0.3666 -0.0010
 1732SOL    HW116829   0.007   3.017   1.536 -0.3760  0.8145 -0.8670
 1732SOL    HW216830   0.148   2.988   1.539 -0.8403 -1.0314  0.9614
 1733SOL     OW16831   2.913   1.808   7.438 -0.6444 -0.5462  0.0630
 1733SOL    HW116832   2.874   1.787   7.523 -2.8280 -1.5444 -1.2092
 1733SOL    HW216833   2.838   1.821   7.381  0.1708 -0.9849 -1.1002
 1734SOL     OW16834   2.918   2.989   2.028 -0.1455 -0.3374 -0.5064
 1734SOL    HW116835   3.014   2.983   2.025 -0.3411 -3.4371 -0.2061
 1734SOL    HW216836   2.888   2.899   2.031 -1.7892  0.2041 -1.1539
 1735SOL     OW16837   4.018   0.408   2.920  0.3117 -0.5361 -0.1245
 1735SOL    HW116838   4.050   0.320   2.903 -1.0816 -1.4160  1.7885
 1735SOL    HW216839   3.954   0.430   2.852 -0.6506  1.3385  1.3516
 1736SOL     OW16840   3.041   0.776  12.788 -0.3265  0.4273 -0.1001
 1736SOL    HW116841   3.129   0.738  12.783  0.4130  2.2555 -1.2248
 1736SOL    HW216842   2.984   0.699  12.787 -1.9935  1.6683 -0.3298
 1737SOL     OW16843   0.784   4.513   6.319  0.0113  0.1797 -0.0616
 1737SOL    HW116844   0.692   4.518   6.294  0.6461  1.2911 -2.2324
 1737SOL    HW216845   0.808   4.421   6.312 -0.3652 -0.0186  1.2119
 1738SOL     OW16846   1.967   4.412   6.626 -0.8133  0.5138  0.2258
 1738SOL    HW116847   2.050   4.393   6.583 -0.6129  0.7099  0.5240
 1738SOL    HW216848   1.976   4.379   6.716  0.9411  2.6649  0.8375
 1739SOL     OW16849   3.295   3.625  16.596 -0.0014 -0.1835 -0.0104
 1739SOL    HW116850   3.202   3.602  16.597  0.5717 -2.5129 -0.1299
 1739SOL    HW216851   3.331   3.571  16.526 -0.9613  0.3057 -0.8886
 1740SOL     OW16852   4.498   4.638   3.060  0.0312  0.4406 -0.2366
 1740SOL    HW116853   4.486   4.680   3.146 -1.5484 -1.5968  0.5245
 1740SOL    HW216854   4.536   4.710   3.010 -1.3696  0.1465 -1.7277
 1741SOL     OW16855   2.804   2.659   6.133 -0.2569 -0.3019 -0.2887
 1741SOL    HW116856   2.877   2.713   6.163 -1.9827  2.5534 -1.2130
 1741SOL    HW216857   2.825   2.584   6.188 -2.6197  0.7377  1.9996
 1742SOL     OW16858   1.003   2.022   3.832  0.0984  0.0177 -0.2918
 1742SOL    HW116859   0.999   2.052   3.923 -1.9116 -1.8435  0.2206
 1742SOL    HW216860   1.077   1.961   3.836  1.1930  1.5083  2.3025
 1743SOL     OW16861   2.218   2.850   8.534  0.0948  0.4806 -0.2431
 1743SOL    HW116862   2.177   2.931   8.564  1.2298  0.7378  0.6427
 1743SOL    HW216863   2.214   2.864   8.440 -1.1066  1.8850  0.0232
 1744SOL     OW16864   0.880   0.259   3.456 -0.1793  0.1959  0.0229
 1744SOL    HW116865   0.961   0.260   3.405 -0.9584  0.9886 -1.1937
 1744SOL    HW216866   0.918   0.237   3.541  0.5325  1.9219  0.1464
 1745SOL     OW16867   1.804   0.802   3.546  0.3785 -0.0539  0.5168
 1745SOL    HW116868   1.805   0.883   3.495  0.5156 -0.2100  0.2765
 1745SOL    HW216869   1.891   0.767   3.528  0.7451  1.2990 -0.3631
 1746SOL     OW16870   0.974   3.718   2.969  0.6380 -0.2690  0.3797
 1746SOL    HW116871   0.946   3.806   2.996  4.1887  1.0403 -0.1373
 1746SOL    HW216872   0.900   3.662   2.991  0.4620 -0.6153 -1.0543
 1747SOL     OW16873   2.442   2.585   3.625  0.1926 -0.1127 -0.1333
 1747SOL    HW116874   2.377   2.647   3.659  0.2750 -0.4336  0.6259
 1747SOL    HW216875   2.495   2.546   3.695  0.7158 -0.5093 -0.7472
 1748SOL     OW16876   1.909   0.078   5.784  0.5597  0.0023 -0.2318
 1748SOL    HW116877   1.958   0.058   5.705  1.3220  0.6000  0.0881
 1748SOL    HW216878   1.961   0.049   5.859  0.0546  0.0871  0.1540
 1749SOL     OW16879   0.754   1.300   5.465 -0.9103  0.2186  0.2409
 1749SOL    HW116880   0.686   1.255   5.515  0.0635 -0.1017  1.2737
 1749SOL    HW216881   0.827   1.314   5.525 -0.9259  1.9528 -0.1428
 1750SOL     OW16882   1.218   2.578   2.756  1.0270 -0.0881  0.7361
 1750SOL    HW116883   1.223   2.546   2.846  1.5310 -0.6510  0.5072
 1750SOL    HW216884   1.250   2.666   2.772 -0.2707 -0.0064  2.8985
 1751SOL     OW16885   2.729   0.958  15.485 -0.1290  0.3695 -0.1299
 1751SOL    HW116886   2.782   0.891  15.441 -0.9242 -0.9404  0.8954
 1751SOL    HW216887   2.794   1.004  15.539  0.7671 -2.0331  0.8523
 1752SOL     OW16888   4.589   0.690   3.987 -1.2207 -0.0409 -0.3178
 1752SOL    HW116889   4.568   0.755   4.054 -0.9917  0.4671 -0.7345
 1752SOL    HW216890   4.669   0.729   3.951 -0.2428 -2.6941 -0.9911
 1753SOL     OW16891   2.984   4.167   1.846 -0.0533  0.5078 -0.1510
 1753SOL    HW116892   2.953   4.102   1.910 -0.7060 -0.9995 -1.9945
 1753SOL    HW216893   3.003   4.238   1.908  1.5306 -0.3905  0.3987
 1754SOL     OW16894   0.639   2.812   8.036  0.2522  0.3575  0.1543
 1754SOL    HW116895   0.728   2.783   8.016  0.3940  0.7146  0.2652
 1754SOL    HW216896   0.652   2.901   8.069 -1.8549  0.8696 -0.3801
 1755SOL     OW16897   1.599   4.127   7.140 -0.2795  0.3151 -0.0271
 1755SOL    HW116898   1.604   4.039   7.103 -2.7937  0.5210 -0.8325
 1755SOL    HW216899   1.586   4.175   7.059  0.9129 -1.6661 -1.3816
 1756SOL     OW16900   1.476   2.249  17.083  0.2579  0.1710 -0.2504
 1756SOL    HW116901   1.443   2.192  17.014  1.9423 -2.0120  0.7122
 1756SOL    HW216902   1.550   2.292  17.041 -0.0614  1.1206  0.1648
 1757SOL     OW16903   0.583   2.169   6.384 -0.1537  0.1674  0.0879
 1757SOL    HW116904   0.666   2.157   6.338 -0.4092  1.8432 -0.8111
 1757SOL    HW216905   0.565   2.262   6.369  0.7668 -0.1557 -2.9542
 1758SOL     OW16906   2.401   2.196   8.794  0.0546 -0.2950  0.5027
 1758SOL    HW116907   2.348   2.146   8.732 -1.6783  0.8400  1.0959
 1758SOL    HW216908   2.487   2.196   8.752  0.2776  0.3242  0.9652
 1759SOL     OW16909   2.187   1.624  15.871  0.1437  0.0022  0.0345
 1759SOL    HW116910   2.204   1.648  15.780 -0.7080 -0.9690 -0.3743
 1759SOL    HW216911   2.187   1.715  15.902  0.4216  0.0604 -0.1322
 1760SOL     OW16912   1.078   0.652   8.119  0.4093  0.4762 -0.4736
 1760SOL    HW116913   1.161   0.676   8.076  1.1088 -0.6487  0.2368
 1760SOL    HW216914   1.111   0.663   8.208  2.2518  0.4493 -1.1359
 1761SOL     OW16915   3.139   2.016   1.809 -0.6854 -0.6896 -0.0686
 1761SOL    HW116916   3.164   2.107   1.822  0.3801 -0.9475 -0.2730
 1761SOL    HW216917   3.051   2.024   1.772 -1.0068  0.2924  0.9308
 1762SOL     OW16918   0.461   3.659   7.381  0.0243  0.0520 -0.0861
 1762SOL    HW116919   0.503   3.716   7.446 -0.1098 -1.2456  1.1534
 1762SOL    HW216920   0.519   3.582   7.388  1.7965  1.1407 -2.8776
 1763SOL     OW16921   3.569   2.435  15.777  0.0471  0.1187  0.4145
 1763SOL    HW116922   3.646   2.405  15.729 -0.3964 -2.4525  1.3353
 1763SOL    HW216923   3.574   2.529  15.761  1.7329 -0.3980 -2.1809
 1764SOL     OW16924   4.372   1.558  14.801  0.0789 -0.1108 -0.5283
 1764SOL    HW116925   4.455   1.511  14.809 -1.1544 -1.6664  3.0756
 1764SOL    HW216926   4.393   1.616  14.728 -1.8073 -1.3417 -2.0696
 1765SOL     OW16927   4.002   1.818   7.065  0.6662  0.1316  0.0316
 1765SOL    HW116928   4.046   1.823   7.149  2.8707  0.3392 -1.1490
 1765SOL    HW216929   3.944   1.747   7.092 -0.5741  2.7239  4.0615
 1766SOL     OW16930   4.373   1.560  11.664  0.1395 -0.1018 -0.2415
 1766SOL    HW116931   4.428   1.513  11.727 -0.6625 -0.6171  0.0777
 1766SOL    HW216932   4.311   1.603  11.723  0.3643  1.4159 -1.0968
 1767SOL     OW16933   2.344   3.084   6.642 -0.2739 -0.0201  0.1191
 1767SOL    HW116934   2.270   3.106   6.698  0.7650 -0.6201  1.7324
 1767SOL    HW216935   2.371   2.997   6.671 -0.8084 -0.9435 -2.2005
 1768SOL     OW16936   1.795   3.337  16.249 -0.0353 -0.3699 -0.1059
 1768SOL    HW116937   1.706   3.303  16.238 -0.4227  0.6913 -0.2775
 1768SOL    HW216938   1.767   3.420  16.287  0.9714 -0.0359 -0.1090
 1769SOL     OW16939   0.368   3.707   8.640 -0.1815 -0.3005  0.2146
 1769SOL    HW116940   0.354   3.764   8.716 -1.1086 -1.0583  0.6279
 1769SOL    HW216941   0.401   3.624   8.676 -0.8637 -0.4051  0.6148
 1770SOL     OW16942   3.373   3.427   2.845 -0.1709 -0.4212  0.8430
 1770SOL    HW116943   3.461   3.425   2.806  0.0450  0.5150  1.2964
 1770SOL    HW216944   3.317   3.410   2.768 -2.6048  0.1700  2.4896
 1771SOL     OW16945   4.491   0.654  11.528 -0.4234 -0.4390 -0.2999
 1771SOL    HW116946   4.519   0.582  11.471  0.8413 -1.9854  2.2828
 1771SOL    HW216947   4.493   0.723  11.461 -1.8364  1.4013  1.5609
 1772SOL     OW16948   2.896   0.400   4.139  0.4071  0.0959  0.0342
 1772SOL    HW116949   2.887   0.318   4.187 -0.9480  0.0088 -0.3910
 1772SOL    HW216950   2.991   0.412   4.138  0.2083  1.5400 -1.6109
 1773SOL     OW16951   3.925   0.553   5.472  0.5790 -0.3493  0.1409
 1773SOL    HW116952   3.992   0.504   5.426  2.0153  1.2541  0.5172
 1773SOL    HW216953   3.888   0.598   5.396 -0.3361  1.3079  1.5578
 1774SOL     OW16954   2.110   1.443   4.858  0.2897 -0.0885 -0.4023
 1774SOL    HW116955   2.106   1.390   4.938 -0.3646  1.1922  0.4193
 1774SOL    HW216956   2.156   1.379   4.804  2.9650 -0.4445  2.2873
 1775SOL     OW16957   0.132   4.217   4.921  0.0678  0.3181 -0.4437
 1775SOL    HW116958   0.039   4.221   4.945 -0.2932  0.6430 -1.8726
 1775SOL    HW216959   0.159   4.309   4.929 -0.4428  0.5071 -0.8621
 1776SOL     OW16960   2.251   2.476   8.070  0.2130  0.1821  0.3862
 1776SOL    HW116961   2.187   2.540   8.103 -0.7151 -0.5984  0.0755
 1776SOL    HW216962   2.202   2.432   8.001  1.1888  0.2771 -0.3620
 1777SOL     OW16963   0.158   4.324  13.164 -0.1700 -0.6068  0.2979
 1777SOL    HW116964   0.222   4.382  13.122 -0.0904 -1.9668 -1.4340
 1777SOL    HW216965   0.105   4.386  13.215 -2.0825 -0.2296 -2.1094
 1778SOL     OW16966   2.167   1.987   8.126  0.4118  0.2623  0.2314
 1778SOL    HW116967   2.210   2.057   8.076  1.1776  0.9452  1.8370
 1778SOL    HW216968   2.091   2.028   8.167  1.0030 -1.5616  3.1640
 1779SOL     OW16969   2.478   3.722   2.347 -0.7093 -0.0082 -0.0651
 1779SOL    HW116970   2.565   3.700   2.380 -0.0052  0.2594 -1.7743
 1779SOL    HW216971   2.468   3.812   2.378 -0.6109  0.8687 -2.5498
 1780SOL     OW16972   3.258   0.086   6.821 -0.1328 -0.0533 -0.0474
 1780SOL    HW116973   3.292   0.139   6.749  2.8285  0.7269  1.9450
 1780SOL    HW216974   3.337   0.040   6.851  3.3438  2.7892 -4.8535
 1781SOL     OW16975   0.300   0.278   5.579 -0.0563  0.0579  0.5242
 1781SOL    HW116976   0.211   0.302   5.551  0.4831  1.2301 -0.1778
 1781SOL    HW216977   0.344   0.298   5.496 -0.0327  2.7252  1.1610
 1782SOL     OW16978   4.620   1.427   6.805  0.3744  0.4327  0.4183
 1782SOL    HW116979   4.592   1.416   6.714 -0.1123  2.0016  0.3724
 1782SOL    HW216980   4.588   1.350   6.851 -0.2053  0.7432  0.5460
 1783SOL     OW16981   0.652   3.984   6.987  0.2448 -0.0350  0.1028
 1783SOL    HW116982   0.710   3.948   7.054 -1.5480 -2.1119  0.5234
 1783SOL    HW216983   0.579   4.010   7.043  0.2086 -0.3145  0.1858
 1784SOL     OW16984   4.501   4.168   1.173  0.5775  0.3801 -0.0845
 1784SOL    HW116985   4.567   4.147   1.239  1.0117  1.3188 -0.2281
 1784SOL    HW216986   4.535   4.250   1.137  1.6144 -0.7652 -1.6604
 1785SOL     OW16987   3.104   0.725   5.341  0.0689 -0.1174 -0.0647
 1785SOL    HW116988   3.185   0.693   5.382  0.8803 -0.7594 -2.1599
 1785SOL    HW216989   3.101   0.819   5.354 -4.1150  0.0090 -1.9625
 1786SOL     OW16990   0.521   2.707  17.098 -0.2495  0.4608 -0.2480
 1786SOL    HW116991   0.466   2.678  17.025  0.0584 -0.8694  0.0595
 1786SOL    HW216992   0.479   2.792  17.115 -0.7493  0.1356  0.1552
 1787SOL     OW16993   4.367   0.689   0.486 -0.1646 -0.1836  0.1527
 1787SOL    HW116994   4.365   0.734   0.570  0.3622  1.0882 -0.5266
 1787SOL    HW216995   4.307   0.615   0.498 -0.3809 -0.3142 -1.7400
 1788SOL     OW16996   4.555   2.596  15.185  0.3032  0.2098 -0.2512
 1788SOL    HW116997   4.645   2.627  15.191  0.3395 -0.1395  0.9702
 1788SOL    HW216998   4.513   2.667  15.136  2.1965  1.1775 -0.4890
 1789SOL     OW16999   4.162   0.664   5.985 -0.5078 -0.3799  0.0430
 1789SOL    HW117000   4.210   0.660   5.903 -0.6198 -1.4332  0.0322
 1789SOL    HW217001   4.218   0.610   6.040 -0.3051 -0.7821 -0.5604
 1790SOL     OW17002   0.900   3.703  16.940  0.1650 -0.0165 -0.3652
 1790SOL    HW117003   0.888   3.609  16.954 -1.9265  0.3944  0.4583
 1790SOL    HW217004   0.813   3.738  16.956  0.4972  0.0608  1.2686
 1791SOL     OW17005   1.727   0.536  14.002 -0.2781 -0.1325  0.4491
 1791SOL    HW117006   1.794   0.602  13.988  0.7509 -1.3400 -0.3393
 1791SOL    HW217007   1.720   0.487  13.920  2.0947  2.5303 -1.2970
 1792SOL     OW17008   3.195   0.585   6.418 -0.5320 -0.5232  0.1103
 1792SOL    HW117009   3.107   0.608   6.448 -1.2408 -1.6964 -1.0401
 1792SOL    HW217010   3.188   0.491   6.399  0.3532  0.0837 -3.3569
 1793SOL     OW17011   1.677   2.546   6.081 -0.0528 -0.0598  0.0607
 1793SOL    HW117012   1.609   2.479   6.077 -0.5252  0.3250  1.5844
 1793SOL    HW217013   1.723   2.518   6.160 -0.3617  3.3443  1.4486
 1794SOL     OW17014   3.116   4.002   6.731  0.2705 -0.2092  0.2312
 1794SOL    HW117015   3.153   4.017   6.818  2.0727  2.1666 -0.9670
 1794SOL    HW217016   3.100   3.907   6.734  0.0707 -0.1343  1.4567
 1795SOL     OW17017   4.308   3.361   5.078  0.6196  0.2715  0.0408
 1795SOL    HW117018   4.278   3.322   5.161  0.3187 -0.9561 -0.6502
 1795SOL    HW217019   4.371   3.423   5.113 -1.7125  1.5246  2.0545
 1796SOL     OW17020   0.559   2.306   5.358 -0.7052 -0.4124  0.4868
 1796SOL    HW117021   0.618   2.275   5.427 -0.1121 -1.4092 -0.4571
 1796SOL    HW217022   0.620   2.343   5.294 -0.1598 -2.1066  0.0089
 1797SOL     OW17023   3.662   3.987   9.168  0.3570 -0.1896 -0.4309
 1797SOL    HW117024   3.658   3.891   9.164  0.7016 -0.1914 -0.7602
 1797SOL    HW217025   3.715   3.994   9.247 -0.6369  0.5808  0.1652
 1798SOL     OW17026   0.218   3.387   1.878 -0.3934  0.5205 -0.1859
 1798SOL    HW117027   0.206   3.333   1.800 -0.4003  0.2980 -0.0315
 1798SOL    HW217028   0.233   3.474   1.840  0.2639  0.4412 -0.1045
 1799SOL     OW17029   1.215   1.021  11.521 -0.0671  0.1776  0.0654
 1799SOL    HW117030   1.251   0.962  11.587  0.3771  0.5614  0.1670
 1799SOL    HW217031   1.170   0.966  11.457 -1.9498 -0.0412  1.5597
 1800SOL     OW17032   0.117   1.570   3.621  0.0021  0.0577 -0.1285
 1800SOL    HW117033   0.158   1.647   3.660  1.2056 -1.0759  0.8569
 1800SOL    HW217034   0.037   1.606   3.583 -1.0876 -1.1760  1.0013
 1801SOL     OW17035   2.389   3.631   6.389  0.3212 -0.4253 -0.3902
 1801SOL    HW117036   2.382   3.602   6.480  2.2602 -0.1496 -0.1698
 1801SOL    HW217037   2.312   3.585   6.354  1.0482 -1.4788 -0.5871
 1802SOL     OW17038   4.151   1.983   6.891 -0.0866  0.1602 -0.5801
 1802SOL    HW117039   4.109   1.921   6.950 -0.5297  0.3947 -0.6471
 1802SOL    HW217040   4.120   1.946   6.808  0.7389 -0.1215 -0.7619
 1803SOL     OW17041   3.825   2.169  17.540  0.2105 -0.2539  0.6011
 1803SOL    HW117042   3.774   2.185  17.619 -1.3703  2.5496 -0.9966
 1803SOL    HW217043   3.763   2.115  17.492 -2.1158  1.7133  1.3703
 1804SOL     OW17044   0.943   3.767   7.432  0.1160 -0.2221  0.5073
 1804SOL    HW117045   1.006   3.749   7.501  1.2008 -0.8125 -0.6457
 1804SOL    HW217046   0.894   3.828   7.488 -0.2215  0.8531 -0.9494
 1805SOL     OW17047   3.685   2.294  10.520  0.1235 -0.8964 -0.3924
 1805SOL    HW117048   3.606   2.261  10.563 -0.7958  2.2934  0.4132
 1805SOL    HW217049   3.664   2.274  10.429 -0.1357  0.7079 -0.6828
 1806SOL     OW17050   3.476   2.530  17.055 -0.4899 -0.7255 -0.2257
 1806SOL    HW117051   3.480   2.565  16.966 -2.5845 -1.0127 -0.4340
 1806SOL    HW217052   3.428   2.597  17.104  1.2027  0.7642 -0.5913
 1807SOL     OW17053   2.877   4.182  11.615  0.2816  0.3261  0.3400
 1807SOL    HW117054   2.782   4.193  11.607  0.4720  1.8881  0.3185
 1807SOL    HW217055   2.878   4.086  11.606 -1.3170  0.1288  2.2458
 1808SOL     OW17056   0.914   4.192   4.205 -0.5512  0.5250  0.1211
 1808SOL    HW117057   1.007   4.207   4.185 -0.6719  0.3962 -0.5487
 1808SOL    HW217058   0.912   4.096   4.203  0.2799  0.5036  0.3185
 1809SOL     OW17059   0.569   1.628  13.163 -0.0474 -0.0032 -0.9760
 1809SOL    HW117060   0.574   1.532  13.159  1.5893  0.0098  0.5082
 1809SOL    HW217061   0.659   1.657  13.176  0.2579 -0.8561 -1.2046
 1810SOL     OW17062   0.739   4.084   8.270 -0.4144  0.1742  0.0306
 1810SOL    HW117063   0.776   4.130   8.346  0.2002 -1.1596  0.5357
 1810SOL    HW217064   0.792   4.005   8.277 -0.7361 -0.2416 -2.3211
 1811SOL     OW17065   3.235   1.641   1.456 -0.5685  0.2040  0.0943
 1811SOL    HW117066   3.207   1.684   1.375 -1.4464 -0.7521 -0.1188
 1811SOL    HW217067   3.157   1.663   1.507 -0.4076 -1.4887  1.0619
 1812SOL     OW17068   1.995   0.621   4.843  0.8820 -0.0192  0.8849
 1812SOL    HW117069   1.990   0.526   4.845  2.7302 -0.1302  0.2443
 1812SOL    HW217070   2.081   0.632   4.804 -0.5668  1.3143 -1.9249
 1813SOL     OW17071   3.638   2.005  14.575  0.6542  0.0382  0.2716
 1813SOL    HW117072   3.670   1.988  14.664 -0.1173 -1.4945  0.2522
 1813SOL    HW217073   3.580   2.080  14.587 -1.2529 -1.0374 -2.2475
 1814SOL     OW17074   0.123   3.988   6.081 -0.7647 -0.3242 -0.1051
 1814SOL    HW117075   0.096   3.990   5.989  0.1881 -0.0129 -0.3852
 1814SOL    HW217076   0.070   3.926   6.130 -1.8151  0.2327 -0.5263
 1815SOL     OW17077   3.471   3.069   5.958  0.2006 -0.2467 -0.5488
 1815SOL    HW117078   3.427   3.000   5.909 -1.0567 -0.6873  1.1744
 1815SOL    HW217079   3.565   3.049   5.958 -0.0454 -1.5276  1.3479
 1816SOL     OW17080   3.751   3.255   4.340 -0.0015  0.3256 -0.3625
 1816SOL    HW117081   3.833   3.304   4.332 -0.9827  2.0548 -0.0065
 1816SOL    HW217082   3.682   3.322   4.349  1.2523  1.1800  2.9411
 1817SOL     OW17083   0.493   0.378  17.482  0.3408  0.2276  0.0823
 1817SOL    HW117084   0.491   0.288  17.450 -2.6596  0.3005 -0.0050
 1817SOL    HW217085   0.541   0.350  17.559 -0.6916 -1.0403  0.2698
 1818SOL     OW17086   1.231   2.148   1.140 -0.2683  0.2341  0.5738
 1818SOL    HW117087   1.156   2.107   1.183 -0.5833  1.2059  0.9762
 1818SOL    HW217088   1.193   2.236   1.133  0.3208  0.3881 -0.7704
 1819SOL     OW17089   4.297   1.690   2.678 -0.1518 -0.0555 -0.4841
 1819SOL    HW117090   4.385   1.723   2.693 -0.4120  0.6136 -0.4019
 1819SOL    HW217091   4.256   1.762   2.631  1.5773 -0.0123 -1.9074
 1820SOL     OW17092   2.974   2.347  15.164 -0.7515  0.1920 -0.1679
 1820SOL    HW117093   3.000   2.269  15.213 -2.6209 -0.3098  0.0103
 1820SOL    HW217094   2.893   2.377  15.205 -0.8645 -0.4374  0.0752
 1821SOL     OW17095   2.610   4.099  11.635  0.2422  0.2695  0.1832
 1821SOL    HW117096   2.583   4.122  11.724  0.8395 -2.4308  1.0379
 1821SOL    HW217097   2.561   4.018  11.627  0.7644 -0.2648  2.6034
 1822SOL     OW17098   4.631   2.501   6.015  0.3463 -0.1917 -0.0438
 1822SOL    HW117099   4.641   2.537   5.927  1.2033 -1.9118 -0.6539
 1822SOL    HW217100   4.658   2.411   5.996 -1.3699 -0.7325  0.0830
 1823SOL     OW17101   2.404   2.834   4.454  0.5310  0.3761 -0.2947
 1823SOL    HW117102   2.335   2.843   4.389  0.8481  0.8057 -0.5689
 1823SOL    HW217103   2.473   2.868   4.397 -0.2227  2.6163  0.1277
 1824SOL     OW17104   3.106   0.317   4.926  0.1339  0.8688  0.2230
 1824SOL    HW117105   3.170   0.323   4.856 -0.5397 -2.2724 -0.6749
 1824SOL    HW217106   3.050   0.392   4.908 -3.3714 -1.9192 -0.5173
 1825SOL     OW17107   0.202   1.787   7.595 -0.2990  0.3190  0.3501
 1825SOL    HW117108   0.149   1.861   7.569 -0.1078 -0.0635 -1.1051
 1825SOL    HW217109   0.276   1.829   7.640  0.6907 -2.0414  1.0011
 1826SOL     OW17110   3.782   0.783   4.808 -0.6212  0.2629 -0.2328
 1826SOL    HW117111   3.697   0.793   4.850 -0.2072 -1.6015  1.0128
 1826SOL    HW217112   3.765   0.711   4.748  1.1857 -0.2510 -0.1176
 1827SOL     OW17113   4.420   3.360   6.472 -0.0862 -0.5144  0.3937
 1827SOL    HW117114   4.510   3.333   6.452 -0.4735 -1.7756  0.4181
 1827SOL    HW217115   4.431   3.442   6.520 -1.4982 -1.4367  2.2822
 1828SOL     OW17116   3.391   3.831  16.325 -0.6384 -0.1055 -0.3405
 1828SOL    HW117117   3.398   3.927  16.331 -1.3289  0.0047 -1.5260
 1828SOL    HW217118   3.425   3.807  16.239  0.5532 -0.6643  0.2783
 1829SOL     OW17119   4.177   3.796   7.210 -0.4041  0.2291 -0.2941
 1829SOL    HW117120   4.160   3.760   7.297 -0.0310  2.3604  0.6632
 1829SOL    HW217121   4.167   3.892   7.214  2.7433  0.6461 -2.3308
 1830SOL     OW17122   4.228   3.537  17.509 -0.4360  0.6677 -0.0533
 1830SOL    HW117123   4.164   3.607  17.516  2.4546  3.1035  1.9039
 1830SOL    HW217124   4.223   3.527  17.414 -0.4204 -0.2969  0.0396
 1831SOL     OW17125   2.265   2.220   2.929  0.0479 -0.1551  0.0938
 1831SOL    HW117126   2.265   2.295   2.988 -2.2459 -0.1211  0.0536
 1831SOL    HW217127   2.195   2.244   2.869 -0.0103 -2.0420 -0.5862
 1832SOL     OW17128   1.821   4.403   4.176  0.1014 -0.4152  0.1544
 1832SOL    HW117129   1.910   4.374   4.154 -1.3140 -4.1229 -0.8053
 1832SOL    HW217130   1.834   4.476   4.236  1.7003 -1.1460  0.6789
 1833SOL     OW17131   1.080   2.025   4.411  0.1856  0.3803  0.1127
 1833SOL    HW117132   1.053   2.053   4.498  1.7159  1.2585  0.3084
 1833SOL    HW217133   1.013   1.959   4.395  3.3382 -2.7173 -0.1313
 1834SOL     OW17134   2.812   2.760   4.774  0.7819 -0.0930  0.0242
 1834SOL    HW117135   2.887   2.723   4.819 -0.2814 -1.5219  0.6007
 1834SOL    HW217136   2.761   2.798   4.846  2.1363  1.5972  0.0976
 1835SOL     OW17137   0.768   1.352   2.623  0.0052  0.1265  0.3103
 1835SOL    HW117138   0.806   1.438   2.641 -1.9844  0.6454  2.0475
 1835SOL    HW217139   0.686   1.358   2.672  0.2524  3.4318  0.2941
 1836SOL     OW17140   3.562   1.384   9.236  0.1742  0.0217 -0.3092
 1836SOL    HW117141   3.657   1.378   9.243  0.1967 -1.7973 -2.3241
 1836SOL    HW217142   3.522   1.349   9.315  0.2666 -3.2457 -1.7387
 1837SOL     OW17143   1.812   2.133   7.767  0.0833 -0.3072 -0.2885
 1837SOL    HW117144   1.880   2.068   7.755  2.3490  1.8398  0.9328
 1837SOL    HW217145   1.734   2.081   7.748  0.0040 -0.8726  1.6170
 1838SOL     OW17146   1.574   0.714   3.655  0.4578  0.0575 -0.1853
 1838SOL    HW117147   1.623   0.632   3.657 -1.2391 -0.9800 -0.8237
 1838SOL    HW217148   1.647   0.770   3.630  1.0227 -1.0638 -1.0006
 1839SOL     OW17149   2.089   1.391   9.036  0.0805  0.2030 -0.3964
 1839SOL    HW117150   2.098   1.414   8.943  1.8562  1.7336  0.1616
 1839SOL    HW217151   2.166   1.436   9.069 -0.4154  1.5179 -1.0342
 1840SOL     OW17152   3.805   1.341  11.980 -0.1706  0.7575 -0.9010
 1840SOL    HW117153   3.842   1.273  11.923  1.9650  2.4403 -1.5293
 1840SOL    HW217154   3.722   1.368  11.942 -1.7930  0.4347  2.4571
 1841SOL     OW17155   1.171   4.630   8.144 -0.2075  0.1133  0.2804
 1841SOL    HW117156   1.124   4.581   8.211 -1.5633  1.7957  0.5516
 1841SOL    HW217157   1.130   4.584   8.070  1.5022  1.6118 -1.6234
 1842SOL     OW17158   0.757   4.516  15.704  0.3919  0.5136  0.0376
 1842SOL    HW117159   0.749   4.469  15.621 -0.6988  0.4220  0.1927
 1842SOL    HW217160   0.845   4.551  15.691 -0.2874  2.2152 -0.0249
 1843SOL     OW17161   3.743   3.505   1.620 -0.0211 -0.4942 -0.1948
 1843SOL    HW117162   3.666   3.449   1.605  0.7128 -2.0574  1.8243
 1843SOL    HW217163   3.709   3.594   1.624  0.2596 -0.4318  0.7528
 1844SOL     OW17164   1.262   4.492   4.800  0.3274 -0.2219  0.4439
 1844SOL    HW117165   1.205   4.427   4.760  1.5919  0.3549 -2.2742
 1844SOL    HW217166   1.326   4.427   4.830 -0.0394 -0.0467  1.6225
 1845SOL     OW17167   1.756   4.229   3.907  0.2306  0.2388  0.0482
 1845SOL    HW117168   1.743   4.311   3.858 -1.2638  0.3527  0.6629
 1845SOL    HW217169   1.749   4.263   3.996 -1.2360 -1.8458  0.7267
 1846SOL     OW17170   1.086   1.334   4.710 -0.6393 -0.2659 -0.0007
 1846SOL    HW117171   1.039   1.360   4.631  0.4482  0.4373 -0.4158
 1846SOL    HW217172   1.020   1.281   4.754  0.4078 -0.8512  0.8688
 1847SOL     OW17173   0.444   0.583   8.854  0.1594 -0.3058 -0.1246
 1847SOL    HW117174   0.434   0.675   8.827 -1.7750 -0.2700  0.7159
 1847SOL    HW217175   0.387   0.539   8.792 -0.5426 -0.4311  0.6118
 1848SOL     OW17176   2.394   1.708   9.081  0.2587  0.6772 -0.1647
 1848SOL    HW117177   2.327   1.645   9.109  1.6562 -0.4863  0.5583
 1848SOL    HW217178   2.416   1.689   8.990  1.7159 -3.8474  1.1328
 1849SOL     OW17179   2.729   1.225   4.246 -0.6799  0.0674  0.1251
 1849SOL    HW117180   2.808   1.265   4.208  1.4922 -2.3766  2.0501
 1849SOL    HW217181   2.673   1.298   4.272 -1.0321  0.0892 -0.6909
 1850SOL     OW17182   0.213   1.702   4.848  0.1886  0.0783  0.1967
 1850SOL    HW117183   0.153   1.629   4.858 -0.2943  0.5827  0.9475
 1850SOL    HW217184   0.150   1.772   4.865  0.1642 -0.7466  3.4878
 1851SOL     OW17185   2.994   4.411   0.026  0.7231 -0.0941  0.7878
 1851SOL    HW117186   3.039   4.327   0.034  0.7808 -0.0886  0.5219
 1851SOL    HW217187   2.908   4.390  17.727  1.3844  0.0270 -0.8735
 1852SOL     OW17188   1.305   2.082   1.996 -0.1922  0.2223 -0.4029
 1852SOL    HW117189   1.329   2.008   2.053  0.6619  0.8728  0.0734
 1852SOL    HW217190   1.236   2.120   2.051 -0.7885  0.0233 -1.0068
 1853SOL     OW17191   1.190   1.470  11.083  0.0925 -0.1912  0.1129
 1853SOL    HW117192   1.231   1.507  11.161 -0.3804  0.9134 -0.1585
 1853SOL    HW217193   1.253   1.497  11.017  2.4044 -0.0842  2.3655
 1854SOL     OW17194   3.529   3.792  16.569 -0.2080  0.3296 -0.1198
 1854SOL    HW117195   3.463   3.739  16.613  0.1024 -0.0299 -0.0942
 1854SOL    HW217196   3.490   3.791  16.481 -1.4541 -3.8496  0.4813
 1855SOL     OW17197   3.230   2.104  16.640 -0.9989  0.2193  0.5479
 1855SOL    HW117198   3.220   2.051  16.561 -1.0117  0.5257  0.3403
 1855SOL    HW217199   3.298   2.067  16.696  0.5426  0.3601 -1.2197
 1856SOL     OW17200   3.617   4.660   0.586 -0.7136  0.3956 -0.4805
 1856SOL    HW117201   3.670   4.688   0.512 -0.7144  3.5016  0.6940
 1856SOL    HW217202   3.604   0.012   0.625 -0.5066  0.7649 -1.2477
 1857SOL     OW17203   2.956   2.490   3.601 -0.5876 -0.7103 -0.0332
 1857SOL    HW117204   3.024   2.542   3.646 -0.8884 -0.0704 -0.3227
 1857SOL    HW217205   2.936   2.544   3.525 -0.0453  0.8832  0.9445
 1858SOL     OW17206   1.291   4.452   9.213 -0.0649  0.1908 -0.1406
 1858SOL    HW117207   1.221   4.502   9.254  0.2162  1.9033 -1.7243
 1858SOL    HW217208   1.272   4.363   9.241 -1.0369  1.3586  2.8180
 1859SOL     OW17209   1.870   2.908   7.451 -0.2607  0.4629  0.1041
 1859SOL    HW117210   1.898   2.861   7.372  0.1937  0.8544  0.0343
 1859SOL    HW217211   1.798   2.857   7.489  1.1245 -1.1813  0.4990
 1860SOL     OW17212   0.506   3.601   6.960 -0.3746  0.5160 -0.2818
 1860SOL    HW117213   0.428   3.586   6.907 -1.0920  0.1038  0.8999
 1860SOL    HW217214   0.574   3.631   6.899  0.1572  1.4969  0.7834
 1861SOL     OW17215   1.544   1.964   4.362 -0.0356  0.6340  0.5715
 1861SOL    HW117216   1.614   2.009   4.315  0.3305 -0.6812 -0.1571
 1861SOL    HW217217   1.490   2.031   4.403 -0.1928  1.4673 -1.0167
 1862SOL     OW17218   2.672   1.314   2.550  0.2377  0.5767  0.3880
 1862SOL    HW117219   2.583   1.344   2.571 -0.0397  0.5289 -0.7298
 1862SOL    HW217220   2.711   1.332   2.636 -2.5114  0.9313  1.5887
 1863SOL     OW17221   1.590   0.314   3.701  0.3567  0.2285 -0.1878
 1863SOL    HW117222   1.655   0.334   3.633  0.8035  1.1547  0.5058
 1863SOL    HW217223   1.627   0.368   3.771  1.1238  0.5551 -0.8444
 1864SOL     OW17224   1.472   2.417   6.621  0.1739 -0.1318 -0.1334
 1864SOL    HW117225   1.466   2.508   6.648  1.6478  0.6789 -2.5725
 1864SOL    HW217226   1.496   2.441   6.532  0.3890 -1.0626 -0.3316
 1865SOL     OW17227   4.705   3.496   7.847 -0.2464  0.0449 -0.3734
 1865SOL    HW117228   4.712   3.588   7.823  3.8477 -0.3693 -0.8134
 1865SOL    HW217229   0.044   3.481   7.907  0.1252 -0.0060 -0.8350
 1866SOL     OW17230   4.347   0.519   4.118  0.1397  0.1571 -0.2541
 1866SOL    HW117231   4.319   0.476   4.037 -1.7932 -1.4872  1.2785
 1866SOL    HW217232   4.295   0.599   4.124  0.4011  0.2721  0.5400
 1867SOL     OW17233   2.530   2.042  17.293 -0.3074 -0.2529 -0.2097
 1867SOL    HW117234   2.472   2.118  17.291 -0.5788 -0.3983  1.7946
 1867SOL    HW217235   2.608   2.076  17.337 -0.2257  0.5681 -0.9969
 1868SOL     OW17236   1.772   3.533   2.734  0.7055 -0.1638 -0.1410
 1868SOL    HW117237   1.743   3.483   2.658 -0.0458  0.2587 -0.1353
 1868SOL    HW217238   1.715   3.610   2.728  1.7114  0.7539  2.0313
 1869SOL     OW17239   3.001   1.689   5.073 -0.3569  0.5653  0.6113
 1869SOL    HW117240   2.978   1.703   5.165 -0.8280  0.3918  0.5199
 1869SOL    HW217241   2.943   1.749   5.027 -1.2411 -1.3953 -0.8143
 1870SOL     OW17242   2.960   2.257  14.908 -0.3348 -0.9072 -0.1673
 1870SOL    HW117243   2.927   2.329  14.854  1.5315 -0.1885 -0.3617
 1870SOL    HW217244   2.977   2.306  14.989  0.3626 -0.1063 -0.7879
 1871SOL     OW17245   2.902   3.527  10.160 -0.0099  0.3816 -0.2180
 1871SOL    HW117246   2.943   3.443  10.181 -0.3253  0.7746  1.9304
 1871SOL    HW217247   2.980   3.580  10.175  1.2821 -1.2095 -1.3417
 1872SOL     OW17248   2.620   3.945   9.450  0.1848  0.1941  0.2618
 1872SOL    HW117249   2.568   3.944   9.530 -0.9186  2.0241 -0.4474
 1872SOL    HW217250   2.650   4.036   9.449  3.3552 -0.8252 -1.0674
 1873SOL     OW17251   2.715   3.376   0.005 -0.3598 -0.6147 -0.3229
 1873SOL    HW117252   2.801   3.369   0.046  0.4005 -1.9088 -2.1006
 1873SOL    HW217253   2.709   3.471  17.733  3.1456 -0.2303  1.2314
 1874SOL     OW17254   1.226   3.673   9.821 -0.3674  0.1550 -0.3346
 1874SOL    HW117255   1.172   3.730   9.875 -0.7081  0.3142 -0.8409
 1874SOL    HW217256   1.175   3.593   9.815  2.8737 -1.8683 -1.3508
 1875SOL     OW17257   4.536   1.512   7.104 -0.1143 -0.3044 -0.0009
 1875SOL    HW117258   4.550   1.518   7.010 -0.5333 -0.8579 -0.0955
 1875SOL    HW217259   4.467   1.578   7.117  2.2564  2.0122  0.9400
 1876SOL     OW17260   4.092   0.102   1.204  0.2613 -0.0036  0.3810
 1876SOL    HW117261   4.009   0.099   1.254  0.2881  1.7431  0.5236
 1876SOL    HW217262   4.139   0.027   1.239  0.6320 -0.2103 -0.5947
 1877SOL     OW17263   3.717   0.425   8.298  0.2459  0.0506  1.0902
 1877SOL    HW117264   3.748   0.433   8.208 -1.1727  0.6930  0.6586
 1877SOL    HW217265   3.767   0.346   8.319  0.1000 -0.4329 -0.3802
 1878SOL     OW17266   2.843   0.597   0.211 -0.0213 -0.1463  0.0999
 1878SOL    HW117267   2.797   0.514   0.213  1.5886 -1.0477 -0.8730
 1878SOL    HW217268   2.888   0.594   0.127 -1.3517 -3.7298 -0.4557
 1879SOL     OW17269   4.472   0.065   3.682 -0.0347 -1.0844  0.1810
 1879SOL    HW117270   4.562   0.075   3.650  0.1573 -0.6730  0.8533
 1879SOL    HW217271   4.444   0.151   3.714  2.9243  0.6472 -1.7701
 1880SOL     OW17272   2.241   0.677  15.012 -0.1645  0.1995 -0.2573
 1880SOL    HW117273   2.283   0.593  15.032 -1.6678 -0.1204  1.4973
 1880SOL    HW217274   2.272   0.691  14.922 -0.6485 -0.1846 -0.4809
 1881SOL     OW17275   2.063   1.040   7.782  0.4212 -0.0501 -0.4023
 1881SOL    HW117276   2.136   1.027   7.722  0.8840 -2.2738  0.6431
 1881SOL    HW217277   2.092   1.117   7.829 -1.2522  0.1424  0.3252
 1882SOL     OW17278   1.483   1.437   9.352 -0.1546 -0.3617 -0.2091
 1882SOL    HW117279   1.433   1.362   9.319 -0.4858 -0.2084 -0.0577
 1882SOL    HW217280   1.567   1.393   9.347  0.7736  1.3835  0.1832
 1883SOL     OW17281   2.736   1.299   9.901 -0.1213 -0.1849 -0.5205
 1883SOL    HW117282   2.687   1.364   9.951  0.9697 -1.4363  2.1797
 1883SOL    HW217283   2.821   1.337   9.922  0.0094  0.4348 -2.1336
 1884SOL     OW17284   2.342   0.730  16.701  0.0198 -0.1354  0.1738
 1884SOL    HW117285   2.323   0.715  16.609  1.5176 -0.3438 -0.0983
 1884SOL    HW217286   2.250   0.744  16.723 -0.1209 -1.1577  0.2299
 1885SOL     OW17287   1.674   4.115   7.444 -0.5003  0.2341 -0.3655
 1885SOL    HW117288   1.612   4.043   7.458 -1.6512  0.8110 -2.4992
 1885SOL    HW217289   1.671   4.119   7.348 -1.0958 -3.8643 -0.5236
 1886SOL     OW17290   3.974   2.504   5.415  0.4139 -0.5890  0.0062
 1886SOL    HW117291   3.991   2.563   5.341 -1.5508  0.6866  0.5626
 1886SOL    HW217292   4.057   2.513   5.460 -0.8028  2.5022  1.6650
 1887SOL     OW17293   3.929   1.409   3.850  0.1308  0.3953  0.0088
 1887SOL    HW117294   3.844   1.366   3.842  0.0476  0.7541 -0.9941
 1887SOL    HW217295   3.960   1.361   3.927 -0.2486  1.1765  0.6468
 1888SOL     OW17296   1.875   0.122  12.691 -0.2813 -0.2047  0.0113
 1888SOL    HW117297   1.834   0.194  12.642  0.0270  1.0317  1.5951
 1888SOL    HW217298   1.826   0.133  12.772  0.5874 -0.0439  0.5038
 1889SOL     OW17299   1.254   1.451   8.268  0.4379  0.4932 -0.1022
 1889SOL    HW117300   1.202   1.531   8.259  1.0595  1.0034  0.9470
 1889SOL    HW217301   1.190   1.391   8.228 -0.2720  1.8555 -1.0208
 1890SOL     OW17302   0.396   1.925   7.987 -0.1919 -0.2438  0.2191
 1890SOL    HW117303   0.392   2.011   7.947 -0.7484 -0.2813  0.2063
 1890SOL    HW217304   0.483   1.892   7.965 -0.8583 -1.8328 -0.0410
 1891SOL     OW17305   4.397   4.300   3.523 -0.2537  0.0504  0.4085
 1891SOL    HW117306   4.390   4.261   3.436  0.1325 -0.8691  0.7885
 1891SOL    HW217307   4.428   4.387   3.500 -1.3725  0.9516  2.2663
 1892SOL     OW17308   1.186   1.095   6.065  0.4724 -0.1463 -0.9476
 1892SOL    HW117309   1.110   1.087   6.123  1.5802 -2.7547  0.1681
 1892SOL    HW217310   1.206   1.002   6.057  2.6908  0.5471 -3.4446
 1893SOL     OW17311   1.003   3.117   9.378 -0.5997  0.0296  0.3679
 1893SOL    HW117312   1.066   3.144   9.311  0.5538 -1.1476  0.9692
 1893SOL    HW217313   1.017   3.022   9.370  1.5192  0.5012 -1.6163
 1894SOL     OW17314   4.624   0.219   0.215 -0.3934  0.3059  0.5074
 1894SOL    HW117315   4.576   0.157   0.160 -1.3453 -1.0350  2.8626
 1894SOL    HW217316   4.639   0.297   0.161  0.2724 -1.7255 -2.2509
 1895SOL     OW17317   3.840   3.622  13.561  0.3042  0.0082  0.1941
 1895SOL    HW117318   3.759   3.619  13.510 -0.3348 -0.8808  1.2784
 1895SOL    HW217319   3.810   3.590  13.646  0.4235  0.1419  0.2872
 1896SOL     OW17320   4.474   1.940   0.192  0.3550 -0.0748  0.1461
 1896SOL    HW117321   4.523   2.023   0.194  1.4113 -0.6653 -1.4664
 1896SOL    HW217322   4.528   1.896   0.258  0.0344  1.1654  1.2384
 1897SOL     OW17323   0.849   3.895  16.634  0.0060  0.7588 -0.1573
 1897SOL    HW117324   0.890   3.885  16.548 -1.8940 -1.2067 -0.8183
 1897SOL    HW217325   0.759   3.911  16.608  0.2095  1.4867 -0.4253
 1898SOL     OW17326   4.426   3.633   5.688 -0.3618  0.7900  0.1037
 1898SOL    HW117327   4.483   3.576   5.739 -2.5873 -2.2980 -0.9238
 1898SOL    HW217328   4.344   3.600   5.725 -0.2409  0.1940 -0.1590
 1899SOL     OW17329   0.773   1.952   7.142 -0.0476  0.2356 -0.3724
 1899SOL    HW117330   0.714   1.908   7.203  1.4588 -2.2525 -0.7311
 1899SOL    HW217331   0.726   1.953   7.058 -0.1319  1.2296 -0.3107
 1900SOL     OW17332   2.111   1.146   8.594  0.6573 -0.0181 -0.1565
 1900SOL    HW117333   2.074   1.121   8.679  0.3911 -0.3672 -0.3790
 1900SOL    HW217334   2.067   1.090   8.531  0.6061  0.2510 -0.3621
 1901SOL     OW17335   4.557   2.280   2.878 -0.3655  0.4012 -0.2721
 1901SOL    HW117336   4.573   2.250   2.968 -2.8585  1.5223  0.5541
 1901SOL    HW217337   4.544   2.374   2.890 -2.3306  0.0422  0.4633
 1902SOL     OW17338   4.042   1.619  14.146 -0.0105 -0.2805 -0.7053
 1902SOL    HW117339   4.047   1.559  14.072 -0.3561  0.2189 -1.1325
 1902SOL    HW217340   4.130   1.656  14.141  1.6596 -3.6203  3.5633
 1903SOL     OW17341   1.836   0.824   4.366  0.3941  0.4367 -0.4031
 1903SOL    HW117342   1.907   0.817   4.302 -0.6342 -1.6580 -1.3191
 1903SOL    HW217343   1.888   0.833   4.446 -0.8593  2.1031  0.2281
 1904SOL     OW17344   4.350   0.699   4.677  0.3458 -0.5075  0.3815
 1904SOL    HW117345   4.404   0.629   4.713  2.0446  0.9724  0.6952
 1904SOL    HW217346   4.271   0.686   4.730  0.1517  0.3098  0.2879
 1905SOL     OW17347   2.559   3.867   5.223  0.2501 -0.0894 -0.9506
 1905SOL    HW117348   2.515   3.874   5.138 -0.1896  1.1502 -0.6158
 1905SOL    HW217349   2.529   3.952   5.255  2.3833 -0.4139  1.9586
 1906SOL     OW17350   4.472   1.086   0.866  0.0062  0.1358 -0.0564
 1906SOL    HW117351   4.392   1.033   0.869  0.0791 -0.0723 -1.7449
 1906SOL    HW217352   4.464   1.174   0.903  0.9777  1.0178 -1.9787
 1907SOL     OW17353   3.320   1.621   0.475 -0.8119 -0.3937  0.3064
 1907SOL    HW117354   3.236   1.583   0.451 -1.9142  0.8166  2.2746
 1907SOL    HW217355   3.317   1.685   0.404  0.8008 -0.2864  0.3420
 1908SOL     OW17356   3.880   0.183  14.873 -0.3452 -0.5665  0.5060
 1908SOL    HW117357   3.838   0.129  14.807  2.7947 -1.5693 -0.6443
 1908SOL    HW217358   3.802   0.212  14.920  0.2548  1.1935  0.4136
 1909SOL     OW17359   2.019   0.576   2.060  0.4646  0.3786 -0.2527
 1909SOL    HW117360   2.046   0.603   2.147  0.7762  1.8869 -0.8234
 1909SOL    HW217361   1.970   0.498   2.089  0.6061 -0.8222 -3.2317
 1910SOL     OW17362   3.041   0.930   6.999 -0.0389  0.2085  0.1400
 1910SOL    HW117363   3.114   0.987   7.022  0.3542 -1.2194  2.4739
 1910SOL    HW217364   3.003   0.909   7.085 -1.1189  1.1082 -0.1079
 1911SOL     OW17365   2.467   0.764  13.329 -0.0109 -0.3673  0.0587
 1911SOL    HW117366   2.554   0.755  13.291 -0.5907 -0.5936 -1.1942
 1911SOL    HW217367   2.465   0.851  13.368  3.2130 -0.4945  0.5191
 1912SOL     OW17368   2.240   4.283  15.544 -0.6803 -0.4666  0.1245
 1912SOL    HW117369   2.230   4.190  15.565  0.9963 -0.4702  0.8641
 1912SOL    HW217370   2.316   4.305  15.597 -1.3978  2.6715 -0.1335
 1913SOL     OW17371   3.836   1.239   8.951  0.2674 -0.6977 -0.1768
 1913SOL    HW117372   3.804   1.209   9.036  0.4505  0.4136  0.2953
 1913SOL    HW217373   3.862   1.158   8.906 -0.7703 -2.1407  1.8598
 1914SOL     OW17374   2.409   1.502   4.673 -0.4146 -0.0150 -0.0099
 1914SOL    HW117375   2.395   1.519   4.766 -1.9084  2.3646 -0.6894
 1914SOL    HW217376   2.416   1.588   4.632 -0.7983  0.2369  0.4430
 1915SOL     OW17377   1.180   2.530  17.267  0.0159 -0.0052 -0.0039
 1915SOL    HW117378   1.255   2.568  17.222  1.1736 -1.9872  0.2885
 1915SOL    HW217379   1.126   2.533  17.188 -1.4227 -0.8407  0.9358
 1916SOL     OW17380   4.050   0.492   9.376  0.4099 -0.2138  0.3557
 1916SOL    HW117381   3.962   0.527   9.366  0.6240  0.6433  1.4201
 1916SOL    HW217382   4.085   0.549   9.445 -1.1762  0.0807  0.9099
 1917SOL     OW17383   3.941   0.326   8.796  0.1611  0.4270 -0.3401
 1917SOL    HW117384   3.938   0.363   8.708 -0.4687  0.0108 -0.4893
 1917SOL    HW217385   3.872   0.372   8.844 -0.8800  1.3940 -2.7235
 1918SOL     OW17386   0.319   3.550   1.088 -0.4698 -0.1605  0.0166
 1918SOL    HW117387   0.301   3.541   0.994 -3.1449 -0.6954  0.5650
 1918SOL    HW217388   0.285   3.466   1.119  1.5420 -0.0199  2.5083
 1919SOL     OW17389   3.672   2.313   0.318  0.8626  0.1248  0.5115
 1919SOL    HW117390   3.596   2.272   0.358 -0.4234  1.1773 -0.8274
 1919SOL    HW217391   3.667   2.409   0.328  0.3897  0.0925  0.5837
 1920SOL     OW17392   4.695   3.060  13.210  0.5309  0.0802 -0.2331
 1920SOL    HW117393   4.650   3.037  13.292  0.7375  0.6615  0.0423
 1920SOL    HW217394   4.650   3.137  13.177  1.0112  1.4103  2.1853
 1921SOL     OW17395   2.871   0.071   0.233  0.3090  0.2199  0.1083
 1921SOL    HW117396   2.960   0.055   0.203 -0.3961 -2.2689 -0.6559
 1921SOL    HW217397   2.827   4.727   0.201 -1.9060  0.8985  1.5205
 1922SOL     OW17398   4.223   0.818   5.094  0.5037 -0.2194  0.2159
 1922SOL    HW117399   4.129   0.804   5.088  0.2396  1.1885  1.0623
 1922SOL    HW217400   4.232   0.899   5.044 -0.2928  0.3487  0.9840
 1923SOL     OW17401   3.418   3.588  10.789  0.2775  0.2592 -0.2702
 1923SOL    HW117402   3.395   3.539  10.868 -1.5622 -1.0374 -1.5896
 1923SOL    HW217403   3.351   3.656  10.780  0.6917  0.6559 -0.3870
 1924SOL     OW17404   0.050   3.695   1.718  0.2765 -0.2717 -0.1724
 1924SOL    HW117405   0.102   3.672   1.795  3.5253  2.1413 -1.6455
 1924SOL    HW217406   0.011   3.610   1.695  2.3934 -0.7470 -2.0024
 1925SOL     OW17407   1.235   1.768   5.577  0.0584 -0.0167 -0.2328
 1925SOL    HW117408   1.278   1.683   5.563 -1.2842 -0.4166 -1.8745
 1925SOL    HW217409   1.311   1.809   5.618  0.1849 -1.0347  0.5581
 1926SOL     OW17410   0.122   3.384   9.262 -0.3251 -0.1332  0.0000
 1926SOL    HW117411   0.202   3.384   9.314  0.5339  1.1041 -1.3262
 1926SOL    HW217412   0.057   3.402   9.329 -1.4847 -1.7080 -0.6816
 1927SOL     OW17413   3.943   0.897   9.570 -0.3258  0.3513  0.0005
 1927SOL    HW117414   3.872   0.875   9.630 -0.5091 -0.3403 -0.4750
 1927SOL    HW217415   3.906   0.953   9.502  0.2491  0.1021 -0.5099
 1928SOL     OW17416   3.732   3.210  16.174  0.3298  0.3979  0.0611
 1928SOL    HW117417   3.760   3.275  16.238 -0.2463 -0.2767  0.9979
 1928SOL    HW217418   3.810   3.154  16.173 -0.5354 -0.8367  0.9309
 1929SOL     OW17419   2.387   0.906   5.185 -0.4045  0.0155 -0.1706
 1929SOL    HW117420   2.358   0.843   5.119 -3.0231 -0.1522  1.1368
 1929SOL    HW217421   2.437   0.961   5.125  2.1862 -0.2578  1.7231
 1930SOL     OW17422   4.023   0.063  17.168  0.1898 -0.4156 -0.4261
 1930SOL    HW117423   3.999   0.132  17.230  0.9686  0.1124 -0.7097
 1930SOL    HW217424   4.075   0.120  17.110 -0.3245 -0.1703 -0.6446
 1931SOL     OW17425   3.159   4.624   3.338 -0.2536  0.2965  0.2485
 1931SOL    HW117426   3.163   4.706   3.389  1.1041  1.7286 -2.1579
 1931SOL    HW217427   3.141   4.556   3.403  1.9917 -0.8216 -0.2909
 1932SOL     OW17428   4.254   0.973   9.030  0.1915  0.0853  0.1024
 1932SOL    HW117429   4.347   0.997   9.034 -0.4153  2.2384  1.1776
 1932SOL    HW217430   4.237   0.921   9.108 -0.6957  0.6686  0.3002
 1933SOL     OW17431   1.317   0.991   2.222  0.5561  0.5457  0.1435
 1933SOL    HW117432   1.383   1.019   2.158  4.0124 -2.4776  2.3768
 1933SOL    HW217433   1.312   1.075   2.268  0.1727  0.9037 -0.5524
 1934SOL     OW17434   0.909   4.491  15.239  0.7749 -0.1872 -0.0676
 1934SOL    HW117435   0.849   4.453  15.174 -0.9867  1.6487  0.4952
 1934SOL    HW217436   0.964   4.551  15.189  0.9216 -0.5652 -0.3645
 1935SOL     OW17437   1.451   1.457   1.049 -0.0022 -0.6986  0.2802
 1935SOL    HW117438   1.502   1.382   1.080  3.4547  1.5764  0.1913
 1935SOL    HW217439   1.403   1.416   0.977 -0.0055  0.7302 -0.5182
 1936SOL     OW17440   1.471   1.799   8.726 -0.6037  0.0651  0.3088
 1936SOL    HW117441   1.543   1.839   8.679 -1.0447 -1.7048 -1.8642
 1936SOL    HW217442   1.495   1.805   8.818  2.7430 -0.2147 -0.5624
 1937SOL     OW17443   0.362   4.594   4.306  0.1375 -0.2852  0.1527
 1937SOL    HW117444   0.336   4.557   4.390 -2.1283 -0.2111 -0.5199
 1937SOL    HW217445   0.278   4.599   4.261  0.3235  1.5245 -0.0079
 1938SOL     OW17446   4.027   2.655   5.177 -0.6806  0.3041 -0.3928
 1938SOL    HW117447   4.068   2.621   5.097  2.4487  0.8481  0.9818
 1938SOL    HW217448   4.094   2.709   5.219 -1.6422  2.2520 -1.3884
 1939SOL     OW17449   0.441   1.382   7.652 -0.6445 -0.1662  0.0216
 1939SOL    HW117450   0.366   1.426   7.611 -1.2702 -0.0463  1.2971
 1939SOL    HW217451   0.403   1.374   7.739 -0.5700 -2.0729 -0.1223
 1940SOL     OW17452   4.267   3.569  17.213  0.8673 -0.2098  0.1800
 1940SOL    HW117453   4.242   3.641  17.155 -0.1434  1.8891  3.1984
 1940SOL    HW217454   4.319   3.518  17.152  1.2784  0.0682  0.3045
 1941SOL     OW17455   3.040   2.965   8.629 -0.6217 -0.5125  0.3600
 1941SOL    HW117456   2.966   2.916   8.594 -0.2131  0.2451 -1.5621
 1941SOL    HW217457   3.015   2.997   8.716 -0.9258 -0.8123  0.3850
 1942SOL     OW17458   3.468   1.150   3.012  0.0926 -0.4596 -0.4252
 1942SOL    HW117459   3.474   1.058   3.039  0.2804 -0.1667  0.5613
 1942SOL    HW217460   3.556   1.181   3.035 -1.6736  4.7349 -0.6306
 1943SOL     OW17461   1.605   3.605   0.786  0.1892 -0.0662  0.1604
 1943SOL    HW117462   1.658   3.535   0.824 -1.9055 -2.1687 -0.8138
 1943SOL    HW217463   1.535   3.563   0.736 -0.7278 -1.0470  2.2570
 1944SOL     OW17464   0.773   0.980  12.396 -0.7624 -0.0634 -0.4618
 1944SOL    HW117465   0.706   1.014  12.455  0.1402  0.6721  0.1444
 1944SOL    HW217466   0.781   1.034  12.318 -1.2434  1.0132  0.2297
 1945SOL     OW17467   2.051   3.582   2.853  0.1842  0.4041 -0.1752
 1945SOL    HW117468   1.974   3.539   2.814 -0.7317  2.6196 -0.7836
 1945SOL    HW217469   2.016   3.650   2.910 -0.1065  1.5527 -1.7410
 1946SOL     OW17470   3.437   4.349   6.793  0.9920  0.3117 -0.0923
 1946SOL    HW117471   3.436   4.282   6.861  0.7774  1.9986  1.5942
 1946SOL    HW217472   3.349   4.384   6.810  0.3105 -1.4878  0.0528
 1947SOL     OW17473   2.534   3.441  14.515 -0.4600  0.4822 -0.7527
 1947SOL    HW117474   2.497   3.370  14.462 -0.3592 -1.2339  1.4285
 1947SOL    HW217475   2.625   3.441  14.485 -0.0653  1.7773  0.4347
 1948SOL     OW17476   2.039   3.797   8.628 -0.6089 -0.2447  0.3545
 1948SOL    HW117477   2.122   3.788   8.675 -0.7431 -1.2836  0.3735
 1948SOL    HW217478   2.071   3.768   8.542  1.7029 -1.6135  1.6881
 1949SOL     OW17479   4.113   4.598   2.580 -0.2772  0.0700 -0.4460
 1949SOL    HW117480   4.064   4.517   2.589  0.2615 -0.4511 -2.1591
 1949SOL    HW217481   4.128   4.608   2.486 -0.1526 -1.5531 -0.5922
 1950SOL     OW17482   3.401   1.339   7.560 -0.0770 -0.0136 -0.6944
 1950SOL    HW117483   3.424   1.253   7.527 -0.8665  0.1962 -1.7741
 1950SOL    HW217484   3.376   1.377   7.476  0.0482  2.9598  0.6065
 1951SOL     OW17485   2.961   0.385  10.352 -0.6969 -0.6454 -0.2723
 1951SOL    HW117486   2.943   0.296  10.380  1.7300 -1.7819 -2.3487
 1951SOL    HW217487   3.012   0.405  10.431 -0.2507  0.9189 -0.9559
 1952SOL     OW17488   3.910   1.748   2.157 -0.0479 -0.0368 -0.4918
 1952SOL    HW117489   3.985   1.800   2.128 -0.9531  0.3870 -2.0313
 1952SOL    HW217490   3.855   1.811   2.204  0.5655 -1.5041  2.1753
 1953SOL     OW17491   0.698   4.687   4.562 -0.1500  0.2500 -0.1293
 1953SOL    HW117492   0.623   4.707   4.617 -0.8224 -0.5939 -0.7294
 1953SOL    HW217493   0.695   4.592   4.574 -1.5820  0.3507  0.2150
 1954SOL     OW17494   2.176   3.768   0.925  0.2047  0.4515 -0.0006
 1954SOL    HW117495   2.231   3.691   0.912  0.9593  1.1665 -1.1248
 1954SOL    HW217496   2.191   3.791   1.017 -2.3475 -3.5054  1.3829
 1955SOL     OW17497   0.036   0.550   0.586  0.0320 -0.0175 -0.4347
 1955SOL    HW117498   0.036   0.564   0.492 -1.2489  1.1433 -0.2652
 1955SOL    HW217499   0.102   0.480   0.592  0.8854  0.8120 -0.1394
 1956SOL     OW17500   1.202   3.862  16.031  0.4457 -0.4212 -0.0371
 1956SOL    HW117501   1.296   3.880  16.029  0.1726  0.9414 -0.7903
 1956SOL    HW217502   1.170   3.926  16.095  2.5707  0.3969  0.2032
 1957SOL     OW17503   1.026   3.444   4.553 -0.4693 -0.3814 -0.1746
 1957SOL    HW117504   0.990   3.422   4.467  2.1470  1.5795 -1.7753
 1957SOL    HW217505   1.108   3.489   4.531 -1.4176  1.0723 -0.7013
 1958SOL     OW17506   2.959   0.238   3.848  0.2388  0.0749 -0.4902
 1958SOL    HW117507   2.970   0.309   3.785 -1.7962 -1.9688 -3.1103
 1958SOL    HW217508   3.040   0.230   3.899 -0.0153  0.5743 -0.0082
 1959SOL     OW17509   3.322   1.485   7.338 -0.1585  0.0706  0.4041
 1959SOL    HW117510   3.334   1.573   7.302  0.8085 -0.3563 -0.3163
 1959SOL    HW217511   3.230   1.498   7.361 -1.0617  0.0047 -3.2467
 1960SOL     OW17512   2.440   1.940  17.596  0.7507  0.2674  0.4633
 1960SOL    HW117513   2.462   1.890  17.517 -2.4666  0.1590 -0.3706
 1960SOL    HW217514   2.357   1.903  17.628  1.5851  0.5681  2.9740
 1961SOL     OW17515   1.412   4.734   8.486 -0.3422  0.3424 -0.0852
 1961SOL    HW117516   1.458   4.683   8.420  0.2941 -1.0121  1.4043
 1961SOL    HW217517   1.465   0.079   8.491 -1.3000  0.8997  1.4547
 1962SOL     OW17518   2.103   1.359   5.109 -0.2652 -0.0756  0.1930
 1962SOL    HW117519   2.160   1.286   5.132  2.2203  0.3074 -4.6210
 1962SOL    HW217520   2.020   1.324   5.142 -1.2708 -0.2079 -2.4392
 1963SOL     OW17521   1.931   1.021   1.649 -0.0882 -0.3882 -0.3389
 1963SOL    HW117522   1.841   0.992   1.633 -0.3338  0.9492 -1.3377
 1963SOL    HW217523   1.972   0.983   1.571  2.8983  0.2288  0.9395
 1964SOL     OW17524   1.007   4.138   2.469  0.0486  0.1854 -0.3820
 1964SOL    HW117525   0.912   4.148   2.474  0.2371  1.1504  1.0050
 1964SOL    HW217526   1.019   4.066   2.406 -2.9781  0.0810 -0.8409
 1965SOL     OW17527   4.597   1.928   1.329 -0.2845  0.1465  0.2734
 1965SOL    HW117528   4.519   1.975   1.303  0.3470  0.5442 -0.8886
 1965SOL    HW217529   4.610   1.978   1.410 -2.5505  2.5816 -0.8791
 1966SOL     OW17530   2.300   0.264   4.703 -0.0303 -0.2889 -0.1703
 1966SOL    HW117531   2.273   0.242   4.614  1.2173  0.6095 -0.7705
 1966SOL    HW217532   2.351   0.186   4.726  0.1023  0.2538  1.4191
 1967SOL     OW17533   2.835   3.948   2.614  0.3160  0.7231 -0.4486
 1967SOL    HW117534   2.830   3.865   2.567 -1.8953 -0.1216  1.2839
 1967SOL    HW217535   2.911   3.988   2.571 -0.8954  0.2838 -2.9613
 1968SOL     OW17536   0.462   4.342   4.558 -0.6281  0.3925  0.1476
 1968SOL    HW117537   0.443   4.268   4.616  1.8321 -0.4742 -0.1793
 1968SOL    HW217538   0.532   4.385   4.607  0.9597  1.1381 -2.7548
 1969SOL     OW17539   1.766   3.839   2.702 -0.4729 -0.3206 -0.1443
 1969SOL    HW117540   1.677   3.814   2.675 -0.7121  2.9702 -2.4280
 1969SOL    HW217541   1.767   3.925   2.660 -0.1183  0.3311  1.2071
 1970SOL     OW17542   2.125   3.785   9.697 -0.1924 -0.3594  0.2721
 1970SOL    HW117543   2.088   3.873   9.709 -0.4142 -0.4198  0.0209
 1970SOL    HW217544   2.076   3.728   9.755  1.0127 -0.6592  0.9983
 1971SOL     OW17545   0.628   1.910  17.485 -0.2425  0.4542  0.1094
 1971SOL    HW117546   0.671   1.939  17.566 -0.9133  0.7312  0.3643
 1971SOL    HW217547   0.650   1.817  17.487  0.9570  0.7160 -0.9647
 1972SOL     OW17548   3.747   0.724  17.583 -0.0386  0.0160  0.1614
 1972SOL    HW117549   3.684   0.777  17.632 -0.7055 -1.3940  0.8026
 1972SOL    HW217550   3.715   0.717  17.493  1.7442  1.2845 -0.5745
 1973SOL     OW17551   2.005   1.668  10.298  0.3305  0.4876 -0.2920
 1973SOL    HW117552   2.016   1.613  10.376  2.0628  0.9248 -0.2324
 1973SOL    HW217553   1.999   1.597  10.234  1.4413  0.7716 -0.7011
 1974SOL     OW17554   1.474   0.776   4.639 -0.4732 -0.4194  0.1400
 1974SOL    HW117555   1.499   0.696   4.592 -0.8220 -1.6398  1.9946
 1974SOL    HW217556   1.555   0.792   4.688  0.0083 -0.5042 -0.6370
 1975SOL     OW17557   4.032   2.846   6.842 -0.3084 -0.0874 -0.7097
 1975SOL    HW117558   4.082   2.778   6.887  0.6763  0.0408 -1.6121
 1975SOL    HW217559   4.047   2.921   6.900  0.5027  0.1573 -1.2398
 1976SOL     OW17560   4.200   0.908   3.799  0.0207 -0.6486  0.1141
 1976SOL    HW117561   4.120   0.879   3.843 -0.6526  0.2545 -0.5354
 1976SOL    HW217562   4.172   0.923   3.709 -0.3368  0.4607  0.4203
 1977SOL     OW17563   3.378   0.213  13.794  0.1128  0.4932 -0.1419
 1977SOL    HW117564   3.304   0.273  13.792 -2.5237 -2.7726  0.5032
 1977SOL    HW217565   3.433   0.235  13.869 -2.3597  2.0793  1.1808
 1978SOL     OW17566   1.339   0.994   5.424 -0.0365  0.0854  0.1270
 1978SOL    HW117567   1.307   0.904   5.433  0.7331 -0.4150 -2.3027
 1978SOL    HW217568   1.262   1.041   5.456  0.8495  1.2650  0.5077
 1979SOL     OW17569   1.819   3.604   7.180 -0.3890 -0.0942  0.0113
 1979SOL    HW117570   1.910   3.595   7.155 -1.0140 -2.4969 -1.3295
 1979SOL    HW217571   1.810   3.700   7.182  1.0925  0.0311  0.5826
 1980SOL     OW17572   2.024   1.501   5.732 -0.3169  0.0030  0.3871
 1980SOL    HW117573   2.054   1.566   5.668  0.8863 -1.1819 -0.2412
 1980SOL    HW217574   1.934   1.492   5.700 -0.2951  1.6111 -0.1499
 1981SOL     OW17575   3.576   1.507  12.565  0.1660 -0.5173  0.4137
 1981SOL    HW117576   3.639   1.547  12.624 -1.3320 -0.7571  2.1696
 1981SOL    HW217577   3.526   1.584  12.536 -0.5930 -1.5109 -0.9139
 1982SOL     OW17578   2.166   3.338   5.907  0.0188 -0.0179 -0.2565
 1982SOL    HW117579   2.243   3.392   5.926  2.1200 -3.6234  1.4301
 1982SOL    HW217580   2.107   3.402   5.867 -0.4635 -1.2314 -1.4367
 1983SOL     OW17581   3.466   3.147  16.120  0.4538  0.0694  0.2599
 1983SOL    HW117582   3.445   3.098  16.041  2.4060 -1.0608  0.4391
 1983SOL    HW217583   3.561   3.150  16.130  0.5684 -4.2015  0.3831
 1984SOL     OW17584   0.933   2.748   3.881  0.2084  0.1897 -0.1246
 1984SOL    HW117585   0.981   2.667   3.901  1.6348  0.4176 -2.6151
 1984SOL    HW217586   0.905   2.735   3.790 -0.7540  0.4266  0.1402
 1985SOL     OW17587   3.906   0.521   1.325 -0.0905 -0.7217  0.1836
 1985SOL    HW117588   3.934   0.610   1.303 -0.0281 -0.5729  0.8629
 1985SOL    HW217589   3.838   0.545   1.389  0.3523  1.0924 -0.0307
 1986SOL     OW17590   1.677   0.909   1.586 -0.3809 -0.3982 -0.4218
 1986SOL    HW117591   1.615   0.938   1.653 -0.4966  1.1469 -1.1859
 1986SOL    HW217592   1.658   0.968   1.512 -0.8089  1.7115  1.3762
 1987SOL     OW17593   2.407   1.458   7.261 -0.2585 -0.0772 -0.5241
 1987SOL    HW117594   2.465   1.459   7.337  0.0804  1.8030 -0.8084
 1987SOL    HW217595   2.340   1.400   7.297  1.2591 -1.4304  0.1569
 1988SOL     OW17596   2.526   0.051   9.469  0.2791  0.4013 -0.0544
 1988SOL    HW117597   2.589   0.068   9.540  1.5313 -0.8323 -0.8616
 1988SOL    HW217598   2.467   4.728   9.517  0.8874  0.7297  1.1011
 1989SOL     OW17599   1.957   4.307   3.308 -0.1877 -0.2153  0.0370
 1989SOL    HW117600   1.898   4.378   3.334 -1.4661 -1.4952  0.6684
 1989SOL    HW217601   1.906   4.228   3.326  0.7962 -0.8899 -0.1047
 1990SOL     OW17602   1.620   0.192   6.604  0.4015  0.2325  0.4095
 1990SOL    HW117603   1.582   0.108   6.575 -0.6715  0.7962  0.1770
 1990SOL    HW217604   1.560   0.247   6.553  2.9305  2.1181 -0.5094
 1991SOL     OW17605   2.308   2.405   7.695 -0.1248 -0.0924 -0.2133
 1991SOL    HW117606   2.274   2.434   7.610  0.7490  1.2457 -0.1037
 1991SOL    HW217607   2.398   2.382   7.672 -0.8650 -2.8704 -0.3129
 1992SOL     OW17608   1.069   2.411   9.282 -0.0810 -0.2260  0.5181
 1992SOL    HW117609   1.032   2.406   9.370  0.3532 -2.5394  0.5680
 1992SOL    HW217610   1.005   2.359   9.234 -2.1880  2.2224  0.6314
 1993SOL     OW17611   2.285   4.093  16.616  0.0096 -0.2755  0.3531
 1993SOL    HW117612   2.371   4.056  16.594  0.4406  0.7231  0.3589
 1993SOL    HW217613   2.254   4.115  16.529 -0.9666 -1.2351  0.4471
 1994SOL     OW17614   0.266   1.055   6.367  0.1034  0.2882  0.0166
 1994SOL    HW117615   0.302   1.083   6.282 -1.0364  1.0204 -0.2263
 1994SOL    HW217616   0.251   0.964   6.343 -0.1631  0.3862 -0.1878
 1995SOL     OW17617   1.660   3.755   6.191 -0.2231  0.0149 -0.7774
 1995SOL    HW117618   1.584   3.699   6.175 -0.6372  0.3977 -0.1795
 1995SOL    HW217619   1.705   3.741   6.108  3.3597  1.2876  0.9498
 1996SOL     OW17620   3.812   1.270   4.509  0.1226  0.5341 -0.0410
 1996SOL    HW117621   3.729   1.253   4.553  0.7716 -0.5059  0.7757
 1996SOL    HW217622   3.809   1.212   4.433 -0.6303 -1.2647  1.3754
 1997SOL     OW17623   1.143   2.636   2.504 -0.2945 -0.3801  0.2268
 1997SOL    HW117624   1.065   2.691   2.507 -0.3162 -0.5187  2.4860
 1997SOL    HW217625   1.165   2.613   2.595  0.2967  2.3505  0.7789
 1998SOL     OW17626   0.284   4.703   6.920  0.6742  0.0680 -0.3885
 1998SOL    HW117627   0.289   0.064   6.919 -1.2055  0.1636 -0.7077
 1998SOL    HW217628   0.214   4.684   6.982 -0.4648 -0.5339 -1.8785
 1999SOL     OW17629   2.431   2.768  10.803  0.0361  0.1276 -0.2438
 1999SOL    HW117630   2.449   2.834  10.870  1.4020  1.5265 -1.9816
 1999SOL    HW217631   2.518   2.754  10.765  1.0215  0.3605  1.9744
 2000SOL     OW17632   2.214   1.789   8.691  0.7104 -0.2667  0.7429
 2000SOL    HW117633   2.244   1.879   8.692  0.0576 -0.0470  0.1637
 2000SOL    HW217634   2.154   1.798   8.617  0.2153 -2.6544  0.8504
 2001SOL     OW17635   2.857   1.733   8.759 -0.2775  0.0930  0.9676
 2001SOL    HW117636   2.830   1.806   8.703  0.5359 -0.6193 -0.3271
 2001SOL    HW217637   2.949   1.725   8.734 -1.0251 -1.8667 -1.0745
 2002SOL     OW17638   2.826   3.416  15.253 -0.4726 -0.1417  0.2974
 2002SOL    HW117639   2.744   3.373  15.230 -0.6344  0.5159 -0.3584
 2002SOL    HW217640   2.803   3.491  15.308  0.8258  1.8181 -1.8228
 2003SOL     OW17641   0.940   1.425   2.336  0.3696 -0.1643 -0.3230
 2003SOL    HW117642   0.869   1.490   2.333  1.7188  1.2987 -0.6243
 2003SOL    HW217643   0.899   1.339   2.327  1.7765 -0.7198 -1.4928
 2004SOL     OW17644   1.770   1.274   7.599 -0.1403  0.3879  0.3454
 2004SOL    HW117645   1.789   1.365   7.577  1.3562 -0.5422 -2.2531
 2004SOL    HW217646   1.836   1.232   7.543  0.4044  1.9327 -0.1655
 2005SOL     OW17647   1.694   3.833  11.386 -0.5352  0.1819  0.5893
 2005SOL    HW117648   1.709   3.876  11.302  0.3547 -0.5413  0.3805
 2005SOL    HW217649   1.769   3.842  11.445 -0.1941 -0.0697  0.1933
 2006SOL     OW17650   4.660   2.520  13.103 -1.2343  0.6131  0.5631
 2006SOL    HW117651   4.731   2.469  13.063 -0.3735  1.1000  1.4941
 2006SOL    HW217652   4.701   2.606  13.102  0.9844 -0.4236  1.6216
 2007SOL     OW17653   0.387   0.426  16.587  0.0762  0.0617  0.1646
 2007SOL    HW117654   0.308   0.376  16.605  0.4048 -0.6478 -0.3339
 2007SOL    HW217655   0.454   0.358  16.586  0.8155  0.8465 -2.9939
 2008SOL     OW17656   0.994   2.744  10.380 -0.4705  0.6077  0.1772
 2008SOL    HW117657   1.078   2.791  10.375 -0.2849  0.0131 -2.4960
 2008SOL    HW217658   0.953   2.784  10.456  0.4444  2.1745 -0.1398
 2009SOL     OW17659   1.198   1.347   6.904  1.0164  0.1275  0.7077
 2009SOL    HW117660   1.169   1.290   6.833 -0.5520  0.2088  1.2882
 2009SOL    HW217661   1.282   1.303   6.916 -0.1233 -2.1686  0.2652
 2010SOL     OW17662   2.575   0.148   8.489  0.1684  0.4267  0.1499
 2010SOL    HW117663   2.613   0.221   8.538 -0.1919 -0.9545  2.4733
 2010SOL    HW217664   2.495   0.192   8.460  1.1415  0.6790 -2.2003
 2011SOL     OW17665   0.021   2.124  16.455 -0.3387 -0.1989 -0.5105
 2011SOL    HW117666   4.663   2.143  16.441  0.5917  2.5720 -3.0054
 2011SOL    HW217667   0.069   2.207  16.450  0.2972 -0.3828  2.8768
 2012SOL     OW17668   3.545   3.948  15.666 -0.3873  0.3051 -0.2940
 2012SOL    HW117669   3.571   4.013  15.730  0.2258  0.3972 -0.6367
 2012SOL    HW217670   3.489   3.998  15.606 -1.0352 -0.8513 -0.6700
 2013SOL     OW17671   3.240   1.821   6.843  0.4231 -0.2955  0.0456
 2013SOL    HW117672   3.208   1.878   6.914  2.9996  1.1047  0.0956
 2013SOL    HW217673   3.322   1.867   6.825  0.7263 -1.1978 -0.8146
 2014SOL     OW17674   2.851   4.545  14.306  0.7821  0.0518  0.1171
 2014SOL    HW117675   2.758   4.526  14.291  1.0284 -0.6236 -0.5463
 2014SOL    HW217676   2.885   4.464  14.344  2.3663  1.2277  1.1943
 2015SOL     OW17677   2.960   0.703   8.239  0.7441 -0.3952 -0.4442
 2015SOL    HW117678   2.933   0.678   8.328  0.6100 -1.1578 -0.7054
 2015SOL    HW217679   2.907   0.659   8.173  2.7723 -1.0733 -1.6054
 2016SOL     OW17680   0.740   1.695  11.770 -0.3869  0.4822  0.8228
 2016SOL    HW117681   0.817   1.736  11.810 -0.0740  0.8371 -0.1343
 2016SOL    HW217682   0.689   1.688  11.851  2.8612 -0.3397  2.8182
 2017SOL     OW17683   0.571   4.446  15.274  0.1220  0.1460 -0.3167
 2017SOL    HW117684   0.493   4.398  15.246 -1.2331  1.9071  0.4007
 2017SOL    HW217685   0.635   4.399  15.220  0.8413 -0.9728  1.5021
 2018SOL     OW17686   4.256   4.289   7.514 -0.1149 -0.2988 -0.2786
 2018SOL    HW117687   4.318   4.343   7.563 -2.4094 -0.1465  2.4392
 2018SOL    HW217688   4.235   4.351   7.444 -1.0309  2.1071  2.1324
 2019SOL     OW17689   0.048   0.600   7.472  0.4914  0.2428 -0.5340
 2019SOL    HW117690   0.029   0.521   7.522  0.6762  1.0331  0.7907
 2019SOL    HW217691   0.098   0.648   7.539  0.5088  0.8035 -0.9415
 2020SOL     OW17692   2.232   4.672  15.160  0.0916  0.7064 -0.2447
 2020SOL    HW117693   2.263   4.613  15.228  1.1199 -1.3763 -2.5017
 2020SOL    HW217694   2.170   4.615  15.115 -0.7225  1.3144  0.1176
 2021SOL     OW17695   0.599   0.765   1.452 -0.3751 -0.0887 -0.0319
 2021SOL    HW117696   0.607   0.788   1.360  0.2375 -2.3411 -0.5259
 2021SOL    HW217697   0.661   0.828   1.487 -1.8928  0.7572  1.1655
 2022SOL     OW17698   0.123   3.983  10.156 -0.2767  0.0574 -0.1436
 2022SOL    HW117699   0.161   3.921  10.094  0.0205 -1.1948  1.2589
 2022SOL    HW217700   0.172   3.963  10.236 -0.0297  0.7011 -0.1348
 2023SOL     OW17701   3.010   0.834   2.071  0.0972 -0.1552 -0.7533
 2023SOL    HW117702   3.012   0.921   2.030  1.0782 -1.3732 -3.3188
 2023SOL    HW217703   3.101   0.825   2.100  0.1380 -1.3497 -1.2407
 2024SOL     OW17704   3.837   4.663  10.525  0.0099 -0.2114 -0.0144
 2024SOL    HW117705   3.918   4.615  10.511  0.6558 -0.0828  3.4282
 2024SOL    HW217706   3.868   4.727  10.588 -1.6633 -0.2900  0.8932
 2025SOL     OW17707   4.019   3.252   1.101  0.4643 -0.1172  0.2374
 2025SOL    HW117708   3.942   3.257   1.044  0.3779  0.2821  0.3862
 2025SOL    HW217709   4.080   3.208   1.043 -1.6947 -1.7342 -0.8007
 2026SOL     OW17710   3.651   1.945   7.255  0.2595  0.9450  0.0417
 2026SOL    HW117711   3.660   1.972   7.164  0.7608 -1.2907 -0.5493
 2026SOL    HW217712   3.597   2.016   7.292 -2.3605 -1.1395  0.2394
 2027SOL     OW17713   3.108   4.601   8.452  0.2939 -0.1181  0.3729
 2027SOL    HW117714   3.022   4.559   8.443  0.7316 -0.9707  0.1878
 2027SOL    HW217715   3.071   4.686   8.477 -0.3149  0.4820 -2.5306
 2028SOL     OW17716   0.052   1.521  10.756  0.1869  0.0594  0.6813
 2028SOL    HW117717   0.004   1.526  10.839 -0.1447  0.7411  0.4542
 2028SOL    HW217718   0.036   1.608  10.719  1.1637 -1.0356 -2.3396
 2029SOL     OW17719   0.542   0.972   8.129 -0.2423  0.0737 -0.2424
 2029SOL    HW117720   0.450   0.950   8.112 -0.0244 -1.5636  0.7242
 2029SOL    HW217721   0.575   0.882   8.128 -1.6957 -0.4569  0.1821
 2030SOL     OW17722   3.156   0.909   3.192 -0.5106 -0.2597 -0.2420
 2030SOL    HW117723   3.242   0.915   3.234 -0.5080  0.0362 -0.2924
 2030SOL    HW217724   3.113   0.842   3.244 -1.0277  2.5499  2.9290
 2031SOL     OW17725   4.555   4.399   4.011  0.0041 -1.0325 -0.2499
 2031SOL    HW117726   4.551   4.418   4.105 -0.0765 -0.4705 -0.3640
 2031SOL    HW217727   4.513   4.474   3.968  0.0332 -0.8295  0.0713
 2032SOL     OW17728   0.949   0.065   8.443  0.2366  0.2204 -0.2283
 2032SOL    HW117729   1.023   0.097   8.494 -0.9264 -0.2889  1.8009
 2032SOL    HW217730   0.981   4.726   8.392 -1.3648 -1.8382  1.7314
 2033SOL     OW17731   0.372   3.156   9.701  0.2978 -0.3305  0.0610
 2033SOL    HW117732   0.307   3.087   9.710 -0.7353  0.5923 -0.4183
 2033SOL    HW217733   0.313   3.228   9.678 -0.6914 -1.1926 -0.0596
 2034SOL     OW17734   2.782   1.255   5.005 -0.1106  0.1674  0.1453
 2034SOL    HW117735   2.850   1.287   5.064  1.7291 -3.4484 -0.0037
 2034SOL    HW217736   2.719   1.327   4.996 -0.4591 -0.0728  0.6696
 2035SOL     OW17737   2.809   2.026  15.162  0.4968 -0.0178 -0.5223
 2035SOL    HW117738   2.719   2.057  15.172  0.8057  0.6070  0.3105
 2035SOL    HW217739   2.856   2.097  15.206  0.2493 -0.1235 -0.0807
 2036SOL     OW17740   3.353   2.287   4.340 -0.1764 -0.3692 -0.0683
 2036SOL    HW117741   3.404   2.331   4.408  0.1599  0.9939 -1.1904
 2036SOL    HW217742   3.376   2.196   4.359 -1.1642 -0.5009  0.4474
 2037SOL     OW17743   4.055   0.545   3.815  0.0950 -0.2704  0.3408
 2037SOL    HW117744   4.043   0.556   3.720 -4.8086 -0.8026  0.8640
 2037SOL    HW217745   4.015   0.624   3.852  4.1518  2.0386 -0.2683
 2038SOL     OW17746   4.098   0.728   7.260  0.1049 -0.1182 -0.0526
 2038SOL    HW117747   4.026   0.748   7.200 -0.4577  0.6866  0.8988
 2038SOL    HW217748   4.097   0.806   7.315 -0.5043 -0.1148 -0.0660
 2039SOL     OW17749   2.160   4.281  10.115 -0.3292 -0.6508 -0.5260
 2039SOL    HW117750   2.238   4.256  10.164 -0.2262 -0.4419 -0.5853
 2039SOL    HW217751   2.100   4.217  10.153 -0.7500 -1.1365 -1.9715
 2040SOL     OW17752   0.132   4.012   5.338 -0.3386 -0.8095  0.0582
 2040SOL    HW117753   0.113   4.103   5.363 -0.3969 -0.2058 -2.1737
 2040SOL    HW217754   0.220   4.009   5.377  0.4135 -0.8362 -1.6170
 2041SOL     OW17755   1.141   0.375   2.189 -0.3262  0.6380  0.3280
 2041SOL    HW117756   1.196   0.453   2.186  1.7366 -0.8122 -0.4982
 2041SOL    HW217757   1.062   0.411   2.150 -2.5376 -3.1633  1.2658
 2042SOL     OW17758   0.815   2.214   2.108  0.8397  0.0561 -0.2131
 2042SOL    HW117759   0.760   2.224   2.031 -0.9587  0.0933  1.0668
 2042SOL    HW217760   0.744   2.178   2.161 -0.1115 -0.5573 -1.9121
 2043SOL     OW17761   1.538   0.022   3.918 -0.2065 -0.2442  0.1689
 2043SOL    HW117762   1.509   0.076   3.992 -0.9788  1.4215 -1.3606
 2043SOL    HW217763   1.629   4.731   3.935 -0.3099 -0.4327  0.4345
 2044SOL     OW17764   2.075   1.626   3.251 -0.1702  0.5269  0.3418
 2044SOL    HW117765   1.984   1.599   3.238 -0.8168  2.5922  0.6838
 2044SOL    HW217766   2.100   1.538   3.282  0.8982  0.1373 -1.6122
 2045SOL     OW17767   3.826   1.939   0.692  0.0412 -0.6075  0.0178
 2045SOL    HW117768   3.773   1.945   0.613  1.7254  1.4741 -0.9745
 2045SOL    HW217769   3.900   1.911   0.639  1.0433  1.1769  0.4499
 2046SOL     OW17770   3.548   0.903   5.367  0.0071 -0.2271 -0.1712
 2046SOL    HW117771   3.604   0.901   5.445  0.8348 -0.7122 -0.7854
 2046SOL    HW217772   3.464   0.877   5.406  1.3090 -2.2817  1.2338
 2047SOL     OW17773   2.095   2.396   5.862 -0.4873  0.5287  0.2168
 2047SOL    HW117774   2.143   2.471   5.895  1.7086 -2.3637  3.5743
 2047SOL    HW217775   2.028   2.429   5.802  0.4336  2.0889  0.0776
 2048SOL     OW17776   4.102   1.526   1.758 -0.2943 -0.3619 -0.0197
 2048SOL    HW117777   4.064   1.543   1.844 -0.2580  3.7067 -0.7658
 2048SOL    HW217778   4.079   1.610   1.718 -1.3712 -1.1139 -0.9718
 2049SOL     OW17779   1.442   1.312  16.895 -0.2956 -0.6394  0.3601
 2049SOL    HW117780   1.513   1.276  16.841  0.7552  0.0393  1.2771
 2049SOL    HW217781   1.438   1.400  16.858  0.1562 -1.4250 -1.5319
 2050SOL     OW17782   3.399   2.648   3.704 -0.4568 -0.2351 -0.1728
 2050SOL    HW117783   3.305   2.653   3.687 -0.3042  2.7059 -0.1947
 2050SOL    HW217784   3.410   2.731   3.751 -2.8239  0.7239 -1.2915
 2051SOL     OW17785   2.187   2.829   6.581  0.8490 -0.1186 -0.0803
 2051SOL    HW117786   2.159   2.796   6.666 -1.6010  1.8866 -0.1156
 2051SOL    HW217787   2.276   2.794   6.586  1.0361  0.2547 -0.7266
 2052SOL     OW17788   3.810   2.537   9.436 -0.3216  0.2643  0.2083
 2052SOL    HW117789   3.831   2.601   9.504  1.6486 -1.2171  0.9674
 2052SOL    HW217790   3.743   2.485   9.480  1.2639 -2.8871 -1.1325
 2053SOL     OW17791   4.006   4.182   4.049  0.5458 -0.5244  0.2721
 2053SOL    HW117792   4.006   4.090   4.026  1.5848 -0.4741  0.0639
 2053SOL    HW217793   3.911   4.196   4.052  0.3594 -1.6939 -0.5196
 2054SOL     OW17794   3.854   1.044   5.397  0.1605  0.6020  0.0649
 2054SOL    HW117795   3.908   1.122   5.382  0.2966  0.3036 -0.9859
 2054SOL    HW217796   3.922   0.977   5.392 -0.1945  0.1918  0.8359
 2055SOL     OW17797   4.331   4.007   2.512 -0.5937  0.1122 -0.0072
 2055SOL    HW117798   4.403   3.953   2.545 -0.6820  0.3866  0.6458
 2055SOL    HW217799   4.376   4.059   2.445  2.4481 -1.0509  1.1228
 2056SOL     OW17800   1.529   3.659   9.141 -0.0540  0.4804 -0.0250
 2056SOL    HW117801   1.515   3.751   9.119  0.6652  0.2988 -1.1839
 2056SOL    HW217802   1.525   3.666   9.237  0.3580 -0.6787  0.0741
 2057SOL     OW17803   2.232   1.590  11.977  0.3357  0.6660  0.2792
 2057SOL    HW117804   2.324   1.587  12.002  0.8586 -0.9794 -1.8605
 2057SOL    HW217805   2.189   1.572  12.060  0.1015  0.5686  0.1369
 2058SOL     OW17806   0.328   1.734  17.238 -0.3965 -0.1310  0.2025
 2058SOL    HW117807   0.353   1.642  17.226  1.1560  0.2433  0.6750
 2058SOL    HW217808   0.413   1.777  17.237  0.2001 -1.3144  0.4603
 2059SOL     OW17809   4.342   1.238   4.926 -0.1814 -0.2091 -0.0818
 2059SOL    HW117810   4.365   1.276   4.841 -0.2728  0.7891  0.3449
 2059SOL    HW217811   4.322   1.147   4.904 -2.2273  0.4187 -0.8032
 2060SOL     OW17812   0.153   4.496   9.258  0.4778 -0.1713 -0.2965
 2060SOL    HW117813   0.130   4.451   9.177  0.5492  0.4511 -0.6621
 2060SOL    HW217814   0.127   4.428   9.320 -0.7382  1.7861  1.3486
 2061SOL     OW17815   2.598   3.472  12.970  0.0043 -0.1104 -0.4329
 2061SOL    HW117816   2.535   3.499  12.903  1.0337  0.0784 -1.3236
 2061SOL    HW217817   2.667   3.532  12.942 -0.5589  1.4695  1.5760
 2062SOL     OW17818   2.454   3.903   1.317  0.3180 -0.2161  0.0615
 2062SOL    HW117819   2.453   3.912   1.413  0.8664  0.4357  0.0064
 2062SOL    HW217820   2.480   3.994   1.301  1.2313 -0.1980  1.6092
 2063SOL     OW17821   4.477   1.519   4.034  0.0305 -0.3797  0.0836
 2063SOL    HW117822   4.478   1.593   3.974 -1.7025  0.7274  1.3855
 2063SOL    HW217823   4.427   1.557   4.107 -1.6027  0.4231 -1.4748
 2064SOL     OW17824   4.027   1.980  13.882  0.1104  0.0897 -0.0098
 2064SOL    HW117825   4.004   1.960  13.973 -1.5025 -0.7991 -0.6110
 2064SOL    HW217826   3.941   1.967  13.841  0.7930 -0.8110 -1.1435
 2065SOL     OW17827   0.335   3.398   6.417 -0.2624 -0.2945 -0.2627
 2065SOL    HW117828   0.356   3.486   6.384  1.3508 -0.5625  0.0956
 2065SOL    HW217829   0.251   3.414   6.460 -0.0083 -1.2052  0.5523
 2066SOL     OW17830   3.967   0.299  12.958  0.0318  0.4425  0.8401
 2066SOL    HW117831   3.993   0.207  12.947 -0.4800  0.5051 -0.8792
 2066SOL    HW217832   3.931   0.293  13.047  0.8561 -1.9068  1.0036
 2067SOL     OW17833   2.398   0.529   3.627 -0.4990 -0.1665  0.1590
 2067SOL    HW117834   2.479   0.481   3.638  0.4518  1.2585 -0.6407
 2067SOL    HW217835   2.432   0.595   3.566  1.1280  0.0701  1.3157
 2068SOL     OW17836   2.745   1.114   0.972  0.1504 -0.2347 -0.0408
 2068SOL    HW117837   2.724   1.129   1.065 -0.8588 -1.5945 -0.0525
 2068SOL    HW217838   2.679   1.170   0.933 -0.7356 -1.2152  0.0324
 2069SOL     OW17839   1.870   2.007   8.034 -0.3790 -0.4656 -0.3079
 2069SOL    HW117840   1.809   2.074   8.004  1.1644  1.1910  0.2575
 2069SOL    HW217841   1.942   2.024   7.973  0.0889 -1.3712 -0.0121
 2070SOL     OW17842   3.769   2.559   5.582  0.4499 -0.3386  0.0276
 2070SOL    HW117843   3.836   2.536   5.518 -0.7771 -2.8726 -0.3268
 2070SOL    HW217844   3.809   2.644   5.603 -1.5934  0.5364  0.3631
 2071SOL     OW17845   1.573   0.504  14.196 -0.1201 -0.6334  0.3100
 2071SOL    HW117846   1.587   0.410  14.200 -2.0086 -0.8973  0.9960
 2071SOL    HW217847   1.635   0.520  14.125 -0.5320 -1.8028 -0.3138
 2072SOL     OW17848   1.606   4.240   5.068  0.0551 -0.1393  0.2751
 2072SOL    HW117849   1.588   4.279   5.154  1.2270 -1.5181  1.1566
 2072SOL    HW217850   1.619   4.150   5.098  1.9245  0.1209  0.2597
 2073SOL     OW17851   4.415   0.580   3.820 -0.4750  0.4251  0.1517
 2073SOL    HW117852   4.491   0.618   3.864  0.4578  0.8377 -1.8048
 2073SOL    HW217853   4.361   0.658   3.810  0.0776  0.6534 -1.0683
 2074SOL     OW17854   4.170   3.653   7.443 -0.0424  1.0594 -0.6650
 2074SOL    HW117855   4.096   3.635   7.501  0.6616  1.9309  0.4998
 2074SOL    HW217856   4.190   3.568   7.402 -0.1820  1.2288 -1.0803
 2075SOL     OW17857   4.498   2.684  11.560 -0.2990  0.2361 -0.2231
 2075SOL    HW117858   4.511   2.590  11.548 -0.1789 -0.0483  2.2201
 2075SOL    HW217859   4.510   2.722  11.473  1.7705 -1.0831 -0.5040
 2076SOL     OW17860   4.568   0.850   2.054  0.0522 -0.7822 -0.2608
 2076SOL    HW117861   4.496   0.832   1.993 -0.5328  3.8143 -0.8903
 2076SOL    HW217862   4.530   0.843   2.142  0.3830 -0.3458 -0.0830
 2077SOL     OW17863   2.000   1.446   4.157 -0.0455  0.3209 -0.2747
 2077SOL    HW117864   1.988   1.427   4.250  0.2562 -0.4932 -0.3995
 2077SOL    HW217865   2.017   1.356   4.129  3.2620  0.6437  0.6535
 2078SOL     OW17866   1.434   2.753  17.558  0.1553  0.1216  0.2771
 2078SOL    HW117867   1.415   2.699  17.635  1.3204 -0.8426 -0.0975
 2078SOL    HW217868   1.346   2.758  17.521  0.5426 -2.8444 -1.0335
 2079SOL     OW17869   4.091   4.346   1.909  0.0670 -0.1037 -0.9604
 2079SOL    HW117870   4.130   4.299   1.835 -0.0847 -2.2101  0.3132
 2079SOL    HW217871   4.000   4.363   1.884 -0.2267  0.4286  0.4533
 2080SOL     OW17872   4.057   3.911  16.008 -0.2862 -0.0035  1.0768
 2080SOL    HW117873   4.102   3.970  16.068  0.2661  2.1349 -1.4357
 2080SOL    HW217874   4.134   3.876  15.962  0.6892  1.3175  1.6977
 2081SOL     OW17875   3.892   1.415  16.928  0.3566 -0.2298 -0.2239
 2081SOL    HW117876   3.800   1.395  16.915  0.4574 -0.6228 -0.3456
 2081SOL    HW217877   3.887   1.503  16.891  1.6541 -0.9000 -2.0401
 2082SOL     OW17878   4.263   1.837   4.619  0.1766 -0.1975  0.1546
 2082SOL    HW117879   4.226   1.774   4.680  2.1489 -1.7351 -0.2665
 2082SOL    HW217880   4.355   1.821   4.637 -0.0259 -0.8129  0.6272
 2083SOL     OW17881   4.586   4.155  14.565 -0.2863 -0.2643  1.2173
 2083SOL    HW117882   4.600   4.061  14.552 -2.0781 -0.1651 -1.5736
 2083SOL    HW217883   4.535   4.180  14.488 -1.6455 -2.7117  1.3270
 2084SOL     OW17884   1.925   0.826   3.164  0.2202 -0.1416 -0.0996
 2084SOL    HW117885   1.874   0.867   3.095  0.1988  1.9831  1.1702
 2084SOL    HW217886   2.016   0.810   3.139  0.3588 -0.2190  0.4550
 2085SOL     OW17887   3.770   0.035   4.959  0.0242  0.1224  0.1335
 2085SOL    HW117888   3.822   0.003   5.032  0.7912  2.5207  0.6307
 2085SOL    HW217889   3.709   4.697   4.945 -0.2573  0.1778  1.0830
 2086SOL     OW17890   4.149   0.642  15.778  0.2285  0.2534  0.4092
 2086SOL    HW117891   4.235   0.664  15.813  0.9119  0.8686 -1.6608
 2086SOL    HW217892   4.110   0.723  15.811 -0.3136  1.0857 -2.2944
 2087SOL     OW17893   1.523   0.368   7.134  0.6112 -0.5907 -0.6324
 2087SOL    HW117894   1.513   0.348   7.041  0.0826 -2.1261 -0.2442
 2087SOL    HW217895   1.494   0.459   7.140 -0.9474 -1.2521  1.9645
 2088SOL     OW17896   4.391   0.224  10.345  0.5564 -0.1291 -0.7202
 2088SOL    HW117897   4.403   0.309  10.305 -1.9836  1.7424  2.4616
 2088SOL    HW217898   4.480   0.189  10.348  0.5434 -0.2101 -1.2871
 2089SOL     OW17899   4.699   3.197   7.452 -0.4295 -0.0482 -0.4385
 2089SOL    HW117900   0.004   3.283   7.436 -0.0352  0.2687  2.2368
 2089SOL    HW217901   0.031   3.160   7.510  0.2911  2.1217  0.1195
 2090SOL     OW17902   2.627   3.907   3.359  0.6278  0.3533  0.0862
 2090SOL    HW117903   2.720   3.889   3.372 -0.1467 -2.5501  1.5817
 2090SOL    HW217904   2.628   3.999   3.330 -0.5705  0.2153 -0.4044
 2091SOL     OW17905   3.783   0.208   9.125  0.4273 -0.4074  0.0842
 2091SOL    HW117906   3.783   0.173   9.214  2.2971  1.7271  0.9383
 2091SOL    HW217907   3.863   0.169   9.088 -0.1861 -2.6704  1.1599
 2092SOL     OW17908   3.001   0.092   8.494  0.7952  0.0758  0.0257
 2092SOL    HW117909   3.040   0.101   8.581  1.6469  0.9325 -0.4515
 2092SOL    HW217910   2.995   0.179   8.455  2.3957 -0.8180 -2.1963
 2093SOL     OW17911   2.528   4.693   5.200 -0.5324  0.6158  0.8506
 2093SOL    HW117912   2.482   0.011   5.265 -1.4160  4.1463 -2.6367
 2093SOL    HW217913   2.602   0.016   5.180  0.4968 -1.0033 -0.0257
 2094SOL     OW17914   4.005   1.503   6.879 -0.7844 -0.3580  0.4446
 2094SOL    HW117915   4.080   1.460   6.920  1.1900  2.0439 -0.5736
 2094SOL    HW217916   3.948   1.518   6.954 -0.0951  0.2688  0.8432
 2095SOL     OW17917   4.525   1.814  10.112  0.0963  0.1383 -0.9302
 2095SOL    HW117918   4.586   1.872  10.066  0.0717  0.9574  0.0582
 2095SOL    HW217919   4.529   1.739  10.053 -0.7400  0.1248 -0.9680
 2096SOL     OW17920   0.745   1.233   9.450 -0.3232  0.0316  0.3851
 2096SOL    HW117921   0.759   1.233   9.544 -0.2283  0.4519  0.3694
 2096SOL    HW217922   0.654   1.262   9.450  0.1237  1.4714 -0.1163
 2097SOL     OW17923   3.738   1.298  16.214  0.1664 -0.9208 -0.0825
 2097SOL    HW117924   3.766   1.231  16.276 -1.9270 -0.6525  1.1742
 2097SOL    HW217925   3.707   1.368  16.272  3.0469 -0.5324  0.9709
 2098SOL     OW17926   1.641   0.530   8.333  0.3357 -0.7117 -0.8156
 2098SOL    HW117927   1.708   0.527   8.401 -1.8911  1.3151  1.4366
 2098SOL    HW217928   1.563   0.517   8.386  0.3826 -1.4715 -0.9269
 2099SOL     OW17929   2.221   2.040  12.509  0.1036  0.4388 -0.0233
 2099SOL    HW117930   2.260   1.962  12.468  1.0915  1.6522 -1.4087
 2099SOL    HW217931   2.222   2.008  12.599  1.4051 -0.2148 -0.2668
 2100SOL     OW17932   0.674   0.712  11.328  0.5392  0.0696  0.3201
 2100SOL    HW117933   0.587   0.749  11.340  0.9617  0.9454  0.7160
 2100SOL    HW217934   0.658   0.619  11.317  1.1013 -0.3292  2.9046
 2101SOL     OW17935   2.906   0.590   7.462  0.5060  0.6741  0.5200
 2101SOL    HW117936   2.847   0.648   7.414  0.0082 -0.4079 -0.1683
 2101SOL    HW217937   2.919   0.527   7.392  1.9805 -0.5253  1.8632
 2102SOL     OW17938   0.303   1.325  17.699  0.1139  0.2661 -0.2868
 2102SOL    HW117939   0.215   1.353  17.724  0.6147 -0.0599  1.7844
 2102SOL    HW217940   0.362   1.396  17.725 -0.6334  1.6402 -2.3348
 2103SOL     OW17941   3.370   1.988   5.523  0.1117 -0.1954  0.3504
 2103SOL    HW117942   3.391   1.909   5.573  1.1441  0.5883  1.1379
 2103SOL    HW217943   3.332   1.940   5.449  0.0082  0.4324 -0.0094
 2104SOL     OW17944   3.461   1.635   6.568  0.2499 -0.1017 -0.3118
 2104SOL    HW117945   3.398   1.602   6.632  3.5009 -3.1114  1.3628
 2104SOL    HW217946   3.432   1.725   6.553 -1.3120 -0.3846  0.9827
 2105SOL     OW17947   0.079   2.687   4.514  0.2756 -0.4937  0.2247
 2105SOL    HW117948   0.030   2.605   4.514 -1.2260  0.3984 -1.9001
 2105SOL    HW217949   0.101   2.705   4.423  2.3334  0.4469  0.8961
 2106SOL     OW17950   4.038   2.250  17.377  0.1189 -0.0080 -0.3862
 2106SOL    HW117951   3.984   2.249  17.456 -0.7951 -0.4417 -1.0341
 2106SOL    HW217952   4.102   2.184  17.404 -0.9675 -0.7060  0.4523
 2107SOL     OW17953   4.726   0.139   5.455  0.1460 -0.3157 -0.1010
 2107SOL    HW117954   4.677   0.191   5.519  0.1811 -1.7730  1.1168
 2107SOL    HW217955   4.688   0.190   5.384  2.8500 -0.9950 -2.0260
 2108SOL     OW17956   2.253   3.096  10.689 -0.5164 -0.3365  0.3622
 2108SOL    HW117957   2.237   3.069  10.780  1.0049  0.0196  0.7375
 2108SOL    HW217958   2.340   3.060  10.673 -0.6622 -0.6881  0.3526
 2109SOL     OW17959   3.686   1.588   0.223 -0.6868 -0.0621 -0.2159
 2109SOL    HW117960   3.731   1.652   0.168 -0.9541 -1.5562 -2.1531
 2109SOL    HW217961   3.724   1.602   0.310 -0.7259 -0.9752 -0.0538
 2110SOL     OW17962   2.875   2.384  11.260  0.0749  0.2177 -0.0697
 2110SOL    HW117963   2.799   2.400  11.317  1.6181 -1.6073  2.5402
 2110SOL    HW217964   2.850   2.430  11.180  1.9190 -3.5601 -2.8181
 2111SOL     OW17965   4.454   3.315   2.374  0.0182  0.5274  0.0807
 2111SOL    HW117966   4.539   3.310   2.418  0.3696  0.7612 -0.5752
 2111SOL    HW217967   4.484   3.347   2.289  2.0800 -1.0422  0.2079
 2112SOL     OW17968   2.857   3.666   5.318  0.1692 -0.3427 -0.0465
 2112SOL    HW117969   2.951   3.649   5.318  0.0899 -0.7702 -0.7394
 2112SOL    HW217970   2.814   3.581   5.326  2.5493 -1.4821  0.6383
 2113SOL     OW17971   3.496   3.431   5.773 -0.0448 -0.2504 -0.4450
 2113SOL    HW117972   3.520   3.428   5.866  0.3819  1.5014 -0.5061
 2113SOL    HW217973   3.448   3.349   5.764 -0.2294 -0.1248 -0.5968
 2114SOL     OW17974   4.122   4.422  10.907 -0.1603  0.2090 -0.5224
 2114SOL    HW117975   4.170   4.401  10.987 -0.5402  1.1326 -0.0497
 2114SOL    HW217976   4.141   4.516  10.900 -1.1846  0.4045 -0.6787
 2115SOL     OW17977   4.349   2.863  15.440  0.0178 -0.3048  0.1658
 2115SOL    HW117978   4.349   2.772  15.469  1.2699  0.2670  1.9877
 2115SOL    HW217979   4.276   2.862  15.379  0.6707  1.5772 -0.6509
 2116SOL     OW17980   4.482   1.624   1.804  0.3423 -0.4187  1.1773
 2116SOL    HW117981   4.541   1.554   1.778 -0.8307 -0.4230 -1.3888
 2116SOL    HW217982   4.488   1.679   1.726  2.3826 -0.0875  1.5558
 2117SOL     OW17983   1.114   1.617   2.826  0.2899  0.2475 -0.1438
 2117SOL    HW117984   1.059   1.545   2.857  0.2363  0.0310 -0.7568
 2117SOL    HW217985   1.157   1.576   2.751 -0.9938  0.3672 -0.9382
 2118SOL     OW17986   1.606   3.532   4.558  0.1470  0.0726  0.1622
 2118SOL    HW117987   1.616   3.627   4.553 -0.5063  0.1586  0.4822
 2118SOL    HW217988   1.696   3.515   4.585  0.2727  0.3710 -0.0720
 2119SOL     OW17989   2.269   3.833  17.135 -0.2674 -0.5910  0.9124
 2119SOL    HW117990   2.273   3.807  17.227  1.0238 -1.4247  0.6223
 2119SOL    HW217991   2.177   3.856  17.125  0.2147  0.2787 -1.5905
 2120SOL     OW17992   2.211   0.142   5.859  0.3081 -0.2248  0.2996
 2120SOL    HW117993   2.272   0.209   5.888 -0.9512  0.7521  0.6912
 2120SOL    HW217994   2.218   0.074   5.926 -2.5361  2.0837  2.9486
 2121SOL     OW17995   4.012   1.263   5.173 -0.1421 -0.1415  0.1224
 2121SOL    HW117996   3.987   1.193   5.113  0.1725  0.2542 -0.4690
 2121SOL    HW217997   3.929   1.311   5.170 -0.3269 -0.5244 -0.8209
 2122SOL     OW17998   1.499   1.199   5.579  0.6816 -0.5023  0.2471
 2122SOL    HW117999   1.554   1.156   5.514 -0.8397 -0.8485 -0.8265
 2122SOL    HW218000   1.411   1.195   5.541  1.4416 -2.1867 -1.3251
 2123SOL     OW18001   1.585   0.445   4.767 -0.3648 -0.1245  0.3954
 2123SOL    HW118002   1.549   0.459   4.855  0.2926 -0.6214  0.7480
 2123SOL    HW218003   1.620   0.533   4.756  3.8959 -1.6300  1.5165
 2124SOL     OW18004   3.638   2.483   4.867 -0.1188  0.0711 -0.1387
 2124SOL    HW118005   3.600   2.570   4.877  0.3653 -0.0014  2.1275
 2124SOL    HW218006   3.707   2.488   4.932 -0.4196  0.1156  0.1745
 2125SOL     OW18007   2.672   2.689  12.990  0.3726 -0.0898  0.6065
 2125SOL    HW118008   2.619   2.609  12.987  1.2151 -0.6970  1.8019
 2125SOL    HW218009   2.667   2.736  13.073  0.6921  1.8988 -0.4999
 2126SOL     OW18010   4.583   1.916  10.792 -0.2759 -0.0609  0.4123
 2126SOL    HW118011   4.494   1.950  10.797  0.6207  2.0457  1.9881
 2126SOL    HW218012   4.586   1.839  10.736  2.6728  0.7305 -0.5467
 2127SOL     OW18013   1.375   2.551   9.975  0.1805 -0.0563  0.3565
 2127SOL    HW118014   1.381   2.510  10.061  1.7805 -0.4004  0.0798
 2127SOL    HW218015   1.373   2.646   9.985 -1.5821  0.2150 -2.4966
 2128SOL     OW18016   3.810   1.955   7.860  0.0953  0.0182 -0.0982
 2128SOL    HW118017   3.756   2.031   7.839 -0.3175  0.2354  1.7071
 2128SOL    HW218018   3.743   1.897   7.896  0.6384 -0.0048  0.8849
 2129SOL     OW18019   0.633   0.173   1.015 -0.1508  0.0496  0.0479
 2129SOL    HW118020   0.547   0.206   1.039  0.0202  0.0051  0.7384
 2129SOL    HW218021   0.688   0.251   1.005  0.1353 -0.4298 -2.0135
 2130SOL     OW18022   3.930   3.289   5.051 -0.0703 -0.4233  0.3503
 2130SOL    HW118023   3.898   3.254   5.134 -1.8020 -0.5632 -0.3798
 2130SOL    HW218024   3.867   3.259   4.985 -1.3369 -0.9096  1.7939
 2131SOL     OW18025   3.260   3.691   4.845 -0.2425  0.0376  0.1411
 2131SOL    HW118026   3.256   3.624   4.913 -0.3846 -1.1352 -1.0216
 2131SOL    HW218027   3.193   3.747   4.883 -0.8225 -0.9982  0.6335
 2132SOL     OW18028   2.544   3.948   9.096  1.0754 -0.0746  0.0929
 2132SOL    HW118029   2.638   3.941   9.110  1.0615 -0.7670 -0.1530
 2132SOL    HW218030   2.536   3.929   9.003 -0.2254  0.1772  0.1463
 2133SOL     OW18031   3.793   0.421   5.120  0.0460 -0.1338  0.1314
 2133SOL    HW118032   3.887   0.434   5.118 -0.0324  0.5687  1.0113
 2133SOL    HW218033   3.756   0.433   5.032 -0.1109  2.9280  0.6062
 2134SOL     OW18034   1.615   3.347   9.653  0.2988  0.5399  0.1916
 2134SOL    HW118035   1.614   3.254   9.672  2.5153  0.1822 -1.4393
 2134SOL    HW218036   1.546   3.378   9.711  0.4603  0.5902  0.3597
 2135SOL     OW18037   4.245   0.154   6.331  0.7340  0.2844 -0.3653
 2135SOL    HW118038   4.294   0.094   6.275  1.2857  0.5042 -0.1133
 2135SOL    HW218039   4.281   0.139   6.418  2.5872  0.0434 -1.1692
 2136SOL     OW18040   4.117   2.255   4.931 -0.9735  0.1652 -0.1520
 2136SOL    HW118041   4.157   2.223   5.012  1.3107  0.7552 -1.0563
 2136SOL    HW218042   4.136   2.181   4.873 -0.9374 -0.7099  0.9857
 2137SOL     OW18043   4.600   0.299   2.533 -0.0180 -0.3690  0.2812
 2137SOL    HW118044   4.643   0.236   2.474 -2.7914  2.0649 -4.3084
 2137SOL    HW218045   4.573   0.364   2.468 -2.6674 -0.1640  1.6003
 2138SOL     OW18046   1.870   0.126   3.078  0.1815  0.0760  0.4570
 2138SOL    HW118047   1.792   0.176   3.100  0.0053  1.1673 -2.6974
 2138SOL    HW218048   1.826   0.041   3.076 -0.2279  0.2988 -0.0377
 2139SOL     OW18049   0.463   1.056   4.820  0.0072 -0.7514  0.2882
 2139SOL    HW118050   0.509   1.134   4.788  1.3356 -1.4138  0.5944
 2139SOL    HW218051   0.395   1.052   4.753 -0.7624 -1.4052  1.1319
 2140SOL     OW18052   3.625   1.888   4.326 -0.4338 -0.3227 -0.2642
 2140SOL    HW118053   3.538   1.928   4.324 -1.5902 -2.7995  0.9401
 2140SOL    HW218054   3.618   1.816   4.389 -2.0300 -1.3298 -1.6064
 2141SOL     OW18055   4.569   3.193  10.702  0.0212 -0.0122 -0.1476
 2141SOL    HW118056   4.534   3.279  10.679 -2.0803 -0.7235  0.3542
 2141SOL    HW218057   4.486   3.165  10.742  1.0994 -2.2399  0.5475
 2142SOL     OW18058   2.012   3.791   3.122 -0.2753  0.6138 -0.2985
 2142SOL    HW118059   2.099   3.830   3.128 -0.8730  1.8500  0.2669
 2142SOL    HW218060   2.035   3.706   3.159  1.8075  0.6618 -1.5076
 2143SOL     OW18061   4.711   4.677   4.845  0.5014  0.4930  0.3153
 2143SOL    HW118062   0.024   4.598   4.871 -0.5937  0.2373  1.5069
 2143SOL    HW218063   4.725   4.685   4.750  0.7407  1.4024  0.4284
 2144SOL     OW18064   1.570   4.134   9.172 -0.1039 -0.4661 -0.3526
 2144SOL    HW118065   1.516   4.119   9.249  0.4403 -2.1260 -0.3000
 2144SOL    HW218066   1.568   4.230   9.170 -0.8843 -0.4427  1.3391
 2145SOL     OW18067   0.136   2.606  10.778  0.3419  0.6535  0.0844
 2145SOL    HW118068   0.052   2.561  10.787  0.7498  0.2955  2.1837
 2145SOL    HW218069   0.158   2.649  10.861 -0.6234 -0.6183  1.0001
 2146SOL     OW18070   4.224   0.863   7.000 -0.1684  0.0480  0.5490
 2146SOL    HW118071   4.147   0.883   7.054 -0.3556 -1.9069  1.0005
 2146SOL    HW218072   4.277   0.800   7.047 -2.0995 -2.5263 -0.6991
 2147SOL     OW18073   4.576   2.485   7.082  0.0407 -0.4102  0.1012
 2147SOL    HW118074   4.661   2.470   7.121  0.2224  0.4576  0.0301
 2147SOL    HW218075   4.608   2.514   6.996 -1.8191 -1.4697 -0.9775
 2148SOL     OW18076   0.057   2.128   7.247 -0.1619  0.2860  0.2607
 2148SOL    HW118077   0.138   2.177   7.233 -0.1668  1.5233  4.3429
 2148SOL    HW218078   0.053   2.098   7.157 -0.1778  1.4787 -0.1319
 2149SOL     OW18079   1.149   1.232   5.461 -0.0896  0.1022 -0.0489
 2149SOL    HW118080   1.159   1.177   5.538 -0.8416 -1.2252 -0.9034
 2149SOL    HW218081   1.097   1.305   5.494 -2.8054 -1.8851  0.0063
 2150SOL     OW18082   3.094   2.765   5.957  0.1374 -0.6263 -0.2034
 2150SOL    HW118083   3.037   2.687   5.954 -3.8859  2.2737  0.2194
 2150SOL    HW218084   3.026   2.830   5.977 -0.1419 -1.9580  3.1708
 2151SOL     OW18085   4.396   1.844   2.978  0.2866  0.4835 -0.1642
 2151SOL    HW118086   4.315   1.890   2.953 -0.1681  0.3400  1.0361
 2151SOL    HW218087   4.425   1.827   2.888 -2.0531  1.3147 -1.0907
 2152SOL     OW18088   2.058   4.193   6.365  0.2291 -0.0619 -0.6054
 2152SOL    HW118089   2.101   4.227   6.444 -0.0465 -1.4648  0.1527
 2152SOL    HW218090   1.974   4.161   6.397  0.2553 -1.4028 -1.9079
 2153SOL     OW18091   0.757   3.491   2.393 -0.0530  0.3575  0.1599
 2153SOL    HW118092   0.772   3.561   2.457 -0.2646  1.0679 -0.5560
 2153SOL    HW218093   0.667   3.460   2.406 -0.2946  0.7455 -0.5486
 2154SOL     OW18094   3.086   4.678   3.731 -0.0984  0.2373 -1.0157
 2154SOL    HW118095   3.112   4.670   3.823 -0.3851  1.3266 -0.8435
 2154SOL    HW218096   3.005   4.727   3.742 -0.7618 -1.6325  2.4469
 2155SOL     OW18097   0.219   3.038   1.248  0.1855 -0.2665 -0.2179
 2155SOL    HW118098   0.183   2.956   1.215 -2.1725  1.0621 -0.9205
 2155SOL    HW218099   0.173   3.046   1.332 -0.7948 -0.4627 -0.7433
 2156SOL     OW18100   4.077   1.884  12.944 -0.7272  0.5729  0.0355
 2156SOL    HW118101   4.046   1.891  12.853 -0.7345  0.8147  0.0584
 2156SOL    HW218102   3.999   1.847  12.985  2.2374 -1.2314  3.9420
 2157SOL     OW18103   2.466   0.037   2.760  1.0031  0.4276  0.5614
 2157SOL    HW118104   2.538   0.081   2.716  0.2877  0.6548 -0.3701
 2157SOL    HW218105   2.457   0.091   2.838  0.0163 -1.0159  1.4451
 2158SOL     OW18106   4.468   0.552   9.932  0.5545 -0.0233  0.1310
 2158SOL    HW118107   4.549   0.595   9.961  0.7584 -0.5659  0.3606
 2158SOL    HW218108   4.482   0.567   9.839  1.5977 -3.4009 -0.2556
 2159SOL     OW18109   2.019   0.635   3.528  0.2229  0.0161  0.2047
 2159SOL    HW118110   2.084   0.640   3.458  0.0131 -1.0266 -0.0642
 2159SOL    HW218111   2.064   0.609   3.608  1.1818 -0.5422 -0.5067
 2160SOL     OW18112   0.552   0.510   7.231 -0.0173 -0.4731 -0.3234
 2160SOL    HW118113   0.597   0.567   7.293 -1.1016 -0.1496  0.1762
 2160SOL    HW218114   0.459   0.534   7.234  0.0395 -0.4050  1.1171
 2161SOL     OW18115   3.088   4.673   0.616 -0.0027  0.4306 -0.2464
 2161SOL    HW118116   3.183   4.664   0.614  0.0444 -0.4919  4.0951
 2161SOL    HW218117   3.070   4.653   0.525 -1.1323 -0.6803  0.2270
 2162SOL     OW18118   4.467   1.207   2.943  0.1711 -0.0198  0.3268
 2162SOL    HW118119   4.532   1.175   2.881  0.3427  1.3944 -0.2385
 2162SOL    HW218120   4.400   1.208   2.874  1.3581  2.2679 -0.8075
 2163SOL     OW18121   1.639   2.288   9.245 -0.6348  0.2421 -0.3077
 2163SOL    HW118122   1.723   2.334   9.253 -0.1680 -1.0058  2.1998
 2163SOL    HW218123   1.593   2.328   9.320 -0.2736 -2.7370  1.5044
 2164SOL     OW18124   1.272   2.789   9.773  0.1349 -0.2065  0.1211
 2164SOL    HW118125   1.200   2.728   9.793  1.2062 -0.3889  3.3404
 2164SOL    HW218126   1.245   2.823   9.688 -0.3595  0.0374  0.3773
 2165SOL     OW18127   3.192   2.280  11.464 -0.2415  0.0854  0.0126
 2165SOL    HW118128   3.167   2.368  11.437  1.2018  1.2211  2.4045
 2165SOL    HW218129   3.126   2.255  11.528 -0.7704  0.2091 -0.4868
 2166SOL     OW18130   4.144   1.171  17.462  0.1671 -1.0766 -0.2109
 2166SOL    HW118131   4.224   1.173  17.514 -0.6588  0.1613  1.0034
 2166SOL    HW218132   4.171   1.188  17.372  0.1659  1.8257  0.3460
 2167SOL     OW18133   1.440   3.387   1.652 -0.0653  0.3493  0.0257
 2167SOL    HW118134   1.420   3.319   1.716 -0.3521  2.3616  2.1050
 2167SOL    HW218135   1.516   3.428   1.694 -0.8514  1.8577 -0.0112
 2168SOL     OW18136   2.679   1.173  10.916 -0.2169 -0.2184  0.3749
 2168SOL    HW118137   2.625   1.237  10.961 -2.2315 -2.4732  1.1779
 2168SOL    HW218138   2.760   1.170  10.968  0.3546 -0.1613 -0.5114
 2169SOL     OW18139   3.110   1.171   7.283 -0.7072  0.1288  0.1640
 2169SOL    HW118140   3.188   1.143   7.330  0.4752 -1.6371 -2.8260
 2169SOL    HW218141   3.039   1.141   7.341 -2.0403  0.9583 -1.0358
 2170SOL     OW18142   4.717   3.150   2.742 -0.1876  0.3327  0.2198
 2170SOL    HW118143   4.689   3.104   2.822 -1.5857 -0.2220 -0.5951
 2170SOL    HW218144   4.731   3.072   2.687 -1.0762  0.1503  0.2590
 2171SOL     OW18145   2.487   1.082  15.492 -0.0961  0.3883 -0.4018
 2171SOL    HW118146   2.562   1.024  15.502 -0.3803  0.0652 -0.1300
 2171SOL    HW218147   2.419   1.020  15.516  1.9698 -0.7907  2.4330
 2172SOL     OW18148   2.668   4.409   9.026 -0.4346 -0.6185  0.4756
 2172SOL    HW118149   2.588   4.390   8.979 -0.6112  0.6893  0.2393
 2172SOL    HW218150   2.731   4.377   8.961 -0.9181 -0.8849  0.1436
 2173SOL     OW18151   4.094   3.664  14.737  0.4634 -0.5223 -0.2143
 2173SOL    HW118152   4.188   3.665  14.717 -0.0033  0.5523 -2.4551
 2173SOL    HW218153   4.066   3.756  14.737 -1.3078 -1.0830  0.7774
 2174SOL     OW18154   1.055   0.609   3.273 -0.7512  0.2241 -0.2988
 2174SOL    HW118155   1.087   0.619   3.184 -1.1486 -1.4984 -0.6244
 2174SOL    HW218156   0.977   0.556   3.258 -0.0618 -0.3338 -1.8406
 2175SOL     OW18157   4.089   2.414   6.080 -0.9055 -0.0653 -0.3585
 2175SOL    HW118158   4.049   2.494   6.044  2.6403  1.4750 -0.8990
 2175SOL    HW218159   4.017   2.351   6.085 -1.4113  0.4454 -1.1293
 2176SOL     OW18160   2.138   1.602   4.453  0.2399  0.6171  0.1459
 2176SOL    HW118161   2.064   1.540   4.455  2.0735 -1.6278 -1.4605
 2176SOL    HW218162   2.199   1.566   4.517 -2.2831 -4.5297 -0.2834
 2177SOL     OW18163   2.322   1.310   4.218 -0.3241 -0.1022 -0.1559
 2177SOL    HW118164   2.326   1.336   4.126 -0.0667 -1.3290 -0.4958
 2177SOL    HW218165   2.246   1.252   4.226  0.8583 -1.3104  2.3924
 2178SOL     OW18166   4.185   3.734   8.674 -0.7526 -0.1357 -0.0831
 2178SOL    HW118167   4.135   3.810   8.705  0.4603  0.6823 -0.0819
 2178SOL    HW218168   4.271   3.778   8.674  0.7039 -2.9778  2.0577
 2179SOL     OW18169   4.203   4.573   3.785 -0.2670 -0.3755  0.2144
 2179SOL    HW118170   4.195   4.633   3.859  1.4947  0.0571  0.0539
 2179SOL    HW218171   4.207   4.488   3.829  0.3449  0.2118  1.2736
 2180SOL     OW18172   3.014   2.592   7.679  0.0299  0.1211  1.0506
 2180SOL    HW118173   2.959   2.533   7.627 -0.3858 -0.0048  1.6260
 2180SOL    HW218174   2.964   2.672   7.664  1.0574  0.3962 -0.8061
 2181SOL     OW18175   1.832   3.872   9.486  0.0689 -0.2453  0.6534
 2181SOL    HW118176   1.848   3.917   9.569  1.2539  0.4667  0.0233
 2181SOL    HW218177   1.737   3.876   9.469  0.0803 -0.4296  0.5440
 2182SOL     OW18178   1.657   2.435  13.996  0.5889 -0.2182  0.2469
 2182SOL    HW118179   1.733   2.393  14.035  0.1208 -1.8421 -0.5520
 2182SOL    HW218180   1.603   2.358  13.977 -0.2867  0.4086  0.1782
 2183SOL     OW18181   4.436   4.692   3.307 -0.2197 -0.2050 -0.0015
 2183SOL    HW118182   4.494   4.639   3.362 -0.0386 -0.0855 -0.0777
 2183SOL    HW218183   4.363   4.705   3.368  0.2252  2.7277 -0.1127
 2184SOL     OW18184   0.039   2.810   6.026 -0.2929 -0.7602 -0.4372
 2184SOL    HW118185   0.004   2.899   6.025  1.3545 -0.1026 -0.7261
 2184SOL    HW218186   4.694   2.767   6.057  0.2420 -2.1981 -1.0485
 2185SOL     OW18187   4.136   3.347   8.970  0.0985 -0.5937 -0.8604
 2185SOL    HW118188   4.100   3.358   8.882 -0.5405 -1.1588 -0.6690
 2185SOL    HW218189   4.197   3.275   8.952  2.9723  1.2175  1.6902
 2186SOL     OW18190   0.967   2.020  10.013 -0.7699 -0.7529  0.4170
 2186SOL    HW118191   0.953   2.109  10.044  0.7020 -1.1187  2.0967
 2186SOL    HW218192   0.953   2.030   9.919 -0.5980 -1.5248  0.3078
 2187SOL     OW18193   3.342   0.688   5.469  0.0622  0.1166  0.6131
 2187SOL    HW118194   3.426   0.643   5.462  0.3464  0.4802  1.6118
 2187SOL    HW218195   3.344   0.678   5.564  2.3946  0.9476  0.6610
 2188SOL     OW18196   0.381   1.684  17.587  0.3808  0.1630 -0.2353
 2188SOL    HW118197   0.297   1.638  17.587  1.0436 -1.0439 -1.1998
 2188SOL    HW218198   0.345   1.771  17.606  0.1489 -0.0904  0.4858
 2189SOL     OW18199   4.095   4.082   8.422  0.3176 -0.4581  0.0163
 2189SOL    HW118200   4.075   4.165   8.378 -1.9009 -1.4510 -0.8157
 2189SOL    HW218201   4.180   4.058   8.385  1.4113 -0.0962  2.3398
 2190SOL     OW18202   2.739   2.042   3.667  0.5891  0.5710  0.6076
 2190SOL    HW118203   2.671   2.105   3.689 -0.3150  0.5225 -2.1015
 2190SOL    HW218204   2.797   2.102   3.622 -0.7832  0.5562 -1.2088
 2191SOL     OW18205   0.461   3.978   9.581 -0.3000 -0.7875  0.2076
 2191SOL    HW118206   0.485   3.887   9.602 -0.0730 -0.9694 -0.8728
 2191SOL    HW218207   0.386   3.992   9.639  1.0224  1.1657  1.4519
 2192SOL     OW18208   1.222   1.330   6.438 -0.4701  0.1675 -0.3333
 2192SOL    HW118209   1.285   1.306   6.370 -0.1636  0.0752 -0.0184
 2192SOL    HW218210   1.283   1.368   6.502 -2.2047 -1.0390  2.0226
 2193SOL     OW18211   0.328   1.231  17.405 -0.3148 -0.1765  0.0473
 2193SOL    HW118212   0.318   1.283  17.484  1.9080  0.2548  0.0517
 2193SOL    HW218213   0.357   1.145  17.437 -1.6140 -0.3298  0.7753
 2194SOL     OW18214   3.801   4.577   0.984  0.4404  0.7649  0.2841
 2194SOL    HW118215   3.792   4.527   0.903  1.7625 -0.1620  0.7234
 2194SOL    HW218216   3.721   4.629   0.996 -1.3980 -1.9939 -0.0845
 2195SOL     OW18217   4.526   3.302   5.466 -0.3096  0.0624 -0.0440
 2195SOL    HW118218   4.563   3.342   5.545 -0.0092 -1.8727  0.7908
 2195SOL    HW218219   4.434   3.328   5.468  0.0571  1.4029 -0.6114
 2196SOL     OW18220   1.799   4.590   4.399 -0.0545  0.1050  0.3599
 2196SOL    HW118221   1.825   4.644   4.474 -1.0527  1.4480 -0.2441
 2196SOL    HW218222   1.729   4.547   4.447 -0.1627  1.1545  1.1381
 2197SOL     OW18223   2.621   1.278   4.559  0.0552  0.2185  0.0069
 2197SOL    HW118224   2.605   1.224   4.482  1.3623 -0.0939 -0.0390
 2197SOL    HW218225   2.532   1.303   4.584  1.2985  3.5803  1.1806
 2198SOL     OW18226   1.712   0.987   3.943  0.0720 -0.4087  0.7560
 2198SOL    HW118227   1.702   1.079   3.917  1.3182 -0.5218 -0.1295
 2198SOL    HW218228   1.623   0.951   3.937 -0.3248  0.6910  0.0452
 2199SOL     OW18229   0.663   2.309   9.059 -0.6950  0.3445 -0.3652
 2199SOL    HW118230   0.618   2.284   8.978 -0.4556  0.0849 -0.4192
 2199SOL    HW218231   0.667   2.403   9.042  1.5996  0.5370  1.2388
 2200SOL     OW18232   2.580   0.793  16.805  0.0845  0.4617 -0.3343
 2200SOL    HW118233   2.489   0.776  16.781 -0.0538 -0.9110  1.1378
 2200SOL    HW218234   2.624   0.768  16.724  0.3182  0.6966 -0.2797
 2201SOL     OW18235   3.349   3.256   2.059 -0.1620  0.4924 -0.4341
 2201SOL    HW118236   3.374   3.235   1.969  0.0369  0.5044 -0.3802
 2201SOL    HW218237   3.259   3.284   2.039  0.1348  4.2211  3.4802
 2202SOL     OW18238   3.466   4.363   8.134  0.0848  0.2772  0.6800
 2202SOL    HW118239   3.380   4.404   8.123  0.3172  0.6888  0.3843
 2202SOL    HW218240   3.449   4.275   8.103  1.4058  0.9659 -1.9777
 2203SOL     OW18241   4.278   0.985   1.846  0.7526  0.1453 -0.3008
 2203SOL    HW118242   4.342   0.934   1.795 -0.5531  1.5179 -3.3330
 2203SOL    HW218243   4.256   0.939   1.926  0.1498  2.5874  0.9537
 2204SOL     OW18244   1.223   2.586  12.712  0.5932 -0.6654 -0.0025
 2204SOL    HW118245   1.187   2.665  12.672 -1.5656 -2.0523 -0.8174
 2204SOL    HW218246   1.213   2.536  12.631 -1.0227 -2.1871  1.1060
 2205SOL     OW18247   1.526   1.720   3.077  0.1062  0.5248  0.9503
 2205SOL    HW118248   1.445   1.670   3.084  1.3004 -1.3741  1.1418
 2205SOL    HW218249   1.518   1.771   3.157  0.8795  0.0161  1.3499
 2206SOL     OW18250   1.945   1.397   4.434  0.3940 -0.1428  0.1885
 2206SOL    HW118251   1.941   1.306   4.464  3.0748  0.3381  2.0550
 2206SOL    HW218252   1.864   1.427   4.474  0.0133  0.4149 -1.0109
 2207SOL     OW18253   1.069   3.332   7.913  0.7459  0.4003 -0.2286
 2207SOL    HW118254   1.016   3.394   7.963  0.6166  0.9694 -1.0671
 2207SOL    HW218255   1.117   3.398   7.864 -1.2812  0.2788 -2.3414
 2208SOL     OW18256   0.674   3.306   4.695  0.1518 -0.2204 -0.2519
 2208SOL    HW118257   0.757   3.263   4.713 -1.1333 -1.3900  2.8077
 2208SOL    HW218258   0.679   3.338   4.604  0.6679  2.1506  0.6045
 2209SOL     OW18259   1.811   3.989  13.797 -0.1202  0.0965 -0.5113
 2209SOL    HW118260   1.730   3.981  13.848 -1.3551 -0.5599 -2.5564
 2209SOL    HW218261   1.848   3.903  13.819 -1.8192 -0.2771  0.9653
 2210SOL     OW18262   2.425   3.716   9.284  0.1971 -0.8095  0.1320
 2210SOL    HW118263   2.384   3.794   9.245  1.4782 -0.1088  0.1847
 2210SOL    HW218264   2.432   3.653   9.212  1.1132  0.9810 -1.3464
 2211SOL     OW18265   2.719   1.909   8.586 -0.5920 -0.1379 -0.6909
 2211SOL    HW118266   2.634   1.952   8.583 -0.7769 -0.4696 -0.1274
 2211SOL    HW218267   2.767   1.949   8.514 -0.8962  0.3104 -0.6445
 2212SOL     OW18268   4.463   3.229   0.439 -0.2611  0.1807 -0.3733
 2212SOL    HW118269   4.413   3.216   0.520  1.3826  0.4699  0.6929
 2212SOL    HW218270   4.410   3.190   0.370 -0.1593 -1.6148  0.5567
 2213SOL     OW18271   0.966   3.014  12.303 -0.1963 -0.4039  0.2087
 2213SOL    HW118272   0.906   3.050  12.368  0.3411  1.0980 -0.1156
 2213SOL    HW218273   1.039   3.073  12.322  0.1395  0.1235 -2.6049
 2214SOL     OW18274   3.163   1.347   5.361  0.2575 -0.2024  0.4978
 2214SOL    HW118275   3.255   1.327   5.341  0.0817  0.0024 -0.5131
 2214SOL    HW218276   3.156   1.333   5.456  3.7717  2.8862  1.2228
 2215SOL     OW18277   0.488   3.265  12.522  0.1822 -0.3518 -0.2833
 2215SOL    HW118278   0.459   3.264  12.613  1.4621 -3.2531  0.0694
 2215SOL    HW218279   0.499   3.360  12.516  0.1352 -0.5357 -3.2743
 2216SOL     OW18280   3.314   1.989   4.332 -0.1464  0.3986 -0.1875
 2216SOL    HW118281   3.235   2.034   4.301 -1.1337  0.1834  2.0411
 2216SOL    HW218282   3.283   1.969   4.420  2.0901  0.3504  0.5775
 2217SOL     OW18283   3.775   2.192   7.454 -0.0767  0.0631 -0.6326
 2217SOL    HW118284   3.693   2.150   7.480  0.2394  0.2954  0.7049
 2217SOL    HW218285   3.800   2.130   7.385  0.5294  1.8797 -2.0474
 2218SOL     OW18286   3.534   1.715   9.630 -0.2662  0.0924 -0.2064
 2218SOL    HW118287   3.600   1.757   9.574 -0.2384  0.8355  0.3821
 2218SOL    HW218288   3.479   1.672   9.564  1.4375 -0.1440 -1.4845
 2219SOL     OW18289   0.803   0.448   1.141  0.0324 -0.2262  0.1133
 2219SOL    HW118290   0.878   0.389   1.135  1.1044  1.3320 -1.9186
 2219SOL    HW218291   0.814   0.453   1.236 -0.3815 -1.0947  0.2001
 2220SOL     OW18292   0.640   2.501   3.748 -0.1416  0.0055 -0.5137
 2220SOL    HW118293   0.728   2.490   3.714 -0.5373 -0.0997 -1.5100
 2220SOL    HW218294   0.588   2.508   3.668 -2.5997  0.0028  1.0516
 2221SOL     OW18295   4.358   3.587  14.649  0.3369  0.1255  0.3923
 2221SOL    HW118296   4.340   3.666  14.597 -0.5987 -0.8831 -0.8115
 2221SOL    HW218297   4.331   3.527  14.580 -1.3658  0.2156  0.9761
 2222SOL     OW18298   0.636   1.877   5.587 -0.4214  0.1203  0.0806
 2222SOL    HW118299   0.702   1.942   5.563 -1.2293  0.7442 -0.4762
 2222SOL    HW218300   0.688   1.802   5.616 -1.4503 -0.7227 -0.2845
 2223SOL     OW18301   3.667   0.512   4.885  0.1354  0.0766  0.1918
 2223SOL    HW118302   3.724   0.533   4.811 -0.1255 -0.2714 -0.1111
 2223SOL    HW218303   3.623   0.429   4.864  0.6517  0.7126 -3.3607
 2224SOL     OW18304   0.674   1.089   6.778  0.0587  0.3544  0.2221
 2224SOL    HW118305   0.634   1.124   6.698 -2.5615 -2.3150  0.3612
 2224SOL    HW218306   0.621   1.115   6.853 -2.3532  1.5548 -1.8819
 2225SOL     OW18307   2.713   4.386   3.751 -0.0434  0.1904 -0.0117
 2225SOL    HW118308   2.641   4.438   3.789  0.3995 -0.6037  1.9272
 2225SOL    HW218309   2.675   4.299   3.738 -1.6625  1.0517 -1.0948
 2226SOL     OW18310   2.063   3.494   3.167 -0.5945 -0.0028 -0.2799
 2226SOL    HW118311   2.127   3.508   3.237 -2.1543  0.1176  1.1189
 2226SOL    HW218312   2.012   3.418   3.195 -0.5842 -1.1564 -3.5225
 2227SOL     OW18313   0.214   3.993  10.426 -0.2140 -0.5947  0.2245
 2227SOL    HW118314   0.180   3.953  10.506 -0.0144  1.6748  1.4532
 2227SOL    HW218315   0.256   4.064  10.474 -2.1683  0.6399  0.1023
 2228SOL     OW18316   3.151   2.719   3.674 -0.0166  0.1757  0.1619
 2228SOL    HW118317   3.139   2.749   3.764 -2.7142 -0.3439 -0.0218
 2228SOL    HW218318   3.096   2.773   3.617  0.1748 -0.3090 -0.4831
 2229SOL     OW18319   2.440   2.870   8.727  0.2666 -0.0762 -0.1140
 2229SOL    HW118320   2.360   2.906   8.766  1.6790  2.8588 -0.0063
 2229SOL    HW218321   2.398   2.833   8.649  0.6473 -1.8319  0.5129
 2230SOL     OW18322   2.433   2.612   3.229  0.0583  0.1611  0.1582
 2230SOL    HW118323   2.377   2.670   3.178  0.7931  0.5996 -0.1643
 2230SOL    HW218324   2.373   2.561   3.282 -0.3081  0.8910  0.4472
 2231SOL     OW18325   3.208   0.069   7.974  0.1171  0.0998  0.0918
 2231SOL    HW118326   3.197   4.713   7.948 -0.9936  0.2448  0.0539
 2231SOL    HW218327   3.220   0.052   8.067  0.0496 -0.7138 -0.0514
 2232SOL     OW18328   1.646   1.934   3.608 -1.3386  0.4017 -0.0618
 2232SOL    HW118329   1.682   1.946   3.696 -0.0271 -0.0442 -0.5384
 2232SOL    HW218330   1.559   1.972   3.620 -0.9576  0.7708  1.5221
 2233SOL     OW18331   1.988   1.004   8.100  0.2202 -0.1664  0.0185
 2233SOL    HW118332   1.962   1.082   8.050  2.8974 -1.0924 -2.7964
 2233SOL    HW218333   1.919   0.940   8.083  0.9172 -0.7192 -0.7452
 2234SOL     OW18334   3.327   0.376   1.608 -0.2031 -0.4114  0.7096
 2234SOL    HW118335   3.258   0.439   1.626  1.2254  1.1446  0.6709
 2234SOL    HW218336   3.343   0.404   1.518 -0.6046  0.1277  0.8080
 2235SOL     OW18337   2.347   1.604  10.239 -0.0792  0.2184 -0.2321
 2235SOL    HW118338   2.413   1.657  10.283 -0.3552 -1.8351  2.6655
 2235SOL    HW218339   2.263   1.599  10.284  0.1067 -2.3561 -0.1624
 2236SOL     OW18340   2.269   1.368   2.880 -0.5165  0.0071 -0.2009
 2236SOL    HW118341   2.199   1.367   2.945 -3.1166 -0.0235 -3.0286
 2236SOL    HW218342   2.347   1.361   2.935 -0.7519 -0.8534  0.0234
 2237SOL     OW18343   0.752   4.172   7.290  0.1562 -0.0027 -0.0441
 2237SOL    HW118344   0.669   4.138   7.323 -0.1679  1.2359  0.3939
 2237SOL    HW218345   0.743   4.267   7.294 -0.3237 -0.0364 -0.3982
 2238SOL     OW18346   4.544   0.378  15.045 -0.0642 -0.1116 -0.5915
 2238SOL    HW118347   4.615   0.321  15.073  1.1819  0.1104 -3.3016
 2238SOL    HW218348   4.552   0.346  14.956  0.0213  1.1826 -1.0544
 2239SOL     OW18349   1.430   3.712   7.788 -0.1476 -0.1353  0.0745
 2239SOL    HW118350   1.377   3.684   7.713 -0.6585  2.0453 -0.3821
 2239SOL    HW218351   1.458   3.632   7.832  2.3299  0.6211 -0.1093
 2240SOL     OW18352   2.782   3.434   3.169 -0.7633  0.0250 -0.1264
 2240SOL    HW118353   2.814   3.524   3.177  0.4289 -0.7106  3.5943
 2240SOL    HW218354   2.741   3.437   3.083  1.9343  0.2956 -1.3862
 2241SOL     OW18355   2.871   1.478  15.860  0.6549 -0.0549  0.2735
 2241SOL    HW118356   2.889   1.471  15.766 -2.8376  0.4043 -0.4174
 2241SOL    HW218357   2.920   1.408  15.902  1.4388  0.1187 -0.3549
 2242SOL     OW18358   0.834   1.642   3.526 -0.3780 -0.4028 -0.3333
 2242SOL    HW118359   0.820   1.556   3.567 -0.4305  0.8214  2.1975
 2242SOL    HW218360   0.756   1.690   3.551  0.4542 -0.2471  1.9945
 2243SOL     OW18361   3.259   3.944   5.446  0.4406  0.0093  0.3894
 2243SOL    HW118362   3.186   3.926   5.506  0.7972  1.4714  1.2711
 2243SOL    HW218363   3.215   3.927   5.363  0.8865 -0.8910  0.3348
 2244SOL     OW18364   1.134   1.643   9.841  0.1998 -0.1404  0.5975
 2244SOL    HW118365   1.084   1.562   9.827  2.1768 -0.8845 -2.1530
 2244SOL    HW218366   1.090   1.673   9.921 -1.9055 -1.1158 -0.2174
 2245SOL     OW18367   2.550   0.069   0.207  0.2075 -0.2847 -0.2091
 2245SOL    HW118368   2.531   0.096   0.117  0.3394  0.0834 -0.1265
 2245SOL    HW218369   2.605   4.726   0.194 -0.4642 -0.7700 -0.1484
 2246SOL     OW18370   4.712   0.029   5.157 -0.6011  0.1028 -0.9787
 2246SOL    HW118371   4.667   4.680   5.155 -0.8498  0.2885 -2.6126
 2246SOL    HW218372   4.711   0.045   5.252  0.4706  1.2748 -1.1601
 2247SOL     OW18373   0.452   2.547   3.032  0.6376  0.1496  0.3799
 2247SOL    HW118374   0.424   2.558   2.941 -1.0124 -0.6132  0.7873
 2247SOL    HW218375   0.407   2.463   3.046 -2.6704  2.0440  0.9004
 2248SOL     OW18376   2.239   0.461   5.423 -0.3479  0.4935 -0.0864
 2248SOL    HW118377   2.314   0.463   5.483 -0.5229 -0.7499  0.1800
 2248SOL    HW218378   2.288   0.453   5.341 -0.5624  0.3930 -0.2035
 2249SOL     OW18379   2.645   2.119   6.311  0.6237  0.2290 -0.0194
 2249SOL    HW118380   2.612   2.048   6.256 -0.9973  1.0429 -0.0991
 2249SOL    HW218381   2.672   2.079   6.394  1.8199  1.7530  0.3207
 2250SOL     OW18382   1.875   1.132   4.463  0.4404  0.1252 -0.0664
 2250SOL    HW118383   1.844   1.044   4.439 -1.4817  1.4575 -2.4571
 2250SOL    HW218384   1.803   1.169   4.412 -0.4915 -2.1626 -0.4062
 2251SOL     OW18385   4.438   3.675  15.897 -0.0345  0.5459  0.2691
 2251SOL    HW118386   4.463   3.762  15.865  0.4385  0.7290  1.1567
 2251SOL    HW218387   4.366   3.648  15.840  0.4961  1.9391 -1.0569
 2252SOL     OW18388   0.781   4.721   2.103 -0.1360  0.3348 -0.0314
 2252SOL    HW118389   0.827   4.652   2.055 -0.9239 -0.9832  1.1074
 2252SOL    HW218390   0.846   0.042   2.147  0.2621 -0.8732  0.9264
 2253SOL     OW18391   4.057   1.881   5.516 -0.0360  0.1910 -0.8088
 2253SOL    HW118392   4.120   1.850   5.580 -0.4778 -2.8933 -1.8793
 2253SOL    HW218393   3.982   1.895   5.574  0.8308  0.2889  0.2916
 2254SOL     OW18394   2.566   2.959  12.072  1.2235 -0.0739  0.0007
 2254SOL    HW118395   2.631   2.926  12.010  2.2388  1.7831  0.0745
 2254SOL    HW218396   2.622   3.004  12.136 -0.5170  2.0743 -0.0010
 2255SOL     OW18397   3.837   4.175  10.871  0.5303  0.2362 -0.6430
 2255SOL    HW118398   3.858   4.150  10.781 -2.8274  2.0676 -1.9478
 2255SOL    HW218399   3.824   4.088  10.909  3.9204 -0.5256 -1.2437
 2256SOL     OW18400   4.532   4.665  12.525  0.2623  0.8862 -0.0044
 2256SOL    HW118401   4.565   0.020  12.516 -0.1157  0.6349 -3.9515
 2256SOL    HW218402   4.616   4.619  12.520  0.2666  0.8570  0.3908
 2257SOL     OW18403   1.926   1.117   0.515  0.6376 -0.0219 -0.2385
 2257SOL    HW118404   1.969   1.038   0.483 -1.1725 -0.9101 -0.4736
 2257SOL    HW218405   1.978   1.126   0.594  1.5842 -1.0911 -0.7528
 2258SOL     OW18406   3.530   4.124   7.466  0.2447  0.1942 -0.2809
 2258SOL    HW118407   3.563   4.093   7.550  1.0184  0.5735 -0.4409
 2258SOL    HW218408   3.514   4.210   7.505  2.0196  0.5267 -0.2686
 2259SOL     OW18409   3.184   4.081   3.290 -0.1244 -0.1665  0.5858
 2259SOL    HW118410   3.233   4.124   3.360 -1.9715 -1.1443  2.4627
 2259SOL    HW218411   3.261   4.039   3.251  0.3293  0.2917  0.9871
 2260SOL     OW18412   0.791   3.805   9.053  0.1236  0.0774 -0.0454
 2260SOL    HW118413   0.704   3.825   9.019  0.3692  1.6286  0.2364
 2260SOL    HW218414   0.775   3.760   9.136 -0.2411  1.6514  0.7434
 2261SOL     OW18415   1.635   4.669  14.209  0.2146 -0.1763 -0.0925
 2261SOL    HW118416   1.692   4.671  14.132 -0.9864 -0.1640 -0.9778
 2261SOL    HW218417   1.549   4.698  14.180  0.5664 -0.1415 -1.1082
 2262SOL     OW18418   1.631   3.987   4.790 -0.5626 -0.1431  1.2197
 2262SOL    HW118419   1.709   4.043   4.788  0.2239 -1.3236 -0.7231
 2262SOL    HW218420   1.625   3.983   4.886  2.2710 -1.1268  1.3480
 2263SOL     OW18421   1.308   4.161  11.051  0.2255  0.0316 -0.1086
 2263SOL    HW118422   1.339   4.085  11.101  0.1961  0.3251  0.3528
 2263SOL    HW218423   1.225   4.123  11.021  0.8259 -1.9853  0.7574
 2264SOL     OW18424   3.439   0.641  15.563  0.3209 -0.1416 -0.1386
 2264SOL    HW118425   3.528   0.644  15.599  0.3132  0.1970 -0.1467
 2264SOL    HW218426   3.400   0.720  15.599  0.4326 -0.6690  1.1474
 2265SOL     OW18427   2.827   4.546   2.847 -0.3426 -0.1220  0.5065
 2265SOL    HW118428   2.812   4.565   2.754  0.2680  2.2740  0.9123
 2265SOL    HW218429   2.794   4.456   2.853  1.4092 -0.8610 -1.0561
 2266SOL     OW18430   2.741   0.128  11.884 -0.0725 -0.0909  0.1074
 2266SOL    HW118431   2.677   0.187  11.925  1.1409 -1.0287  3.3055
 2266SOL    HW218432   2.740   0.159  11.793  0.3401  0.1768  0.1950
 2267SOL     OW18433   3.503   4.149   4.992  0.0045  0.1028  0.1986
 2267SOL    HW118434   3.596   4.131   4.986 -0.0785  0.1743 -1.4043
 2267SOL    HW218435   3.499   4.195   4.908 -1.2081  0.9478  0.7135
 2268SOL     OW18436   2.372   1.452   6.015 -1.0593  0.1000 -0.1304
 2268SOL    HW118437   2.376   1.547   5.999  1.3320  0.0017 -0.2276
 2268SOL    HW218438   2.412   1.428   5.931  0.6043  0.6624  0.5077
 2269SOL     OW18439   3.096   1.520   4.166 -0.2391 -0.1065 -0.1058
 2269SOL    HW118440   3.024   1.510   4.105  0.1717  0.9879 -0.7685
 2269SOL    HW218441   3.169   1.487   4.114  0.4697  0.7584  0.3311
 2270SOL     OW18442   2.825   2.243   4.650 -0.4162 -0.0929 -0.1889
 2270SOL    HW118443   2.790   2.327   4.677  2.1254  0.8038  0.3315
 2270SOL    HW218444   2.895   2.263   4.588  1.2876  3.8811  2.9956
 2271SOL     OW18445   2.975   4.370   2.464  0.7766 -0.4142 -0.2922
 2271SOL    HW118446   2.946   4.461   2.457 -2.8722 -1.6421 -0.9281
 2271SOL    HW218447   2.934   4.341   2.545  1.1114  2.1297  0.8087
 2272SOL     OW18448   2.844   2.762  12.784 -0.3427 -0.2408  0.5519
 2272SOL    HW118449   2.786   2.731  12.854  1.7733  0.7232  2.7225
 2272SOL    HW218450   2.850   2.851  12.818 -0.4351  0.1098 -0.3357
 2273SOL     OW18451   3.185   3.011   7.383  0.5093  1.0103 -0.5190
 2273SOL    HW118452   3.151   3.101   7.390 -0.1686  0.6038  1.5772
 2273SOL    HW218453   3.138   2.989   7.303  1.8824  0.8244 -1.2722
 2274SOL     OW18454   4.478   2.344  14.612  0.0843  0.9023 -0.1718
 2274SOL    HW118455   4.554   2.289  14.631  0.3499  1.1709 -0.4555
 2274SOL    HW218456   4.434   2.290  14.547  0.3446  0.1096  0.3096
 2275SOL     OW18457   2.781   1.021  13.325 -0.2181  0.1261 -0.0203
 2275SOL    HW118458   2.859   1.056  13.282  0.2706  0.9419  1.5406
 2275SOL    HW218459   2.778   1.097  13.383 -0.1915 -0.6815  1.0412
 2276SOL     OW18460   4.073   0.526  10.284  0.1012 -0.4080  0.0732
 2276SOL    HW118461   4.045   0.462  10.218  0.6290  0.0917 -0.6290
 2276SOL    HW218462   4.080   0.606  10.232 -0.4835 -0.3748  0.0476
 2277SOL     OW18463   3.631   2.293  15.299  0.3248  0.2649 -0.5442
 2277SOL    HW118464   3.641   2.347  15.221 -1.5128  0.8210 -0.4048
 2277SOL    HW218465   3.597   2.212  15.261  0.6976 -0.0018 -0.3056
 2278SOL     OW18466   0.057   4.689   4.571 -0.0649 -0.6435 -0.2871
 2278SOL    HW118467   0.088   0.013   4.503 -2.5622  2.4281  1.2027
 2278SOL    HW218468   0.135   4.639   4.595  2.1956  2.2368 -1.6694
 2279SOL     OW18469   0.153   1.677   9.240  0.2493  0.0474 -0.1025
 2279SOL    HW118470   0.140   1.628   9.321 -0.5816  1.6151  0.7221
 2279SOL    HW218471   0.137   1.611   9.173 -1.9558  0.8320 -0.3416
 2280SOL     OW18472   4.068   1.161   8.059 -0.1092  0.2437 -0.2189
 2280SOL    HW118473   4.046   1.078   8.017  0.4105 -0.1359  0.2475
 2280SOL    HW218474   4.133   1.194   7.997 -0.8739  2.0749 -0.0454
 2281SOL     OW18475   0.341   0.552   1.745 -0.0862 -0.5232  0.0344
 2281SOL    HW118476   0.362   0.597   1.663  0.6325  1.7685  1.4834
 2281SOL    HW218477   0.324   0.632   1.794 -1.7955 -0.9581  0.1440
 2282SOL     OW18478   1.940   3.243   4.394  0.3461  0.2803  0.0889
 2282SOL    HW118479   1.905   3.315   4.448 -0.9026 -1.4636  1.6166
 2282SOL    HW218480   1.999   3.203   4.459 -0.4123 -0.1164  0.5263
 2283SOL     OW18481   3.508   2.494   9.110  0.4575 -0.7137  0.1656
 2283SOL    HW118482   3.457   2.569   9.079  0.0909 -0.8434  0.4500
 2283SOL    HW218483   3.547   2.472   9.025 -0.4839 -1.2053 -0.1438
 2284SOL     OW18484   2.892   4.501   7.852 -0.2786 -0.1255 -0.4496
 2284SOL    HW118485   2.903   4.465   7.940 -0.2465  1.9352  0.3901
 2284SOL    HW218486   2.933   4.434   7.797 -1.4207 -0.5602 -0.7814
 2285SOL     OW18487   4.582   3.300   4.128 -0.3569 -0.4453  0.1953
 2285SOL    HW118488   4.603   3.207   4.117  0.0676 -0.2441 -0.6690
 2285SOL    HW218489   4.568   3.296   4.223 -0.2336 -0.0426  0.2303
 2286SOL     OW18490   2.868   1.406   7.423  0.0297  0.4281  0.2412
 2286SOL    HW118491   2.894   1.400   7.515 -0.1863  0.3847  0.3001
 2286SOL    HW218492   2.795   1.346   7.409  0.7491 -0.7019  1.2765
 2287SOL     OW18493   4.672   3.775   7.732  0.1809 -0.0193 -0.6548
 2287SOL    HW118494   4.673   3.810   7.821  0.2412 -1.5484 -0.0599
 2287SOL    HW218495   4.607   3.829   7.686 -0.9727 -0.1311  0.8621
 2288SOL     OW18496   1.299   0.948   4.579  0.4405 -0.2025  0.0914
 2288SOL    HW118497   1.370   0.886   4.592 -1.3618 -2.5715 -1.2452
 2288SOL    HW218498   1.221   0.894   4.562  1.0879 -0.9026 -0.6585
 2289SOL     OW18499   3.546   3.437   6.036  0.7099  0.0631 -0.2845
 2289SOL    HW118500   3.504   3.415   6.119  1.5234 -2.4219 -0.5306
 2289SOL    HW218501   3.639   3.425   6.057  0.7469 -2.4932 -1.9762
 2290SOL     OW18502   1.415   3.167   4.465 -0.1880 -0.6372 -0.3736
 2290SOL    HW118503   1.328   3.162   4.425 -0.0276  4.3343 -1.2462
 2290SOL    HW218504   1.466   3.196   4.390  0.8637  0.8021  0.8864
 2291SOL     OW18505   3.873   1.584  12.658  0.2362 -0.0333 -0.7498
 2291SOL    HW118506   3.968   1.596  12.663  0.1724  0.4066 -0.5446
 2291SOL    HW218507   3.865   1.534  12.577  0.7635  0.7436 -1.2870
 2292SOL     OW18508   1.547   4.667   6.270  0.0926  0.0925  0.4036
 2292SOL    HW118509   1.600   4.679   6.348  1.0329 -1.9897  0.0574
 2292SOL    HW218510   1.463   4.648   6.312  0.7613 -2.3078  0.5930
 2293SOL     OW18511   0.261   0.439   0.365 -0.8493 -0.1416 -0.0248
 2293SOL    HW118512   0.267   0.383   0.442  0.0206 -0.1549 -0.0950
 2293SOL    HW218513   0.285   0.380   0.292 -0.0250  0.1259  0.0242
 2294SOL     OW18514   3.138   1.104  11.318 -0.3526  0.5335 -0.0619
 2294SOL    HW118515   3.212   1.056  11.354 -1.2644 -1.0594 -0.3138
 2294SOL    HW218516   3.147   1.079  11.226 -0.5544  0.1905  0.0106
 2295SOL     OW18517   1.377   0.715  11.415 -0.1890 -0.0711  0.4169
 2295SOL    HW118518   1.434   0.791  11.403 -1.4590  1.4488  3.9225
 2295SOL    HW218519   1.303   0.738  11.359  1.1963  0.1408 -1.3199
 2296SOL     OW18520   0.851   1.124  13.119 -0.2046  0.3543 -0.3311
 2296SOL    HW118521   0.831   1.078  13.201 -1.9378  0.7213 -0.5435
 2296SOL    HW218522   0.941   1.150  13.140  0.7168 -0.7339 -2.9421
 2297SOL     OW18523   1.943   3.011  13.490  0.4006 -0.0473 -0.0219
 2297SOL    HW118524   1.878   3.080  13.477 -0.6234 -0.4821  2.7008
 2297SOL    HW218525   1.890   2.935  13.514 -0.0721  0.7571  1.5386
 2298SOL     OW18526   3.645   4.345  13.983 -0.1181  1.0016 -0.2101
 2298SOL    HW118527   3.587   4.323  13.910 -0.7441 -0.3203  0.6882
 2298SOL    HW218528   3.627   4.433  14.016  1.8740  0.5603  2.0451
 2299SOL     OW18529   3.920   1.762   4.137  0.1614  0.6877  0.1476
 2299SOL    HW118530   3.894   1.746   4.228 -0.3972 -0.7173 -0.2655
 2299SOL    HW218531   3.922   1.672   4.106  1.3477  1.3148 -1.6105
 2300SOL     OW18532   3.486   1.508   0.027  0.3079 -0.1562 -0.4917
 2300SOL    HW118533   3.561   1.537   0.078 -1.0894  0.2460  1.3300
 2300SOL    HW218534   3.482   1.579  17.700 -0.1615 -0.4950 -0.8328
 2301SOL     OW18535   1.843   4.573   2.208  0.5032  0.3163 -0.3805
 2301SOL    HW118536   1.817   4.493   2.163  1.5024  0.4537 -1.2062
 2301SOL    HW218537   1.887   4.614   2.133  2.1288 -0.1295  0.3388
 2302SOL     OW18538   2.572   2.079   9.894 -0.2083 -0.4429  0.1374
 2302SOL    HW118539   2.567   2.175   9.889  1.9350 -0.4231 -1.9308
 2302SOL    HW218540   2.578   2.057   9.801 -1.7017  0.1434 -0.1007
 2303SOL     OW18541   3.565   0.043   0.141  0.0062 -0.1439 -0.3658
 2303SOL    HW118542   3.570   4.682   0.141  1.1909 -0.0666  1.4472
 2303SOL    HW218543   3.476   0.049   0.176  0.3571  0.9783  0.3094
 2304SOL     OW18544   2.231   1.919   2.433 -0.3569 -0.4543  0.0416
 2304SOL    HW118545   2.261   2.008   2.413 -0.5903  0.1230  2.2987
 2304SOL    HW218546   2.248   1.914   2.527 -2.9625 -1.0494  0.4649
 2305SOL     OW18547   3.753   1.530   6.000 -0.0308 -0.5577  0.0546
 2305SOL    HW118548   3.799   1.463   6.050 -2.5025 -1.3097  1.3415
 2305SOL    HW218549   3.697   1.478   5.942 -0.7696  1.8562 -1.3886
 2306SOL     OW18550   2.745   3.030   0.825  0.0447  0.4114  0.7313
 2306SOL    HW118551   2.764   2.946   0.783 -0.6529  1.0292 -0.7742
 2306SOL    HW218552   2.815   3.024   0.890 -0.3063 -1.1793  0.9588
 2307SOL     OW18553   0.586   0.395  17.085  0.2497 -0.0414  0.1888
 2307SOL    HW118554   0.621   0.409  17.173 -0.5652  2.1440  0.1785
 2307SOL    HW218555   0.668   0.394  17.036 -0.4373  0.6327 -0.9877
 2308SOL     OW18556   3.576   4.703   3.420 -0.2055 -0.3651  0.2409
 2308SOL    HW118557   3.536   4.656   3.347  1.9754 -2.8413  0.6198
 2308SOL    HW218558   3.492   4.707   3.466 -2.6999  0.5942 -4.3785
 2309SOL     OW18559   2.517   2.633   2.631  0.2623  0.1381  0.5173
 2309SOL    HW118560   2.500   2.722   2.598  3.0973  0.0939 -1.0039
 2309SOL    HW218561   2.432   2.589   2.632  0.6267 -0.5739  0.0626
 2310SOL     OW18562   4.295   2.877   4.163  0.8680  0.0570 -0.7482
 2310SOL    HW118563   4.241   2.881   4.242  1.0027  0.4052 -0.6710
 2310SOL    HW218564   4.269   2.788   4.138 -1.1203  0.7333 -1.1104
 2311SOL     OW18565   1.358   2.462  16.119 -0.0224 -0.2631  0.3552
 2311SOL    HW118566   1.340   2.480  16.027  1.4494  1.5058  0.4240
 2311SOL    HW218567   1.365   2.551  16.152 -0.1532 -0.5377  1.1200
 2312SOL     OW18568   3.664   1.849  11.605 -0.3058 -0.0802 -0.0815
 2312SOL    HW118569   3.691   1.778  11.663  0.7732 -2.4658 -3.5413
 2312SOL    HW218570   3.598   1.808  11.549 -1.9644  2.0007  0.3085
 2313SOL     OW18571   3.554   3.841  13.509  0.5174  0.3756 -0.8351
 2313SOL    HW118572   3.579   3.918  13.560 -1.8999 -0.6304  1.9045
 2313SOL    HW218573   3.605   3.851  13.429  0.2351 -2.7562 -1.4129
 2314SOL     OW18574   4.043   1.659   5.745  0.2788  0.2810  0.2492
 2314SOL    HW118575   4.100   1.588   5.715 -1.9708 -0.4929 -2.1579
 2314SOL    HW218576   4.050   1.646   5.839 -2.9133  2.4082  0.7897
 2315SOL     OW18577   0.066   0.922  13.929  0.8602  0.2747 -0.4266
 2315SOL    HW118578   0.128   0.851  13.915 -0.3387 -1.0698  1.1973
 2315SOL    HW218579   0.101   0.960  14.009  0.4876 -2.1992  0.9165
 2316SOL     OW18580   3.217   4.505  15.793  0.3693  0.1163  0.4156
 2316SOL    HW118581   3.282   4.435  15.781 -0.0525 -0.0494 -0.9098
 2316SOL    HW218582   3.212   4.530  15.701 -1.5256  1.5938  0.9453
 2317SOL     OW18583   1.342   1.085  17.274 -0.1722  0.2124 -0.5336
 2317SOL    HW118584   1.265   1.134  17.304 -0.2655 -1.7753  2.4746
 2317SOL    HW218585   1.313   1.005  17.317 -1.7587  0.3233 -1.4332
 2318SOL     OW18586   2.747   2.963  17.625 -0.0384 -0.2844 -0.0087
 2318SOL    HW118587   2.747   2.868  17.639 -0.4856 -0.5807 -2.0309
 2318SOL    HW218588   2.796   2.969  17.543 -1.8721 -1.5690 -1.2197
 2319SOL     OW18589   2.406   2.021   5.965 -0.1687 -0.0723  0.7375
 2319SOL    HW118590   2.320   2.001   6.002  0.6375 -0.8846  2.1897
 2319SOL    HW218591   2.382   2.103   5.923  0.6481 -0.3588 -0.2681
 2320SOL     OW18592   3.572   1.762   4.741  0.2635 -0.0744  0.1863
 2320SOL    HW118593   3.600   1.671   4.734 -0.8882 -0.5507  1.7520
 2320SOL    HW218594   3.645   1.797   4.690 -0.6697  0.5102 -0.7368
 2321SOL     OW18595   3.516   0.726   0.880 -0.0267 -0.8706  0.0571
 2321SOL    HW118596   3.577   0.671   0.832  2.4244  1.6838  0.2101
 2321SOL    HW218597   3.544   0.809   0.841 -1.8660 -0.5826 -0.6659
 2322SOL     OW18598   4.199   0.480   0.465  0.2044 -0.4517  0.7859
 2322SOL    HW118599   4.247   0.398   0.455 -1.9947 -1.6463 -0.0120
 2322SOL    HW218600   4.131   0.475   0.398  0.8053  2.8572 -0.0486
 2323SOL     OW18601   1.589   3.148  16.916 -0.5513 -0.3756  0.9571
 2323SOL    HW118602   1.598   3.068  16.968  1.7706  0.5132  1.9291
 2323SOL    HW218603   1.632   3.214  16.970 -1.5743  1.8154 -0.9544
 2324SOL     OW18604   3.614   0.789  16.903  0.1037  0.5115  0.1248
 2324SOL    HW118605   3.521   0.766  16.900  0.3797 -0.5972 -0.0215
 2324SOL    HW218606   3.647   0.772  16.815  1.6359 -0.2637  0.8382
 2325SOL     OW18607   1.279   1.382   3.576 -0.4338 -0.4940 -0.0848
 2325SOL    HW118608   1.186   1.377   3.554 -0.4339 -0.4737 -0.0886
 2325SOL    HW218609   1.307   1.291   3.575 -0.0911 -0.3956  0.9331
 2326SOL     OW18610   2.580   0.141  14.108  0.2134 -0.2225  0.0130
 2326SOL    HW118611   2.546   0.230  14.098  0.7650 -0.0616 -0.4507
 2326SOL    HW218612   2.510   0.083  14.138 -0.2242 -0.8380 -2.1611
 2327SOL     OW18613   0.040   3.363   8.238  0.3054  0.3649  0.4725
 2327SOL    HW118614   4.717   3.365   8.315  0.2683  0.9449  0.4293
 2327SOL    HW218615   0.122   3.337   8.280  0.4263 -0.9765 -0.5956
 2328SOL     OW18616   3.476   0.931   5.063  0.7529 -0.2160  0.4955
 2328SOL    HW118617   3.471   0.843   5.101  2.3499 -1.3165 -1.8802
 2328SOL    HW218618   3.542   0.977   5.115  0.7747 -0.8906  1.0707
 2329SOL     OW18619   2.773   0.659  16.308 -0.3753 -0.3189 -0.1759
 2329SOL    HW118620   2.793   0.576  16.265  1.5936  0.1217 -0.1244
 2329SOL    HW218621   2.808   0.717  16.240  1.1768 -0.0698  0.8275
 2330SOL     OW18622   1.596   0.490   7.440 -0.3140 -1.0101 -0.1285
 2330SOL    HW118623   1.517   0.537   7.466  0.2638  1.1235 -2.2334
 2330SOL    HW218624   1.576   0.403   7.475 -0.8896 -1.5288 -1.7699
 2331SOL     OW18625   0.620   0.375   9.323  0.4797 -0.0995  0.3102
 2331SOL    HW118626   0.701   0.350   9.367 -0.9475  0.5025  3.2555
 2331SOL    HW218627   0.657   0.422   9.248 -1.1694  0.2500 -0.2791
 2332SOL     OW18628   0.917   3.179  12.999  0.6433 -0.1042 -0.2113
 2332SOL    HW118629   0.966   3.225  13.068  0.4055 -0.6269  0.3111
 2332SOL    HW218630   0.896   3.252  12.941 -0.5047  0.4997  0.9621
 2333SOL     OW18631   3.370   3.942  14.383 -0.0942  0.2406 -0.0966
 2333SOL    HW118632   3.423   3.983  14.452 -1.6445 -0.6994  1.6696
 2333SOL    HW218633   3.412   3.857  14.373 -1.2029 -0.4370  0.9882
 2334SOL     OW18634   3.489   4.619   3.015  0.1610  0.3581  0.0893
 2334SOL    HW118635   3.500   4.535   2.970 -2.4462 -1.7419  3.2884
 2334SOL    HW218636   3.484   4.583   3.104 -0.4824 -0.8900 -0.4542
 2335SOL     OW18637   0.733   2.817   2.882  0.3737  0.0700  0.7546
 2335SOL    HW118638   0.719   2.738   2.935 -1.1471 -1.4716 -1.9310
 2335SOL    HW218639   0.703   2.782   2.798  0.2461  1.2298  0.3194
 2336SOL     OW18640   3.420   4.199   2.667  0.2076  0.1044 -0.0578
 2336SOL    HW118641   3.377   4.115   2.649  0.0228  0.2250 -0.1813
 2336SOL    HW218642   3.471   4.197   2.586  1.1974 -0.9685  0.5985
 2337SOL     OW18643   1.126   1.571   7.067 -0.7198  0.6706  0.2860
 2337SOL    HW118644   1.124   1.489   7.017  1.4006 -0.5574  2.1807
 2337SOL    HW218645   1.218   1.592   7.082 -0.7635  2.4034 -2.0579
 2338SOL     OW18646   1.415   2.297  11.472 -0.1351 -0.1656 -0.1112
 2338SOL    HW118647   1.444   2.370  11.417 -0.1714  0.6221  0.9056
 2338SOL    HW218648   1.485   2.295  11.538 -1.8146 -1.4668  1.6238
 2339SOL     OW18649   1.829   3.672   6.892  0.2525  0.6104  0.2706
 2339SOL    HW118650   1.902   3.702   6.838  0.2656 -1.0159 -0.6234
 2339SOL    HW218651   1.868   3.657   6.978 -0.4209 -1.9954  0.1309
 2340SOL     OW18652   2.024   4.434   3.069 -0.3672  0.4461 -0.0344
 2340SOL    HW118653   2.044   4.385   2.989  0.8419  1.3909 -0.3029
 2340SOL    HW218654   2.007   4.373   3.141 -2.6638  1.3206  0.1659
 2341SOL     OW18655   3.912   2.152  12.840 -0.1804 -0.3992  0.5769
 2341SOL    HW118656   3.843   2.210  12.808  1.9747  2.2085  0.7229
 2341SOL    HW218657   3.987   2.195  12.800 -1.6932 -1.7146 -3.6412
 2342SOL     OW18658   4.238   2.288  15.426 -0.4344 -0.0748 -0.0474
 2342SOL    HW118659   4.318   2.307  15.377 -0.0603 -0.3093  0.4680
 2342SOL    HW218660   4.269   2.207  15.467 -0.7198  1.1846  2.6249
 2343SOL     OW18661   3.216   4.147   5.655  0.2371  0.3848  0.1948
 2343SOL    HW118662   3.152   4.191   5.600 -0.6144 -0.9627  0.1040
 2343SOL    HW218663   3.274   4.115   5.586 -1.4691  3.4256 -2.6062
 2344SOL     OW18664   2.999   3.466   4.754  0.6179 -0.0895  0.2356
 2344SOL    HW118665   3.016   3.470   4.848 -0.7687  0.5681  0.4548
 2344SOL    HW218666   2.954   3.550   4.747 -0.0329 -0.4632 -0.0998
 2345SOL     OW18667   4.111   0.527   2.634  0.0399 -0.3831  0.1283
 2345SOL    HW118668   4.146   0.440   2.650 -1.7233 -0.4087  3.8637
 2345SOL    HW218669   4.030   0.532   2.685 -2.2486 -3.6659 -3.2453
 2346SOL     OW18670   2.494   2.602   8.470 -0.1144 -0.2934  0.1292
 2346SOL    HW118671   2.476   2.562   8.556  0.0212  1.7474  1.1117
 2346SOL    HW218672   2.401   2.602   8.447 -0.0909 -0.9750  0.0365
 2347SOL     OW18673   1.236   2.433   3.739  0.5166 -0.2225  0.2736
 2347SOL    HW118674   1.270   2.344   3.748  0.1201 -0.4706 -0.6579
 2347SOL    HW218675   1.160   2.412   3.684  1.0935  0.3674 -0.7450
 2348SOL     OW18676   0.325   3.458  13.126 -0.3277  0.0290  0.1920
 2348SOL    HW118677   0.403   3.417  13.089 -0.2466  0.3044  0.0574
 2348SOL    HW218678   0.284   3.377  13.156  2.7898 -2.2625 -1.7151
 2349SOL     OW18679   1.357   0.727   6.714  0.9611  0.5575  0.1018
 2349SOL    HW118680   1.316   0.814   6.715 -0.6083 -0.1639 -1.0662
 2349SOL    HW218681   1.434   0.736   6.659  0.2994 -1.4804 -1.1471
 2350SOL     OW18682   0.468   2.737   6.452  1.0705  0.0468  0.2624
 2350SOL    HW118683   0.447   2.694   6.369  1.4015 -0.9744  0.7126
 2350SOL    HW218684   0.541   2.682   6.481  0.6704 -1.5358 -1.7265
 2351SOL     OW18685   0.328   1.305  16.126  0.6906 -0.1109  0.2228
 2351SOL    HW118686   0.301   1.378  16.071 -0.2760 -0.4096  0.3037
 2351SOL    HW218687   0.416   1.334  16.149  0.2737  1.8494 -0.7037
 2352SOL     OW18688   4.471   2.235  16.148 -0.1780  0.0534 -0.2342
 2352SOL    HW118689   4.445   2.325  16.131  0.7582  0.7394  2.0308
 2352SOL    HW218690   4.482   2.239  16.243 -0.6228 -0.1026 -0.1764
 2353SOL     OW18691   3.862   0.591   2.731 -0.1810 -0.5033 -0.0622
 2353SOL    HW118692   3.800   0.601   2.658 -1.9371 -2.9819  1.1274
 2353SOL    HW218693   3.889   0.680   2.757  1.9038 -0.5330 -2.0953
 2354SOL     OW18694   0.528   3.852   7.599 -0.5823 -0.1752  0.2743
 2354SOL    HW118695   0.530   3.844   7.694 -0.5010 -0.5178  0.2441
 2354SOL    HW218696   0.621   3.868   7.582 -0.7538  0.3246 -0.2201
 2355SOL     OW18697   2.099   1.389   5.960  0.0885  0.6704  0.3357
 2355SOL    HW118698   2.078   1.442   5.883 -0.5198  0.4833  0.3678
 2355SOL    HW218699   2.192   1.405   5.976  0.5417 -1.2248 -0.5310
 2356SOL     OW18700   1.784   4.656   7.702 -0.7560 -0.0886  0.2192
 2356SOL    HW118701   1.846   4.610   7.646 -0.6012  0.2706  0.0931
 2356SOL    HW218702   1.709   4.647   7.644 -0.6153  1.7875 -0.2512
 2357SOL     OW18703   4.563   1.289   8.308  0.1359  0.4023 -0.9106
 2357SOL    HW118704   4.527   1.338   8.234  0.9507  0.8268 -1.0346
 2357SOL    HW218705   4.552   1.201   8.271  0.9994 -0.6490  1.3806
 2358SOL     OW18706   0.966   4.263  16.678  0.4637 -0.7507 -0.0634
 2358SOL    HW118707   0.898   4.226  16.734  0.4973  2.0431  1.8328
 2358SOL    HW218708   0.969   4.351  16.715 -3.4151 -0.5790 -0.1670
 2359SOL     OW18709   2.414   4.612   4.543  0.1918 -0.6055  0.3327
 2359SOL    HW118710   2.483   4.545   4.553  1.3146  0.3280 -1.2021
 2359SOL    HW218711   2.446   4.670   4.613 -0.7209 -0.9997  1.0771
 2360SOL     OW18712   3.361   1.870   2.309  0.5055 -0.4434  0.3134
 2360SOL    HW118713   3.280   1.822   2.331 -0.4649  1.3027  0.5516
 2360SOL    HW218714   3.344   1.881   2.216 -2.8205 -0.9286  0.8316
 2361SOL     OW18715   0.807   3.172   9.537 -0.4267  0.2470 -0.6555
 2361SOL    HW118716   0.822   3.123   9.617  2.0402  0.5175 -0.9475
 2361SOL    HW218717   0.883   3.154   9.482  0.2183 -0.5800  0.5191
 2362SOL     OW18718   2.152   2.794   9.748  0.1334  0.5394  0.0878
 2362SOL    HW118719   2.242   2.785   9.717  0.3501  2.0897  0.2926
 2362SOL    HW218720   2.120   2.712   9.709 -0.4016  0.9588 -0.3388
 2363SOL     OW18721   4.268   2.134   0.411 -0.0186 -0.0300 -0.1231
 2363SOL    HW118722   4.172   2.127   0.412 -0.0639  1.4502  4.1709
 2363SOL    HW218723   4.282   2.174   0.325 -1.4890 -2.1456 -1.3713
 2364SOL     OW18724   2.881   1.263   6.191 -0.7246  0.1520  0.2014
 2364SOL    HW118725   2.803   1.214   6.219 -0.0128 -2.6263 -2.6642
 2364SOL    HW218726   2.931   1.247   6.270  1.6594 -1.0915 -1.5742
 2365SOL     OW18727   4.437   3.889   6.122  0.2508 -0.3662 -0.1470
 2365SOL    HW118728   4.392   3.938   6.190  1.6462 -1.1273  1.3379
 2365SOL    HW218729   4.397   3.801   6.119  0.7216 -0.6805  2.3580
 2366SOL     OW18730   0.240   1.753   3.309 -0.1461 -0.5482 -0.2811
 2366SOL    HW118731   0.223   1.763   3.216  0.7428  0.0718 -0.3756
 2366SOL    HW218732   0.152   1.726   3.338  0.3380 -1.6766  0.1234
 2367SOL     OW18733   1.864   2.613  12.460  0.2479  0.2473  0.5251
 2367SOL    HW118734   1.936   2.665  12.498 -0.4718  1.5145  0.1510
 2367SOL    HW218735   1.902   2.628  12.373 -1.8318 -0.4240 -0.4811
 2368SOL     OW18736   0.408   1.776  16.098  0.0395  0.4490 -0.6917
 2368SOL    HW118737   0.336   1.837  16.116 -0.5319 -0.4569  0.1322
 2368SOL    HW218738   0.487   1.825  16.120  0.2880 -0.1713 -0.2158
 2369SOL     OW18739   3.149   0.794   9.347 -0.0571 -0.8418  0.1489
 2369SOL    HW118740   3.156   0.817   9.440  2.6413  0.7251 -0.4536
 2369SOL    HW218741   3.173   0.701   9.354 -0.8102 -0.9639  1.1597
 2370SOL     OW18742   3.831   2.533   5.058 -0.0278 -0.1357 -0.2358
 2370SOL    HW118743   3.789   2.493   5.135  1.1288 -0.6623  0.1246
 2370SOL    HW218744   3.890   2.594   5.103 -0.9880  1.9441 -1.8262
 2371SOL     OW18745   2.595   0.535  12.473 -0.4128  0.2495  0.1562
 2371SOL    HW118746   2.661   0.512  12.538 -0.2526  0.0123 -0.0889
 2371SOL    HW218747   2.652   0.575  12.407 -0.3205 -1.3929 -0.7429
 2372SOL     OW18748   4.090   2.146  13.048  0.1809  0.5302  0.0958
 2372SOL    HW118749   4.047   2.141  12.962  1.3357  0.4531 -0.4749
 2372SOL    HW218750   4.083   2.052  13.066  0.0443  0.2839 -1.2320
 2373SOL     OW18751   2.177   1.953  12.147  0.1379 -0.0803  0.1504
 2373SOL    HW118752   2.146   2.016  12.213 -1.4959 -0.4976 -0.2310
 2373SOL    HW218753   2.252   1.904  12.181  0.4837 -0.2080 -0.7975
 2374SOL     OW18754   3.674   0.174   2.771  0.2009 -0.0622 -0.0916
 2374SOL    HW118755   3.604   0.127   2.728 -1.4503  1.3338  1.0729
 2374SOL    HW218756   3.732   0.102   2.797  4.4984  3.3166 -0.2147
 2375SOL     OW18757   2.531   0.404  11.760 -0.0549  0.2939  0.1632
 2375SOL    HW118758   2.617   0.372  11.735 -0.6277 -0.0952 -1.2726
 2375SOL    HW218759   2.483   0.337  11.809  2.0603 -0.1360  1.6118
 2376SOL     OW18760   4.540   4.670   8.856 -0.1603 -0.2172  0.0507
 2376SOL    HW118761   4.496   0.007   8.811  0.7485 -0.0949 -0.6412
 2376SOL    HW218762   4.584   4.714   8.929  0.1483 -1.6710  0.7538
 2377SOL     OW18763   4.335   3.916   7.867  0.1857 -0.3433  0.2806
 2377SOL    HW118764   4.334   3.888   7.776  0.4618  1.0163 -0.1409
 2377SOL    HW218765   4.422   3.896   7.902  0.8639  0.4451 -0.9603
 2378SOL     OW18766   2.558   4.079   6.672  0.2248 -0.1814 -0.1272
 2378SOL    HW118767   2.616   4.086   6.748 -2.2619 -3.6897  2.1062
 2378SOL    HW218768   2.617   4.105   6.601 -1.0332  1.3090 -0.6150
 2379SOL     OW18769   2.158   3.504   4.692  0.1396 -0.0939 -0.7204
 2379SOL    HW118770   2.251   3.493   4.675  0.2241  1.1960 -1.0838
 2379SOL    HW218771   2.162   3.538   4.781 -1.1828  1.3639 -1.2056
 2380SOL     OW18772   3.721   1.757   8.198 -0.2736  0.3289 -0.0226
 2380SOL    HW118773   3.802   1.808   8.208 -1.1919  1.5636  1.1328
 2380SOL    HW218774   3.741   1.682   8.254  0.8189  0.3683 -0.3490
 2381SOL     OW18775   2.674   1.683  15.883 -0.1210  0.5579 -0.2308
 2381SOL    HW118776   2.750   1.631  15.854 -0.4799 -0.5503  0.8272
 2381SOL    HW218777   2.599   1.663  15.827 -1.2992 -2.0196  2.3014
 2382SOL     OW18778   4.452   4.626  11.703  0.0867  0.5488 -0.2359
 2382SOL    HW118779   4.377   4.604  11.759 -0.1215 -1.5529 -1.3747
 2382SOL    HW218780   4.517   4.557  11.715 -0.0484  0.2256 -1.3932
 2383SOL     OW18781   1.611   2.998   9.025 -0.2411  0.6344  0.2206
 2383SOL    HW118782   1.550   2.925   9.029 -0.9624  1.1616 -1.2695
 2383SOL    HW218783   1.690   2.954   9.057 -2.3740 -2.4678  1.1946
 2384SOL     OW18784   4.278   1.703  11.856  0.1400  0.1733  0.1085
 2384SOL    HW118785   4.249   1.785  11.896  0.2064  1.0085 -1.5507
 2384SOL    HW218786   4.292   1.650  11.934 -0.4528  1.8401  1.3703
 2385SOL     OW18787   0.107   2.868   5.771  0.0453  0.2587  0.5835
 2385SOL    HW118788   0.086   2.822   5.852 -2.5091 -0.1081 -0.2757
 2385SOL    HW218789   0.183   2.921   5.792 -0.2216  1.6454 -1.8992
 2386SOL     OW18790   4.149   1.800   7.295 -0.0379 -0.3067 -0.3130
 2386SOL    HW118791   4.074   1.782   7.352  0.0555 -0.7891 -0.3503
 2386SOL    HW218792   4.203   1.843   7.362  0.7635  1.6538 -2.1949
 2387SOL     OW18793   0.010   4.709   1.197  0.0200  0.3098 -0.4324
 2387SOL    HW118794   0.035   0.063   1.171  0.9709 -0.5193 -2.3504
 2387SOL    HW218795   4.727   4.670   1.112 -0.7937 -0.7730  0.2215
 2388SOL     OW18796   3.964   1.437   7.310 -0.2272 -0.5326  0.0754
 2388SOL    HW118797   3.984   1.352   7.270 -0.4548  0.7783 -2.8282
 2388SOL    HW218798   4.044   1.462   7.356 -0.0075  2.7419 -2.1254
 2389SOL     OW18799   0.788   3.065   9.923  0.2903 -0.3914  0.6776
 2389SOL    HW118800   0.878   3.097   9.929  0.7006 -1.5092  0.6324
 2389SOL    HW218801   0.726   3.130   9.891  1.0830 -0.5937 -1.2398
 2390SOL     OW18802   0.106   0.187   9.612 -0.1781 -0.0720  0.2789
 2390SOL    HW118803   0.129   0.115   9.671 -0.4777 -1.7292 -1.6537
 2390SOL    HW218804   0.187   0.238   9.618  0.4542 -1.0676  0.2388
 2391SOL     OW18805   4.407   3.873   3.901  0.4675  0.0331 -0.3209
 2391SOL    HW118806   4.494   3.840   3.877  1.5459  0.9177  2.4246
 2391SOL    HW218807   4.400   3.955   3.853 -2.4739 -0.6082 -1.0173
 2392SOL     OW18808   1.476   1.826   5.715 -0.4899 -0.0543  0.0480
 2392SOL    HW118809   1.569   1.845   5.698 -0.1970 -2.0749 -0.6719
 2392SOL    HW218810   1.452   1.886   5.785 -0.6797 -0.5874  0.4415
 2393SOL     OW18811   1.747   0.323   4.562  0.0982  0.2281 -0.7474
 2393SOL    HW118812   1.672   0.348   4.616 -0.5732 -1.5056 -0.8731
 2393SOL    HW218813   1.797   0.285   4.635 -1.1852  1.9974  1.0679
 2394SOL     OW18814   2.538   0.917   6.196 -0.3074 -0.0075 -0.3175
 2394SOL    HW118815   2.583   0.854   6.253  0.1801 -0.5167 -1.2592
 2394SOL    HW218816   2.583   0.898   6.113 -0.4368  2.3302 -0.9279
 2395SOL     OW18817   0.273   1.704   6.043  0.0298  0.3492 -0.5109
 2395SOL    HW118818   0.226   1.666   5.968  0.5157  2.1185 -1.7107
 2395SOL    HW218819   0.199   1.732   6.098 -0.4425  0.1854 -1.0572
 2396SOL     OW18820   0.615   0.439   6.225 -0.0311 -0.0972  0.2208
 2396SOL    HW118821   0.589   0.374   6.290 -0.7590 -1.0443 -1.0039
 2396SOL    HW218822   0.555   0.415   6.154  1.0345 -1.7421 -0.0992
 2397SOL     OW18823   0.976   2.955   0.190  0.4588  0.2703  0.3485
 2397SOL    HW118824   1.053   2.954   0.134 -0.5597  0.9621 -1.0720
 2397SOL    HW218825   1.005   3.032   0.240  0.1456 -0.5239  1.7643
 2398SOL     OW18826   0.653   0.422   8.169 -0.2329 -0.3956  0.4807
 2398SOL    HW118827   0.667   0.427   8.263 -1.7218  0.1766  0.6720
 2398SOL    HW218828   0.724   0.480   8.142 -1.8386  1.3022 -0.1380
 2399SOL     OW18829   3.273   4.733   9.454  0.1370 -0.2581 -0.5094
 2399SOL    HW118830   3.265   0.016   9.547 -0.1431  0.1206 -0.6042
 2399SOL    HW218831   3.184   0.022   9.428  0.3586  0.9107 -0.2079
 2400SOL     OW18832   2.333   2.762   1.811  0.4853  0.0162 -0.0656
 2400SOL    HW118833   2.273   2.710   1.757  1.0303  2.0030 -2.5749
 2400SOL    HW218834   2.285   2.844   1.823 -0.1132 -0.3924  0.3264
 2401SOL     OW18835   1.447   1.427   0.231 -0.2186 -0.7421  0.0146
 2401SOL    HW118836   1.510   1.356   0.214 -1.4946 -1.6683 -0.8327
 2401SOL    HW218837   1.381   1.410   0.165  0.9597 -1.2602 -1.0301
 2402SOL     OW18838   4.431   4.261   8.004 -0.1238  0.4703  0.2086
 2402SOL    HW118839   4.446   4.199   8.075 -0.3313 -1.0204 -1.0452
 2402SOL    HW218840   4.410   4.209   7.926  0.4965 -2.6543  2.1181
 2403SOL     OW18841   4.556   0.627   5.278  0.3735 -0.2050 -0.2457
 2403SOL    HW118842   4.554   0.650   5.185 -0.9842 -1.9890 -0.6385
 2403SOL    HW218843   4.469   0.660   5.303  1.1585  1.4031  0.3994
 2404SOL     OW18844   4.066   2.038   0.238  0.3419  0.2660  0.5013
 2404SOL    HW118845   4.016   1.956   0.237 -0.0443  0.5122 -0.7850
 2404SOL    HW218846   4.130   2.029   0.168  1.4858  0.2241  1.5654
 2405SOL     OW18847   0.704   4.013   6.100  0.2798 -0.2077  0.3353
 2405SOL    HW118848   0.770   4.002   6.031  0.9926 -0.1227  0.9944
 2405SOL    HW218849   0.752   4.058   6.170  0.7476 -1.1430  0.6165
 2406SOL     OW18850   1.697   3.782   4.573  0.5389  0.5110  0.4823
 2406SOL    HW118851   1.656   3.863   4.602  0.7168  0.5050  0.7475
 2406SOL    HW218852   1.771   3.811   4.521 -0.2425 -0.7661 -1.3434
 2407SOL     OW18853   0.659   1.423   4.541 -0.0203  0.1826 -0.0753
 2407SOL    HW118854   0.720   1.476   4.489  0.8518 -0.2831  0.4558
 2407SOL    HW218855   0.578   1.435   4.492 -0.5585 -0.1458  0.7503
 2408SOL     OW18856   1.546   3.506  11.986  0.3195  0.3452  0.4418
 2408SOL    HW118857   1.551   3.576  12.051  0.3841  0.0605  0.7370
 2408SOL    HW218858   1.453   3.498  11.962  0.7998 -1.9781 -0.6185
 2409SOL     OW18859   0.661   0.059   8.006  0.6870 -0.2570  0.6758
 2409SOL    HW118860   0.642   0.056   8.100  1.5104 -0.6072  0.8294
 2409SOL    HW218861   0.704   4.713   7.979  0.6871 -0.5551  1.5859
 2410SOL     OW18862   2.643   1.940   3.088 -0.2905 -0.2420 -0.5812
 2410SOL    HW118863   2.636   2.036   3.095  2.2984  0.0006 -1.3010
 2410SOL    HW218864   2.551   1.918   3.074 -1.0512  2.0106  0.9261
 2411SOL     OW18865   0.217   3.236  15.114 -0.0783 -0.9472  0.4543
 2411SOL    HW118866   0.220   3.198  15.026  1.3429 -0.3297  0.2324
 2411SOL    HW218867   0.184   3.322  15.087 -1.6993 -1.9005 -0.5880
 2412SOL     OW18868   3.180   1.874   4.845 -0.1870  0.0217 -0.8572
 2412SOL    HW118869   3.221   1.788   4.859 -1.1809 -0.5504 -1.4132
 2412SOL    HW218870   3.101   1.857   4.793 -0.9700  0.1801  0.3025
 2413SOL     OW18871   3.444   0.142   9.288  0.0762 -0.1855  0.5029
 2413SOL    HW118872   3.414   0.127   9.198  0.6260  0.0122  0.2915
 2413SOL    HW218873   3.385   0.086   9.339 -0.4428 -0.2686 -0.1919
 2414SOL     OW18874   0.888   2.037   9.352  0.0076  0.0705 -0.2657
 2414SOL    HW118875   0.916   1.960   9.303 -0.8881  0.0857 -0.8100
 2414SOL    HW218876   0.945   2.038   9.428  0.7456  3.0778 -0.8420
 2415SOL     OW18877   1.529   2.440   2.860 -0.1672  0.2936  0.0159
 2415SOL    HW118878   1.579   2.358   2.858  1.0532  1.0973 -1.7688
 2415SOL    HW218879   1.520   2.477   2.948 -0.8818  0.7128 -0.2320
 2416SOL     OW18880   3.433   1.779   1.311  0.3710 -0.3148 -0.4349
 2416SOL    HW118881   3.391   1.780   1.225 -1.7579 -0.6642  0.5926
 2416SOL    HW218882   3.376   1.715   1.353  1.9585 -0.0315  2.1486
 2417SOL     OW18883   4.518   1.270   3.541 -0.7561 -0.3133 -0.2825
 2417SOL    HW118884   4.484   1.218   3.614 -1.3179  2.3792  1.4082
 2417SOL    HW218885   4.454   1.342   3.537 -0.5657 -0.0965  0.5457
 2418SOL     OW18886   1.779   3.520   9.559 -0.2071  0.3089  0.1863
 2418SOL    HW118887   1.730   3.451   9.603  0.3939  0.7046  1.4894
 2418SOL    HW218888   1.792   3.574   9.637  2.1907  0.5354 -0.3628
 2419SOL     OW18889   1.095   1.467  12.512  0.3608 -0.4021 -0.3420
 2419SOL    HW118890   1.153   1.416  12.456 -0.3359 -0.8094 -0.7029
 2419SOL    HW218891   1.031   1.395  12.518  0.7050 -0.7059 -0.3468
 2420SOL     OW18892   2.777   1.521   4.655  0.3630  0.9005  0.3168
 2420SOL    HW118893   2.696   1.471   4.656  1.0355 -0.1800  0.4010
 2420SOL    HW218894   2.749   1.600   4.701  0.0481  0.6363  0.5717
 2421SOL     OW18895   3.894   3.866   3.386  0.4684 -0.7879  0.2243
 2421SOL    HW118896   3.971   3.836   3.435  0.0074 -1.1235  0.7353
 2421SOL    HW218897   3.829   3.801   3.412 -0.6804 -0.5140 -1.9797
 2422SOL     OW18898   2.601   3.277  15.220 -0.7726 -0.7333 -0.2444
 2422SOL    HW118899   2.592   3.216  15.292 -0.4635 -1.9996 -1.2824
 2422SOL    HW218900   2.511   3.281  15.186 -1.9123  0.7727  2.9249
 2423SOL     OW18901   4.158   4.379   5.372  0.2278 -0.0920 -0.3698
 2423SOL    HW118902   4.175   4.320   5.298  0.7230  0.4030 -0.6519
 2423SOL    HW218903   4.064   4.359   5.379  0.3484 -0.4346  0.2340
 2424SOL     OW18904   4.391   0.891   5.589  0.2510  0.3581  0.1505
 2424SOL    HW118905   4.482   0.869   5.610  0.0426 -1.5060 -0.9198
 2424SOL    HW218906   4.391   0.874   5.495  0.7851  0.8188  0.0602
 2425SOL     OW18907   1.325   0.193   1.736 -0.5182  0.2297 -0.1526
 2425SOL    HW118908   1.326   0.135   1.813 -0.5026  0.6561  0.1718
 2425SOL    HW218909   1.249   0.165   1.686 -0.6969  0.8730 -0.2428
 2426SOL     OW18910   4.228   3.158   2.573 -0.0512 -0.3671  0.2558
 2426SOL    HW118911   4.299   3.221   2.562  0.3048 -1.1364 -1.9759
 2426SOL    HW218912   4.171   3.158   2.496  0.2163  0.5389  0.0593
 2427SOL     OW18913   4.591   3.766  12.066 -0.4098 -0.5759  0.4049
 2427SOL    HW118914   4.512   3.811  12.038 -1.0424 -2.0435 -0.1944
 2427SOL    HW218915   4.638   3.764  11.983 -1.5874 -1.6396 -0.2498
 2428SOL     OW18916   4.664   3.648   5.363  0.4267 -0.2744  0.1600
 2428SOL    HW118917   4.709   3.650   5.448 -1.2104  1.8593  0.9675
 2428SOL    HW218918   4.726   3.679   5.298  1.2732 -2.0596  0.1018
 2429SOL     OW18919   4.131   2.381   4.527 -0.8594  0.1128  0.0977
 2429SOL    HW118920   4.127   2.419   4.615  0.9212 -1.0987  0.6938
 2429SOL    HW218921   4.216   2.339   4.519 -0.8203 -0.0023  1.0157
 2430SOL     OW18922   1.597   4.200   8.185 -0.0967  0.7379 -0.1831
 2430SOL    HW118923   1.600   4.107   8.165  2.0814  0.8576 -0.5244
 2430SOL    HW218924   1.689   4.216   8.208  0.3171  0.5129 -1.6679
 2431SOL     OW18925   0.863   0.661   0.487  0.4060 -0.4041  0.1213
 2431SOL    HW118926   0.777   0.623   0.504 -1.1577  2.4259 -1.3820
 2431SOL    HW218927   0.837   0.700   0.404  1.4946  0.0449 -0.0079
 2432SOL     OW18928   1.025   3.961   2.752 -0.1806 -0.5442 -0.0248
 2432SOL    HW118929   1.097   4.018   2.778  0.3866 -1.6029  0.6996
 2432SOL    HW218930   1.005   3.902   2.825 -1.3766 -0.0214  0.0829
 2433SOL     OW18931   3.215   3.247  10.431 -0.1788 -0.4406 -0.6491
 2433SOL    HW118932   3.237   3.320  10.490 -0.9009  0.4669 -1.5032
 2433SOL    HW218933   3.292   3.250  10.373  0.0841  0.4165 -0.2641
 2434SOL     OW18934   3.223   3.324   6.623  0.4972  0.0469 -0.5343
 2434SOL    HW118935   3.140   3.286   6.654  1.1464 -0.9207  0.0159
 2434SOL    HW218936   3.210   3.339   6.529  1.9092  0.5509 -0.6483
 2435SOL     OW18937   4.457   2.088   4.711 -0.2962  0.1402 -0.0366
 2435SOL    HW118938   4.492   2.082   4.800 -1.6411  2.6702  0.6484
 2435SOL    HW218939   4.498   2.010   4.672 -0.9131  0.5659 -1.5353
 2436SOL     OW18940   4.250   0.166   5.828  0.1073  0.0959  0.4436
 2436SOL    HW118941   4.216   0.121   5.751  2.8024 -1.2955  0.0637
 2436SOL    HW218942   4.315   0.100   5.852  0.5153  0.3985  0.1765
 2437SOL     OW18943   0.356   1.657   2.105 -0.8824 -0.5510  0.3117
 2437SOL    HW118944   0.287   1.722   2.110 -1.4754 -1.1736  0.1784
 2437SOL    HW218945   0.324   1.581   2.154  1.3718 -1.8270 -0.1574
 2438SOL     OW18946   1.380   0.683  14.238  0.0388 -0.4710  0.0987
 2438SOL    HW118947   1.341   0.611  14.188 -2.5215  0.5156  0.6871
 2438SOL    HW218948   1.464   0.644  14.259  0.1147 -0.5698 -0.3782
 2439SOL     OW18949   3.804   2.742   9.260  0.0784  0.3241 -0.2557
 2439SOL    HW118950   3.840   2.668   9.308  0.5338  2.4267  2.6492
 2439SOL    HW218951   3.828   2.716   9.171 -3.0321  1.0854 -1.3216
 2440SOL     OW18952   3.154   0.249   5.724  0.2522 -0.2603  0.2805
 2440SOL    HW118953   3.233   0.298   5.704  0.4562 -0.7286 -0.0662
 2440SOL    HW218954   3.130   0.288   5.808 -0.0006 -1.7261  0.9021
 2441SOL     OW18955   1.447   4.153   9.399 -0.0943 -0.0130  0.3626
 2441SOL    HW118956   1.354   4.165   9.381 -0.0957  0.2775  0.5658
 2441SOL    HW218957   1.451   4.205   9.480 -1.1269 -0.0576  0.4439
 2442SOL     OW18958   4.473   1.967   6.625 -0.0554 -0.3140  0.6278
 2442SOL    HW118959   4.427   2.047   6.600  1.0536 -0.4115 -1.6942
 2442SOL    HW218960   4.431   1.913   6.558  1.0863  0.5620 -0.7696
 2443SOL     OW18961   3.499   2.277  11.437  0.8604 -0.2178 -0.2547
 2443SOL    HW118962   3.522   2.217  11.508 -0.8808  1.0381  1.3937
 2443SOL    HW218963   3.406   2.265  11.422  0.5506  0.5163  1.0163
 2444SOL     OW18964   4.015   2.899  14.069  0.0892 -0.0057  0.2717
 2444SOL    HW118965   3.951   2.874  14.136 -0.6726 -0.7680 -0.7415
 2444SOL    HW218966   3.967   2.978  14.043  0.5036  0.6124  1.3805
 2445SOL     OW18967   0.823   0.411   0.246 -0.7045  0.5646  0.5584
 2445SOL    HW118968   0.776   0.493   0.231 -1.0027  0.2448 -0.2354
 2445SOL    HW218969   0.747   0.357   0.265 -1.6596  1.7388  0.0677
 2446SOL     OW18970   1.127   1.387   2.520 -0.2804  0.1364 -0.2717
 2446SOL    HW118971   1.051   1.411   2.467 -0.3450 -0.7269 -0.5642
 2446SOL    HW218972   1.084   1.327   2.581  1.2470 -1.2906 -0.6051
 2447SOL     OW18973   1.464   4.580   8.706 -0.0974 -0.5938 -0.1506
 2447SOL    HW118974   1.515   4.513   8.661  0.5596  0.9334 -1.7162
 2447SOL    HW218975   1.437   4.636   8.633 -3.0918 -1.2831  0.4128
 2448SOL     OW18976   4.728   1.601   4.744 -0.3065 -0.1301  0.4390
 2448SOL    HW118977   4.720   1.694   4.765  2.2754  0.3304 -0.5028
 2448SOL    HW218978   4.641   1.569   4.767  0.0569 -1.2136  0.3340
 2449SOL     OW18979   1.372   1.647   1.227  0.2287 -0.6393  0.1996
 2449SOL    HW118980   1.378   1.730   1.180 -2.4143 -0.8016 -0.3978
 2449SOL    HW218981   1.375   1.586   1.153 -0.6055 -0.8484  0.3414
 2450SOL     OW18982   2.328   3.783  11.119 -0.4462 -0.3752 -0.0854
 2450SOL    HW118983   2.294   3.770  11.208 -1.0914  0.2340 -0.2448
 2450SOL    HW218984   2.422   3.797  11.131 -0.3602 -1.1302  0.1361
 2451SOL     OW18985   1.850   2.875   8.516 -0.4746 -0.4976 -1.0088
 2451SOL    HW118986   1.766   2.834   8.498 -1.1690  0.5346 -0.1370
 2451SOL    HW218987   1.839   2.921   8.599  2.8205 -0.0103 -0.8130
 2452SOL     OW18988   3.070   4.265   6.644 -0.0701  0.1325 -0.0868
 2452SOL    HW118989   3.074   4.173   6.668  1.7680  0.1561 -0.3628
 2452SOL    HW218990   3.131   4.293   6.712  0.6265  0.0977 -0.6940
 2453SOL     OW18991   0.528   2.537   3.514 -0.2323  0.1198 -0.6015
 2453SOL    HW118992   0.540   2.587   3.433 -0.8738  0.5662 -0.4291
 2453SOL    HW218993   0.448   2.487   3.495  0.8857 -1.3623 -1.4157
 2454SOL     OW18994   2.238   4.360  14.135  0.8454 -0.0233 -0.2459
 2454SOL    HW118995   2.153   4.322  14.157  1.0921 -0.2484  0.3145
 2454SOL    HW218996   2.274   4.282  14.093 -1.3300 -2.0541  1.6854
 2455SOL     OW18997   2.448   3.192   4.025  0.4689  0.1711  0.6184
 2455SOL    HW118998   2.458   3.286   4.016 -1.3713  0.3599  0.5388
 2455SOL    HW218999   2.358   3.186   4.058  0.7394  0.5808  1.4488
 2456SOL     OW19000   2.263   2.881  17.589 -0.3286  0.1262 -0.2249
 2456SOL    HW119001   2.267   2.977  17.584  1.4981 -0.0371 -1.7132
 2456SOL    HW219002   2.170   2.875  17.609 -0.5402 -0.4834 -1.3636
 2457SOL     OW19003   0.434   4.212   6.263 -0.2753 -0.1995  0.4557
 2457SOL    HW119004   0.445   4.136   6.206 -0.6228 -0.5953  0.9248
 2457SOL    HW219005   0.396   4.158   6.332 -0.0901  0.6410  1.2202
 2458SOL     OW19006   3.990   2.985   6.504  0.1148  0.5523 -0.3149
 2458SOL    HW119007   4.034   2.911   6.545 -0.3153  0.0758 -0.7304
 2458SOL    HW219008   4.065   3.044   6.497  0.7648 -0.2667 -0.2547
 2459SOL     OW19009   1.186   3.269   9.236  0.0991 -0.1216 -0.6593
 2459SOL    HW119010   1.202   3.363   9.225  1.7519 -0.3498 -0.1221
 2459SOL    HW219011   1.250   3.228   9.178 -0.0833  0.2715 -1.1472
 2460SOL     OW19012   3.690   1.440   7.576  0.1921  0.5192 -0.8160
 2460SOL    HW119013   3.679   1.345   7.574  1.3950  0.3648 -0.0805
 2460SOL    HW219014   3.597   1.460   7.587 -0.2778 -2.6712  0.9035
 2461SOL     OW19015   4.146   0.489   0.722 -0.0952  0.0391 -0.1512
 2461SOL    HW119016   4.090   0.412   0.731 -1.8020  1.3813  0.9422
 2461SOL    HW219017   4.135   0.507   0.629  1.8573 -1.0768 -0.5704
 2462SOL     OW19018   0.688   0.806   2.520  0.2747  0.0600 -0.4243
 2462SOL    HW119019   0.700   0.780   2.611 -3.2182 -1.5281 -0.4139
 2462SOL    HW219020   0.707   0.899   2.508 -0.0557  0.1854  0.0230
 2463SOL     OW19021   1.532   2.979   4.680 -0.5199 -0.0114 -0.1213
 2463SOL    HW119022   1.500   2.912   4.620  1.9834 -0.3175 -1.0915
 2463SOL    HW219023   1.525   3.054   4.621  0.4709 -1.8030 -2.4713
 2464SOL     OW19024   4.669   2.074   1.557  0.2829  0.7714  0.2292
 2464SOL    HW119025   4.648   2.167   1.552 -2.3339  0.2109  1.3956
 2464SOL    HW219026   4.623   2.048   1.637  2.4932 -0.3178  1.1507
 2465SOL     OW19027   0.196   0.939  17.100  0.0384  0.1291 -0.4975
 2465SOL    HW119028   0.198   0.863  17.041 -2.0752 -0.8120  0.6643
 2465SOL    HW219029   0.104   0.960  17.085 -0.2375 -0.1219  0.8959
 2466SOL     OW19030   3.835   3.648   0.058 -0.3263 -0.2509 -0.5074
 2466SOL    HW119031   3.807   3.650   0.149  0.0348  0.9885 -0.4279
 2466SOL    HW219032   3.889   3.569   0.065  1.6753  1.2278  0.8398
 2467SOL     OW19033   2.619   3.499   8.042  0.0459 -0.2578 -0.2058
 2467SOL    HW119034   2.555   3.559   8.080  0.9894  1.4391 -1.2716
 2467SOL    HW219035   2.581   3.454   7.966 -1.6271 -0.4343  0.7454
 2468SOL     OW19036   1.156   4.369   7.581 -0.3442 -0.1659 -0.2448
 2468SOL    HW119037   1.186   4.296   7.527  1.3716 -1.3288  2.2578
 2468SOL    HW219038   1.096   4.401   7.514  0.5592  0.7992 -0.6079
 2469SOL     OW19039   3.840   0.166   1.760  0.4147 -0.3202  0.0558
 2469SOL    HW119040   3.859   0.106   1.689 -0.1609  0.1353 -0.4823
 2469SOL    HW219041   3.754   0.133   1.788 -0.1782 -0.1656 -1.6096
 2470SOL     OW19042   4.553   2.740   7.693 -0.2904 -0.3609  0.1561
 2470SOL    HW119043   4.568   2.806   7.625 -0.9925 -1.8510 -1.4292
 2470SOL    HW219044   4.493   2.677   7.653 -0.5680  0.1362 -0.2095
 2471SOL     OW19045   2.649   3.844  13.116  0.0824 -0.6900  0.2563
 2471SOL    HW119046   2.675   3.781  13.049 -2.8128  1.8766 -3.2894
 2471SOL    HW219047   2.553   3.841  13.112 -0.0303  1.4004  1.2042
 2472SOL     OW19048   4.537   4.577   6.522 -0.6629 -0.0075  0.4557
 2472SOL    HW119049   4.538   4.498   6.469  3.3307 -0.9287  1.9442
 2472SOL    HW219050   4.587   4.640   6.469 -1.5292 -0.2038 -0.5923
 2473SOL     OW19051   4.655   0.082   1.996 -0.8153 -0.1773 -0.2469
 2473SOL    HW119052   4.673   0.176   1.989  2.5487 -0.8506 -0.6413
 2473SOL    HW219053   4.702   0.048   1.920 -1.9748  1.1591 -1.5631
 2474SOL     OW19054   0.546   4.176   3.751 -0.4325  0.5423  0.4062
 2474SOL    HW119055   0.569   4.260   3.711  0.7072 -0.5197 -1.2090
 2474SOL    HW219056   0.452   4.164   3.737 -0.4932 -1.1624  2.4214
 2475SOL     OW19057   3.889   2.249  15.424  0.2820  0.4578  0.1829
 2475SOL    HW119058   3.798   2.264  15.397  1.0617  1.5004 -1.7872
 2475SOL    HW219059   3.903   2.314  15.493  0.5262  0.2350  0.3438
 2476SOL     OW19060   0.084   3.374   6.532  0.3046 -0.1316 -0.3209
 2476SOL    HW119061   0.078   3.432   6.608 -2.7777 -1.6551  0.6121
 2476SOL    HW219062   0.016   3.318   6.569  1.7192 -0.3794  1.9356
 2477SOL     OW19063   1.332   0.796  15.838  0.1782  0.2540 -0.9371
 2477SOL    HW119064   1.277   0.757  15.907  1.9140  0.4103  0.5317
 2477SOL    HW219065   1.392   0.728  15.810 -0.5688  0.6177 -3.3866
 2478SOL     OW19066   1.627   3.429   3.491  0.4692 -0.1097  0.1224
 2478SOL    HW119067   1.555   3.432   3.428  1.1394 -2.5308 -0.7424
 2478SOL    HW219068   1.584   3.362   3.545 -0.9490 -0.9646 -2.0706
 2479SOL     OW19069   3.198   4.519   9.779 -0.2280 -0.3631 -0.1678
 2479SOL    HW119070   3.207   4.448   9.843 -2.7938 -0.6959 -0.1824
 2479SOL    HW219071   3.191   4.467   9.699 -0.3076 -0.1819 -0.2781
 2480SOL     OW19072   3.271   0.670   7.683  0.4759 -0.3230 -0.1195
 2480SOL    HW119073   3.313   0.755   7.672 -1.0552  0.6827  1.8073
 2480SOL    HW219074   3.207   0.697   7.748  0.9542 -2.6526  1.3401
 2481SOL     OW19075   1.880   0.635   0.235 -0.4412  0.1594 -0.1904
 2481SOL    HW119076   1.801   0.679   0.205 -0.6501  0.0360  0.1884
 2481SOL    HW219077   1.861   0.541   0.238 -0.0364  0.1343  1.4418
 2482SOL     OW19078   4.293   1.205   2.369  0.0333 -0.3689 -0.0722
 2482SOL    HW119079   4.264   1.239   2.455 -0.7071 -0.3095 -0.3422
 2482SOL    HW219080   4.296   1.286   2.319  0.9510 -1.6755 -2.1281
 2483SOL     OW19081   0.430   1.493  17.152 -0.7646  0.6285 -0.6155
 2483SOL    HW119082   0.413   1.410  17.198  0.5189 -0.3817 -1.9613
 2483SOL    HW219083   0.473   1.464  17.072  1.5330  1.0920  0.4256
 2484SOL     OW19084   2.430   4.086  10.110 -0.1728  0.1112  0.0066
 2484SOL    HW119085   2.353   4.039  10.076 -1.5643  1.8077  0.8190
 2484SOL    HW219086   2.400   4.102  10.200  0.6009 -1.4296  0.5376
 2485SOL     OW19087   3.218   0.662   3.692  0.0628  0.3256 -0.0670
 2485SOL    HW119088   3.282   0.695   3.756  0.5223  0.1725 -0.4496
 2485SOL    HW219089   3.242   0.719   3.619 -2.5290 -0.1067 -1.2436
 2486SOL     OW19090   2.145   2.172   7.585  0.6201  0.4317  0.2708
 2486SOL    HW119091   2.205   2.229   7.633  0.8103  0.5731 -0.1337
 2486SOL    HW219092   2.101   2.129   7.659 -0.4998  1.1259  0.0123
 2487SOL     OW19093   0.339   0.513  13.000 -0.1912  0.6828 -0.1723
 2487SOL    HW119094   0.335   0.449  13.072 -3.5408  0.2893 -0.7510
 2487SOL    HW219095   0.380   0.588  13.044 -0.3316  1.2448 -1.0195
 2488SOL     OW19096   2.909   2.951   5.992 -0.0792 -0.0842  0.5627
 2488SOL    HW119097   2.847   2.961   5.919  1.6031 -0.3321 -0.9003
 2488SOL    HW219098   2.855   2.979   6.066 -1.3984  0.0066 -0.4254
 2489SOL     OW19099   1.419   0.656   3.339  0.2901  0.1357  0.2176
 2489SOL    HW119100   1.498   0.601   3.333  0.1447  0.2090 -2.0690
 2489SOL    HW219101   1.456   0.723   3.396 -0.5575  0.8247 -0.0575
 2490SOL     OW19102   1.823   1.730   4.350 -0.4599  0.6378 -0.4174
 2490SOL    HW119103   1.744   1.751   4.400  0.9127 -2.3632  2.9981
 2490SOL    HW219104   1.795   1.643   4.323 -2.4103  1.2675 -0.4331
 2491SOL     OW19105   0.761   3.583   4.116 -0.4731 -0.3766 -0.0888
 2491SOL    HW119106   0.806   3.615   4.037  0.2918  1.1611  0.9697
 2491SOL    HW219107   0.723   3.503   4.080 -2.8475  0.5696  0.3673
 2492SOL     OW19108   3.623   1.732   7.845 -0.1324  0.7790  0.0555
 2492SOL    HW119109   3.677   1.654   7.857  1.1444  1.5927 -0.4238
 2492SOL    HW219110   3.639   1.746   7.752 -1.8046 -0.2342 -0.3830
 2493SOL     OW19111   2.283   3.499  17.705 -0.1373  0.0149 -0.1854
 2493SOL    HW119112   2.335   3.464   0.039  0.3537 -1.8840 -1.4638
 2493SOL    HW219113   2.348   3.523  17.638  1.9152  2.7849  2.8326
 2494SOL     OW19114   0.807   2.177   1.338  0.0062 -0.0182 -0.0043
 2494SOL    HW119115   0.747   2.104   1.354 -0.8746  0.1666 -2.5236
 2494SOL    HW219116   0.883   2.142   1.384 -0.6607  0.6447  1.6093
 2495SOL     OW19117   0.923   0.894   7.397 -0.6968  0.4298  0.1480
 2495SOL    HW119118   0.996   0.869   7.453 -1.0320  0.9816  0.8292
 2495SOL    HW219119   0.931   0.989   7.399 -1.0571  0.4412  0.8993
 2496SOL     OW19120   2.598   4.610  13.866 -0.6722  0.5548  0.5803
 2496SOL    HW119121   2.582   4.527  13.910 -1.4329  1.8507  2.7723
 2496SOL    HW219122   2.690   4.624  13.886 -0.4577  2.4047 -1.6232
 2497SOL     OW19123   0.191   1.835   1.814 -0.2464 -0.0552 -0.8475
 2497SOL    HW119124   0.162   1.764   1.757 -0.3455 -1.6596  1.2059
 2497SOL    HW219125   0.261   1.790   1.861 -1.2070 -0.2944  0.3705
 2498SOL     OW19126   1.847   1.492   7.362 -0.2798 -0.1542 -0.1595
 2498SOL    HW119127   1.802   1.539   7.432  0.6502 -0.2930  0.5376
 2498SOL    HW219128   1.784   1.426   7.334  3.5447 -2.5779 -3.1369
 2499SOL     OW19129   4.639   3.573  12.535 -0.2196  0.0743 -0.0803
 2499SOL    HW119130   4.721   3.612  12.505  0.8414 -1.3182  1.0384
 2499SOL    HW219131   4.671   3.489  12.569  2.7134  0.5819 -1.6401
 2500SOL     OW19132   3.150   3.993   5.932  0.7168  1.1897 -0.1284
 2500SOL    HW119133   3.226   4.047   5.955  0.9855  2.0193 -2.9845
 2500SOL    HW219134   3.160   3.985   5.837 -0.9917  1.4950 -0.3312
 2501SOL     OW19135   2.037   1.709   4.980 -0.3373  0.0327  0.1493
 2501SOL    HW119136   2.039   1.644   4.909 -2.6437 -2.0293  1.9845
 2501SOL    HW219137   2.100   1.674   5.043  0.1286  0.3868 -0.1227
 2502SOL     OW19138   1.425   1.758   4.225  0.8341 -0.6147 -0.4276
 2502SOL    HW119139   1.470   1.827   4.274 -0.3411  0.6070 -1.0632
 2502SOL    HW219140   1.453   1.770   4.134  0.5294  2.8474 -0.0466
 2503SOL     OW19141   0.145   4.667   7.529  0.2545 -0.1494 -0.0868
 2503SOL    HW119142   0.214   4.615   7.569 -0.8164 -3.1465 -2.1353
 2503SOL    HW219143   0.090   4.600   7.488 -0.2672  1.1173 -1.4832
 2504SOL     OW19144   3.388   3.043   4.221  0.4097 -0.8670 -0.5257
 2504SOL    HW119145   3.379   3.064   4.315 -0.6967  0.6809 -0.9618
 2504SOL    HW219146   3.444   2.966   4.217  1.8892  0.2266 -0.9262
 2505SOL     OW19147   4.338   0.939   2.395  0.3551  0.1459  0.4624
 2505SOL    HW119148   4.325   1.029   2.365 -1.5166 -1.2512 -2.8706
 2505SOL    HW219149   4.248   0.909   2.405  1.1274 -1.9491  0.9454
 2506SOL     OW19150   0.694   3.535   5.813  0.6005 -0.4771 -0.4209
 2506SOL    HW119151   0.784   3.504   5.806  0.9480 -0.2705  3.0580
 2506SOL    HW219152   0.649   3.453   5.789 -2.8282  1.0939  0.6221
 2507SOL     OW19153   3.797   0.365   2.190  0.2737 -0.1469 -0.0830
 2507SOL    HW119154   3.785   0.312   2.269 -0.8383  0.3745  0.0995
 2507SOL    HW219155   3.742   0.325   2.124 -0.4412 -0.3095  0.6074
 2508SOL     OW19156   1.485   1.991   9.362  0.0823  0.3829 -0.2344
 2508SOL    HW119157   1.527   2.021   9.282  0.5759 -0.7728 -0.4042
 2508SOL    HW219158   1.437   2.072   9.378 -1.2320 -0.5005  0.2793
 2509SOL     OW19159   3.042   4.585  10.940  0.0392  0.1550  0.0349
 2509SOL    HW119160   3.012   4.564  11.028 -1.6305  0.3248 -0.4850
 2509SOL    HW219161   2.962   4.621  10.903 -0.1784  1.4027  1.7292
 2510SOL     OW19162   0.262   4.188   7.488 -0.1268 -0.2452  0.5257
 2510SOL    HW119163   0.176   4.207   7.451  1.7093  1.8214 -2.6813
 2510SOL    HW219164   0.255   4.097   7.519  0.6167 -0.8506 -1.1292
 2511SOL     OW19165   1.311   4.286   6.015  0.1767  0.5730  0.3801
 2511SOL    HW119166   1.332   4.305   6.107  0.0399 -2.0751  0.9511
 2511SOL    HW219167   1.397   4.302   5.975  0.0945  0.8219  0.3012
 2512SOL     OW19168   2.009   4.616   6.899  0.1242 -0.2976  0.2550
 2512SOL    HW119169   2.080   4.606   6.962  0.0831  1.6938  0.6178
 2512SOL    HW219170   1.949   4.681   6.935  0.0611 -1.0641  1.5394
 2513SOL     OW19171   3.350   4.404   3.981  0.5090  0.2640  0.5287
 2513SOL    HW119172   3.422   4.408   3.918 -0.5711 -0.1355 -0.7066
 2513SOL    HW219173   3.380   4.331   4.035 -2.8355 -1.5432 -0.0959
 2514SOL     OW19174   4.310   1.801   0.710 -0.1323  0.2256  0.1930
 2514SOL    HW119175   4.292   1.819   0.803 -0.0697  0.2622  0.1974
 2514SOL    HW219176   4.346   1.712   0.701 -0.8497 -0.0710  0.2314
 2515SOL     OW19177   3.328   2.943   0.921  0.7634  0.6189  0.4175
 2515SOL    HW119178   3.345   2.859   0.963  2.3288  1.1115  0.7619
 2515SOL    HW219179   3.240   2.965   0.952  0.8051  2.0780 -0.4652
 2516SOL     OW19180   4.312   3.817  14.520  0.1334 -0.1992  0.3642
 2516SOL    HW119181   4.238   3.850  14.469 -0.0330  0.1455  0.8314
 2516SOL    HW219182   4.380   3.867  14.475 -0.4520  0.5917  0.3559
 2517SOL     OW19183   0.577   1.928   6.945  0.2317 -0.1394  0.3488
 2517SOL    HW119184   0.482   1.915   6.947  0.3050 -0.6301  0.7889
 2517SOL    HW219185   0.605   1.903   6.857 -0.0936 -0.3976  0.3208
 2518SOL     OW19186   0.416   4.081   3.306  0.2930  0.4373 -0.1704
 2518SOL    HW119187   0.383   4.073   3.217 -0.5524  0.7611  0.1173
 2518SOL    HW219188   0.502   4.039   3.296 -0.1217 -0.4583 -0.0201
 2519SOL     OW19189   2.771   2.423  12.567 -0.1616  0.0550 -0.4888
 2519SOL    HW119190   2.732   2.387  12.646  0.5675 -0.6189 -0.4386
 2519SOL    HW219191   2.750   2.516  12.576 -0.7023  0.1164 -2.3267
 2520SOL     OW19192   1.375   1.529   1.883  0.1691  0.3748  0.5111
 2520SOL    HW119193   1.431   1.491   1.951  0.6937 -0.5949 -0.4638
 2520SOL    HW219194   1.422   1.599   1.837  0.4598  0.4366  0.8945
 2521SOL     OW19195   0.432   2.531   3.973  0.1315 -0.1338 -0.6083
 2521SOL    HW119196   0.372   2.463   3.940 -0.0591 -1.2552  2.0496
 2521SOL    HW219197   0.461   2.572   3.892  1.7208 -0.2856 -0.1031
 2522SOL     OW19198   0.720   4.129   9.754 -0.3590  0.7162  0.2995
 2522SOL    HW119199   0.655   4.128   9.685  0.6044 -2.8997 -0.5558
 2522SOL    HW219200   0.663   4.099   9.825 -1.7138  1.8724 -0.2933
 2523SOL     OW19201   1.633   4.529   2.024 -0.2817 -0.5819  0.1010
 2523SOL    HW119202   1.596   4.547   2.110 -0.1634  0.0111  0.0239
 2523SOL    HW219203   1.686   4.453   2.049  0.7975  0.1637  0.0768
 2524SOL     OW19204   0.575   3.540   5.373 -0.5284  0.5113  0.2181
 2524SOL    HW119205   0.623   3.593   5.437  0.1933 -1.3568  1.2436
 2524SOL    HW219206   0.596   3.595   5.298 -0.2100 -0.7519 -0.6158
 2525SOL     OW19207   3.864   2.493   4.163 -0.0315 -0.0497 -0.0490
 2525SOL    HW119208   3.808   2.435   4.214  2.1171 -0.3123  1.9965
 2525SOL    HW219209   3.920   2.520   4.236  1.5400 -0.7779 -0.9947
 2526SOL     OW19210   2.129   0.199   9.939  0.7610 -0.4158  0.1757
 2526SOL    HW119211   2.054   0.218   9.995  1.5403 -2.1720  1.8389
 2526SOL    HW219212   2.111   0.256   9.865 -0.6057  2.0348  2.3873
 2527SOL     OW19213   1.136   3.647  15.830 -0.1156 -0.1728 -0.0094
 2527SOL    HW119214   1.153   3.731  15.872 -1.2929  0.6409 -1.1304
 2527SOL    HW219215   1.098   3.679  15.748  0.0038 -0.5066 -0.1964
 2528SOL     OW19216   1.410   3.066   9.498 -0.3163  0.1710 -0.5985
 2528SOL    HW119217   1.487   3.085   9.553 -1.0082 -2.0063  1.1298
 2528SOL    HW219218   1.429   3.134   9.434  0.3065  0.3276 -0.2539
 2529SOL     OW19219   4.444   0.339  10.693 -0.1319 -0.6189  0.1146
 2529SOL    HW119220   4.380   0.402  10.659 -0.3949 -0.8426  0.2010
 2529SOL    HW219221   4.393   0.261  10.676 -1.9257  0.7143 -0.5965
 2530SOL     OW19222   0.173   2.015   5.987  0.4927 -0.1139 -0.5969
 2530SOL    HW119223   0.181   1.990   5.895 -2.3807 -0.9368 -0.6228
 2530SOL    HW219224   0.259   2.056   6.000 -0.2338  1.2920 -0.2680
 2531SOL     OW19225   1.475   2.927   5.705  0.2901  0.3108 -0.0899
 2531SOL    HW119226   1.567   2.937   5.681 -0.0888  3.5219 -0.1946
 2531SOL    HW219227   1.465   2.832   5.705  1.1142  0.2206  0.5498
 2532SOL     OW19228   2.473   1.388  10.121 -0.4121  0.2201  0.3350
 2532SOL    HW119229   2.419   1.454  10.163  0.4417  1.1877 -0.0989
 2532SOL    HW219230   2.408   1.355  10.059 -1.2504  3.3222 -0.4219
 2533SOL     OW19231   1.005   1.140  11.688 -0.6511 -0.1865  0.6734
 2533SOL    HW119232   1.010   1.044  11.690  2.1573 -0.0968 -0.9482
 2533SOL    HW219233   1.080   1.167  11.635 -1.7892  2.8899  0.6674
 2534SOL     OW19234   2.677   3.629  10.354 -0.5047 -0.3378 -0.5237
 2534SOL    HW119235   2.768   3.630  10.327  0.2335 -1.0644  1.9142
 2534SOL    HW219236   2.636   3.707  10.317  0.6089  1.4557  1.9993
 2535SOL     OW19237   3.292   2.231   4.933  0.0769  0.6470 -0.1848
 2535SOL    HW119238   3.372   2.283   4.922  0.3970 -0.1379 -1.5503
 2535SOL    HW219239   3.275   2.217   4.840 -0.1591  0.2608 -0.0838
 2536SOL     OW19240   2.698   0.153   3.357  0.2705 -0.2218  0.0790
 2536SOL    HW119241   2.688   0.132   3.264 -0.0920 -1.0565  0.3060
 2536SOL    HW219242   2.708   0.063   3.389 -1.5318 -1.2726 -2.3360
 2537SOL     OW19243   0.123   1.036  14.163  0.3209 -0.4997 -0.5368
 2537SOL    HW119244   0.123   1.040  14.259  1.0383 -0.5765 -0.5320
 2537SOL    HW219245   0.083   1.120  14.142 -0.4644 -1.1149 -1.4466
 2538SOL     OW19246   3.572   3.203   8.130 -0.0641 -0.3969 -0.7267
 2538SOL    HW119247   3.633   3.234   8.197 -0.6903  1.8055 -1.1910
 2538SOL    HW219248   3.499   3.167   8.181  1.3229 -0.1780  1.4002
 2539SOL     OW19249   2.216   2.999  10.941 -0.3170  0.3802 -0.4633
 2539SOL    HW119250   2.128   2.969  10.918 -0.6867  1.9062 -0.9958
 2539SOL    HW219251   2.245   2.948  11.018 -1.1170 -0.8088 -0.9471
 2540SOL     OW19252   4.627   2.067  16.025  0.2768  0.0919  0.6016
 2540SOL    HW119253   4.669   2.116  15.955 -2.3317 -0.8141 -1.5963
 2540SOL    HW219254   4.582   2.143  16.063 -0.3085  1.5471 -3.0331
 2541SOL     OW19255   0.004   3.524   5.045 -0.1968  0.3671  0.4512
 2541SOL    HW119256   0.093   3.514   5.013 -1.2045 -1.3567 -1.7758
 2541SOL    HW219257   4.733   3.619   5.057  1.5611  0.3241  1.6029
 2542SOL     OW19258   3.231   4.704   8.239 -0.9914 -0.7633  0.1049
 2542SOL    HW119259   3.197   4.653   8.313 -1.6618 -1.2117 -0.5199
 2542SOL    HW219260   3.294   0.020   8.291  0.6987  1.9965 -4.5744
 2543SOL     OW19261   3.478   4.363   7.561 -0.5029  0.4144 -0.1125
 2543SOL    HW119262   3.526   4.427   7.614  1.9558 -1.1215 -0.4884
 2543SOL    HW219263   3.419   4.420   7.512  0.3961  1.1243 -0.3763
 2544SOL     OW19264   3.423   4.097   3.110  0.1270 -0.1567 -0.6201
 2544SOL    HW119265   3.459   4.135   3.190 -0.5912 -3.3379  1.2633
 2544SOL    HW219266   3.496   4.044   3.078 -0.6841 -2.6017  1.5169
 2545SOL     OW19267   2.782   1.512   6.112 -0.2019 -0.1726 -0.0936
 2545SOL    HW119268   2.767   1.491   6.020  0.6529  2.0344 -0.7489
 2545SOL    HW219269   2.814   1.428   6.145 -0.6454 -0.3209 -0.0496
 2546SOL     OW19270   4.565   1.634   6.105  0.3433  0.1145 -0.6969
 2546SOL    HW119271   4.645   1.662   6.151 -0.6740 -0.2567  1.3052
 2546SOL    HW219272   4.594   1.547   6.077  3.5100  0.5251  1.2702
 2547SOL     OW19273   2.833   3.020   3.181 -0.4482  0.2744 -0.4139
 2547SOL    HW119274   2.879   3.099   3.211 -0.4476 -0.3160  1.1139
 2547SOL    HW219275   2.757   3.012   3.239  0.4742 -0.1866  0.7047
 2548SOL     OW19276   0.682   3.017  17.440 -0.2632  0.0885 -0.3661
 2548SOL    HW119277   0.707   3.109  17.450  1.6688 -0.6996  2.1701
 2548SOL    HW219278   0.590   3.020  17.467 -0.4150 -0.9535 -0.7726
 2549SOL     OW19279   3.455   2.276   1.821 -0.0797 -0.5541 -0.1966
 2549SOL    HW119280   3.374   2.282   1.770 -0.0113  1.2902 -0.0882
 2549SOL    HW219281   3.428   2.223   1.896 -1.2555  0.6398  0.2346
 2550SOL     OW19282   1.741   0.728   4.719  0.1377 -0.6300 -0.0173
 2550SOL    HW119283   1.804   0.770   4.660  0.9347 -2.0527 -0.1804
 2550SOL    HW219284   1.809   0.709   4.783  0.4737  2.3837  0.5329
 2551SOL     OW19285   1.746   2.313   6.220  0.6884 -0.7081  0.3188
 2551SOL    HW119286   1.666   2.263   6.234  0.4461 -0.2915  0.4228
 2551SOL    HW219287   1.806   2.249   6.183 -1.4686 -1.6024 -1.6109
 2552SOL     OW19288   2.561   4.417   8.095  0.0156 -0.2708 -0.1128
 2552SOL    HW119289   2.479   4.463   8.112 -0.5462 -1.7828  1.3193
 2552SOL    HW219290   2.605   4.486   8.046 -1.0747 -0.8206 -1.8319
 2553SOL     OW19291   1.426   2.767  12.837  0.3919  0.4246  0.1386
 2553SOL    HW119292   1.350   2.724  12.797  0.1199 -1.5759  2.8155
 2553SOL    HW219293   1.494   2.744  12.774 -0.0082  0.4036 -0.2808
 2554SOL     OW19294   1.320   4.734   1.913  0.2574  0.4418  0.1179
 2554SOL    HW119295   1.286   4.658   1.961 -1.6064  1.4959  0.4355
 2554SOL    HW219296   1.412   4.717   1.935 -0.0511 -1.8133 -0.3135
 2555SOL     OW19297   4.471   4.049   8.193 -0.8303  0.0984  0.2357
 2555SOL    HW119298   4.388   4.009   8.215 -1.2068 -1.1382 -3.4567
 2555SOL    HW219299   4.490   4.103   8.270  0.2518  0.5493 -0.3353
 2556SOL     OW19300   0.383   3.101   9.226 -0.3496  0.1514 -0.3967
 2556SOL    HW119301   0.412   3.023   9.274  0.7950  1.4906  1.0512
 2556SOL    HW219302   0.384   3.168   9.294 -1.3933  0.6169 -0.8309
 2557SOL     OW19303   3.537   1.583   8.725 -0.0058 -0.0804  0.4348
 2557SOL    HW119304   3.628   1.554   8.727 -0.2409 -0.9169 -0.6442
 2557SOL    HW219305   3.488   1.503   8.747 -1.2209  0.6729  0.4596
 2558SOL     OW19306   3.221   4.482   8.084 -0.1825  0.4923 -0.1749
 2558SOL    HW119307   3.232   4.555   8.144  1.7743 -0.3259  0.4744
 2558SOL    HW219308   3.250   4.518   8.000 -2.2330  0.4278 -0.9105
 2559SOL     OW19309   1.988   3.302   7.301  0.7745  0.3954  0.6410
 2559SOL    HW119310   2.080   3.323   7.314  1.0447 -1.0429  1.0521
 2559SOL    HW219311   1.954   3.386   7.332  2.3409  1.4319 -0.5112
 2560SOL     OW19312   3.463   3.669   5.650  0.1356 -0.6264  0.7417
 2560SOL    HW119313   3.487   3.583   5.683 -0.8733 -0.4935  1.8097
 2560SOL    HW219314   3.501   3.719   5.722  0.4732  1.5686 -0.9433
 2561SOL     OW19315   4.515   3.020  15.296  0.5120 -0.4478  0.4531
 2561SOL    HW119316   4.523   2.959  15.223 -2.8762 -1.2252  0.7468
 2561SOL    HW219317   4.464   2.965  15.356  1.3505  0.7419  2.2623
 2562SOL     OW19318   3.893   0.428   1.798 -0.1341 -0.0610  0.6223
 2562SOL    HW119319   3.800   0.446   1.784 -0.2138  0.8155  2.2583
 2562SOL    HW219320   3.889   0.333   1.786  1.6901  0.0347 -0.6992
 2563SOL     OW19321   4.289   1.281  16.829  0.3845  0.4689 -0.2628
 2563SOL    HW119322   4.217   1.256  16.887 -0.2549  0.6847 -0.9620
 2563SOL    HW219323   4.266   1.248  16.742 -1.4771 -0.2191  0.4947
 2564SOL     OW19324   4.232   0.424   9.937 -0.2061 -0.1861  0.0181
 2564SOL    HW119325   4.242   0.356   9.871  1.5284 -1.8689  2.0188
 2564SOL    HW219326   4.317   0.467   9.927 -1.4771  2.4723  0.4364
 2565SOL     OW19327   0.415   0.804  12.201 -0.0446 -0.2553  0.2198
 2565SOL    HW119328   0.500   0.762  12.187  1.9931  2.9878  2.7208
 2565SOL    HW219329   0.366   0.737  12.250  1.7271 -1.0984  0.8377
 2566SOL     OW19330   4.570   4.154   3.920  0.1469  0.2028 -0.5150
 2566SOL    HW119331   4.476   4.154   3.902 -0.0720 -0.0810  0.6180
 2566SOL    HW219332   4.588   4.248   3.928 -3.6844  0.8298  0.9817
 2567SOL     OW19333   2.976   2.901   2.803 -0.3746 -0.3223  0.0136
 2567SOL    HW119334   2.996   2.878   2.712  0.3438 -1.5038  0.4683
 2567SOL    HW219335   3.020   2.827   2.845 -0.9920 -0.4356  0.4480
 2568SOL     OW19336   3.639   3.746   4.126  0.1715  0.0085 -0.3092
 2568SOL    HW119337   3.646   3.841   4.129 -0.8180  0.1014 -0.9859
 2568SOL    HW219338   3.552   3.740   4.168 -0.2205 -2.3851 -1.4821
 2569SOL     OW19339   0.337   1.112   8.721 -0.1867  0.8771  0.4538
 2569SOL    HW119340   0.392   1.162   8.662 -0.1383  0.6193  0.2822
 2569SOL    HW219341   0.260   1.090   8.667  0.0675 -0.2738  0.5511
 2570SOL     OW19342   2.538   3.996  11.930 -0.0997  0.0331  0.1844
 2570SOL    HW119343   2.444   4.002  11.918  0.0511  1.9068  0.0125
 2570SOL    HW219344   2.547   4.079  11.977 -3.8731  0.9715 -0.7827
 2571SOL     OW19345   4.022   1.106   2.355  0.3217 -0.1282  0.0913
 2571SOL    HW119346   4.109   1.132   2.323 -0.1678 -2.0363 -2.7241
 2571SOL    HW219347   4.040   1.024   2.401  1.1958  1.3174  2.3502
 2572SOL     OW19348   4.208   2.654  11.812  0.0570  0.4492 -0.1526
 2572SOL    HW119349   4.213   2.597  11.735 -1.1822  0.8268 -0.5099
 2572SOL    HW219350   4.115   2.642  11.828  0.4995 -1.3936  1.0142
 2573SOL     OW19351   0.588   1.184  16.294  0.2089 -0.6963  0.3228
 2573SOL    HW119352   0.680   1.202  16.313  0.5076 -1.4411 -0.3780
 2573SOL    HW219353   0.589   1.118  16.225 -0.5054 -0.3952  0.0276
 2574SOL     OW19354   2.298   4.257   5.070 -0.2329 -0.1867  0.3864
 2574SOL    HW119355   2.346   4.182   5.034  1.7809  1.6756 -0.8774
 2574SOL    HW219356   2.244   4.272   4.992  0.7728  3.8145  0.4363
 2575SOL     OW19357   0.099   2.639   4.818 -0.0329 -0.4081  0.0194
 2575SOL    HW119358   0.096   2.730   4.847 -1.2234 -0.2299 -0.6505
 2575SOL    HW219359   0.030   2.638   4.752 -0.5821  0.8661  0.5553
 2576SOL     OW19360   3.667   1.160   6.151  0.0226 -0.1170 -0.1276
 2576SOL    HW119361   3.704   1.111   6.077 -0.5100 -0.3011 -0.2696
 2576SOL    HW219362   3.589   1.193   6.107  0.7401  1.1859 -0.4363
 2577SOL     OW19363   3.720   0.102   9.374 -0.2145 -0.3356  0.2559
 2577SOL    HW119364   3.633   0.119   9.337  0.9923  0.0508 -2.4185
 2577SOL    HW219365   3.701   0.137   9.461  0.6077  0.3655  0.1495
 2578SOL     OW19366   0.989   4.155   9.765 -0.4543 -0.5541  0.1508
 2578SOL    HW119367   0.968   4.245   9.788 -0.6490 -0.9915  1.6819
 2578SOL    HW219368   0.902   4.123   9.744 -0.4846  0.7198 -1.5886
 2579SOL     OW19369   4.369   1.139   4.186 -0.0541  0.1962  0.0812
 2579SOL    HW119370   4.294   1.084   4.164  1.1055 -1.2607 -0.2030
 2579SOL    HW219371   4.397   1.107   4.271 -1.4073  0.1140  0.4889
 2580SOL     OW19372   0.384   4.572   5.118  1.0069 -0.3475  0.2459
 2580SOL    HW119373   0.402   4.628   5.193 -0.0700  0.4225 -0.0553
 2580SOL    HW219374   0.434   4.625   5.055  0.1925  1.0698  0.7783
 2581SOL     OW19375   3.124   1.410   6.590 -0.1734 -0.1279 -0.4340
 2581SOL    HW119376   3.183   1.456   6.651 -2.1639  1.8914 -0.0423
 2581SOL    HW219377   3.038   1.442   6.617 -0.1866 -0.3601 -0.1940
 2582SOL     OW19378   2.323   1.712   7.627  0.5265 -0.0810 -0.1031
 2582SOL    HW119379   2.395   1.662   7.664 -0.2786 -1.1613 -0.0053
 2582SOL    HW219380   2.319   1.790   7.682  1.3841  0.6347 -1.0460
 2583SOL     OW19381   1.474   1.446  15.950  0.6951  0.0555  0.3998
 2583SOL    HW119382   1.513   1.479  15.870  0.3793 -0.4605  0.0321
 2583SOL    HW219383   1.500   1.354  15.949  2.0777  0.4430  0.7092
 2584SOL     OW19384   2.737   0.142   0.474 -0.0351  0.3783  1.1176
 2584SOL    HW119385   2.797   0.208   0.510  1.0364 -0.4344  0.8296
 2584SOL    HW219386   2.782   0.125   0.392 -0.4840  0.4633  0.8563
 2585SOL     OW19387   2.561   3.355  13.880 -0.1249 -0.3449  0.2597
 2585SOL    HW119388   2.635   3.379  13.935  0.5560 -2.1385  0.1318
 2585SOL    HW219389   2.492   3.416  13.908  0.0185  0.6817 -1.6245
 2586SOL     OW19390   2.527   4.328  10.022 -0.6185  0.4467  0.2259
 2586SOL    HW119391   2.498   4.250  10.069 -0.5685 -0.2328 -0.8708
 2586SOL    HW219392   2.495   4.398  10.078  2.5279  1.7007  0.4406
 2587SOL     OW19393   2.568   1.328  17.170  0.2809  0.0638 -0.3441
 2587SOL    HW119394   2.637   1.264  17.155 -0.7546 -1.1486  0.0681
 2587SOL    HW219395   2.501   1.267  17.202  0.9267  0.2633  1.3775
 2588SOL     OW19396   3.705   3.690  17.195 -0.4286 -0.4160  0.1375
 2588SOL    HW119397   3.714   3.785  17.202  0.0365 -0.4201 -0.3705
 2588SOL    HW219398   3.619   3.684  17.236 -1.3638  0.5069 -1.7137
 2589SOL     OW19399   4.217   4.374  10.207 -0.0265 -0.0968 -0.5311
 2589SOL    HW119400   4.258   4.323  10.277 -1.3207  0.1113  0.3735
 2589SOL    HW219401   4.146   4.316  10.178 -1.0586 -1.9071  5.4431
 2590SOL     OW19402   0.348   0.327   8.726  0.2821  0.3550  0.2178
 2590SOL    HW119403   0.438   0.303   8.703  0.5151  2.0768 -0.6521
 2590SOL    HW219404   0.351   0.299   8.818  2.2373  0.6872  0.2448
 2591SOL     OW19405   0.611   0.437  11.560 -0.7432 -0.0035 -0.0531
 2591SOL    HW119406   0.575   0.417  11.473 -0.9883  1.3955 -0.2603
 2591SOL    HW219407   0.611   0.532  11.568 -1.4629 -0.1378  1.5198
 2592SOL     OW19408   0.193   1.078   4.400 -0.5813  0.1621  0.3461
 2592SOL    HW119409   0.141   1.046   4.327 -0.1147 -0.3466  0.2390
 2592SOL    HW219410   0.183   1.173   4.392 -0.4631  0.1643  0.2228
 2593SOL     OW19411   3.655   0.641  17.330  0.4848 -0.2646 -0.1632
 2593SOL    HW119412   3.576   0.694  17.339  1.0187  0.8295 -1.8879
 2593SOL    HW219413   3.715   0.701  17.286 -0.4695  1.4624  0.9293
 2594SOL     OW19414   4.657   4.348  14.755  0.0392  0.1385 -0.4239
 2594SOL    HW119415   4.633   4.314  14.841 -1.6314  1.9434 -0.1920
 2594SOL    HW219416   4.631   4.274  14.700 -0.0487  0.4242 -0.7613
 2595SOL     OW19417   3.707   1.204   2.746 -0.3616  0.2807  0.3803
 2595SOL    HW119418   3.670   1.277   2.795  0.1430  1.5082 -1.0766
 2595SOL    HW219419   3.781   1.246   2.702  0.7120 -1.9029  0.0894
 2596SOL     OW19420   2.439   3.992   9.720  0.0042  0.6845 -0.1274
 2596SOL    HW119421   2.480   3.958   9.800  2.5030 -0.6050 -1.9484
 2596SOL    HW219422   2.369   4.046   9.755 -2.0111 -2.8056  1.2214
 2597SOL     OW19423   4.076   3.314   4.003  0.5793  0.3436  0.3848
 2597SOL    HW119424   4.165   3.314   3.968 -0.0006 -3.2423 -1.1407
 2597SOL    HW219425   4.065   3.219   3.998 -1.9765  0.6603  0.0357
 2598SOL     OW19426   0.177   4.136   7.208 -0.2011  0.3958 -0.0115
 2598SOL    HW119427   0.212   4.218   7.242  0.6743 -0.1056  0.2874
 2598SOL    HW219428   0.099   4.129   7.263  0.6034 -1.9333  0.8041
 2599SOL     OW19429   1.595   0.603  17.601  0.1678  0.0200 -0.3116
 2599SOL    HW119430   1.549   0.678  17.563  0.9155 -0.0500 -1.3561
 2599SOL    HW219431   1.678   0.592  17.554  0.3720 -1.1765  0.3409
 2600SOL     OW19432   0.718   4.128   6.533 -0.1367 -0.0666  0.0032
 2600SOL    HW119433   0.771   4.129   6.613 -1.0502  1.4386  0.5863
 2600SOL    HW219434   0.733   4.038   6.506  2.3819  0.0034  1.1557
 2601SOL     OW19435   4.511   0.138   2.948  0.2137 -0.2032  0.1643
 2601SOL    HW119436   4.593   0.178   2.918 -0.3970  0.2085 -0.9594
 2601SOL    HW219437   4.445   0.172   2.888  0.0526 -2.4082 -0.9045
 2602SOL     OW19438   3.434   1.526   7.939 -0.1900 -0.0602 -0.1436
 2602SOL    HW119439   3.480   1.609   7.953  0.4006 -0.1420 -1.5423
 2602SOL    HW219440   3.369   1.558   7.877 -0.4308  1.8003  1.0795
 2603SOL     OW19441   3.027   1.620   4.726  0.0548 -0.3392 -0.3058
 2603SOL    HW119442   2.937   1.592   4.708 -0.6940  0.1698  2.6640
 2603SOL    HW219443   3.048   1.557   4.795 -0.8752 -1.6315 -1.2001
 2604SOL     OW19444   4.053   1.087   9.739 -0.0400  0.1261 -0.4356
 2604SOL    HW119445   4.119   1.114   9.675  0.4734  0.6819  0.3292
 2604SOL    HW219446   4.022   1.008   9.696  0.8104  0.5660 -1.8720
 2605SOL     OW19447   1.143   1.734  16.099  0.0668 -0.9024  0.0865
 2605SOL    HW119448   1.104   1.814  16.135  1.4670 -0.2003  0.0850
 2605SOL    HW219449   1.218   1.773  16.053 -2.3497  1.1995 -2.0799
 2606SOL     OW19450   4.405   0.664   7.122  0.2242 -0.1324  0.0255
 2606SOL    HW119451   4.391   0.579   7.164  1.1587 -0.3434 -0.0856
 2606SOL    HW219452   4.497   0.677   7.146  0.3821 -0.6954 -0.2679
 2607SOL     OW19453   1.118   3.017  12.893 -0.3732  0.0649  0.9194
 2607SOL    HW119454   1.111   3.043  12.801  1.1792 -2.1504  0.1759
 2607SOL    HW219455   1.052   3.082  12.917 -2.0962 -1.4735  0.3890
 2608SOL     OW19456   2.216   3.484   6.849 -0.0769  0.5172  0.3687
 2608SOL    HW119457   2.168   3.549   6.900 -2.8721 -1.8150  0.6976
 2608SOL    HW219458   2.259   3.428   6.913  1.2284 -0.4052 -1.2976
 2609SOL     OW19459   1.680   3.111   3.341  0.1870 -0.1363 -0.0455
 2609SOL    HW119460   1.745   3.068   3.397 -0.2293 -3.6407 -2.2554
 2609SOL    HW219461   1.682   3.052   3.266  0.1229 -0.4666  0.2123
 2610SOL     OW19462   0.917   1.265  11.940 -0.3384  0.3019  0.0519
 2610SOL    HW119463   0.919   1.224  11.854 -0.8754 -1.4499  0.8840
 2610SOL    HW219464   1.011   1.281  11.955 -0.3960  0.2291  0.5017
 2611SOL     OW19465   1.632   2.773   7.501 -0.0109 -0.0557 -0.0373
 2611SOL    HW119466   1.550   2.724   7.507  0.4300 -0.9627 -1.5125
 2611SOL    HW219467   1.688   2.710   7.455  0.3288 -0.1260  0.4690
 2612SOL     OW19468   0.785   2.732   4.621 -0.1601  0.0193 -0.1511
 2612SOL    HW119469   0.711   2.765   4.673  1.9719  3.2367  0.8664
 2612SOL    HW219470   0.805   2.651   4.670  1.7248  0.6455  0.1220
 2613SOL     OW19471   2.780   3.249   5.016  0.3040  0.3544  0.1190
 2613SOL    HW119472   2.717   3.295   4.961  0.7932  1.3420  0.3655
 2613SOL    HW219473   2.851   3.230   4.955  2.0409  0.8079  1.9719
 2614SOL     OW19474   2.525   4.175   7.838 -0.3059  0.0203 -0.2226
 2614SOL    HW119475   2.556   4.179   7.747 -0.4772 -1.9715 -0.3781
 2614SOL    HW219476   2.600   4.204   7.889 -1.7062  2.2876  0.5666
 2615SOL     OW19477   4.398   3.066   0.024 -0.0521 -0.4147  0.2472
 2615SOL    HW119478   4.322   3.039  17.709 -0.1064  0.7708 -0.2767
 2615SOL    HW219479   4.348   3.110   0.092 -1.6757 -3.1865  0.8666
 2616SOL     OW19480   4.535   2.945  11.995  0.2765  0.7615 -0.1099
 2616SOL    HW119481   4.532   3.030  11.950 -1.7788  0.5015 -0.4947
 2616SOL    HW219482   4.489   2.898  11.925 -1.2444  0.7813  0.8769
 2617SOL     OW19483   2.732   2.070  10.114  0.0839  0.6235  0.1145
 2617SOL    HW119484   2.712   2.163  10.110  0.0715  0.5027 -2.3730
 2617SOL    HW219485   2.704   2.036  10.030 -1.5905  1.3488  0.3856
 2618SOL     OW19486   4.010   2.666   3.805 -0.2785 -0.3198  0.0295
 2618SOL    HW119487   3.928   2.639   3.845  0.1608  0.5551  1.5425
 2618SOL    HW219488   3.979   2.687   3.717  0.0661 -1.5556 -0.3880
 2619SOL     OW19489   3.738   4.080  16.440 -0.2003  0.5765 -0.1441
 2619SOL    HW119490   3.721   4.063  16.532  0.2122  0.3725 -0.1038
 2619SOL    HW219491   3.804   4.011  16.430 -0.3246  0.3603  0.5543
 2620SOL     OW19492   0.237   4.637  10.397  0.0701  0.0422  0.5292
 2620SOL    HW119493   0.152   4.628  10.441 -0.9947 -0.5644 -1.6639
 2620SOL    HW219494   0.217   4.592  10.315  1.6674  1.0771 -0.4153
 2621SOL     OW19495   3.585   2.574  12.984  0.1248 -0.1376 -0.1678
 2621SOL    HW119496   3.517   2.596  12.921 -0.0241 -0.4130 -0.1049
 2621SOL    HW219497   3.580   2.648  13.045  1.1650  0.4610 -0.7947
 2622SOL     OW19498   3.565   4.583  14.101  0.2629  0.0191  0.0681
 2622SOL    HW119499   3.536   4.660  14.051  0.0601 -1.1375 -1.5814
 2622SOL    HW219500   3.495   4.562  14.163 -2.2259  2.7180 -1.7990
 2623SOL     OW19501   0.802   3.905   7.637 -0.3274  0.1815  0.1244
 2623SOL    HW119502   0.789   3.991   7.676 -1.1685  0.7928 -1.5086
 2623SOL    HW219503   0.843   3.853   7.706  0.3450  0.8391  0.2101
 2624SOL     OW19504   3.512   0.464   6.946  0.0485  0.3872 -0.1919
 2624SOL    HW119505   3.471   0.377   6.951  0.1708  0.3203 -0.3678
 2624SOL    HW219506   3.445   0.526   6.976  1.5637  1.0208  1.8704
 2625SOL     OW19507   0.575   0.879   8.524  0.1973  0.3091  0.2643
 2625SOL    HW119508   0.591   0.973   8.512 -2.1582  0.3975 -2.2477
 2625SOL    HW219509   0.480   0.879   8.514  0.0639 -1.2048  1.5427
 2626SOL     OW19510   1.379   0.868   3.557 -0.0826 -0.1481 -0.9680
 2626SOL    HW119511   1.425   0.799   3.603  0.8508  2.1335  1.5604
 2626SOL    HW219512   1.289   0.865   3.590  0.3502 -0.9460  0.1316
 2627SOL     OW19513   4.514   1.106  13.413  1.2282  0.2589  0.4145
 2627SOL    HW119514   4.451   1.123  13.342  2.7397 -1.8431 -1.4085
 2627SOL    HW219515   4.510   1.185  13.467 -1.9536  0.0980  0.4654
 2628SOL     OW19516   1.833   2.327   2.119  0.1024 -0.3438 -0.1384
 2628SOL    HW119517   1.750   2.354   2.080  0.7460 -0.5320 -1.6392
 2628SOL    HW219518   1.857   2.252   2.065  0.9397  0.6540 -1.1793
 2629SOL     OW19519   1.290   0.598   2.223 -0.1243 -0.3872  0.0123
 2629SOL    HW119520   1.371   0.618   2.269  0.9298 -2.2461 -1.0126
 2629SOL    HW219521   1.244   0.662   2.277 -2.2838 -1.2765 -0.7901
 2630SOL     OW19522   2.013   2.617   2.245 -0.6497 -0.0601 -0.6793
 2630SOL    HW119523   1.953   2.688   2.222  1.5188  1.6113 -1.1303
 2630SOL    HW219524   1.960   2.538   2.258 -0.0991 -0.1702  0.7977
 2631SOL     OW19525   3.568   1.452   1.715  0.4774  0.4236  0.3253
 2631SOL    HW119526   3.585   1.494   1.631 -0.4295  2.0748  0.9596
 2631SOL    HW219527   3.484   1.413   1.688  0.4688  1.0470 -0.5236
 2632SOL     OW19528   2.116   3.230   4.600 -0.3008  0.2777 -0.7335
 2632SOL    HW119529   2.147   3.320   4.592 -1.2330  0.7263  0.7638
 2632SOL    HW219530   2.195   3.184   4.629 -0.0582  0.4376 -1.1318
 2633SOL     OW19531   2.389   2.889   6.893  0.2867  0.2778 -0.5999
 2633SOL    HW119532   2.361   2.803   6.864 -0.7962  0.3650  0.2215
 2633SOL    HW219533   2.331   2.908   6.967  0.7753  1.6112 -0.5381
 2634SOL     OW19534   1.900   0.969   9.919  0.2769  0.1507 -0.2408
 2634SOL    HW119535   1.839   0.896   9.922  1.0525 -0.4466  1.1313
 2634SOL    HW219536   1.884   1.008   9.832 -0.4866  0.3936  0.0047
 2635SOL     OW19537   1.008   3.206   2.104  0.3546  0.3635  0.6680
 2635SOL    HW119538   0.928   3.230   2.058  0.8933  0.5222 -0.1842
 2635SOL    HW219539   1.008   3.268   2.177  2.0212  0.1796  0.8204
 2636SOL     OW19540   0.823   3.511   8.780  0.7803 -0.1354 -0.8563
 2636SOL    HW119541   0.770   3.551   8.849 -0.8156  2.7406 -3.7404
 2636SOL    HW219542   0.750   3.507   8.719  0.9798  0.6972 -1.1440
 2637SOL     OW19543   2.531   2.918   9.533  0.4626 -0.3856  0.1556
 2637SOL    HW119544   2.446   2.881   9.508  0.2068 -0.4532  1.1086
 2637SOL    HW219545   2.507   3.001   9.574 -0.0755  0.5101 -1.9714
 2638SOL     OW19546   3.755   2.567  17.172  0.1259  0.5217  0.0650
 2638SOL    HW119547   3.662   2.558  17.151 -0.3686 -0.4424  2.7049
 2638SOL    HW219548   3.779   2.476  17.184  0.2901  0.3121 -1.8337
 2639SOL     OW19549   1.461   0.805   5.011 -0.3603  0.8293 -0.2012
 2639SOL    HW119550   1.374   0.784   4.977 -0.3680 -0.3081  0.5109
 2639SOL    HW219551   1.459   0.899   5.027  0.6183  0.9723 -0.9038
 2640SOL     OW19552   4.133   1.787   1.689  0.0736  1.2030 -0.2826
 2640SOL    HW119553   4.056   1.796   1.633 -0.3252  1.5192  0.3165
 2640SOL    HW219554   4.195   1.840   1.638  0.7964  0.7269  0.1089
 2641SOL     OW19555   0.228   4.633   8.126  0.4741 -0.0366 -0.8071
 2641SOL    HW119556   0.278   4.654   8.205 -1.8216 -2.1234  1.2223
 2641SOL    HW219557   0.279   4.568   8.078  0.3552  0.1257 -1.1552
 2642SOL     OW19558   4.213   2.695   9.264  0.0551  0.0239  0.2139
 2642SOL    HW119559   4.153   2.663   9.198  1.1793 -0.6480 -0.4843
 2642SOL    HW219560   4.262   2.613   9.268 -0.5335 -0.2526  1.6143
 2643SOL     OW19561   0.726   2.808  14.847 -0.2248  0.0570 -0.1765
 2643SOL    HW119562   0.792   2.829  14.781  2.0451  0.5136  2.2683
 2643SOL    HW219563   0.676   2.890  14.846 -2.6546 -1.4193  0.0964
 2644SOL     OW19564   2.231   0.539   1.192  0.2975  0.2759 -0.4274
 2644SOL    HW119565   2.260   0.470   1.251  1.0725  0.2561 -0.8296
 2644SOL    HW219566   2.178   0.489   1.129 -0.7907  0.9181 -0.0122
 2645SOL     OW19567   2.864   0.618   5.054  0.6989  0.3809  0.1498
 2645SOL    HW119568   2.960   0.619   5.055  0.6747 -3.3390  3.8612
 2645SOL    HW219569   2.841   0.711   5.065 -0.7207 -0.0337  0.6408
 2646SOL     OW19570   2.802   1.782   3.748  0.4050  0.1372 -0.0950
 2646SOL    HW119571   2.788   1.798   3.841 -1.1442 -1.4865 -0.0284
 2646SOL    HW219572   2.781   1.870   3.717  2.3182  0.8277  0.5901
 2647SOL     OW19573   3.679   0.560   1.558 -0.4238 -0.2344 -0.0517
 2647SOL    HW119574   3.744   0.623   1.589 -2.8376  2.3648 -0.2608
 2647SOL    HW219575   3.632   0.538   1.638 -0.7313  0.4769 -0.0436
 2648SOL     OW19576   1.468   3.552   3.793 -0.2508 -0.0145  0.2213
 2648SOL    HW119577   1.526   3.598   3.855 -0.4706 -0.2899  0.6362
 2648SOL    HW219578   1.493   3.462   3.815  2.4861  0.6949  0.0739
 2649SOL     OW19579   0.109   0.809  17.393 -0.0508  0.6259 -0.3434
 2649SOL    HW119580   0.137   0.739  17.453 -1.3491  0.5369  0.1595
 2649SOL    HW219581   0.073   0.882  17.443 -0.5289  1.7747 -2.3803
 2650SOL     OW19582   3.293   2.720   7.700  0.1070  0.5395  0.1571
 2650SOL    HW119583   3.234   2.669   7.645 -0.2651  3.7385 -2.4794
 2650SOL    HW219584   3.241   2.752   7.775  1.0848  1.4285  0.4549
 2651SOL     OW19585   0.885   3.039  11.168 -0.6466 -0.6000  0.4837
 2651SOL    HW119586   0.975   3.007  11.157  0.3113  1.2774  2.7061
 2651SOL    HW219587   0.865   3.060  11.077  1.3487  1.9114  0.5932
 2652SOL     OW19588   1.531   2.059  15.212 -0.1460 -0.1838  0.0216
 2652SOL    HW119589   1.542   1.964  15.202 -0.0839 -0.1117 -0.5394
 2652SOL    HW219590   1.594   2.090  15.148  0.3490 -0.1825  0.5147
 2653SOL     OW19591   2.512   3.473   3.942  0.0768 -0.3804 -0.3105
 2653SOL    HW119592   2.474   3.539   3.884  1.4077 -1.1877 -2.1062
 2653SOL    HW219593   2.543   3.525   4.017 -1.3289  0.8118 -0.5503
 2654SOL     OW19594   0.319   3.656   7.149 -0.3081  0.3842 -0.1402
 2654SOL    HW119595   0.386   3.644   7.083 -0.3198 -0.4140 -0.0044
 2654SOL    HW219596   0.365   3.623   7.227  0.3524  0.2111 -0.6077
 2655SOL     OW19597   4.651   1.029  15.611 -0.4662  0.0841 -0.4398
 2655SOL    HW119598   4.696   1.099  15.563  0.7743 -0.8771 -0.6927
 2655SOL    HW219599   4.713   0.956  15.613 -1.1334 -0.4884 -0.6768
 2656SOL     OW19600   3.919   1.199   9.451  0.5134  0.7630 -0.3247
 2656SOL    HW119601   3.899   1.208   9.358 -1.6308  1.7114  0.2253
 2656SOL    HW219602   3.834   1.211   9.495  0.1197  0.0414 -0.8818
 2657SOL     OW19603   2.490   4.164   7.301  0.0386 -0.8646 -0.0055
 2657SOL    HW119604   2.459   4.101   7.367 -1.3456 -0.4993 -0.3143
 2657SOL    HW219605   2.488   4.120   7.216 -1.5090 -0.0310 -0.4009
 2658SOL     OW19606   0.781   2.492   6.297  0.7052 -0.4851 -0.4990
 2658SOL    HW119607   0.823   2.574   6.322 -2.1998  0.8654 -0.0139
 2658SOL    HW219608   0.689   2.518   6.291  0.9803  0.8115  0.8506
 2659SOL     OW19609   3.559   2.059   7.535  0.3017 -0.5856  0.6264
 2659SOL    HW119610   3.479   2.090   7.493 -0.8109  0.1066  3.2289
 2659SOL    HW219611   3.530   2.039   7.624 -0.4175  1.5851  0.8854
 2660SOL     OW19612   4.154   4.312   3.269  0.3919  0.3910  0.7709
 2660SOL    HW119613   4.235   4.343   3.228  0.1940  1.0834  0.8983
 2660SOL    HW219614   4.122   4.262   3.194  2.6737  0.7031 -0.4174
 2661SOL     OW19615   2.566   1.610   2.826 -0.0377  0.1726  0.3059
 2661SOL    HW119616   2.569   1.560   2.907  0.1160  1.5715  1.1569
 2661SOL    HW219617   2.633   1.568   2.772 -1.0443  0.4968 -1.1864
 2662SOL     OW19618   0.672   1.812  14.493 -0.9344 -0.5277 -0.0574
 2662SOL    HW119619   0.646   1.819  14.585 -0.2825 -1.3522  0.1820
 2662SOL    HW219620   0.762   1.843  14.502 -1.2427  0.3772 -0.1198
 2663SOL     OW19621   2.196   2.784   3.166  0.3458  0.5244 -0.4669
 2663SOL    HW119622   2.125   2.782   3.230 -0.5724  0.0022 -1.4938
 2663SOL    HW219623   2.227   2.873   3.185  0.9650  0.8199 -2.7456
 2664SOL     OW19624   3.953   1.147   0.560  0.0330 -0.1283  0.2555
 2664SOL    HW119625   3.972   1.113   0.647 -0.6743 -0.3760  0.3113
 2664SOL    HW219626   3.958   1.243   0.568  1.1532 -0.2492  1.0389
 2665SOL     OW19627   0.999   4.040   5.688  0.0254 -0.0260  0.5678
 2665SOL    HW119628   1.031   3.967   5.740  0.5371  0.3476  0.7711
 2665SOL    HW219629   0.930   4.079   5.742  1.8553  2.9846  0.7254
 2666SOL     OW19630   4.166   2.270   7.048 -0.0022 -0.2529  0.4772
 2666SOL    HW119631   4.154   2.176   7.035  1.4972 -0.3663 -0.1614
 2666SOL    HW219632   4.257   2.285   7.022 -0.6810 -1.0093 -2.2968
 2667SOL     OW19633   0.334   4.515   2.362  0.2890  0.4357 -0.2571
 2667SOL    HW119634   0.423   4.481   2.348  0.4509  0.8536 -0.2435
 2667SOL    HW219635   0.347   4.603   2.328  1.2493  0.7285  0.8494
 2668SOL     OW19636   3.786   0.333   0.553 -0.4308 -0.5363  0.1380
 2668SOL    HW119637   3.719   0.268   0.575 -0.1624 -1.0369 -0.5509
 2668SOL    HW219638   3.848   0.302   0.619  1.1070  0.8800 -0.6660
 2669SOL     OW19639   0.284   3.660   5.264  0.2731  0.5657  0.2144
 2669SOL    HW119640   0.211   3.692   5.211 -0.1068  0.3740  0.6260
 2669SOL    HW219641   0.362   3.711   5.240  0.0353  0.7900 -0.0763
 2670SOL     OW19642   2.914   1.226   3.119  0.5242 -0.4223  0.6660
 2670SOL    HW119643   2.998   1.203   3.077  1.7581  0.2373  2.7713
 2670SOL    HW219644   2.875   1.140   3.130  0.7229 -0.4467  1.1541
 2671SOL     OW19645   1.686   1.297   0.207 -0.6666  0.4774  0.5771
 2671SOL    HW119646   1.767   1.325   0.166 -1.5695  2.8486  0.4050
 2671SOL    HW219647   1.645   1.239   0.143 -0.8550 -1.4846  2.4887
 2672SOL     OW19648   4.069   1.081   6.792 -0.5664 -0.2161 -0.5673
 2672SOL    HW119649   4.131   1.046   6.857 -0.8524  1.1923  0.4714
 2672SOL    HW219650   4.038   1.001   6.750 -1.0449  0.2783 -1.1405
 2673SOL     OW19651   3.155   0.616   5.079 -0.3473  0.1360 -0.4090
 2673SOL    HW119652   3.181   0.527   5.103 -4.3015 -0.1434  2.6530
 2673SOL    HW219653   3.136   0.657   5.163 -1.3913  0.2800 -0.7162
 2674SOL     OW19654   3.275   2.424   6.837  0.0223 -0.1994 -0.5464
 2674SOL    HW119655   3.193   2.414   6.788  0.1528 -1.8279 -0.4234
 2674SOL    HW219656   3.339   2.465   6.779 -1.5308  3.1775  0.0686
 2675SOL     OW19657   1.910   3.887   6.193 -0.4399 -0.8990  0.3970
 2675SOL    HW119658   1.866   3.965   6.227 -1.4764 -1.5918  0.6248
 2675SOL    HW219659   1.845   3.820   6.210 -2.5763  1.1901  0.3664
 2676SOL     OW19660   1.921   1.619   6.060 -0.4316 -0.3094  0.3401
 2676SOL    HW119661   1.961   1.541   6.098  1.8508  0.0928 -1.2689
 2676SOL    HW219662   1.992   1.684   6.056 -1.5869  0.9436  0.2309
 2677SOL     OW19663   0.444   2.041   3.272 -0.0947  0.3418  0.7769
 2677SOL    HW119664   0.411   2.035   3.182  1.3722  0.0907  0.2656
 2677SOL    HW219665   0.525   2.091   3.270 -0.4396  0.8778  0.3371
 2678SOL     OW19666   2.263   4.122   5.337 -0.3909 -0.1142 -0.1483
 2678SOL    HW119667   2.206   4.194   5.364 -0.7807 -0.6591  0.4835
 2678SOL    HW219668   2.333   4.180   5.305  1.1372 -1.7053  0.3280
 2679SOL     OW19669   4.503   3.657   9.327 -0.5381  0.4764  0.2814
 2679SOL    HW119670   4.440   3.586   9.313  0.5870 -0.1045 -1.8506
 2679SOL    HW219671   4.529   3.652   9.419 -2.1109  0.2628  0.7110
 2680SOL     OW19672   1.071   0.723   8.639 -0.1233 -0.2656 -0.5028
 2680SOL    HW119673   0.982   0.730   8.673  0.0035  0.3092 -0.2835
 2680SOL    HW219674   1.112   0.774   8.708 -1.8053 -1.6510  1.5065
 2681SOL     OW19675   4.732   1.353   7.998 -0.1702 -0.0262 -0.4805
 2681SOL    HW119676   0.054   1.278   8.020 -1.0776 -0.8666 -0.9978
 2681SOL    HW219677   4.655   1.309   7.962 -0.3611  2.1216 -2.6872
 2682SOL     OW19678   2.002   4.422   3.667 -0.1580  0.2200  0.4104
 2682SOL    HW119679   1.999   4.507   3.623 -0.2679 -1.5202 -2.9418
 2682SOL    HW219680   1.929   4.383   3.618 -1.4357  3.2205 -0.0910
 2683SOL     OW19681   4.361   2.289   7.701 -0.0474  0.2875 -0.4546
 2683SOL    HW119682   4.343   2.364   7.757  1.2184  1.6613 -1.8714
 2683SOL    HW219683   4.280   2.274   7.654  1.9454 -1.3983 -3.3298
 2684SOL     OW19684   2.724   3.018   8.997  0.1706  0.2678 -0.3790
 2684SOL    HW119685   2.700   3.039   8.906 -0.7468 -2.0939 -0.6775
 2684SOL    HW219686   2.649   3.061   9.038  0.8786  2.3234 -1.1970
 2685SOL     OW19687   0.201   1.444   0.842 -0.0812 -0.0031 -0.4055
 2685SOL    HW119688   0.264   1.409   0.905  0.7921  0.3941 -1.0572
 2685SOL    HW219689   0.256   1.517   0.814 -1.9673  1.0622 -1.3392
 2686SOL     OW19690   0.308   4.561   2.974 -0.8339  0.0250  0.1526
 2686SOL    HW119691   0.235   4.617   2.949 -0.4751  0.4953  0.1720
 2686SOL    HW219692   0.372   4.621   3.012  2.4262 -2.1109 -1.9650
 2687SOL     OW19693   2.907   3.285   9.142  0.6755 -0.3516  0.0928
 2687SOL    HW119694   2.822   3.301   9.182 -0.4876 -0.3221 -2.3717
 2687SOL    HW219695   2.956   3.276   9.223 -0.2504 -0.1321  0.6719
 2688SOL     OW19696   2.554   3.319   2.533 -0.5985 -0.5735  0.1101
 2688SOL    HW119697   2.559   3.329   2.628 -3.6208  0.3141  0.1737
 2688SOL    HW219698   2.489   3.387   2.511  0.1313  0.7215  1.9377
 2689SOL     OW19699   1.527   4.604   7.600  0.1744 -0.1254  0.1988
 2689SOL    HW119700   1.557   4.519   7.633 -0.1987 -0.4817 -0.3755
 2689SOL    HW219701   1.505   4.566   7.515 -0.8470 -1.4891  1.0754
 2690SOL     OW19702   3.354   3.898   4.102 -0.1626  0.6744 -0.4011
 2690SOL    HW119703   3.397   3.870   4.182 -0.3737  1.2244 -0.0935
 2690SOL    HW219704   3.279   3.839   4.105 -0.1640  0.6326 -1.2071
 2691SOL     OW19705   3.218   0.194   4.471 -0.1310 -0.2191  0.1455
 2691SOL    HW119706   3.301   0.148   4.468  0.1189  0.3320 -1.3473
 2691SOL    HW219707   3.224   0.276   4.421 -1.9136  0.4435  1.0095
 2692SOL     OW19708   3.089   0.574   6.131  0.0272  0.1599  0.0084
 2692SOL    HW119709   2.999   0.555   6.106 -0.7935  0.2067  2.8622
 2692SOL    HW219710   3.068   0.582   6.224  0.5328 -0.1828  0.1554
 2693SOL     OW19711   2.616   0.328   7.307  0.0644  0.3627 -0.1947
 2693SOL    HW119712   2.652   0.310   7.393  0.3995  0.6637 -0.2750
 2693SOL    HW219713   2.700   0.355   7.271  1.3572 -0.0029  2.6079
 2694SOL     OW19714   0.935   2.438  17.600 -0.0274 -0.0984 -0.4336
 2694SOL    HW119715   0.859   2.496  17.612  0.3957  0.3480  0.0964
 2694SOL    HW219716   0.886   2.356  17.607  2.3482 -1.4504  0.3126
 2695SOL     OW19717   1.684   1.251   5.975  0.5004  0.3152 -0.0011
 2695SOL    HW119718   1.701   1.244   5.882  1.2828  0.5923  0.1205
 2695SOL    HW219719   1.671   1.346   5.978  1.1397  0.3720  1.0089
 2696SOL     OW19720   2.121   2.078   2.643 -0.2058  0.2609  0.4257
 2696SOL    HW119721   2.194   2.130   2.611 -0.3243  0.8478  1.0945
 2696SOL    HW219722   2.174   2.006   2.675 -1.0683 -1.1330 -1.2498
 2697SOL     OW19723   1.150   1.209   2.885 -0.1005  0.1585 -0.3424
 2697SOL    HW119724   1.239   1.244   2.884 -0.1268  0.2689  1.5817
 2697SOL    HW219725   1.145   1.150   2.810  0.6058 -0.4188  0.0678
 2698SOL     OW19726   4.375   4.392   4.624 -0.2893 -0.6961  0.2830
 2698SOL    HW119727   4.432   4.335   4.677 -1.2877 -0.6381  1.4248
 2698SOL    HW219728   4.426   4.470   4.602 -1.6944  0.4009  0.8831
 2699SOL     OW19729   1.778   4.580  12.781  0.0863  0.3890  0.3148
 2699SOL    HW119730   1.716   4.651  12.791 -0.1449  0.2880 -0.3816
 2699SOL    HW219731   1.773   4.541  12.868  0.6786 -1.5058 -0.4924
 2700SOL     OW19732   0.959   4.138  14.387 -0.0641  0.4356 -0.1531
 2700SOL    HW119733   1.039   4.166  14.343 -1.2224  1.6276 -1.5129
 2700SOL    HW219734   0.990   4.063  14.437  5.0884  1.3964 -1.9268
 2701SOL     OW19735   2.726   0.975   7.098 -0.0995 -0.0805  0.3360
 2701SOL    HW119736   2.774   0.942   7.174  0.2058 -1.1620 -0.3263
 2701SOL    HW219737   2.745   0.917   7.024 -0.8859  1.2038 -0.8798
 2702SOL     OW19738   3.519   1.146  16.117  0.3268  0.0574  0.0134
 2702SOL    HW119739   3.583   1.212  16.145  0.7129 -2.1645  4.3767
 2702SOL    HW219740   3.576   1.070  16.098  1.8664  0.9036  1.2653
 2703SOL     OW19741   2.919   0.893   3.041  0.2517  0.6351  0.5403
 2703SOL    HW119742   2.876   0.808   3.049 -2.4816  1.8362 -1.2396
 2703SOL    HW219743   2.992   0.868   3.097  0.5794 -0.2370 -0.2842
 2704SOL     OW19744   3.059   0.582   9.590 -0.0037  0.4021 -0.3165
 2704SOL    HW119745   3.094   0.625   9.669 -0.2009 -2.1242  1.1598
 2704SOL    HW219746   2.966   0.596   9.607 -0.2343 -1.4331 -0.1150
 2705SOL     OW19747   0.137   1.675  13.476  0.2894  0.4233 -0.5491
 2705SOL    HW119748   0.163   1.647  13.563 -0.3078 -0.2185 -0.5788
 2705SOL    HW219749   0.042   1.668  13.486  0.2793 -0.8645 -1.5550
 2706SOL     OW19750   3.138   4.573   5.384  0.5546 -0.3274 -0.7823
 2706SOL    HW119751   3.159   4.667   5.387 -0.0454 -0.2287  0.2493
 2706SOL    HW219752   3.163   4.538   5.470 -0.1483 -1.6383 -1.1106
 2707SOL     OW19753   2.143   3.549   8.555 -0.3001 -0.6062 -0.5182
 2707SOL    HW119754   2.224   3.506   8.583 -0.7277  0.1810  1.9305
 2707SOL    HW219755   2.176   3.623   8.503 -0.7016  0.0774  0.1964
 2708SOL     OW19756   1.797   1.280   8.422  0.5323 -0.0468 -0.1958
 2708SOL    HW119757   1.736   1.267   8.349  1.9391  1.8558 -1.7308
 2708SOL    HW219758   1.842   1.196   8.433  0.7535 -0.0145 -0.8126
 2709SOL     OW19759   3.226   0.346   8.754  0.3082  0.0291  0.2171
 2709SOL    HW119760   3.264   0.426   8.789 -0.3731 -0.1597  1.3962
 2709SOL    HW219761   3.302   0.302   8.716  0.0628 -0.3893  0.2000
 2710SOL     OW19762   0.779   2.055   4.960  0.0244 -0.2531  0.2331
 2710SOL    HW119763   0.810   2.132   4.912 -1.0929 -1.8186 -3.0198
 2710SOL    HW219764   0.795   2.092   5.046  2.1199  0.2905 -0.3800
 2711SOL     OW19765   0.408   2.493  10.858 -0.1992 -0.1371 -0.1670
 2711SOL    HW119766   0.333   2.528  10.810  0.2374  0.1498 -0.6398
 2711SOL    HW219767   0.368   2.438  10.926  1.6903  0.6863  1.5907
 2712SOL     OW19768   2.189   0.516   8.056  0.2326 -0.0609  0.7040
 2712SOL    HW119769   2.107   0.549   8.092 -1.0337 -3.3403  0.9039
 2712SOL    HW219770   2.251   0.582   8.086  0.9105 -0.4461  0.1412
 2713SOL     OW19771   4.034   4.245   6.870 -0.4610  0.1873  0.2836
 2713SOL    HW119772   4.113   4.233   6.924 -0.6064 -0.7341  0.2940
 2713SOL    HW219773   4.052   4.196   6.790  0.4234 -0.5725  0.9429
 2714SOL     OW19774   0.327   1.856   0.501  0.2270 -0.2823  0.4460
 2714SOL    HW119775   0.352   1.914   0.573 -3.2110  1.6702  0.0566
 2714SOL    HW219776   0.281   1.916   0.442 -1.2750 -0.5762  1.3000
 2715SOL     OW19777   1.253   2.463   6.876  0.5596  0.3201 -0.5403
 2715SOL    HW119778   1.302   2.468   6.959  0.2152  1.8829 -0.4395
 2715SOL    HW219779   1.273   2.549   6.840  0.0610 -0.0828 -1.7670
 2716SOL     OW19780   2.479   0.445   2.012 -0.8143  0.2810  0.6695
 2716SOL    HW119781   2.393   0.486   2.001 -1.4209 -1.1446 -0.0046
 2716SOL    HW219782   2.535   0.520   1.996  0.6647 -0.8450  0.5905
 2717SOL     OW19783   1.892   3.207   1.718 -1.0029 -0.4881  0.0976
 2717SOL    HW119784   1.968   3.260   1.694 -2.2121  2.3105  2.5195
 2717SOL    HW219785   1.855   3.257   1.791 -0.9328 -0.1410 -0.1061
 2718SOL     OW19786   0.139   1.657   7.291  0.0822 -0.3655 -0.2318
 2718SOL    HW119787   0.118   1.565   7.274  0.0495 -0.0487 -1.9181
 2718SOL    HW219788   0.058   1.696   7.256  1.9196  0.4899 -3.5116
 2719SOL     OW19789   4.236   3.125   7.264 -0.3643 -0.3095  0.8256
 2719SOL    HW119790   4.330   3.138   7.267 -0.2681 -0.9860  0.8505
 2719SOL    HW219791   4.230   3.035   7.296 -0.7468  0.7355  3.6472
 2720SOL     OW19792   3.609   1.318   0.308 -0.5598  0.2661  0.0537
 2720SOL    HW119793   3.668   1.361   0.245  1.1665 -0.3574  1.2513
 2720SOL    HW219794   3.528   1.323   0.257  0.8052  1.4589 -2.0351
 2721SOL     OW19795   0.926   3.650   0.589  0.1245  0.4722  0.5837
 2721SOL    HW119796   0.885   3.718   0.535  0.6874  1.1529  1.0045
 2721SOL    HW219797   0.877   3.666   0.670  0.0354 -0.3044  0.6761
 2722SOL     OW19798   2.410   3.202  10.981 -0.6794  0.0310  0.2027
 2722SOL    HW119799   2.361   3.119  10.987 -0.0242 -0.3148  0.7361
 2722SOL    HW219800   2.432   3.203  10.888 -0.4166 -2.2350  0.2331
 2723SOL     OW19801   3.939   1.667  13.801 -0.1762 -0.0185  1.0109
 2723SOL    HW119802   3.880   1.670  13.726  0.5170  2.9912  0.5670
 2723SOL    HW219803   3.995   1.741  13.776 -1.4828  0.0565 -1.7354
 2724SOL     OW19804   3.724   4.602  11.885  0.4346  0.0874 -0.5502
 2724SOL    HW119805   3.715   4.696  11.873 -0.9100 -0.2454 -1.9991
 2724SOL    HW219806   3.746   4.597  11.978 -1.8142  4.6817  0.2218
 2725SOL     OW19807   2.203   0.002   3.848  0.3192 -0.2999  0.6936
 2725SOL    HW119808   2.283   0.032   3.891  0.7269  0.3045 -0.4989
 2725SOL    HW219809   2.210   0.045   3.763 -0.6608 -1.4175  0.0494
 2726SOL     OW19810   1.956   1.017  10.208  0.0485  0.1058  0.8576
 2726SOL    HW119811   2.027   1.079  10.190 -1.4420  2.1888  2.1690
 2726SOL    HW219812   1.944   0.986  10.118  1.5585  0.8506  0.4085
 2727SOL     OW19813   1.890   0.134   5.205 -0.0269 -0.6981 -0.5916
 2727SOL    HW119814   1.819   0.192   5.177  0.4474 -0.7322 -1.8915
 2727SOL    HW219815   1.858   0.044   5.199  0.2416 -0.8422  0.1848
 2728SOL     OW19816   0.163   0.002   1.440  0.2740 -0.4569 -0.5822
 2728SOL    HW119817   0.222   0.049   1.382  0.1267  0.4095 -0.0293
 2728SOL    HW219818   0.082   0.019   1.392 -0.6231  0.5604  1.2785
 2729SOL     OW19819   2.582   3.199  11.869  0.4582 -0.2308  0.9277
 2729SOL    HW119820   2.503   3.252  11.882  0.6013  0.1914  0.0826
 2729SOL    HW219821   2.547   3.116  11.839 -1.7296  1.8665 -2.2123
 2730SOL     OW19822   0.006   4.729   6.424 -0.4122  0.4687 -0.1304
 2730SOL    HW119823   0.090   4.684   6.423 -0.5385  0.2320 -0.1030
 2730SOL    HW219824   4.722   0.016   6.333 -1.8551  3.6538  0.9135
 2731SOL     OW19825   0.016   0.909   8.458  0.3451 -0.5262 -0.2137
 2731SOL    HW119826   4.661   0.878   8.467  0.0271  1.3826  3.0143
 2731SOL    HW219827   0.023   0.989   8.509  0.1515 -0.6738  0.0427
 2732SOL     OW19828   2.600   0.594   6.016 -0.2816 -0.3253 -0.9175
 2732SOL    HW119829   2.586   0.649   5.940 -1.6000  0.9641  0.2509
 2732SOL    HW219830   2.517   0.547   6.026 -0.5646  0.5698  1.0693
 2733SOL     OW19831   3.445   3.837   8.022 -0.0096 -1.1477  0.0443
 2733SOL    HW119832   3.541   3.828   8.016  0.0390  0.6550 -1.9852
 2733SOL    HW219833   3.416   3.847   7.931  0.8034  1.3198  0.0415
 2734SOL     OW19834   3.277   3.251  16.262  0.5019  0.8202 -0.1040
 2734SOL    HW119835   3.231   3.174  16.297 -0.2508  0.2652 -2.2925
 2734SOL    HW219836   3.351   3.215  16.213  1.1302  2.2218 -0.1733
 2735SOL     OW19837   1.373   4.616  16.326 -0.6592  0.1490 -0.6695
 2735SOL    HW119838   1.330   4.686  16.277 -1.0450  1.0364  0.9305
 2735SOL    HW219839   1.466   4.640  16.322 -0.8279  0.5114 -2.5728
 2736SOL     OW19840   2.997   0.144   3.271  0.0666  0.1738  0.5529
 2736SOL    HW119841   3.011   0.078   3.203  2.4257  1.1097  0.1441
 2736SOL    HW219842   2.901   0.141   3.277  0.0595 -1.4774 -0.2957
 2737SOL     OW19843   1.888   0.374   2.154  0.0330 -0.4117  0.6432
 2737SOL    HW119844   1.903   0.286   2.188  0.5907  0.5483  2.8576
 2737SOL    HW219845   1.793   0.389   2.161 -0.0447 -0.3192 -0.5760
 2738SOL     OW19846   2.523   1.228   2.066  0.4934 -0.0359  0.1925
 2738SOL    HW119847   2.618   1.215   2.077  1.4070  2.1405 -4.8951
 2738SOL    HW219848   2.515   1.321   2.086 -1.8609  0.4698 -3.1181
 2739SOL     OW19849   0.752   1.156  13.707 -0.2247  0.5793  0.1482
 2739SOL    HW119850   0.682   1.148  13.642  2.1004 -0.2284 -2.2357
 2739SOL    HW219851   0.814   1.216  13.666  1.6878 -1.7830 -0.4576
 2740SOL     OW19852   1.203   3.851   3.247  0.3233 -0.4360  0.6391
 2740SOL    HW119853   1.118   3.845   3.205 -0.4827 -0.2177  2.2210
 2740SOL    HW219854   1.235   3.764   3.270  1.1713 -0.5599 -1.0060
 2741SOL     OW19855   0.644   1.643  17.448  0.0836  0.5941  0.0782
 2741SOL    HW119856   0.564   1.643  17.396  0.3120  0.2227 -0.2683
 2741SOL    HW219857   0.610   1.607  17.530  0.4308  0.3900  0.1340
 2742SOL     OW19858   4.659   4.347   8.619  1.0063  0.5873 -0.4663
 2742SOL    HW119859   4.732   4.365   8.680  0.5802 -1.7747  0.7355
 2742SOL    HW219860   4.617   4.432   8.605  1.4185  0.5516 -1.8327
 2743SOL     OW19861   1.135   1.480   8.578 -0.3908  0.4372 -0.1060
 2743SOL    HW119862   1.215   1.492   8.629  0.4632  0.6195 -1.4910
 2743SOL    HW219863   1.172   1.471   8.490 -0.7262  1.8841 -0.3850
 2744SOL     OW19864   0.800   1.223   4.197  0.1559  0.1577 -0.4443
 2744SOL    HW119865   0.773   1.209   4.106 -1.4434  0.7972 -0.0652
 2744SOL    HW219866   0.716   1.257   4.228 -0.2813 -2.7615  1.5604
 2745SOL     OW19867   0.848   3.782   3.902 -0.4708  0.2330  0.3852
 2745SOL    HW119868   0.924   3.811   3.851  0.3416  1.4827  2.3155
 2745SOL    HW219869   0.822   3.709   3.846  2.8616 -1.2728  0.7611
 2746SOL     OW19870   1.158   2.020   3.501 -0.3691 -0.0151  0.2444
 2746SOL    HW119871   1.081   2.052   3.453 -0.0435 -0.8276 -0.8256
 2746SOL    HW219872   1.120   1.945   3.546 -0.9670  0.6335  0.8156
 2747SOL     OW19873   0.835   0.205  17.341  0.1267  0.0423 -0.0297
 2747SOL    HW119874   0.884   0.187  17.261 -0.4312 -0.8542 -0.1706
 2747SOL    HW219875   0.907   0.237  17.395 -0.9385  1.6975  0.4278
 2748SOL     OW19876   2.294   0.624  14.626 -0.4151 -0.5998  0.4052
 2748SOL    HW119877   2.354   0.577  14.568 -0.1796 -0.2668  0.3779
 2748SOL    HW219878   2.350   0.636  14.703 -0.4460  1.1150  0.1593
 2749SOL     OW19879   2.566   3.878   8.830 -0.2688 -0.4700  0.3408
 2749SOL    HW119880   2.640   3.911   8.778 -0.2419  1.6613  1.7312
 2749SOL    HW219881   2.563   3.784   8.815 -1.4374 -0.2392 -0.7638
 2750SOL     OW19882   1.427   3.566  11.311  0.2695 -0.1355  0.3140
 2750SOL    HW119883   1.401   3.495  11.371 -1.3776 -0.2008 -0.4845
 2750SOL    HW219884   1.461   3.621  11.382  0.9067  2.1704 -1.7873
 2751SOL     OW19885   2.880   4.606   2.549  0.1089 -0.0699  0.5758
 2751SOL    HW119886   2.804   4.659   2.527  0.4456 -0.0691 -0.6267
 2751SOL    HW219887   2.951   4.670   2.545 -1.2570  1.5813  2.9803
 2752SOL     OW19888   1.437   1.362   6.593 -0.5039 -0.4216  0.5667
 2752SOL    HW119889   1.431   1.437   6.653 -0.6250 -0.1993  0.2761
 2752SOL    HW219890   1.512   1.390   6.541  0.3130 -3.2485  0.2430
 2753SOL     OW19891   4.717   2.406   4.984 -0.6178  0.5345  0.2274
 2753SOL    HW119892   4.719   2.476   5.050  0.1797  3.0872 -2.5204
 2753SOL    HW219893   0.037   2.444   4.915  0.8709  1.4428  1.9180
 2754SOL     OW19894   0.235   2.941   9.857  0.0118  0.1791  0.3022
 2754SOL    HW119895   0.161   2.881   9.861 -0.4605  0.7666  0.3382
 2754SOL    HW219896   0.196   3.020   9.896  0.7617  0.4480  0.5077
 2755SOL     OW19897   2.415   4.669   6.588 -0.8836  0.5154  0.8724
 2755SOL    HW119898   2.487   4.724   6.560 -2.2434  0.1677 -3.2122
 2755SOL    HW219899   2.353   4.659   6.516 -0.5268  1.3058  0.4582
 2756SOL     OW19900   2.375   4.666   9.980  0.1825 -0.0858 -0.4251
 2756SOL    HW119901   2.281   4.657   9.998  0.8275  0.8520  3.4142
 2756SOL    HW219902   2.419   4.621  10.052  0.0436  0.1249 -0.2104
 2757SOL     OW19903   4.039   3.497   3.807 -0.0559  0.1856 -0.5684
 2757SOL    HW119904   4.066   3.443   3.881 -0.0431 -0.2666 -0.9027
 2757SOL    HW219905   3.945   3.482   3.812 -0.2918  1.6747 -0.7360
 2758SOL     OW19906   2.504   0.030   4.743  0.5106  0.0640 -0.0323
 2758SOL    HW119907   2.525   0.018   4.835  0.9930 -1.6020 -0.3662
 2758SOL    HW219908   2.557   0.105   4.715  1.3744  0.1249  1.7762
 2759SOL     OW19909   1.799   0.111   9.372 -0.3274  0.3952  0.0195
 2759SOL    HW119910   1.832   0.028   9.406  1.2628  0.1501 -2.1502
 2759SOL    HW219911   1.877   0.165   9.372  0.5107 -0.8048 -0.5781
 2760SOL     OW19912   2.287   3.753  10.139  0.3674  0.1771  0.2844
 2760SOL    HW119913   2.216   3.698  10.172 -1.0651 -0.0613 -3.1395
 2760SOL    HW219914   2.239   3.802  10.073  1.4570  0.0823 -0.5858
 2761SOL     OW19915   0.669   2.009   7.799  0.3956 -0.4153  0.0988
 2761SOL    HW119916   0.672   2.014   7.703 -2.1578 -1.7616 -0.0582
 2761SOL    HW219917   0.753   1.968   7.818  1.2309  0.9810 -0.5021
 2762SOL     OW19918   2.745   1.898  17.671 -0.2683  0.0027  0.1098
 2762SOL    HW119919   2.824   1.938  17.707 -1.9504  2.6682  0.8639
 2762SOL    HW219920   2.689   1.975  17.681 -2.9894 -1.8152 -1.1869
 2763SOL     OW19921   3.883   4.110   8.085  0.0291  0.4993 -0.4207
 2763SOL    HW119922   3.822   4.063   8.142 -0.1916  1.7096  0.3382
 2763SOL    HW219923   3.964   4.060   8.095  0.3222  1.2369  0.9121
 2764SOL     OW19924   0.734   2.711  10.225 -0.3551 -0.2959  0.4428
 2764SOL    HW119925   0.715   2.805  10.215  0.9534  0.2724  3.0630
 2764SOL    HW219926   0.822   2.712  10.261  0.3136  0.4014 -1.2197
 2765SOL     OW19927   0.569   3.591   8.816  0.6661  0.0187 -0.3771
 2765SOL    HW119928   0.524   3.513   8.783  0.0877 -0.6215  1.9385
 2765SOL    HW219929   0.509   3.623   8.883  1.3397 -0.4711  0.4603
 2766SOL     OW19930   4.480   1.329   5.799 -0.6431  0.1101 -0.8122
 2766SOL    HW119931   4.543   1.368   5.858 -0.3272 -1.7130  0.0591
 2766SOL    HW219932   4.521   1.244   5.779 -0.6780  0.6181 -3.0984
 2767SOL     OW19933   4.410   0.176   8.802 -0.8474  0.0221  0.0856
 2767SOL    HW119934   4.370   0.180   8.889  3.3637  1.1526  1.9628
 2767SOL    HW219935   4.361   0.252   8.772  1.1866  1.3819  0.2149
 2768SOL     OW19936   1.296   1.857  16.394 -0.0370 -0.0866 -0.3456
 2768SOL    HW119937   1.211   1.900  16.393  0.2448  0.4486 -0.9052
 2768SOL    HW219938   1.347   1.927  16.355 -1.5646  2.6341  2.5897
 2769SOL     OW19939   2.126   0.132   7.577  0.1647 -0.6576 -0.2602
 2769SOL    HW119940   2.096   0.104   7.490 -0.5250 -2.3483  0.5307
 2769SOL    HW219941   2.194   0.198   7.559  0.4318 -0.9224 -0.2087
 2770SOL     OW19942   1.683   2.803   8.291 -0.3553 -0.0645 -0.0947
 2770SOL    HW119943   1.597   2.828   8.258  0.0984 -1.0785 -2.0271
 2770SOL    HW219944   1.727   2.813   8.207  1.0998  0.6736  0.7439
 2771SOL     OW19945   2.437   0.571   1.648  0.2898  1.0862  0.2010
 2771SOL    HW119946   2.454   0.602   1.738 -2.7991 -1.1689  1.5445
 2771SOL    HW219947   2.366   0.623   1.611 -0.7230 -0.3817  0.0751
 2772SOL     OW19948   4.423   4.623   1.230  0.2975  0.4658 -0.1496
 2772SOL    HW119949   4.422   4.598   1.138  1.8034  1.6907 -0.4970
 2772SOL    HW219950   4.337   4.589   1.254  0.2988  2.0060  2.0122
 2773SOL     OW19951   2.902   0.326   9.530 -0.8882  0.3012  0.2046
 2773SOL    HW119952   2.899   0.328   9.626 -0.3442  3.0692  0.1418
 2773SOL    HW219953   2.975   0.385   9.514 -2.2038  1.7815 -0.2872
 2774SOL     OW19954   1.776   3.418   8.783 -0.0226 -1.0117  0.9997
 2774SOL    HW119955   1.803   3.509   8.800  0.0534 -0.8124 -0.1550
 2774SOL    HW219956   1.822   3.387   8.705 -0.4815  1.3686 -0.2265
 2775SOL     OW19957   4.337   3.280   9.981  0.2182  0.5763  0.2158
 2775SOL    HW119958   4.361   3.299  10.072 -0.8611 -0.3609  0.7087
 2775SOL    HW219959   4.243   3.277  10.001 -0.0200 -0.2611 -1.0695
 2776SOL     OW19960   3.341   3.554   7.864 -0.1849  0.0226  0.6411
 2776SOL    HW119961   3.350   3.624   7.928 -0.5830  0.2003  0.5044
 2776SOL    HW219962   3.248   3.542   7.845 -0.1721  1.4096 -0.2651
 2777SOL     OW19963   2.705   1.308   5.317 -0.5445 -0.1561  0.2490
 2777SOL    HW119964   2.639   1.323   5.250  0.1898 -1.4840 -0.7717
 2777SOL    HW219965   2.778   1.330   5.257  1.3748  0.2712  2.7449
 2778SOL     OW19966   1.750   4.500   8.921 -0.5189  0.2540 -0.7503
 2778SOL    HW119967   1.691   4.431   8.950  0.6388  0.7689  2.8336
 2778SOL    HW219968   1.695   4.577   8.939  0.1157  0.6619 -0.5450
 2779SOL     OW19969   2.151   4.300   4.840 -0.2471 -0.2159 -0.7615
 2779SOL    HW119970   2.133   4.337   4.754  3.3769 -0.0903 -1.4763
 2779SOL    HW219971   2.065   4.316   4.878 -0.7718 -2.2937 -1.0578
 2780SOL     OW19972   1.991   3.771   2.539 -0.1475  0.0235  0.3815
 2780SOL    HW119973   2.009   3.845   2.596 -0.3233 -0.7195  1.3973
 2780SOL    HW219974   1.903   3.747   2.569 -0.9447 -0.1244 -2.0818
 2781SOL     OW19975   0.306   2.325   3.053  0.4168 -0.2595 -0.0665
 2781SOL    HW119976   0.214   2.307   3.073  0.6326 -0.4503  0.7087
 2781SOL    HW219977   0.335   2.237   3.031 -1.1405 -0.4412 -1.4497
 2782SOL     OW19978   0.871   2.518   3.615  0.2676 -0.1514  0.4294
 2782SOL    HW119979   0.940   2.452   3.608 -1.5443 -1.9790 -0.4387
 2782SOL    HW219980   0.853   2.534   3.522  3.0873  2.2882  0.3044
 2783SOL     OW19981   0.861   2.540  10.719  0.0787  0.0542 -0.5641
 2783SOL    HW119982   0.883   2.630  10.742 -0.1788  0.4201 -1.7599
 2783SOL    HW219983   0.940   2.515  10.671 -0.0883 -0.4837 -0.5638
 2784SOL     OW19984   2.982   4.643   9.884 -0.5199  0.0994 -0.2285
 2784SOL    HW119985   3.070   4.610   9.867 -0.4369  0.3331 -0.2575
 2784SOL    HW219986   2.941   4.644   9.797  0.7558 -1.9207 -0.8639
 2785SOL     OW19987   2.442   2.487   9.519 -0.0549 -0.3146  0.9337
 2785SOL    HW119988   2.384   2.424   9.560  0.4017 -2.7719 -2.1823
 2785SOL    HW219989   2.431   2.468   9.426 -0.4400 -0.3237  0.9830
 2786SOL     OW19990   0.272   1.614  10.907  0.1723 -0.1699  0.5578
 2786SOL    HW119991   0.300   1.676  10.840 -0.1052 -2.7795 -1.9871
 2786SOL    HW219992   0.189   1.582  10.872  0.1765  1.7122 -1.1511
 2787SOL     OW19993   3.449   0.975   5.755 -0.1963  0.6831  0.3791
 2787SOL    HW119994   3.434   0.884   5.730  1.7327  0.4813 -0.0295
 2787SOL    HW219995   3.524   1.007   5.704 -0.3720  1.8654  0.8469
 2788SOL     OW19996   4.599   0.842   6.957  0.5857 -0.1450 -0.1521
 2788SOL    HW119997   4.674   0.785   6.941  0.9249  0.2664 -0.0222
 2788SOL    HW219998   4.585   0.861   6.865 -0.3870 -1.0374 -0.1881
 2789SOL     OW19999   4.098   4.042   4.783 -0.9540 -0.2980 -0.9137
 2789SOL    HW120000   4.086   3.989   4.862 -2.2187 -0.1469 -1.0203
 2789SOL    HW220001   4.181   3.999   4.760 -0.3344  1.5011 -2.0224
 2790SOL     OW20002   2.870   4.328   6.367  0.1064 -0.0250 -0.0485
 2790SOL    HW120003   2.965   4.336   6.363 -0.4366  4.9170 -3.0618
 2790SOL    HW220004   2.847   4.375   6.287 -2.2050  0.3203  0.8025
 2791SOL     OW20005   1.235   4.213   0.958  0.2997  0.1809  0.0246
 2791SOL    HW120006   1.275   4.291   0.919 -2.0534  0.3752 -2.0725
 2791SOL    HW220007   1.195   4.177   0.879  0.4618 -2.8968  1.3623
 2792SOL     OW20008   4.549   2.959   4.236  0.7850 -0.2067  0.3460
 2792SOL    HW120009   4.464   2.918   4.220  1.3158 -1.3649  0.4891
 2792SOL    HW220010   4.524   3.035   4.289  2.0717 -0.1187  0.8100
 2793SOL     OW20011   1.222   2.817   6.127 -0.6735  0.3648 -0.5735
 2793SOL    HW120012   1.269   2.734   6.128  0.3256  0.8917 -2.2305
 2793SOL    HW220013   1.209   2.814   6.032  2.3934  1.6586 -1.0347
 2794SOL     OW20014   1.107   1.138   9.084 -0.2102 -0.7459  0.1642
 2794SOL    HW120015   1.197   1.116   9.058  1.9885 -0.3011  7.2036
 2794SOL    HW220016   1.072   1.178   9.005  0.4514  0.5460  0.5169
 2795SOL     OW20017   1.723   4.662   5.286  0.1385  0.4454 -0.2009
 2795SOL    HW120018   1.746   4.597   5.353 -1.0566  1.4133  1.1531
 2795SOL    HW220019   1.654   4.710   5.332  1.2616  0.5834  1.3700
 2796SOL     OW20020   0.364   4.029   8.471  0.8189  0.2620 -0.7742
 2796SOL    HW120021   0.275   3.993   8.465  0.9732 -0.2320 -0.0548
 2796SOL    HW220022   0.418   3.956   8.443  0.9706  1.2299 -3.0153
 2797SOL     OW20023   4.578   0.583   9.703  0.2144 -0.3662  0.2903
 2797SOL    HW120024   4.507   0.612   9.647  0.7128  2.5426  1.1910
 2797SOL    HW220025   4.650   0.636   9.669  0.3002 -1.3017 -1.0028
 2798SOL     OW20026   0.922   1.019   8.732 -0.1714  0.1170 -0.1733
 2798SOL    HW120027   0.953   1.094   8.682 -1.6594  0.5112 -0.5111
 2798SOL    HW220028   0.833   1.045   8.756 -1.3418 -0.4445 -3.8752
 2799SOL     OW20029   3.335   1.993   3.812  0.5663 -0.2480  0.2474
 2799SOL    HW120030   3.323   1.899   3.800  3.0754 -0.5321  0.0938
 2799SOL    HW220031   3.257   2.015   3.760 -0.5722 -3.3521  0.6209
 2800SOL     OW20032   0.673   4.330   6.036  0.5547  0.0505 -0.1789
 2800SOL    HW120033   0.760   4.365   6.019  0.8043  0.6675  2.3742
 2800SOL    HW220034   0.684   4.255   6.094  3.8908 -0.1133 -1.0204
 2801SOL     OW20035   1.881   3.827   3.400  0.7646 -0.0154  0.0791
 2801SOL    HW120036   1.930   3.749   3.429 -1.1420 -1.2922 -0.1173
 2801SOL    HW220037   1.930   3.852   3.321  0.2444 -1.0832 -0.5811
 2802SOL     OW20038   0.988   2.730   9.536 -0.5019  0.0067  0.3461
 2802SOL    HW120039   0.897   2.761   9.534 -0.3064  0.5749  0.0894
 2802SOL    HW220040   1.028   2.793   9.475 -3.2431 -0.7745 -2.2857
 2803SOL     OW20041   0.585   4.368   2.380 -0.3211  0.1446 -0.1895
 2803SOL    HW120042   0.600   4.391   2.288  0.7827  0.1230 -0.0087
 2803SOL    HW220043   0.672   4.346   2.411 -0.7397 -2.0476 -0.5467
 2804SOL     OW20044   1.341   1.144   0.340 -0.1184 -0.5080 -0.6108
 2804SOL    HW120045   1.393   1.135   0.260 -0.2680 -1.0838 -0.6472
 2804SOL    HW220046   1.276   1.204   0.303  1.7955  0.8887 -1.6826
 2805SOL     OW20047   1.065   2.155  10.845  0.3059 -0.1731  0.2337
 2805SOL    HW120048   1.062   2.060  10.855  2.3135 -0.2773 -0.0258
 2805SOL    HW220049   1.158   2.167  10.823  0.3009  1.3759  1.0667
 2806SOL     OW20050   1.552   4.193   6.873 -0.1571  0.2096 -0.7425
 2806SOL    HW120051   1.625   4.214   6.814  0.0509 -1.5126 -1.0942
 2806SOL    HW220052   1.521   4.108   6.842 -0.8707  0.0269  0.4585
 2807SOL     OW20053   1.501   1.681   7.489 -0.6834  0.1096 -0.3338
 2807SOL    HW120054   1.446   1.714   7.560  0.1311  0.9392 -0.0860
 2807SOL    HW220055   1.457   1.603   7.457  0.0491 -0.9942  1.3732
 2808SOL     OW20056   2.391   3.139   9.679 -0.8155 -0.3383  0.1207
 2808SOL    HW120057   2.305   3.100   9.693 -1.8950  2.0167 -0.1175
 2808SOL    HW220058   2.416   3.171   9.766 -1.3662 -0.9659  0.5114
 2809SOL     OW20059   0.095   4.671  11.638  0.4163 -0.4786  0.0908
 2809SOL    HW120060   0.134   4.732  11.574  0.2349 -0.0057  0.4329
 2809SOL    HW220061   0.013   4.647  11.594  1.7290 -1.9673 -1.5748
 2810SOL     OW20062   2.905   3.604  11.703 -0.0764  0.1139 -0.1423
 2810SOL    HW120063   2.962   3.553  11.646  0.1961  1.0598 -0.7102
 2810SOL    HW220064   2.957   3.618  11.783 -2.5043 -0.4221  1.5467
 2811SOL     OW20065   4.331   3.701   2.766 -0.3029  0.1113  0.4484
 2811SOL    HW120066   4.288   3.739   2.689  2.4658  1.1220 -0.5682
 2811SOL    HW220067   4.348   3.610   2.743  2.0257  0.8485 -0.7114
 2812SOL     OW20068   0.008   2.266  11.082  0.1027  0.1447  0.4965
 2812SOL    HW120069   4.673   2.246  11.019 -1.0344  2.5012  1.0089
 2812SOL    HW220070   0.031   2.177  11.111  3.0167  0.3825 -1.0663
 2813SOL     OW20071   0.333   0.005   0.408 -1.0881  0.4746  0.0873
 2813SOL    HW120072   0.390   0.073   0.442 -1.6402  0.1750  1.6284
 2813SOL    HW220073   0.249   0.051   0.404 -0.7419  1.3350  2.4578
 2814SOL     OW20074   0.643   2.098  10.506  0.4731 -0.0444 -0.1025
 2814SOL    HW120075   0.733   2.066  10.495  0.3784  0.3900 -1.9946
 2814SOL    HW220076   0.667   2.172  10.562 -1.2941 -0.0518  0.6844
 2815SOL     OW20077   4.263   1.011   4.835 -0.0988 -0.2126 -0.1272
 2815SOL    HW120078   4.261   1.034   4.742 -0.9780  0.6928  0.1175
 2815SOL    HW220079   4.180   0.962   4.832  0.5862 -1.2609 -1.9197
 2816SOL     OW20080   1.081   4.041  16.187 -0.4877  0.1402 -0.0335
 2816SOL    HW120081   1.074   4.057  16.281  1.6439  3.1729 -0.3996
 2816SOL    HW220082   0.989   4.038  16.158 -0.6893  0.1807  0.6175
 2817SOL     OW20083   4.182   1.870  17.122  0.3883  0.0247 -0.3906
 2817SOL    HW120084   4.250   1.803  17.130  1.6405  1.2534 -0.6230
 2817SOL    HW220085   4.204   1.907  17.207 -1.3549  0.9548 -0.3475
 2818SOL     OW20086   1.834   3.403   1.954  0.0795 -0.2777  0.0354
 2818SOL    HW120087   1.888   3.475   1.922  0.2280 -0.4310 -0.0565
 2818SOL    HW220088   1.869   3.380   2.040 -1.2368 -2.4814 -0.0467
 2819SOL     OW20089   2.155   0.063   2.381  0.1512 -0.2476  0.2899
 2819SOL    HW120090   2.215   4.730   2.348  0.5264  1.0165 -1.6066
 2819SOL    HW220091   2.216   0.099   2.445  1.9994 -1.3581 -0.8316
 2820SOL     OW20092   0.550   0.202  16.664 -0.3188 -0.1321 -0.2132
 2820SOL    HW120093   0.540   0.111  16.694  2.8922 -0.9983 -1.6984
 2820SOL    HW220094   0.631   0.196  16.613  0.9999  2.4919  1.5999
 2821SOL     OW20095   1.539   3.943   8.351 -0.3034 -0.1000 -0.1458
 2821SOL    HW120096   1.592   4.009   8.395 -1.4096  1.9316 -1.8468
 2821SOL    HW220097   1.475   3.934   8.421 -0.7214 -1.6857 -0.7202
 2822SOL     OW20098   4.619   1.458  14.836  0.0240  0.3273 -0.0776
 2822SOL    HW120099   4.612   1.365  14.812 -2.6400  0.5025  0.0633
 2822SOL    HW220100   4.714   1.470  14.837  0.2182 -1.1372  0.0238
 2823SOL     OW20101   4.065   1.825   0.579 -0.2804 -0.1198  0.4504
 2823SOL    HW120102   4.070   1.757   0.513  1.5041  0.4134  0.0300
 2823SOL    HW220103   4.143   1.813   0.633  0.6005  2.0259 -0.3474
 2824SOL     OW20104   3.932   0.511   1.034  0.1900  0.2354  0.1278
 2824SOL    HW120105   3.891   0.508   1.121  0.8618  0.5148  0.4603
 2824SOL    HW220106   3.995   0.439   1.031 -2.5076 -2.1554  0.9466
 2825SOL     OW20107   3.564   3.973  12.583  0.0072  0.7548  0.5034
 2825SOL    HW120108   3.590   3.913  12.513 -0.6136 -1.3041  2.0479
 2825SOL    HW220109   3.469   3.961  12.576  0.4417 -2.0897 -0.5491
 2826SOL     OW20110   3.453   0.415   9.333 -0.3245 -0.1676  0.5171
 2826SOL    HW120111   3.365   0.452   9.333  0.6004  2.1317  2.7508
 2826SOL    HW220112   3.430   0.325   9.315  0.6923 -0.1497 -0.8489
 2827SOL     OW20113   0.705   1.890  10.203  0.4498  0.1955 -0.0183
 2827SOL    HW120114   0.704   1.829  10.277 -1.4080  2.4497  1.7881
 2827SOL    HW220115   0.764   1.836  10.149  0.5530 -1.3175  1.6195
 2828SOL     OW20116   2.706   0.882   2.616 -0.1711 -0.1023  0.1851
 2828SOL    HW120117   2.752   0.817   2.670  2.5110  0.6496 -1.2195
 2828SOL    HW220118   2.743   0.862   2.530 -1.8741 -0.0989 -0.5593
 2829SOL     OW20119   2.058   0.112   7.879 -0.2901  0.4552  0.4391
 2829SOL    HW120120   2.113   0.038   7.906 -0.9616  0.1276  0.9009
 2829SOL    HW220121   2.067   0.115   7.784  0.0949  0.8922  0.4852
 2830SOL     OW20122   3.283   1.424   8.149  0.0241 -0.5314 -0.0528
 2830SOL    HW120123   3.340   1.474   8.090 -1.5239  0.6270 -0.6001
 2830SOL    HW220124   3.283   1.470   8.233  0.9272 -1.0869  0.2437
 2831SOL     OW20125   1.713   2.505   2.327  0.7770 -1.0154  0.4513
 2831SOL    HW120126   1.729   2.439   2.259 -1.8508 -2.7403  1.4879
 2831SOL    HW220127   1.622   2.487   2.352  0.9123  0.0960  1.7486
 2832SOL     OW20128   0.266   4.005   3.512 -0.1448  0.3269  0.5375
 2832SOL    HW120129   0.336   4.027   3.450  0.8645 -2.3717  0.7122
 2832SOL    HW220130   0.190   4.038   3.466 -0.8630 -1.7447  0.2200
 2833SOL     OW20131   1.145   3.508   2.001 -0.9586  0.0151 -0.0940
 2833SOL    HW120132   1.122   3.544   1.915 -0.8394  0.9654  0.2726
 2833SOL    HW220133   1.117   3.417   1.990 -1.4771  0.0001  1.4569
 2834SOL     OW20134   1.740   3.697  16.539 -0.6823 -0.1237  0.4652
 2834SOL    HW120135   1.786   3.659  16.614  1.4800  0.5671 -0.5095
 2834SOL    HW220136   1.687   3.765  16.580 -1.9188 -0.9371  0.2379
 2835SOL     OW20137   2.750   3.276   8.192  0.5231  0.7316  0.5079
 2835SOL    HW120138   2.730   3.360   8.233 -1.1784  1.5096 -1.9508
 2835SOL    HW220139   2.709   3.296   8.108  1.3823 -1.8971 -0.5292
 2836SOL     OW20140   1.269   3.400   2.753 -0.2794 -0.0034  0.1305
 2836SOL    HW120141   1.246   3.467   2.817  1.2600  2.1504 -1.5437
 2836SOL    HW220142   1.295   3.331   2.813  2.8636  1.8209  0.8364
 2837SOL     OW20143   2.968   0.254   2.578  0.7372 -0.4352  0.5610
 2837SOL    HW120144   2.885   0.288   2.544  0.0278 -0.8366  1.8906
 2837SOL    HW220145   2.944   0.266   2.670 -1.9596 -1.0942 -0.0635
 2838SOL     OW20146   3.204   4.575   5.665 -0.0946  0.1050 -0.4773
 2838SOL    HW120147   3.155   4.649   5.699 -0.0920  0.2551 -0.7969
 2838SOL    HW220148   3.198   4.509   5.734 -1.7878 -0.0846 -0.8096
 2839SOL     OW20149   3.826   4.000  11.554  0.0169  0.3520  0.6367
 2839SOL    HW120150   3.782   4.053  11.620 -1.7298 -2.8566  1.9925
 2839SOL    HW220151   3.790   4.038  11.474 -3.0126 -0.5727  1.5711
 2840SOL     OW20152   2.355   3.179   5.704 -0.2444 -0.1888  0.0815
 2840SOL    HW120153   2.277   3.206   5.752 -0.0942  0.7995 -0.2399
 2840SOL    HW220154   2.385   3.104   5.755  2.5287  0.4724 -0.5804
 2841SOL     OW20155   0.268   4.018   9.104 -0.0119 -0.3381  0.1932
 2841SOL    HW120156   0.301   4.052   9.188 -0.0082 -1.0301  0.4680
 2841SOL    HW220157   0.213   3.948   9.140 -1.6245  1.0189  0.4109
 2842SOL     OW20158   3.685   0.889   3.252 -0.7248 -0.0283 -0.5259
 2842SOL    HW120159   3.715   0.803   3.283 -1.3520  0.3975  1.2646
 2842SOL    HW220160   3.733   0.904   3.171 -0.1801  0.0132 -0.1930
 2843SOL     OW20161   2.022   4.131   9.151  0.7271  0.8398  0.1298
 2843SOL    HW120162   2.012   4.068   9.223  4.1515  1.3667  1.0606
 2843SOL    HW220163   2.081   4.190   9.198 -0.6848  1.9874  0.4813
 2844SOL     OW20164   1.406   3.111  10.584 -0.1368 -0.2869 -0.0245
 2844SOL    HW120165   1.465   3.120  10.659 -1.5328 -0.5349  1.1007
 2844SOL    HW220166   1.398   3.015  10.581 -2.3467 -0.0678 -0.8535
 2845SOL     OW20167   2.569   0.346   2.822  0.1107  0.1150 -0.5874
 2845SOL    HW120168   2.623   0.367   2.746 -0.2197  3.4672  0.0986
 2845SOL    HW220169   2.632   0.343   2.894 -0.6591  0.6926  0.1065
 2846SOL     OW20170   0.398   0.603   6.339 -0.4408  0.0224  0.1622
 2846SOL    HW120171   0.464   0.669   6.357  1.7914 -1.9299 -0.8739
 2846SOL    HW220172   0.456   0.549   6.284 -0.3089  0.7415 -0.4074
 2847SOL     OW20173   2.455   3.029   5.916 -0.1656  0.1651 -0.5696
 2847SOL    HW120174   2.458   3.083   5.995  1.1850 -0.4724 -0.1722
 2847SOL    HW220175   2.545   3.030   5.885 -0.4088  3.0997 -1.1710
 2848SOL     OW20176   3.610   1.141   2.269  0.6153 -0.0783 -0.3406
 2848SOL    HW120177   3.644   1.058   2.235  1.4829  0.9458 -1.9683
 2848SOL    HW220178   3.629   1.139   2.363  0.9134 -1.1419 -0.4222
 2849SOL     OW20179   3.976   1.027   0.317  0.1465  0.4687 -0.4258
 2849SOL    HW120180   4.053   0.970   0.316 -0.5069 -0.3812 -1.7508
 2849SOL    HW220181   3.982   1.048   0.410  1.0798  0.9435 -0.5890
 2850SOL     OW20182   0.997   2.870   5.667  0.2058 -0.4471  0.4472
 2850SOL    HW120183   1.054   2.820   5.609  0.0108 -0.9992  0.7232
 2850SOL    HW220184   0.921   2.872   5.609  1.4687  0.3584 -1.1570
 2851SOL     OW20185   2.589   4.461  16.520  0.6507 -0.2370  0.0328
 2851SOL    HW120186   2.539   4.542  16.527 -1.5489 -1.6428  0.5384
 2851SOL    HW220187   2.649   4.474  16.446 -0.6078 -0.9401 -1.1051
 2852SOL     OW20188   1.629   3.875   7.015  0.1188  0.1883  0.0535
 2852SOL    HW120189   1.544   3.830   7.024  0.4194 -0.2663  0.6308
 2852SOL    HW220190   1.683   3.816   6.963 -1.6109 -0.1831 -1.3226
 2853SOL     OW20191   0.927   0.040   7.353 -0.1763 -0.1159  0.1959
 2853SOL    HW120192   1.022   0.040   7.343 -0.1450 -0.5260  0.4863
 2853SOL    HW220193   0.930   0.074   7.443  1.0657 -1.9636  0.8508
 2854SOL     OW20194   1.017   2.902   4.557  0.3149  0.3766  0.1383
 2854SOL    HW120195   0.977   2.986   4.536  1.1843  1.1000  1.4000
 2854SOL    HW220196   0.941   2.848   4.535  0.3726 -0.1784  1.3042
 2855SOL     OW20197   1.021   1.488  11.481 -0.2637 -0.3323 -0.3787
 2855SOL    HW120198   0.996   1.542  11.406 -3.0836 -1.4392 -0.2408
 2855SOL    HW220199   0.936   1.488  11.524 -0.2184 -1.3406 -0.2959
 2856SOL     OW20200   1.197   3.149  12.383  0.1067  0.6048  0.4445
 2856SOL    HW120201   1.235   3.237  12.381 -0.1223  0.6531 -1.4350
 2856SOL    HW220202   1.266   3.084  12.393  1.8888  2.5455  0.8884
 2857SOL     OW20203   2.400   0.464   8.814 -0.9474 -0.4953  0.3177
 2857SOL    HW120204   2.398   0.507   8.728  2.1462  0.9504  0.9611
 2857SOL    HW220205   2.490   0.487   8.835 -0.5846 -1.0220 -0.6609
 2858SOL     OW20206   2.920   0.595   1.980  0.0003  0.5374 -0.1229
 2858SOL    HW120207   2.940   0.683   2.012  0.0046  0.6657 -0.4816
 2858SOL    HW220208   2.900   0.558   2.066 -0.2662 -2.2702 -1.3935
 2859SOL     OW20209   3.533   1.387   3.660 -0.3305  0.4248  0.5532
 2859SOL    HW120210   3.580   1.470   3.665 -0.3299  0.3385  1.8666
 2859SOL    HW220211   3.520   1.401   3.566 -1.8075  1.4433  0.9214
 2860SOL     OW20212   2.141   1.792   6.004  0.2033 -0.0026 -0.6734
 2860SOL    HW120213   2.136   1.844   5.924  2.0677 -0.4426 -1.0645
 2860SOL    HW220214   2.233   1.768   5.992  0.2090 -0.8826  1.0537
 2861SOL     OW20215   1.746   1.584   7.603 -0.1543  0.0977 -0.1650
 2861SOL    HW120216   1.751   1.649   7.672 -2.1426  1.0722 -0.9409
 2861SOL    HW220217   1.656   1.600   7.574 -0.4141 -2.1433 -0.5860
 2862SOL     OW20218   0.623   4.011   4.430  0.5374  0.5121  0.1559
 2862SOL    HW120219   0.607   4.100   4.399  0.3616  0.0958 -0.9257
 2862SOL    HW220220   0.530   3.992   4.439  0.3817  0.6813 -1.1492
 2863SOL     OW20221   0.715   3.309   5.375  0.0086 -0.8790 -0.4048
 2863SOL    HW120222   0.680   3.268   5.454  1.5036 -0.4687  0.4455
 2863SOL    HW220223   0.685   3.400   5.374 -1.6034 -1.4104 -1.5572
 2864SOL     OW20224   4.040   3.555   9.756  0.3345  0.6646 -0.5958
 2864SOL    HW120225   4.077   3.612   9.688 -1.8432  1.7697 -0.8449
 2864SOL    HW220226   4.073   3.469   9.732 -1.0941 -0.3854  1.2814
 2865SOL     OW20227   4.556   4.393   0.870 -0.2657 -0.5405 -0.4734
 2865SOL    HW120228   4.588   4.303   0.863 -1.0660 -0.8261 -0.3860
 2865SOL    HW220229   4.477   4.387   0.924  0.7516  3.1077  1.4453
 2866SOL     OW20230   2.515   2.612   7.494 -0.4396  0.8637  0.0528
 2866SOL    HW120231   2.552   2.663   7.423 -0.2757  0.4915 -0.1331
 2866SOL    HW220232   2.425   2.644   7.500 -0.6836  0.0558  0.8653
 2867SOL     OW20233   0.457   2.151   3.958  0.2938 -0.4089 -0.4977
 2867SOL    HW120234   0.505   2.069   3.955  0.8616 -0.0549 -1.1918
 2867SOL    HW220235   0.529   2.214   3.953  1.4535 -1.5156  2.7211
 2868SOL     OW20236   0.126   2.288  17.562  0.1367  0.4101  0.3341
 2868SOL    HW120237   0.175   2.356  17.516  0.6418 -1.5968 -2.0842
 2868SOL    HW220238   0.169   2.213  17.521 -1.4165  2.0783 -4.2893
 2869SOL     OW20239   3.554   1.569   8.446  0.4165  0.3864 -0.6346
 2869SOL    HW120240   3.478   1.592   8.392  1.0623  1.5697 -1.0556
 2869SOL    HW220241   3.518   1.558   8.534 -1.3710 -0.2993 -1.4330
 2870SOL     OW20242   3.916   2.626   9.652 -0.5174  0.1113  0.1461
 2870SOL    HW120243   3.954   2.550   9.695 -1.5512  0.6059  1.9031
 2870SOL    HW220244   3.926   2.682   9.729 -0.4562 -0.2852  0.4229
 2871SOL     OW20245   4.400   1.083   3.713 -0.1104 -0.6748  0.5908
 2871SOL    HW120246   4.434   0.996   3.689  0.4589 -0.6281  1.2067
 2871SOL    HW220247   4.310   1.064   3.738 -0.0500 -0.6649  0.8183
 2872SOL     OW20248   3.727   0.451   7.123 -0.0473  0.7803 -0.0225
 2872SOL    HW120249   3.702   0.360   7.141 -0.0291  0.6680 -0.5603
 2872SOL    HW220250   3.664   0.463   7.051 -0.5068  1.7326  0.5396
 2873SOL     OW20251   0.928   4.724   2.749 -0.5108 -0.0745 -0.2174
 2873SOL    HW120252   0.957   0.080   2.762  0.6845 -0.3637 -0.9498
 2873SOL    HW220253   0.962   4.687   2.830 -3.1779 -1.0006  0.4983
 2874SOL     OW20254   1.898   2.032   4.610  0.0108  0.3073  0.3677
 2874SOL    HW120255   1.957   2.095   4.651  1.4558  0.8321 -2.4574
 2874SOL    HW220256   1.947   2.001   4.534 -1.0092  0.2291 -0.2665
 2875SOL     OW20257   0.282   0.801  15.979  0.6908 -0.4947 -0.7243
 2875SOL    HW120258   0.311   0.876  16.030  0.3812 -0.3305 -0.7917
 2875SOL    HW220259   0.262   0.740  16.050 -0.4964 -1.6208 -2.0205
 2876SOL     OW20260   4.382   0.235  14.257  0.3860 -0.4781 -0.1162
 2876SOL    HW120261   4.444   0.303  14.232 -0.3105  0.6823  1.3480
 2876SOL    HW220262   4.385   0.175  14.182 -0.4284 -0.6167 -0.0361
 2877SOL     OW20263   0.585   3.837   3.345 -0.2181 -0.0079  0.1693
 2877SOL    HW120264   0.523   3.798   3.283  0.1552 -0.2084 -0.0780
 2877SOL    HW220265   0.663   3.786   3.325  0.0870 -0.2291  1.9606
 2878SOL     OW20266   4.167   2.892  11.986  0.1437 -0.6026 -0.3284
 2878SOL    HW120267   4.158   2.806  11.945  1.2562 -1.2553  0.7998
 2878SOL    HW220268   4.172   2.873  12.080 -0.8723 -0.7533 -0.3093
 2879SOL     OW20269   4.407   2.042  15.787  0.3919  1.0300  0.0347
 2879SOL    HW120270   4.441   2.001  15.866  0.5912 -0.2356 -0.6978
 2879SOL    HW220271   4.436   2.132  15.798 -0.3604  1.2549  0.1672
 2880SOL     OW20272   2.535   2.260   5.590 -0.4526  0.2464 -0.2798
 2880SOL    HW120273   2.539   2.323   5.662 -0.9040  0.6476 -0.6044
 2880SOL    HW220274   2.613   2.292   5.546 -1.1878  1.1742 -0.9063
 2881SOL     OW20275   0.133   3.290   1.624  0.1533 -0.0586 -0.2967
 2881SOL    HW120276   0.119   3.211   1.571 -0.0928 -1.0503  1.2531
 2881SOL    HW220277   0.084   3.357   1.576  0.7558 -0.0525 -0.8965
 2882SOL     OW20278   0.255   2.377   3.867 -0.0364  0.1877 -0.5967
 2882SOL    HW120279   0.279   2.286   3.848 -1.8189 -0.3049 -0.5082
 2882SOL    HW220280   0.229   2.423   3.787 -1.7510  0.2067 -0.0161
 2883SOL     OW20281   3.979   0.075   8.684 -0.0448 -0.1725 -0.5217
 2883SOL    HW120282   3.961   0.157   8.729  2.1461 -1.5453  2.8831
 2883SOL    HW220283   3.957   0.094   8.593 -3.9281 -0.0807  0.4453
 2884SOL     OW20284   3.145   1.205   8.129  0.0231 -0.2766  0.7088
 2884SOL    HW120285   3.204   1.277   8.107 -0.5262 -0.0522 -0.0393
 2884SOL    HW220286   3.166   1.194   8.222 -2.3863 -0.2747  1.2684
 2885SOL     OW20287   2.270   3.158   0.865 -0.3816 -0.1603  0.0564
 2885SOL    HW120288   2.209   3.222   0.827  0.8964  0.8385 -0.3296
 2885SOL    HW220289   2.345   3.171   0.807 -0.3270  1.4850  0.5096
 2886SOL     OW20290   1.370   3.793   7.000 -0.3060 -0.7338  0.7538
 2886SOL    HW120291   1.323   3.780   7.083  0.6013 -0.3025  1.3338
 2886SOL    HW220292   1.299   3.834   6.952  1.0342  1.2676  0.4741
 2887SOL     OW20293   1.433   1.559  12.887 -0.1992  0.0009 -0.4812
 2887SOL    HW120294   1.367   1.612  12.932  0.3293 -1.2840  1.8055
 2887SOL    HW220295   1.399   1.473  12.911  0.1175 -0.2742 -1.0176
 2888SOL     OW20296   4.448   1.162   6.943  0.0948 -0.0426 -0.1934
 2888SOL    HW120297   4.428   1.071   6.926  0.0095  0.0507 -0.5822
 2888SOL    HW220298   4.439   1.172   7.038 -0.6685  2.3392 -0.5146
 2889SOL     OW20299   1.197   0.948   6.730 -0.4880  0.2353  0.1956
 2889SOL    HW120300   1.148   0.890   6.673 -0.4828  1.0251 -0.6160
 2889SOL    HW220301   1.142   0.937   6.808 -0.1882 -1.9740  0.0814
 2890SOL     OW20302   0.035   3.286   6.149 -0.3310  0.1210  0.2193
 2890SOL    HW120303   0.027   3.250   6.238 -2.7976  0.5876  0.1859
 2890SOL    HW220304   0.129   3.282   6.132 -0.0772  1.3243  1.2973
 2891SOL     OW20305   1.806   2.382  16.061 -0.0501  0.0957  0.1591
 2891SOL    HW120306   1.830   2.364  16.152  1.6375  0.5245 -0.2039
 2891SOL    HW220307   1.816   2.476  16.048 -0.5070  0.1488  0.1944
 2892SOL     OW20308   4.029   3.394  17.155 -0.2441 -0.1543 -0.0239
 2892SOL    HW120309   3.960   3.403  17.220 -1.0550 -0.8195 -0.7827
 2892SOL    HW220310   4.073   3.479  17.158 -0.4293 -0.1088  1.3058
 2893SOL     OW20311   2.230   3.320  16.698  0.7294 -0.3304 -0.3525
 2893SOL    HW120312   2.233   3.404  16.653 -1.1067  0.5245  1.1356
 2893SOL    HW220313   2.253   3.261  16.626  0.7333 -0.3278 -0.3535
 2894SOL     OW20314   0.622   2.403  10.402 -0.1807 -0.5742 -0.1063
 2894SOL    HW120315   0.712   2.437  10.409  0.3283 -2.0183  0.1961
 2894SOL    HW220316   0.641   2.312  10.383  1.2539  0.3265 -3.0070
 2895SOL     OW20317   0.927   4.477   7.334 -0.5671 -0.5687 -0.1781
 2895SOL    HW120318   0.940   4.569   7.358  0.4967 -0.5376 -0.8559
 2895SOL    HW220319   0.920   4.492   7.239 -3.6048  0.9396  0.2841
 2896SOL     OW20320   1.702   0.097   2.484  0.7019 -0.4480  0.3838
 2896SOL    HW120321   1.640   0.122   2.416  1.7549 -0.3620 -0.5226
 2896SOL    HW220322   1.691   0.165   2.550 -0.7504  0.0405 -0.3559
 2897SOL     OW20323   1.609   3.150   2.271  0.5865  0.2922 -0.2494
 2897SOL    HW120324   1.651   3.122   2.190  0.5996 -0.9497  0.1976
 2897SOL    HW220325   1.575   3.239   2.259  2.0735  1.2240  2.5512
 2898SOL     OW20326   3.366   4.607   0.693 -0.1858  0.1084 -0.2909
 2898SOL    HW120327   3.390   4.633   0.782  0.8261 -2.2730  0.1464
 2898SOL    HW220328   3.444   4.640   0.648  0.1868  0.0346  0.2927
 2899SOL     OW20329   4.193   2.786  12.895  0.5455 -0.1348  0.0607
 2899SOL    HW120330   4.169   2.709  12.844  1.5635  0.1668 -0.8759
 2899SOL    HW220331   4.260   2.744  12.948 -1.0377 -1.7124  0.7905
 2900SOL     OW20332   1.577   0.301   5.550  0.1599 -0.0478  0.0699
 2900SOL    HW120333   1.524   0.284   5.473  0.3415  0.6036 -0.1967
 2900SOL    HW220334   1.650   0.350   5.512 -0.4798  0.1059 -0.9605
 2901SOL     OW20335   4.611   3.382   0.979  0.1530 -0.0393  0.1141
 2901SOL    HW120336   4.622   3.334   1.061  1.3830 -0.5337 -0.3529
 2901SOL    HW220337   4.627   3.475   0.996 -0.9356  0.1174  0.2986
 2902SOL     OW20338   1.834   1.908   3.175 -0.3968 -0.2119  0.8001
 2902SOL    HW120339   1.849   1.827   3.126 -0.3258 -0.4554  1.2235
 2902SOL    HW220340   1.910   1.911   3.233 -0.0892  3.1048  0.2168
 2903SOL     OW20341   1.059   3.257   6.337  0.0426  0.5861 -0.7744
 2903SOL    HW120342   1.077   3.330   6.396 -2.7341  1.4410 -0.9739
 2903SOL    HW220343   1.132   3.199   6.356 -0.4345  0.4025  0.4684
 2904SOL     OW20344   0.885   0.141   2.427 -0.1883 -0.2248  0.3028
 2904SOL    HW120345   0.949   0.086   2.382 -1.2543 -1.5478  0.4402
 2904SOL    HW220346   0.923   0.157   2.514 -0.1331  3.0064 -0.2924
 2905SOL     OW20347   3.887   2.604  14.030 -0.0282 -0.3076  0.2009
 2905SOL    HW120348   3.957   2.653  13.989  1.2179 -0.8051  1.7509
 2905SOL    HW220349   3.822   2.634  13.966  0.3974 -1.6599 -0.8690
 2906SOL     OW20350   4.314   3.842  16.106 -0.2986  0.3646 -0.3363
 2906SOL    HW120351   4.377   3.863  16.176 -2.0415  0.8729  1.0820
 2906SOL    HW220352   4.340   3.757  16.070  0.6642 -0.0055  1.2088
 2907SOL     OW20353   1.071   2.382   8.901 -0.5303 -0.3619 -0.1485
 2907SOL    HW120354   0.995   2.384   8.843 -0.8796 -1.2282  0.2811
 2907SOL    HW220355   1.030   2.349   8.981 -1.7163 -0.9227 -0.9838
 2908SOL     OW20356   3.324   4.218   3.495 -0.3673  0.2909  0.0569
 2908SOL    HW120357   3.265   4.286   3.527 -0.2147  0.7304 -0.5938
 2908SOL    HW220358   3.378   4.200   3.572  1.7600  0.1081 -1.4446
 2909SOL     OW20359   2.506   2.648   2.213  0.1016  0.2945  0.0984
 2909SOL    HW120360   2.565   2.633   2.139  1.5851  0.7103  1.1865
 2909SOL    HW220361   2.427   2.598   2.192 -0.1676  1.5457 -1.8571
 2910SOL     OW20362   1.013   2.141   1.522  0.4139 -0.4806  0.2603
 2910SOL    HW120363   1.091   2.197   1.528 -0.6595  0.6846  3.4174
 2910SOL    HW220364   0.987   2.129   1.613  2.4043  1.7709  1.1099
 2911SOL     OW20365   2.085   1.404  10.903  0.3217 -0.6629  0.3278
 2911SOL    HW120366   2.057   1.457  10.977  0.0591  0.1026 -0.3196
 2911SOL    HW220367   2.037   1.323  10.917 -3.0014  1.2303 -0.2609
 2912SOL     OW20368   0.632   0.931  11.770  0.7074 -0.0678  0.3705
 2912SOL    HW120369   0.727   0.926  11.772  0.6925 -0.6497 -0.3239
 2912SOL    HW220370   0.607   0.931  11.862 -1.1533  1.5250 -0.1211
 2913SOL     OW20371   1.659   1.296   8.930 -0.5361 -0.0179  0.0865
 2913SOL    HW120372   1.575   1.341   8.938  0.1791  1.1037  1.3004
 2913SOL    HW220373   1.644   1.203   8.913  0.6925 -0.5341  1.7585
 2914SOL     OW20374   1.752   2.417   4.468  0.6569  0.0224  0.6400
 2914SOL    HW120375   1.805   2.495   4.486 -1.4665  2.1721 -2.3971
 2914SOL    HW220376   1.738   2.380   4.555 -0.1000 -2.8609 -0.7055
 2915SOL     OW20377   2.865   4.518   8.389  0.1853  0.4295 -0.1018
 2915SOL    HW120378   2.817   4.448   8.345 -0.5007  0.6607  0.2833
 2915SOL    HW220379   2.828   4.521   8.478 -2.4149  0.2301 -1.1812
 2916SOL     OW20380   1.172   2.290   7.853 -0.5783 -0.0208 -0.2971
 2916SOL    HW120381   1.105   2.340   7.806 -0.3755  1.1878  0.7031
 2916SOL    HW220382   1.114   2.229   7.899  0.9140 -1.6575 -0.5936
 2917SOL     OW20383   4.600   3.701   8.319  0.5039  0.2965 -0.1861
 2917SOL    HW120384   4.523   3.658   8.357  0.1276  2.8911  1.9606
 2917SOL    HW220385   4.559   3.724   8.236 -0.0544  0.8973  0.2573
 2918SOL     OW20386   2.571   2.248  14.040  0.0553 -0.2866  0.2433
 2918SOL    HW120387   2.610   2.273  13.956  0.1801  0.6507  0.5793
 2918SOL    HW220388   2.623   2.176  14.077 -0.1784 -0.4049  0.3456
 2919SOL     OW20389   0.065   2.580   2.730  0.3770 -0.1765  0.2183
 2919SOL    HW120390   0.061   2.542   2.642  3.4016  1.4343 -0.6360
 2919SOL    HW220391   0.155   2.552   2.747  0.1416 -1.9762 -1.5552
 2920SOL     OW20392   3.087   2.606  13.678 -0.2200  0.1691  0.1580
 2920SOL    HW120393   3.003   2.564  13.660 -0.6032  0.8514  0.3649
 2920SOL    HW220394   3.144   2.529  13.678  0.7006  0.8514  0.1699
 2921SOL     OW20395   2.447   4.344   9.757  0.4791  0.2478 -0.0452
 2921SOL    HW120396   2.353   4.340   9.775  0.3809  1.1558 -0.3608
 2921SOL    HW220397   2.480   4.353   9.846  0.5637 -0.7567  0.0271
 2922SOL     OW20398   2.864   4.309   8.879  0.1618  0.1455 -0.5578
 2922SOL    HW120399   2.899   4.377   8.821  4.2116 -0.0274  1.7448
 2922SOL    HW220400   2.912   4.230   8.854 -0.0883 -0.9234  2.3820
 2923SOL     OW20401   2.354   1.561   5.618 -0.3233 -0.5463  0.1790
 2923SOL    HW120402   2.330   1.472   5.642  0.2355 -0.1980  1.9776
 2923SOL    HW220403   2.440   1.548   5.577  0.5716  4.5904  0.4537
 2924SOL     OW20404   2.176   0.053  16.520  0.3572 -0.0980 -0.7823
 2924SOL    HW120405   2.188   0.094  16.435  1.7130  0.3916 -0.3495
 2924SOL    HW220406   2.202   4.697  16.505 -0.5942 -0.2846 -1.3211
 2925SOL     OW20407   1.335   2.428   7.998  0.1549  0.2621 -0.2519
 2925SOL    HW120408   1.282   2.364   7.951  1.3705 -0.1820 -1.0163
 2925SOL    HW220409   1.360   2.373   8.072 -2.0355 -0.7956 -0.3125
 2926SOL     OW20410   3.034   4.260   5.480 -0.0490  0.3250 -0.0770
 2926SOL    HW120411   2.956   4.313   5.466 -0.7078 -0.7579 -0.4907
 2926SOL    HW220412   3.006   4.175   5.446  0.5709  0.4682 -0.9411
 2927SOL     OW20413   1.791   0.048  12.085  0.1349  0.1822 -0.6914
 2927SOL    HW120414   1.883   0.065  12.064 -1.0399  3.4354 -3.2636
 2927SOL    HW220415   1.801   0.060  12.179 -1.4198  0.1270 -0.5145
 2928SOL     OW20416   3.656   0.737   8.908  0.3045  0.2686 -0.2519
 2928SOL    HW120417   3.634   0.688   8.987  0.6879 -0.7267 -0.7648
 2928SOL    HW220418   3.577   0.790   8.908  1.0184  1.3253 -2.2455
 2929SOL     OW20419   3.199   3.277   7.676  0.4064  0.1880  0.7583
 2929SOL    HW120420   3.150   3.358   7.683  0.6018  0.4433 -0.7790
 2929SOL    HW220421   3.198   3.249   7.585  0.0760 -2.3163  1.5317
 2930SOL     OW20422   2.538   4.729   4.043  0.3015  0.1839 -0.1383
 2930SOL    HW120423   2.614   0.027   3.996 -0.0958  0.6195 -0.4696
 2930SOL    HW220424   2.571   0.007   4.132  0.3619  1.4340 -0.3464
 2931SOL     OW20425   4.545   1.730  17.352 -0.3164 -0.4131 -0.2344
 2931SOL    HW120426   4.510   1.716  17.440  0.9473  1.4864  0.5549
 2931SOL    HW220427   4.637   1.757  17.356 -0.3972 -0.2953  0.7947
 2932SOL     OW20428   0.259   2.115   0.042  0.1196 -0.1362 -0.3796
 2932SOL    HW120429   0.336   2.135  17.725 -0.8307  1.4165 -1.1449
 2932SOL    HW220430   0.204   2.188   0.013  0.3893  0.5610  0.8546
 2933SOL     OW20431   1.271   3.210   2.475  0.4235  1.1566  0.0136
 2933SOL    HW120432   1.193   3.258   2.502  0.3748 -0.5378  2.8062
 2933SOL    HW220433   1.272   3.227   2.380  2.0973  2.8301  0.3512
 2934SOL     OW20434   0.769   3.664   0.827 -0.0426  0.1020  0.2974
 2934SOL    HW120435   0.759   3.759   0.828 -0.7196  0.0374 -0.9812
 2934SOL    HW220436   0.745   3.650   0.919  0.2985 -0.4464  0.3027
 2935SOL     OW20437   2.782   3.079   6.175  0.1118  0.0799 -0.5453
 2935SOL    HW120438   2.697   3.041   6.198  0.2022  0.0556 -0.2414
 2935SOL    HW220439   2.758   3.170   6.193 -1.4109 -0.3183 -0.5163
 2936SOL     OW20440   0.205   1.487   3.232 -0.2659  0.1984  0.3992
 2936SOL    HW120441   0.242   1.439   3.305  0.6887 -1.4144 -1.1399
 2936SOL    HW220442   0.243   1.574   3.238 -1.1385  0.6464 -0.5239
 2937SOL     OW20443   0.585   3.766   5.242  0.0079 -0.0438  0.0252
 2937SOL    HW120444   0.581   3.773   5.146 -2.3268  2.0436  0.2901
 2937SOL    HW220445   0.680   3.760   5.246 -0.1540  1.7444  5.3364
 2938SOL     OW20446   4.070   4.111  16.239  0.4527 -0.0884  0.2217
 2938SOL    HW120447   4.084   4.161  16.319  0.3959  2.3007 -1.2527
 2938SOL    HW220448   3.983   4.073  16.253  0.0641  1.1141  1.0666
 2939SOL     OW20449   3.095   4.609   0.341  0.2163 -0.2889  0.5886
 2939SOL    HW120450   3.076   4.534   0.285 -2.7141  2.2946 -1.8401
 2939SOL    HW220451   3.159   4.659   0.291 -2.4874  1.9282 -0.6512
 2940SOL     OW20452   3.928   1.846   2.494 -0.1014  0.3730  0.2434
 2940SOL    HW120453   3.842   1.879   2.470 -0.2132 -0.3390 -0.3410
 2940SOL    HW220454   3.979   1.903   2.437 -0.8661 -0.0869 -0.9003
 2941SOL     OW20455   0.598   2.644   3.257 -0.0899 -0.2457 -0.7340
 2941SOL    HW120456   0.537   2.717   3.253  2.1128  1.7414  1.7415
 2941SOL    HW220457   0.584   2.601   3.172 -0.6303  1.3799 -1.4611
 2942SOL     OW20458   0.793   0.960  14.674 -0.2015 -0.2608 -0.2739
 2942SOL    HW120459   0.746   0.977  14.592  1.8091  0.5585 -1.2385
 2942SOL    HW220460   0.802   0.865  14.677  1.2602 -0.1214 -0.5946
 2943SOL     OW20461   1.068   0.788   4.608 -0.4262  0.3168 -0.2953
 2943SOL    HW120462   0.974   0.805   4.602 -1.2102 -3.1619  2.3360
 2943SOL    HW220463   1.081   0.733   4.685  0.3775  2.1127  0.8435
 2944SOL     OW20464   4.196   1.914   5.793  1.1940 -0.5498  0.3385
 2944SOL    HW120465   4.246   1.905   5.874  3.1296  0.7468 -0.6981
 2944SOL    HW220466   4.134   1.842   5.802  0.1321  0.4415  0.9077
 2945SOL     OW20467   1.884   4.371   7.865  0.3496 -0.3545 -1.0164
 2945SOL    HW120468   1.897   4.453   7.817  1.5198  0.4650  0.6649
 2945SOL    HW220469   1.885   4.413   7.951 -0.5387  0.4015 -1.3732
 2946SOL     OW20470   2.650   3.642   1.707 -0.2101 -0.0680  0.3827
 2946SOL    HW120471   2.732   3.605   1.674 -0.3466 -0.6195  0.6743
 2946SOL    HW220472   2.677   3.697   1.781  0.3380 -1.6505  1.3451
 2947SOL     OW20473   2.232   2.165   6.273  0.1642 -0.4165 -0.0475
 2947SOL    HW120474   2.233   2.181   6.179 -0.5993  1.2434  0.2226
 2947SOL    HW220475   2.206   2.075   6.256  0.5449 -0.5505  0.0815
 2948SOL     OW20476   4.330   3.851   2.215 -0.6078  0.1220  0.6221
 2948SOL    HW120477   4.403   3.807   2.260 -0.8484 -0.3322  0.5631
 2948SOL    HW220478   4.356   3.859   2.123 -2.0921 -2.0444  0.0177
 2949SOL     OW20479   3.400   3.998   9.147  0.2586  0.0860  0.3266
 2949SOL    HW120480   3.496   3.997   9.147  0.2338 -2.5085  0.5560
 2949SOL    HW220481   3.393   3.988   9.242  1.0167 -0.3433  0.3417
 2950SOL     OW20482   2.173   0.108   3.588  0.0855 -0.0262  0.0698
 2950SOL    HW120483   2.191   0.202   3.591  0.7315 -0.1825  0.9591
 2950SOL    HW220484   2.080   0.098   3.569  0.3983 -1.6286 -0.6970
 2951SOL     OW20485   1.445   3.437   3.310 -0.2402  0.2072 -0.4700
 2951SOL    HW120486   1.491   3.447   3.226  0.3566  2.4430  0.1208
 2951SOL    HW220487   1.361   3.479   3.290 -0.7993 -0.6229  0.1347
 2952SOL     OW20488   3.929   2.999  12.487  0.4912  0.0054 -0.3763
 2952SOL    HW120489   4.006   2.967  12.534  0.4917  0.1099 -0.3060
 2952SOL    HW220490   3.850   2.964  12.529 -0.0281  1.1022 -0.4268
 2953SOL     OW20491   0.067   2.343   5.742  0.4311 -0.5865 -0.1208
 2953SOL    HW120492   0.029   2.265   5.784  0.0263 -0.9117 -1.0803
 2953SOL    HW220493   0.157   2.312   5.745  0.2034 -0.9210  2.6624
 2954SOL     OW20494   2.834   2.966  16.858  0.3540 -0.2840  0.0853
 2954SOL    HW120495   2.853   3.049  16.902 -3.8555  0.2283  0.9411
 2954SOL    HW220496   2.738   2.962  16.853  0.3154  2.2149 -1.2267
 2955SOL     OW20497   0.942   2.945   5.390 -0.1701 -0.6149 -0.3329
 2955SOL    HW120498   0.946   2.958   5.295 -0.7370  0.3117 -0.2285
 2955SOL    HW220499   0.849   2.940   5.409 -0.6483  3.4849 -1.5798
 2956SOL     OW20500   1.106   4.246  14.762 -0.0921 -0.4982  0.7058
 2956SOL    HW120501   1.123   4.329  14.806  2.6310 -0.7881  0.1902
 2956SOL    HW220502   1.038   4.274  14.700  0.3755 -0.0341  0.4040
 2957SOL     OW20503   2.474   4.293   4.024  0.5630 -0.2275 -0.6619
 2957SOL    HW120504   2.423   4.340   4.090  0.2764 -2.0760  0.4169
 2957SOL    HW220505   2.487   4.367   3.964 -0.7139  1.5591  1.2463
 2958SOL     OW20506   0.799   1.535   5.329 -0.1136 -0.0368 -0.3093
 2958SOL    HW120507   0.760   1.451   5.350 -3.4672  2.1136  2.1657
 2958SOL    HW220508   0.893   1.518   5.334  0.1225  0.5071 -2.9998
 2959SOL     OW20509   0.975   3.359   6.722  0.5405  1.0522  0.3595
 2959SOL    HW120510   0.884   3.375   6.697  0.7587  0.7438 -0.6608
 2959SOL    HW220511   1.022   3.387   6.643  1.3842 -1.6070 -0.0847
 2960SOL     OW20512   3.613   4.072  16.204 -0.3612  0.1249  0.2548
 2960SOL    HW120513   3.667   4.019  16.146  0.9115 -0.2093  1.7502
 2960SOL    HW220514   3.658   4.075  16.288 -0.9702  0.5111  0.5660
 2961SOL     OW20515   1.052   0.872  12.876  0.2811  0.4863 -0.2434
 2961SOL    HW120516   0.971   0.823  12.892 -0.5621  1.0180 -2.8363
 2961SOL    HW220517   1.076   0.875  12.969 -0.3204 -2.0846  0.0089
 2962SOL     OW20518   2.484   4.400   5.307 -0.0898 -0.4721 -1.0816
 2962SOL    HW120519   2.459   4.456   5.381  2.1384 -0.8464 -0.0448
 2962SOL    HW220520   2.498   4.460   5.234 -1.4055  1.0298 -0.1162
 2963SOL     OW20521   4.170   2.364   9.312  0.5628 -0.0605 -0.3042
 2963SOL    HW120522   4.220   2.293   9.271  2.0338  1.2835 -0.8676
 2963SOL    HW220523   4.219   2.376   9.393  0.9748  2.0017 -0.8414
 2964SOL     OW20524   1.079   1.169   0.614  0.1030 -0.6941  0.3107
 2964SOL    HW120525   1.164   1.140   0.647  1.4996  2.0176 -0.9146
 2964SOL    HW220526   1.051   1.100   0.554  0.5750 -1.8518  1.4248
 2965SOL     OW20527   1.162   0.950   0.273  0.0727  0.1918 -0.6845
 2965SOL    HW120528   1.237   1.001   0.301 -0.3289  1.9025 -2.7180
 2965SOL    HW220529   1.098   0.988   0.334  1.3287  0.3010  0.5484
 2966SOL     OW20530   1.427   2.243  12.921 -0.1749 -0.0950  0.2619
 2966SOL    HW120531   1.351   2.236  12.979  1.6697 -0.4885  2.6160
 2966SOL    HW220532   1.502   2.199  12.961  0.1666 -2.2740 -2.8091
 2967SOL     OW20533   3.201   0.528   9.373 -0.7070 -0.2791 -0.2444
 2967SOL    HW120534   3.147   0.507   9.297 -0.1439  2.2975 -1.3727
 2967SOL    HW220535   3.137   0.551   9.440 -0.4721  1.8556 -0.7622
 2968SOL     OW20536   4.144   0.825  12.401 -0.1933 -0.0734  0.3586
 2968SOL    HW120537   4.184   0.903  12.439 -0.6324  0.1472  0.3721
 2968SOL    HW220538   4.078   0.816  12.470  1.0779  1.3757  1.7958
 2969SOL     OW20539   0.775   3.089   7.199 -0.5050  0.1270  0.0234
 2969SOL    HW120540   0.806   3.173   7.167  0.3428 -1.2944 -2.8495
 2969SOL    HW220541   0.758   3.050   7.113 -1.4596 -0.0318  0.2794
 2970SOL     OW20542   2.155   0.209   6.498 -0.7026 -0.0911  1.2721
 2970SOL    HW120543   2.207   0.187   6.575  2.1908 -1.8208 -1.1855
 2970SOL    HW220544   2.211   0.277   6.459 -0.9829 -0.5762  0.0220
 2971SOL     OW20545   0.783   3.751   8.475  0.3037 -0.1742 -0.1407
 2971SOL    HW120546   0.807   3.667   8.436 -0.5800 -0.0948 -0.8615
 2971SOL    HW220547   0.840   3.806   8.422 -0.2282  0.6563  0.1476
 2972SOL     OW20548   2.821   3.442   2.494  0.0100  0.0946  0.2762
 2972SOL    HW120549   2.761   3.376   2.459 -0.9073  0.2981  1.4596
 2972SOL    HW220550   2.845   3.408   2.580  0.8352  0.9291  0.3739
 2973SOL     OW20551   2.738   3.924   4.221  0.6596  0.2650 -0.3962
 2973SOL    HW120552   2.728   4.019   4.215  0.0024  0.0177 -3.2634
 2973SOL    HW220553   2.692   3.901   4.141  1.0526  1.9455 -1.1212
 2974SOL     OW20554   2.339   3.917   7.750  0.0766  0.1738  0.1472
 2974SOL    HW120555   2.255   3.876   7.770 -0.8569  0.8150 -2.4831
 2974SOL    HW220556   2.334   3.980   7.822 -0.2177 -1.5089  1.6153
 2975SOL     OW20557   1.315   2.342  14.427  0.1046  0.4727 -0.6155
 2975SOL    HW120558   1.238   2.393  14.403  0.8764  0.4640 -3.0557
 2975SOL    HW220559   1.275   2.262  14.393  0.2443  0.1999 -0.1524
 2976SOL     OW20560   1.482   3.258   6.891 -0.2416  0.2198 -0.4161
 2976SOL    HW120561   1.417   3.328   6.886 -0.1001  0.4121  0.4407
 2976SOL    HW220562   1.556   3.299   6.938  0.6197 -0.7613 -0.9188
 2977SOL     OW20563   4.549   1.636  13.819 -1.1302  0.1747 -0.3070
 2977SOL    HW120564   4.535   1.729  13.837  0.2818  0.5012 -0.9684
 2977SOL    HW220565   4.585   1.650  13.732  1.7171 -2.7416  0.4172
 2978SOL     OW20566   2.334   1.494  14.848  0.0340 -0.3915 -0.7072
 2978SOL    HW120567   2.405   1.446  14.891 -2.0249 -1.9113  1.0140
 2978SOL    HW220568   2.308   1.438  14.775  0.1120  0.3957 -1.3449
 2979SOL     OW20569   4.425   0.380   1.460  0.0590  0.7049  0.1296
 2979SOL    HW120570   4.410   0.302   1.407  0.9932 -1.5202  3.1517
 2979SOL    HW220571   4.339   0.423   1.461 -0.2803  0.0015  0.8881
 2980SOL     OW20572   4.312   0.035   9.750 -0.8703  0.1724  0.8433
 2980SOL    HW120573   4.356   4.711   9.687  0.2184  0.4587  1.3434
 2980SOL    HW220574   4.220   0.013   9.731 -0.6617 -1.6885  1.9752
 2981SOL     OW20575   4.578   1.191   2.251 -0.1819 -0.1662 -0.0145
 2981SOL    HW120576   4.507   1.144   2.294  0.4512  0.6817  1.9933
 2981SOL    HW220577   4.531   1.199   2.169  1.7257 -0.8142 -1.1796
 2982SOL     OW20578   4.448   2.632   3.613 -0.8976 -0.6271  0.1379
 2982SOL    HW120579   4.362   2.601   3.642 -0.3886 -2.4281 -0.2976
 2982SOL    HW220580   4.469   2.695   3.681  1.7551 -1.1213 -0.1971
 2983SOL     OW20581   1.205   1.852   3.912 -0.0081 -0.1480 -0.1829
 2983SOL    HW120582   1.246   1.926   3.956 -0.8434 -0.1651  0.6118
 2983SOL    HW220583   1.209   1.788   3.983 -2.3540  0.9878  0.9527
 2984SOL     OW20584   3.213   1.076  13.895  0.0400 -0.4472  0.4740
 2984SOL    HW120585   3.165   1.106  13.972  0.5651 -0.9556  1.0048
 2984SOL    HW220586   3.273   1.012  13.934 -0.3912 -0.2872  1.3863
 2985SOL     OW20587   3.205   4.405   3.074  0.2419 -0.3548 -0.1018
 2985SOL    HW120588   3.267   4.343   3.035  1.2082  0.4643  0.1454
 2985SOL    HW220589   3.147   4.347   3.124 -0.1206  0.8546  0.8864
 2986SOL     OW20590   0.114   2.788   2.456 -0.4340  0.3074  0.0376
 2986SOL    HW120591   0.134   2.703   2.416 -0.3034  0.4361 -0.1716
 2986SOL    HW220592   0.081   2.751   2.538  0.4085 -0.9120 -0.1734
 2987SOL     OW20593   3.550   2.607   7.367 -0.0151  0.3175  0.3485
 2987SOL    HW120594   3.607   2.539   7.330 -1.3342 -0.6320  0.0852
 2987SOL    HW220595   3.569   2.600   7.461  0.8925 -0.0996  0.1430
 2988SOL     OW20596   4.049   2.136   2.461 -0.2125 -0.0765  0.2535
 2988SOL    HW120597   3.980   2.180   2.412  2.8923 -0.4156 -4.4145
 2988SOL    HW220598   4.012   2.125   2.549 -0.4411 -0.4712  0.1071
 2989SOL     OW20599   1.845   2.070   2.025  0.1128  0.5138 -0.1071
 2989SOL    HW120600   1.840   2.020   1.944 -1.2366  2.4188 -1.1892
 2989SOL    HW220601   1.909   2.014   2.069 -3.0833 -0.6104  3.0576
 2990SOL     OW20602   1.411   2.828   8.143 -0.0977  0.3452  0.1390
 2990SOL    HW120603   1.452   2.849   8.059  1.4909 -0.0518  0.8132
 2990SOL    HW220604   1.380   2.914   8.171 -2.9011 -0.8795  0.8783
 2991SOL     OW20605   0.734   3.090  10.927 -0.2329  0.1387 -0.9351
 2991SOL    HW120606   0.701   3.020  10.871  0.7603 -0.5525 -0.6546
 2991SOL    HW220607   0.725   3.164  10.867  1.3268  0.9511 -0.1683
 2992SOL     OW20608   0.842   0.697   4.219  0.2750  0.1001  0.2397
 2992SOL    HW120609   0.805   0.703   4.131 -0.1297  0.4764  0.4378
 2992SOL    HW220610   0.913   0.637   4.197 -1.7156 -1.4175 -2.0953
 2993SOL     OW20611   3.172   1.207   5.962 -0.3225  0.2522 -0.3898
 2993SOL    HW120612   3.145   1.295   5.935  1.4450  0.6230 -0.9674
 2993SOL    HW220613   3.123   1.204   6.044  0.6967  0.4629  0.2174
 2994SOL     OW20614   2.386   1.519  11.215  0.3730  0.1191 -0.6123
 2994SOL    HW120615   2.393   1.473  11.299  0.7197  1.8329  0.2968
 2994SOL    HW220616   2.292   1.510  11.200  0.5962 -0.6848 -1.5405
 2995SOL     OW20617   1.097   0.233   4.390  0.4415 -0.0888 -0.0901
 2995SOL    HW120618   1.161   0.281   4.338 -1.9525  2.2010 -0.9216
 2995SOL    HW220619   1.127   0.142   4.380 -0.5439 -0.3971 -0.3028
 2996SOL     OW20620   1.434   0.698   8.195  0.1132  0.0081  0.2574
 2996SOL    HW120621   1.518   0.725   8.159  0.6950  0.8653  2.2659
 2996SOL    HW220622   1.433   0.608   8.160  2.1239  0.6401 -1.4004
 2997SOL     OW20623   1.268   2.580   7.782  0.4175 -0.3995 -0.2413
 2997SOL    HW120624   1.183   2.536   7.782  0.9581 -1.4448 -0.5649
 2997SOL    HW220625   1.309   2.556   7.865 -3.7682 -2.0741  1.3110
 2998SOL     OW20626   0.802   0.415   3.801 -0.0555  0.3975  0.4269
 2998SOL    HW120627   0.749   0.375   3.870  0.5984 -2.4581 -0.7078
 2998SOL    HW220628   0.890   0.387   3.826 -0.2360  0.0670  0.6847
 2999SOL     OW20629   1.047   4.335   3.722 -0.2106 -0.0414 -0.1806
 2999SOL    HW120630   1.118   4.359   3.782 -0.3737  0.6056 -0.2423
 2999SOL    HW220631   1.085   4.300   3.641 -2.9163 -0.5647 -1.2309
 3000SOL     OW20632   1.372   2.589   6.092  0.1489  0.3801  0.0085
 3000SOL    HW120633   1.400   2.544   6.013 -0.6531 -1.3069  0.6752
 3000SOL    HW220634   1.379   2.520   6.159  3.0495 -1.3279 -2.0550
 3001SOL     OW20635   2.858   2.610   2.212 -0.4268  0.1669  0.3191
 3001SOL    HW120636   2.847   2.680   2.147 -3.1625 -1.5274 -1.0467
 3001SOL    HW220637   2.851   2.653   2.297  2.0344  0.8814  0.1399
 3002SOL     OW20638   0.187   0.456   3.816 -0.2270 -0.4129  0.1831
 3002SOL    HW120639   0.111   0.414   3.856 -1.9743  3.0589  0.5432
 3002SOL    HW220640   0.163   0.478   3.726  1.7394 -1.5779 -0.6256
 3003SOL     OW20641   3.598   4.195   6.446  0.4915 -0.2945  0.0312
 3003SOL    HW120642   3.637   4.215   6.532 -0.9169 -1.2941  0.8855
 3003SOL    HW220643   3.668   4.230   6.390  1.2721 -2.1739 -0.1638
 3004SOL     OW20644   3.923   0.819   2.844 -0.0464  0.0768 -0.4801
 3004SOL    HW120645   3.998   0.879   2.836 -0.6244  0.4926 -2.9284
 3004SOL    HW220646   3.850   0.871   2.878 -1.2851 -2.2268  0.3979
 3005SOL     OW20647   2.529   2.728   4.154  0.4448  0.4088  0.0503
 3005SOL    HW120648   2.538   2.797   4.220  0.8044  0.3671  0.0485
 3005SOL    HW220649   2.618   2.731   4.117  0.7191  0.4919  0.7079
 3006SOL     OW20650   3.596   4.245   5.712 -0.1705  0.2867 -0.1882
 3006SOL    HW120651   3.670   4.220   5.766 -0.3504  0.0394 -0.0561
 3006SOL    HW220652   3.553   4.318   5.757 -0.2095  1.0794 -1.5231
 3007SOL     OW20653   2.285   0.845   3.583  0.0326  0.4299  0.1677
 3007SOL    HW120654   2.380   0.836   3.593  0.1731  2.2185  0.4898
 3007SOL    HW220655   2.272   0.812   3.494  2.4309  0.5201 -0.2316
 3008SOL     OW20656   4.119   3.964   4.287  0.5067  0.4288  0.6071
 3008SOL    HW120657   4.186   4.004   4.232  1.1272 -3.0774 -1.2278
 3008SOL    HW220658   4.175   3.920   4.351 -0.4273 -0.2947  0.9344
 3009SOL     OW20659   1.434   2.488  12.405 -0.3096 -0.3762  0.1593
 3009SOL    HW120660   1.451   2.574  12.442  1.2207  0.6601 -2.9897
 3009SOL    HW220661   1.405   2.449  12.488 -2.6215  1.7830  0.3617
 3010SOL     OW20662   0.977   0.877   2.749  0.0129  0.5253  0.2899
 3010SOL    HW120663   1.023   0.844   2.826  1.1055 -2.8012 -1.8326
 3010SOL    HW220664   0.888   0.861   2.783 -0.0009 -1.5814 -0.7681
 3011SOL     OW20665   4.541   0.527   8.350  0.0350 -0.2381 -1.1001
 3011SOL    HW120666   4.470   0.463   8.341 -1.0138  0.9708 -1.3404
 3011SOL    HW220667   4.614   0.468   8.371 -1.6456 -1.1890  2.0881
 3012SOL     OW20668   0.098   1.366   5.530 -0.7960  0.7251  0.2414
 3012SOL    HW120669   0.037   1.391   5.600 -0.6034 -0.9814  1.0138
 3012SOL    HW220670   0.081   1.273   5.539  1.8279  0.1425 -0.9024
 3013SOL     OW20671   4.198   1.305  11.972  0.1609 -0.8063  0.2578
 3013SOL    HW120672   4.273   1.327  11.917 -1.0523 -0.3538 -1.2234
 3013SOL    HW220673   4.151   1.388  11.984  1.9513  0.0389  1.4537
 3014SOL     OW20674   0.002   1.897   9.957  0.4864 -0.2220 -0.1216
 3014SOL    HW120675   0.095   1.876   9.949  0.3562 -1.8401  2.6443
 3014SOL    HW220676   4.732   1.952   9.878 -1.8623 -1.1847 -0.6387
 3015SOL     OW20677   3.744   2.545   8.125 -0.1193 -0.0928 -0.3164
 3015SOL    HW120678   3.799   2.621   8.103  1.0630 -0.7990  0.2344
 3015SOL    HW220679   3.682   2.593   8.180  1.1733 -0.1885  1.2236
 3016SOL     OW20680   2.611   1.280   3.890  0.1987  0.0897  0.0313
 3016SOL    HW120681   2.523   1.316   3.905  1.3491  2.2462  1.4280
 3016SOL    HW220682   2.658   1.309   3.968  0.6975 -1.6860  0.3840
 3017SOL     OW20683   2.883   0.714   9.224  0.2697 -0.1978  0.2832
 3017SOL    HW120684   2.849   0.647   9.283  2.0739  0.4526  2.0667
 3017SOL    HW220685   2.957   0.745   9.277  0.7274  0.1649 -0.5602
 3018SOL     OW20686   2.883   3.201  16.999  0.1126  0.0302  0.3464
 3018SOL    HW120687   2.952   3.263  16.978  1.1518 -0.7832  1.3787
 3018SOL    HW220688   2.819   3.262  17.035 -0.1045 -0.1464  0.2598
 3019SOL     OW20689   0.880   2.650   4.359  0.4070 -0.3240 -0.2171
 3019SOL    HW120690   0.812   2.711   4.330  0.6072 -0.5683 -1.1846
 3019SOL    HW220691   0.841   2.621   4.441 -0.0048 -0.0099 -0.3014
 3020SOL     OW20692   2.774   3.035   8.464 -0.6230  0.0940 -0.2093
 3020SOL    HW120693   2.815   2.988   8.391 -0.5531 -1.3790  0.7803
 3020SOL    HW220694   2.746   3.123   8.437  0.2633  0.7508  1.0392
 3021SOL     OW20695   4.020   3.866  13.506 -0.1031 -0.3908  0.1802
 3021SOL    HW120696   4.088   3.836  13.446 -0.9486 -0.8943 -0.5187
 3021SOL    HW220697   3.965   3.789  13.518  1.5516 -1.4192  1.1368
 3022SOL     OW20698   1.180   2.709   3.296  0.4324  0.0345 -0.1372
 3022SOL    HW120699   1.268   2.727   3.263  1.4333 -0.8950  2.0333
 3022SOL    HW220700   1.181   2.618   3.324 -0.0364 -0.2394 -1.0079
 3023SOL     OW20701   2.839   4.394   4.202  0.2300 -0.1435  0.3117
 3023SOL    HW120702   2.888   4.407   4.120  0.0326  0.0608  0.2231
 3023SOL    HW220703   2.907   4.368   4.264  1.4038 -1.9731 -1.7355
 3024SOL     OW20704   4.087   3.521   3.448 -0.2989  0.6479 -0.5628
 3024SOL    HW120705   4.000   3.513   3.487  0.4140  0.8131  1.0751
 3024SOL    HW220706   4.105   3.432   3.421 -0.2026 -0.2291  2.4179
 3025SOL     OW20707   4.549   1.201  14.735 -0.6055  0.0612 -0.1625
 3025SOL    HW120708   4.522   1.126  14.682 -0.6270  0.9080 -1.3465
 3025SOL    HW220709   4.522   1.155  14.815 -1.5809 -0.5552 -0.8437
 3026SOL     OW20710   1.054   0.658   6.996  0.4196  0.1507 -0.3458
 3026SOL    HW120711   1.008   0.636   6.916  1.5072  0.7526 -1.1281
 3026SOL    HW220712   0.990   0.720   7.032  0.5241  0.3656 -0.5346
 3027SOL     OW20713   1.797   2.744  14.345  0.4393  0.2330  0.1937
 3027SOL    HW120714   1.757   2.671  14.392 -0.4886  1.3705  1.1658
 3027SOL    HW220715   1.766   2.729  14.255 -1.9398  0.9778  0.8811
 3028SOL     OW20716   2.253   2.380   9.708  0.0957 -0.0741 -0.5320
 3028SOL    HW120717   2.315   2.414   9.773  1.0712 -1.1529 -0.8782
 3028SOL    HW220718   2.231   2.291   9.736 -3.7211  0.9709 -0.3421
 3029SOL     OW20719   2.364   0.849   4.185 -0.2770  0.2877 -0.4427
 3029SOL    HW120720   2.293   0.867   4.124 -2.4363 -1.0383  1.6762
 3029SOL    HW220721   2.421   0.925   4.172  0.2011  0.3091  1.7212
 3030SOL     OW20722   0.502   4.404   0.162  0.5827  0.9423 -0.1923
 3030SOL    HW120723   0.566   4.429   0.229 -0.6112 -0.5505  1.5139
 3030SOL    HW220724   0.467   4.328   0.208  2.9932  0.3358  0.6545
 3031SOL     OW20725   2.675   1.601   5.171  0.7358 -0.4038 -0.5630
 3031SOL    HW120726   2.618   1.663   5.125  0.2145 -1.7034 -1.6876
 3031SOL    HW220727   2.755   1.645   5.197 -0.9514  1.4007  1.6470
 3032SOL     OW20728   0.751   2.615   4.032  0.6378 -0.2112  0.0107
 3032SOL    HW120729   0.823   2.674   4.009  0.1803  0.7468  1.0079
 3032SOL    HW220730   0.693   2.641   3.960 -1.2631 -2.0479  0.8688
 3033SOL     OW20731   2.253   1.077   3.357 -0.3184  0.2110 -0.5062
 3033SOL    HW120732   2.284   1.060   3.446 -1.2557  0.3638 -0.1528
 3033SOL    HW220733   2.336   1.082   3.309  0.6438 -0.6834  1.0518
 3034SOL     OW20734   4.481   3.815   5.491  0.6531 -0.3565 -0.0495
 3034SOL    HW120735   4.449   3.751   5.556  2.1167 -0.0002  0.9960
 3034SOL    HW220736   4.525   3.754   5.432 -0.0201 -0.0081 -0.9091
 3035SOL     OW20737   2.003   2.366   5.422 -0.1598  0.1757 -0.5437
 3035SOL    HW120738   2.094   2.353   5.447 -0.7223  0.8710  1.8508
 3035SOL    HW220739   1.968   2.276   5.419  1.3072 -0.4615  1.7257
 3036SOL     OW20740   3.714   1.047   6.735 -0.0134  0.8787  0.0489
 3036SOL    HW120741   3.651   1.076   6.669  0.4567  2.3860  0.2679
 3036SOL    HW220742   3.775   0.986   6.693 -0.5584  0.2717  0.1285
 3037SOL     OW20743   3.531   2.523   3.056  0.3978  0.2159  0.3135
 3037SOL    HW120744   3.494   2.549   2.971 -0.3932 -0.4645  0.4464
 3037SOL    HW220745   3.478   2.444   3.067 -0.7709  0.7728 -1.2329
 3038SOL     OW20746   1.203   0.045   3.517  0.4663 -0.2659  0.6171
 3038SOL    HW120747   1.129   0.083   3.470  0.5052  0.3261  1.0232
 3038SOL    HW220748   1.221   0.113   3.582 -1.3901  0.2086  0.6326
 3039SOL     OW20749   1.095   0.064   9.027  0.0513 -0.2398 -0.0750
 3039SOL    HW120750   1.104   0.134   8.962 -0.8842  1.5801  1.7507
 3039SOL    HW220751   1.181   0.025   9.039 -0.7813 -1.9262  0.4271
 3040SOL     OW20752   3.668   4.122   7.920  0.2246  0.7219  0.3129
 3040SOL    HW120753   3.611   4.122   7.997  1.4349 -0.0302  1.2135
 3040SOL    HW220754   3.755   4.118   7.960  1.3134  0.5376 -2.0569
 3041SOL     OW20755   0.289   1.387  10.679  0.2958  0.1678  0.0884
 3041SOL    HW120756   0.206   1.418  10.717  0.1302 -0.3947  0.1954
 3041SOL    HW220757   0.329   1.473  10.675 -1.4540  0.9431 -0.7124
 3042SOL     OW20758   2.723   1.280  10.295  0.1885 -0.5430 -0.9281
 3042SOL    HW120759   2.748   1.357  10.244  0.4930  0.0966  0.1910
 3042SOL    HW220760   2.628   1.287  10.283 -0.3087 -0.3263  3.2536
 3043SOL     OW20761   0.632   4.353   9.177 -0.3186 -0.0670  0.2586
 3043SOL    HW120762   0.570   4.360   9.105 -1.2704  1.7110  1.2467
 3043SOL    HW220763   0.653   4.445   9.193  1.2844 -0.3461 -0.2267
 3044SOL     OW20764   1.100   0.097   2.946 -0.1293  0.0770  0.0886
 3044SOL    HW120765   1.049   0.177   2.954 -2.3451 -1.1767 -1.7433
 3044SOL    HW220766   1.101   0.078   3.040  2.4845  0.4167  0.1362
 3045SOL     OW20767   4.307   1.030  17.046 -0.6918 -0.0879 -0.1350
 3045SOL    HW120768   4.297   0.978  17.125  2.4862 -0.4479 -0.0062
 3045SOL    HW220769   4.226   1.082  17.052 -1.6590 -1.3229 -2.3162
 3046SOL     OW20770   1.337   4.129   1.180 -0.5285 -0.0633  0.2449
 3046SOL    HW120771   1.303   4.189   1.114  0.7601 -0.2250 -0.5708
 3046SOL    HW220772   1.394   4.068   1.134 -2.3461 -1.7461  0.2462
 3047SOL     OW20773   1.232   3.903   7.236  0.0190  0.2897 -0.4482
 3047SOL    HW120774   1.267   3.891   7.324  0.0175  0.9223 -0.3624
 3047SOL    HW220775   1.186   3.985   7.251  1.7266  1.1488  0.0340
 3048SOL     OW20776   2.652   2.100   6.003 -0.6707 -0.0839  0.3883
 3048SOL    HW120777   2.633   2.175   6.059 -0.0004  0.2632  0.1553
 3048SOL    HW220778   2.562   2.076   5.979 -0.5180 -0.9517  0.6656
 3049SOL     OW20779   4.235   0.716   6.435  0.1473 -0.2523 -0.9585
 3049SOL    HW120780   4.247   0.737   6.527  0.1020  0.8752 -1.2060
 3049SOL    HW220781   4.324   0.692   6.408 -0.3045  0.7623 -3.3714
 3050SOL     OW20782   4.372   2.486  16.774  0.6489  0.7132  0.0335
 3050SOL    HW120783   4.291   2.522  16.809 -0.6862 -2.1058 -0.1571
 3050SOL    HW220784   4.360   2.399  16.812 -2.6606  1.6438  1.0762
 3051SOL     OW20785   4.012   2.684   2.087 -0.3855  0.1837 -0.0993
 3051SOL    HW120786   4.070   2.742   2.137 -1.6432  0.0801  1.4849
 3051SOL    HW220787   3.962   2.660   2.165  0.6006  1.8811  1.0502
 3052SOL     OW20788   3.276   4.565   7.836  0.2300 -0.4641  0.3344
 3052SOL    HW120789   3.285   4.491   7.775 -1.5486 -0.8333  0.5389
 3052SOL    HW220790   3.345   4.619   7.797 -1.1947 -1.3695 -3.4355
 3053SOL     OW20791   0.881   1.473   6.405  0.2992 -0.2686 -0.1823
 3053SOL    HW120792   0.803   1.419   6.417 -1.3190  1.3774 -3.0921
 3053SOL    HW220793   0.923   1.413   6.343 -1.1153 -0.5429 -0.8855
 3054SOL     OW20794   0.723   4.511  16.428  0.2854  0.4412 -0.2010
 3054SOL    HW120795   0.819   4.505  16.430  0.2085  0.3747  4.6073
 3054SOL    HW220796   0.712   4.514  16.523 -0.8723 -1.2994 -0.2913
 3055SOL     OW20797   1.643   4.195   8.505  0.6594 -0.4983  0.1048
 3055SOL    HW120798   1.715   4.186   8.442  0.5684  1.1880 -0.2629
 3055SOL    HW220799   1.654   4.288   8.526  0.4658 -0.7013  1.0587
 3056SOL     OW20800   4.264   4.601   4.339  0.4474  0.0639  0.3628
 3056SOL    HW120801   4.231   4.511   4.340  0.3849  0.0804 -0.1471
 3056SOL    HW220802   4.181   4.646   4.355  1.2291  1.0486  1.6245
 3057SOL     OW20803   2.956   2.736  13.131  0.7495  0.3236 -0.0907
 3057SOL    HW120804   2.941   2.673  13.201  2.4540 -0.9437 -0.8752
 3057SOL    HW220805   2.964   2.818  13.180  0.2641 -0.8414  1.9206
 3058SOL     OW20806   0.389   1.995   2.196 -0.4364 -0.0693  0.4385
 3058SOL    HW120807   0.324   2.007   2.126 -1.2956 -1.3133  1.0219
 3058SOL    HW220808   0.336   1.979   2.274  2.9001  1.8504  3.0829
 3059SOL     OW20809   4.357   4.564   5.275  0.0933  0.8110 -0.0063
 3059SOL    HW120810   4.414   4.563   5.351  0.0071  1.8172  0.0702
 3059SOL    HW220811   4.286   4.505   5.301  0.6746 -0.2350 -0.7839
 3060SOL     OW20812   4.440   0.337   3.223  0.7177 -0.2723 -0.1241
 3060SOL    HW120813   4.441   0.400   3.150 -4.2552  0.1196  0.1399
 3060SOL    HW220814   4.396   0.264   3.178  1.3889 -0.6930 -0.0928
 3061SOL     OW20815   4.681   3.120   3.557 -0.0441 -0.2306  0.2873
 3061SOL    HW120816   4.697   3.089   3.468 -0.7669 -0.3730  0.2037
 3061SOL    HW220817   4.593   3.157   3.546 -0.6193 -1.3305  1.1815
 3062SOL     OW20818   1.297   3.504   4.531  0.2235 -0.2242  0.2633
 3062SOL    HW120819   1.296   3.567   4.459  1.6647 -3.1516 -2.2803
 3062SOL    HW220820   1.382   3.460   4.531  0.5750  0.4649 -0.4257
 3063SOL     OW20821   1.195   4.674   7.769  0.1876  0.3027 -0.0302
 3063SOL    HW120822   1.253   4.725   7.713 -0.3636  0.1480 -0.7362
 3063SOL    HW220823   1.109   4.698   7.736  1.6881  3.3311 -1.6793
 3064SOL     OW20824   2.649   0.423   8.038  0.1179  0.3831  0.1887
 3064SOL    HW120825   2.582   0.462   8.094  0.9191 -0.4505  1.7300
 3064SOL    HW220826   2.666   0.349   8.096 -0.9616  0.6989  0.9058
 3065SOL     OW20827   1.776   1.611  11.115 -0.1983 -0.7919 -0.5592
 3065SOL    HW120828   1.724   1.539  11.152  0.4966  0.0770  2.0961
 3065SOL    HW220829   1.766   1.674  11.187  1.3492 -1.3083  0.0977
 3066SOL     OW20830   4.596   1.615  14.353  0.3117  0.4421  0.2537
 3066SOL    HW120831   4.692   1.619  14.351  0.1989  2.9202  0.9705
 3066SOL    HW220832   4.566   1.530  14.320  0.1787  0.3478  0.6160
 3067SOL     OW20833   4.385   4.593   9.445 -0.0921  0.6074 -0.1996
 3067SOL    HW120834   4.418   4.583   9.534 -1.6998 -0.7768  0.2467
 3067SOL    HW220835   4.467   4.610   9.399  0.4170 -2.2829 -0.3743
 3068SOL     OW20836   1.059   3.480   7.646  0.1068 -0.2310 -0.5328
 3068SOL    HW120837   1.072   3.398   7.599  1.8945 -0.4043  0.2838
 3068SOL    HW220838   0.964   3.480   7.663  0.0264 -0.0117 -0.9912
 3069SOL     OW20839   2.666   0.616   1.875 -0.2170 -0.6956 -0.6651
 3069SOL    HW120840   2.628   0.683   1.930  1.3413 -0.6928  0.3986
 3069SOL    HW220841   2.760   0.611   1.892 -0.2930  1.2249  0.2929
 3070SOL     OW20842   1.124   1.119  12.802 -0.1920  0.4006  0.0769
 3070SOL    HW120843   1.057   1.051  12.805 -0.6424  0.8604  0.3463
 3070SOL    HW220844   1.145   1.123  12.709  1.1716  1.2237  0.4179
 3071SOL     OW20845   2.035   2.295  14.864  0.3077 -0.4331 -0.2101
 3071SOL    HW120846   1.952   2.265  14.901  0.9116  0.7837  2.1578
 3071SOL    HW220847   2.070   2.227  14.808 -1.3818 -0.8322 -0.7817
 3072SOL     OW20848   4.167   2.731   4.594 -0.3702  0.3613 -0.0840
 3072SOL    HW120849   4.149   2.677   4.671  3.5230 -0.2431  0.4284
 3072SOL    HW220850   4.263   2.734   4.600 -0.1678 -2.9500 -1.4629
 3073SOL     OW20851   2.776   1.116   5.497  0.3199 -0.3223 -0.3968
 3073SOL    HW120852   2.763   1.200   5.452 -1.5809  1.4445  3.4648
 3073SOL    HW220853   2.753   1.058   5.424  0.2746 -1.3870  0.4692
 3074SOL     OW20854   4.085   2.479   4.775  0.4212 -0.4873 -0.6318
 3074SOL    HW120855   4.075   2.387   4.799 -1.0173  0.1027  0.9706
 3074SOL    HW220856   4.105   2.499   4.866  0.4046 -1.4626 -0.4094
 3075SOL     OW20857   2.635   4.536   4.993 -0.0094 -0.0907 -0.3590
 3075SOL    HW120858   2.708   4.590   4.962  0.7551 -1.3501 -0.8006
 3075SOL    HW220859   2.619   4.582   5.075 -0.6583 -0.5731 -0.2169
 3076SOL     OW20860   0.374   0.333   8.192 -0.2901  0.0357 -0.0153
 3076SOL    HW120861   0.456   0.357   8.149 -0.6691  1.6274  0.1788
 3076SOL    HW220862   0.322   0.412   8.180 -0.0750  0.2977  0.7919
 3077SOL     OW20863   1.144   2.479   0.012  0.7559 -0.3824  0.4506
 3077SOL    HW120864   1.061   2.461  17.707  1.6444 -0.5928 -1.1945
 3077SOL    HW220865   1.124   2.552   0.071 -0.1685 -0.7915  0.6414
 3078SOL     OW20866   0.397   1.848   4.709  0.3487 -0.2560 -0.3725
 3078SOL    HW120867   0.475   1.834   4.763  0.3332  2.3662  0.3378
 3078SOL    HW220868   0.336   1.785   4.745 -0.5972  1.3263  0.7972
 3079SOL     OW20869   0.833   2.664   3.396 -0.1443  0.0591  0.7182
 3079SOL    HW120870   0.804   2.725   3.463  2.2874  2.4775 -0.4258
 3079SOL    HW220871   0.747   2.653   3.355  0.2878 -0.8611  0.0376
 3080SOL     OW20872   4.162   3.923   3.004 -0.3597  0.5916  0.3431
 3080SOL    HW120873   4.149   3.865   3.079  0.8688  1.6520  1.3736
 3080SOL    HW220874   4.164   3.860   2.932  0.7586 -1.7238  2.4062
 3081SOL     OW20875   3.826   1.383   5.661  0.8453 -0.2548  0.5001
 3081SOL    HW120876   3.740   1.374   5.704  1.4379 -0.4607  1.6394
 3081SOL    HW220877   3.877   1.310   5.695 -0.7807 -0.7138  1.9758
 3082SOL     OW20878   3.724   4.358   6.134  0.4768  0.1519  0.0933
 3082SOL    HW120879   3.688   4.403   6.210  2.0880  0.3728  0.7234
 3082SOL    HW220880   3.816   4.378   6.146  0.5818 -0.8236  0.9352
 3083SOL     OW20881   4.696   0.603   7.204  0.8686 -0.6878 -0.3831
 3083SOL    HW120882   4.725   0.521   7.164  2.4137 -0.8800  1.0964
 3083SOL    HW220883   4.711   0.583   7.297 -1.2701 -2.6798 -0.4741
 3084SOL     OW20884   4.457   3.188   4.660 -0.1853 -0.2835 -0.0252
 3084SOL    HW120885   4.429   3.248   4.730 -2.7027 -0.5942 -0.7767
 3084SOL    HW220886   4.546   3.162   4.683  1.0728  3.0244 -1.1926
 3085SOL     OW20887   2.692   0.087   2.507 -0.1444 -0.3759  0.0067
 3085SOL    HW120888   2.610   0.078   2.458  0.0018 -1.2495 -0.0786
 3085SOL    HW220889   2.736   0.148   2.448  2.0066 -0.5520  1.4466
 3086SOL     OW20890   0.870   3.335  12.343  0.5412 -0.4355  0.0066
 3086SOL    HW120891   0.833   3.286  12.270  0.8886  3.1651 -2.5871
 3086SOL    HW220892   0.855   3.429  12.327  1.9122  0.2143  2.4841
 3087SOL     OW20893   0.075   0.918   5.415 -0.4052 -0.4602  0.0611
 3087SOL    HW120894   0.143   0.965   5.366  1.0141 -2.6739 -0.0875
 3087SOL    HW220895   0.020   0.876   5.349 -2.8286  1.6881  0.7179
 3088SOL     OW20896   4.118   0.103  11.923 -0.2461  0.3689 -0.0395
 3088SOL    HW120897   4.048   0.102  11.858 -0.6760 -0.6249  0.4338
 3088SOL    HW220898   4.171   0.181  11.908 -2.4347  1.1226 -3.8237
 3089SOL     OW20899   2.218   1.129   5.199  0.2189  0.5916  0.4338
 3089SOL    HW120900   2.301   1.081   5.205  0.2367  0.5852  0.1310
 3089SOL    HW220901   2.150   1.075   5.239 -0.4489  0.3832 -1.0028
 3090SOL     OW20902   0.666   0.726   7.408  0.1483  0.0230  0.6061
 3090SOL    HW120903   0.744   0.780   7.397 -0.4461  1.0139  1.1979
 3090SOL    HW220904   0.662   0.723   7.504 -0.2309  0.7208  0.6054
 3091SOL     OW20905   4.646   3.346  16.197  0.4050 -0.2159 -0.4697
 3091SOL    HW120906   4.725   3.395  16.174  0.1454 -0.5249 -2.0407
 3091SOL    HW220907   4.673   3.254  16.197 -1.8461 -0.8694  0.7232
 3092SOL     OW20908   0.183   0.370   6.722 -0.5570 -0.5881  0.4005
 3092SOL    HW120909   0.191   0.416   6.639  3.3766 -1.0256  0.5527
 3092SOL    HW220910   0.094   0.334   6.722 -1.3738  1.4508 -0.2940
 3093SOL     OW20911   3.450   3.548   3.357 -0.4661  0.0125 -0.0360
 3093SOL    HW120912   3.429   3.605   3.283  0.9448  0.8555  0.2211
 3093SOL    HW220913   3.457   3.458   3.323 -0.7782  0.2731 -0.7817
 3094SOL     OW20914   0.337   4.317   7.721  0.1657  0.1973  0.2923
 3094SOL    HW120915   0.421   4.319   7.674  0.2071 -0.8580  0.3132
 3094SOL    HW220916   0.289   4.254   7.667  0.7788 -1.3606  1.5835
 3095SOL     OW20917   0.740   2.581  17.731  0.5866 -0.6574  0.6664
 3095SOL    HW120918   0.736   2.651  17.666 -0.0101 -0.7301  0.6284
 3095SOL    HW220919   0.729   2.631   0.075  0.8197 -1.2228  1.0452
 3096SOL     OW20920   3.306   3.111  11.996  0.2263  0.0479  0.3186
 3096SOL    HW120921   3.228   3.127  11.943  1.1514 -0.0117 -1.0384
 3096SOL    HW220922   3.383   3.086  11.946 -0.3506 -0.7791 -0.1389
 3097SOL     OW20923   1.047   0.999  13.842 -0.2028 -0.3421 -0.0962
 3097SOL    HW120924   1.034   1.072  13.902 -1.0430  0.3586 -1.1510
 3097SOL    HW220925   0.965   0.954  13.861  0.4785 -0.7366  1.9007
 3098SOL     OW20926   0.096   4.030   8.062  0.0181 -0.3640  0.1430
 3098SOL    HW120927   0.029   3.962   8.053  0.7648 -1.0392 -0.3042
 3098SOL    HW220928   0.109   4.067   7.974 -0.3229  1.5726  0.9050
 3099SOL     OW20929   4.314   4.362  11.102  0.2195 -0.1385  0.1658
 3099SOL    HW120930   4.374   4.426  11.140  0.5684  0.3282 -1.1691
 3099SOL    HW220931   4.280   4.322  11.182  2.6648  0.4210  1.4631
 3100SOL     OW20932   0.596   0.622  13.412 -0.2491 -0.1619  0.1303
 3100SOL    HW120933   0.588   0.712  13.441 -2.9148 -0.3500 -0.0485
 3100SOL    HW220934   0.506   0.590  13.406  0.1153 -1.1015 -0.4894
 3101SOL     OW20935   3.960   0.008   0.550 -0.0962 -0.4585  0.2075
 3101SOL    HW120936   3.902   0.035   0.480  1.4841 -1.4846 -1.4921
 3101SOL    HW220937   3.963   4.648   0.540  0.4141 -0.5047  0.7870
 3102SOL     OW20938   4.141   4.349   3.633 -0.0921 -0.3507 -0.2397
 3102SOL    HW120939   4.155   4.442   3.651 -1.5759  0.3032 -2.4518
 3102SOL    HW220940   4.185   4.348   3.548  0.4239  0.2492  0.0175
 3103SOL     OW20941   4.631   0.943  11.999 -0.2037 -0.1558  0.4440
 3103SOL    HW120942   4.616   0.901  12.084  0.4906 -1.4554 -0.0799
 3103SOL    HW220943   4.699   0.882  11.970 -0.8010 -1.3155  1.4854
 3104SOL     OW20944   2.606   3.596   8.793  0.3594 -0.1339  0.1725
 3104SOL    HW120945   2.656   3.515   8.790  0.2624 -0.1535 -0.8082
 3104SOL    HW220946   2.654   3.630   8.869 -0.1632 -0.4007  0.6209
 3105SOL     OW20947   3.760   3.556   5.214  0.0421  0.3544  0.6240
 3105SOL    HW120948   3.718   3.601   5.287 -0.2207 -0.8882  1.2386
 3105SOL    HW220949   3.720   3.469   5.216  1.7121 -0.4572 -0.5253
 3106SOL     OW20950   1.657   4.473  12.530  0.6052 -0.0082  0.4529
 3106SOL    HW120951   1.709   4.498  12.606  0.2637 -0.5892  0.8821
 3106SOL    HW220952   1.597   4.546  12.514  1.8777  0.9000 -0.1309
 3107SOL     OW20953   0.999   2.519   4.798 -0.6042  0.2238  0.6462
 3107SOL    HW120954   1.083   2.529   4.754 -1.4590 -3.8737 -1.9042
 3107SOL    HW220955   0.999   2.590   4.863  0.4133  0.5487  0.2808
 3108SOL     OW20956   0.685   0.445  17.320  0.2941 -0.5118  0.0415
 3108SOL    HW120957   0.737   0.365  17.328 -0.0133 -0.8860 -1.7626
 3108SOL    HW220958   0.619   0.432  17.388  0.4575  4.4611  1.1622
 3109SOL     OW20959   4.383   4.385   4.944  0.5368 -0.6811  0.0212
 3109SOL    HW120960   4.371   4.475   4.914  0.5979 -0.8882 -0.6248
 3109SOL    HW220961   4.292   4.355   4.941  0.6750 -1.1923  0.7719
 3110SOL     OW20962   1.607   0.694   4.363 -0.8680  0.0639 -0.0397
 3110SOL    HW120963   1.695   0.730   4.366 -0.6189 -0.7683  3.7337
 3110SOL    HW220964   1.560   0.771   4.333 -0.9466  0.2509  0.5566
 3111SOL     OW20965   2.039   2.985   9.931  0.3871 -0.1494  0.6757
 3111SOL    HW120966   2.060   2.924   9.860  1.4266  1.8088 -0.7107
 3111SOL    HW220967   2.118   2.970   9.983  0.5396 -0.9024  0.2205
 3112SOL     OW20968   3.397   2.251   5.446 -0.2329  0.5984 -0.3214
 3112SOL    HW120969   3.485   2.278   5.471 -0.8613  0.3515  2.1792
 3112SOL    HW220970   3.399   2.160   5.474 -0.5974  0.9440  0.8471
 3113SOL     OW20971   3.498   1.735  11.436  0.3264 -0.3744  0.3873
 3113SOL    HW120972   3.535   1.664  11.384  1.0122  2.6860 -3.2192
 3113SOL    HW220973   3.427   1.760  11.377 -0.5683 -0.5090  1.3932
 3114SOL     OW20974   3.039   0.294   2.327 -0.5532 -0.9563 -0.4991
 3114SOL    HW120975   3.098   0.227   2.293  0.9535 -0.2897  0.8183
 3114SOL    HW220976   3.057   0.289   2.420 -0.9760 -1.2934 -0.4355
 3115SOL     OW20977   3.476   1.421   0.816  0.4742 -0.0906 -0.0349
 3115SOL    HW120978   3.403   1.480   0.798  0.1331  0.2559  2.4539
 3115SOL    HW220979   3.542   1.472   0.863 -1.5394  1.2277  1.3955
 3116SOL     OW20980   3.919   4.257   5.149  0.0041  0.4737 -0.2418
 3116SOL    HW120981   4.008   4.225   5.130 -0.7768 -1.2386 -1.0444
 3116SOL    HW220982   3.869   4.204   5.087 -1.7402  0.6728  1.0045
 3117SOL     OW20983   0.818   4.089   6.775  0.2861 -0.6661 -0.0455
 3117SOL    HW120984   0.750   4.059   6.835  0.0124 -0.5390 -0.2937
 3117SOL    HW220985   0.896   4.081   6.829  1.4067  0.7341 -1.4701
 3118SOL     OW20986   0.149   2.573   6.651 -0.2310 -0.5669 -0.0444
 3118SOL    HW120987   0.205   2.521   6.594 -0.4378  0.9484 -1.6157
 3118SOL    HW220988   0.200   2.651   6.673  0.6798 -0.7852 -1.3361
 3119SOL     OW20989   4.537   0.663   6.322 -0.2231  0.0672 -0.2814
 3119SOL    HW120990   4.507   0.739   6.273  1.4379 -0.4656 -2.1403
 3119SOL    HW220991   4.618   0.697   6.360 -1.3283  3.5491 -1.1090
 3120SOL     OW20992   2.027   4.480  15.085 -0.0004 -0.4172 -0.2476
 3120SOL    HW120993   1.933   4.474  15.099  0.0564  1.2495  0.8732
 3120SOL    HW220994   2.046   4.412  15.150 -2.1306 -1.3453 -0.6252
 3121SOL     OW20995   2.403   3.784   2.793 -0.4186  0.3074  0.2536
 3121SOL    HW120996   2.325   3.763   2.741  0.7053 -2.4581 -0.3360
 3121SOL    HW220997   2.412   3.877   2.774  0.4507 -0.3108 -2.3044
 3122SOL     OW20998   0.290   4.019   5.016  0.1100  0.0889  0.2982
 3122SOL    HW120999   0.245   4.091   4.973  0.9198 -0.3065 -1.2035
 3122SOL    HW221000   0.321   4.065   5.095 -1.6860  1.9281 -0.0898
 3123SOL     OW21001   3.104   4.204  16.734 -0.2868  0.7159  0.4712
 3123SOL    HW121002   3.057   4.126  16.703 -0.7896  0.2701  2.3277
 3123SOL    HW221003   3.092   4.192  16.829 -2.3802  1.6587  0.3009
 3124SOL     OW21004   2.305   0.470   4.033 -0.1256 -0.2765 -0.1681
 3124SOL    HW121005   2.360   0.497   4.106  0.0081  2.3134 -1.2379
 3124SOL    HW221006   2.304   0.545   3.974 -0.8899 -1.0503 -1.1444
 3125SOL     OW21007   4.128   4.494   9.426  0.6930 -0.2724  0.3912
 3125SOL    HW121008   4.184   4.571   9.426  0.1858  0.0961  0.2842
 3125SOL    HW221009   4.123   4.485   9.521  0.7728 -1.9935  0.2375
 3126SOL     OW21010   3.736   3.106  15.283 -0.1721 -0.0088 -0.1994
 3126SOL    HW121011   3.643   3.085  15.283 -0.5001  1.4496  0.5657
 3126SOL    HW221012   3.743   3.188  15.235  0.5059  0.9712  1.5681
 3127SOL     OW21013   1.196   3.044   3.383 -0.6047 -0.3447 -0.4406
 3127SOL    HW121014   1.255   3.103   3.337 -1.2331  0.2183 -0.5193
 3127SOL    HW221015   1.237   3.044   3.470  1.4983 -1.1032 -1.4444
 3128SOL     OW21016   4.379   3.869   4.679 -0.5059 -0.4647  0.0151
 3128SOL    HW121017   4.384   3.904   4.768  0.7914 -0.4337 -0.0729
 3128SOL    HW221018   4.447   3.803   4.688 -0.3266 -0.2556  0.1993
 3129SOL     OW21019   3.586   3.855   9.778  0.1887  0.4262  0.2663
 3129SOL    HW121020   3.648   3.810   9.836 -0.8973 -3.6658 -1.8236
 3129SOL    HW221021   3.548   3.910   9.847  0.2144  0.4760  0.2408
 3130SOL     OW21022   1.132   3.091   5.873  0.9098  0.3836  0.3597
 3130SOL    HW121023   1.161   3.070   5.784 -1.5013  1.3634 -0.6670
 3130SOL    HW221024   1.214   3.120   5.912  0.2854  0.4292  1.6346
 3131SOL     OW21025   3.665   4.521   8.010  0.7447  0.2170 -0.2954
 3131SOL    HW121026   3.620   4.465   8.074 -0.1822  1.2564 -0.0410
 3131SOL    HW221027   3.652   4.608   8.047 -2.9150 -0.1722 -0.6067
 3132SOL     OW21028   2.442   0.857   3.194 -0.0814 -0.3058  0.3203
 3132SOL    HW121029   2.438   0.874   3.100 -3.4666 -0.7473  0.3834
 3132SOL    HW221030   2.479   0.941   3.222 -3.9277  1.4883  0.0533
 3133SOL     OW21031   2.029   2.442   2.517  0.1019 -0.3547 -0.4747
 3133SOL    HW121032   2.019   2.388   2.438  1.4081 -1.2270 -0.0465
 3133SOL    HW221033   1.973   2.397   2.579 -2.2533  0.2182 -2.1987
 3134SOL     OW21034   1.009   1.803   5.445  0.3062 -0.1675  0.2209
 3134SOL    HW121035   1.020   1.762   5.359  0.5644  0.6838 -0.1450
 3134SOL    HW221036   1.095   1.784   5.481  0.1769  1.2714  1.2838
 3135SOL     OW21037   2.551   4.136   3.702  0.5804  0.0430 -0.4380
 3135SOL    HW121038   2.467   4.091   3.715 -0.2608  1.8335  0.3610
 3135SOL    HW221039   2.614   4.085   3.753  0.7274 -1.0076 -1.6724
 3136SOL     OW21040   2.902   1.831   3.090 -0.3739  0.3859  0.4055
 3136SOL    HW121041   2.902   1.784   3.173  4.4484  0.2191  0.3140
 3136SOL    HW221042   2.816   1.871   3.078 -1.2152 -1.3076  0.8267
 3137SOL     OW21043   1.447   3.793   6.523  0.0655 -0.0992 -0.0392
 3137SOL    HW121044   1.385   3.720   6.529 -0.7535  0.4061 -2.4001
 3137SOL    HW221045   1.531   3.747   6.530 -0.7256 -1.2824  1.7553
 3138SOL     OW21046   0.327   1.038  16.110 -0.4586 -0.0133 -0.3358
 3138SOL    HW121047   0.299   1.128  16.093  0.2224  0.4091  0.8354
 3138SOL    HW221048   0.299   1.028  16.200  0.1919  1.4413  0.0318
 3139SOL     OW21049   0.626   4.560   4.185 -0.1658 -0.6335  0.4673
 3139SOL    HW121050   0.635   4.477   4.138  1.2508 -2.5608  4.1352
 3139SOL    HW221051   0.546   4.550   4.237 -0.7756  1.3765 -0.0688
 3140SOL     OW21052   3.117   0.396   7.735 -0.3352 -0.1506  0.2287
 3140SOL    HW121053   3.037   0.389   7.681 -0.0004 -1.0265 -0.1490
 3140SOL    HW221054   3.090   0.443   7.814  0.3634  0.1234  0.2983
 3141SOL     OW21055   1.296   2.831   2.817 -0.2049 -0.2975  0.3418
 3141SOL    HW121056   1.268   2.892   2.748 -0.2719 -1.4410 -0.6382
 3141SOL    HW221057   1.383   2.805   2.786 -0.7388 -1.3851 -0.2453
 3142SOL     OW21058   3.213   0.530   4.383  0.6406 -0.0818 -0.2913
 3142SOL    HW121059   3.204   0.518   4.288 -2.5055  1.0972 -0.1358
 3142SOL    HW221060   3.128   0.507   4.419  0.0245  2.3904 -0.1616
 3143SOL     OW21061   1.442   4.278   2.081 -0.0178  0.3049 -0.1269
 3143SOL    HW121062   1.478   4.245   1.998  1.3894 -1.0882  1.0572
 3143SOL    HW221063   1.503   4.247   2.147 -1.8931 -0.2908  1.3318
 3144SOL     OW21064   4.677   0.060  13.343 -0.1019 -0.5115  0.1906
 3144SOL    HW121065   4.720   0.009  13.274  1.1297  2.3006 -1.1015
 3144SOL    HW221066   4.585   0.059  13.317  0.2719 -3.6594 -1.0485
 3145SOL     OW21067   3.768   3.267   4.836 -0.2966  0.1677  0.2617
 3145SOL    HW121068   3.761   3.195   4.773  2.5729  0.5282 -0.4828
 3145SOL    HW221069   3.752   3.346   4.785  0.7070 -0.4620 -1.0118
 3146SOL     OW21070   0.272   0.067   4.040  0.3339  0.0935 -0.2633
 3146SOL    HW121071   0.178   0.054   4.045  0.6751 -1.6768  1.2562
 3146SOL    HW221072   0.281   0.151   3.994 -1.9933  1.0835  1.0877
 3147SOL     OW21073   0.914   1.674   6.116  0.3695  0.1635 -0.0292
 3147SOL    HW121074   0.851   1.602   6.112  1.2564 -0.5942 -0.5950
 3147SOL    HW221075   0.998   1.627   6.121 -1.4295 -3.1472 -1.0313
 3148SOL     OW21076   1.398   2.194  10.295  0.6864 -0.6733  0.0168
 3148SOL    HW121077   1.486   2.222  10.270  0.9440 -1.6211 -0.1440
 3148SOL    HW221078   1.404   2.098  10.298 -0.9822 -0.7452  0.6229
 3149SOL     OW21079   3.705   0.569   8.718  0.0474  0.6839 -0.6014
 3149SOL    HW121080   3.702   0.622   8.638 -0.4147 -1.9987 -2.3652
 3149SOL    HW221081   3.707   0.633   8.789  1.7357 -0.0930  0.0549
 3150SOL     OW21082   2.665   3.035   8.748  0.3081 -0.2881 -0.1072
 3150SOL    HW121083   2.596   2.968   8.746 -1.0007  1.0761 -1.2345
 3150SOL    HW221084   2.714   3.021   8.667 -2.4576 -0.3982 -1.7663
 3151SOL     OW21085   2.671   0.023  15.029 -0.2125  0.3161 -0.0731
 3151SOL    HW121086   2.743   4.700  15.055  1.2463  2.0515 -0.3028
 3151SOL    HW221087   2.708   0.109  15.048 -0.1756  0.5385 -1.1651
 3152SOL     OW21088   4.074   2.980   3.292  0.1012 -0.8060  0.1761
 3152SOL    HW121089   4.123   2.974   3.374 -0.6056  0.7999  0.7090
 3152SOL    HW221090   4.010   2.910   3.309  0.6222 -1.8877 -2.3087
 3153SOL     OW21091   4.724   3.624   9.149 -0.7374  0.2665 -0.1686
 3153SOL    HW121092   0.046   3.551   9.175 -0.2286  0.5230 -0.5735
 3153SOL    HW221093   4.655   3.614   9.215 -0.7005 -1.3108 -0.3529
 3154SOL     OW21094   1.748   3.728   7.728  0.5356  0.0942  0.0151
 3154SOL    HW121095   1.709   3.671   7.661  2.1545 -0.0895 -0.7632
 3154SOL    HW221096   1.836   3.697   7.747 -0.4567 -1.7231  1.6959
 3155SOL     OW21097   0.029   0.634   6.022 -0.1226 -0.3146  0.1632
 3155SOL    HW121098   0.114   0.590   6.019  1.4661  2.8895 -1.0192
 3155SOL    HW221099   0.055   0.721   6.052 -0.3932 -0.3531  0.5138
 3156SOL     OW21100   0.184   3.403   3.738  0.1720 -0.0919  0.0252
 3156SOL    HW121101   0.183   3.319   3.784 -3.2514 -0.7661 -1.2612
 3156SOL    HW221102   0.261   3.447   3.774 -0.3169  0.8538 -0.0865
 3157SOL     OW21103   2.295   2.453   3.402 -0.3545 -0.3790  0.3514
 3157SOL    HW121104   2.310   2.367   3.442  0.0370  0.1964  1.4300
 3157SOL    HW221105   2.328   2.515   3.466  0.2024 -0.0532 -0.2563
 3158SOL     OW21106   1.044   0.873   4.287 -0.1859  0.2416 -0.1951
 3158SOL    HW121107   0.999   0.932   4.346 -2.3987 -2.1014  0.4540
 3158SOL    HW221108   0.974   0.809   4.276  0.0308 -0.0035 -0.1587
 3159SOL     OW21109   0.491   2.179   8.143  0.0060  0.3376 -0.0908
 3159SOL    HW121110   0.484   2.170   8.048 -1.3068 -1.2810  0.1630
 3159SOL    HW221111   0.517   2.270   8.157 -0.5405  0.5798 -0.6698
 3160SOL     OW21112   4.721   0.148   7.647 -0.3005  0.1164  0.2931
 3160SOL    HW121113   0.041   0.081   7.606 -2.2346 -0.9508 -0.5634
 3160SOL    HW221114   4.645   0.101   7.682  0.2340 -0.1653  1.0793
 3161SOL     OW21115   1.574   0.614  12.698  0.8824  0.1200 -0.4591
 3161SOL    HW121116   1.660   0.653  12.712  0.5586  0.7931 -0.3538
 3161SOL    HW221117   1.580   0.609  12.603  0.6484  0.3876 -0.4882
 3162SOL     OW21118   1.315   4.007  16.715 -0.3368  0.2610  0.1967
 3162SOL    HW121119   1.247   3.964  16.767 -1.3493  1.4173 -0.1856
 3162SOL    HW221120   1.379   4.026  16.783 -0.5786 -0.0229  0.4989
 3163SOL     OW21121   3.301   1.693   7.140  0.0520 -0.1535  0.3928
 3163SOL    HW121122   3.331   1.620   7.086  0.2751  0.0325  0.2657
 3163SOL    HW221123   3.207   1.687   7.128  0.3247 -0.9370 -1.3489
 3164SOL     OW21124   4.150   3.715   8.101 -0.5510 -0.5385  0.1926
 3164SOL    HW121125   4.116   3.794   8.059 -0.4253 -0.2957  0.5463
 3164SOL    HW221126   4.124   3.660   8.027 -1.6391 -2.0009  1.6620
 3165SOL     OW21127   4.323   2.173   9.185 -0.1504  0.4889 -0.1031
 3165SOL    HW121128   4.415   2.193   9.166 -0.8105  1.6696 -1.9919
 3165SOL    HW221129   4.286   2.206   9.104  0.6961 -0.2945 -0.8116
 3166SOL     OW21130   2.684   1.372   3.386  0.0339 -0.6117  0.4011
 3166SOL    HW121131   2.724   1.414   3.310 -0.7012 -0.5129  0.0665
 3166SOL    HW221132   2.717   1.430   3.455 -0.1184  0.5794 -0.5413
 3167SOL     OW21133   1.430   3.287   2.949 -0.0975  0.2400  0.3666
 3167SOL    HW121134   1.469   3.202   2.932  0.4556  0.3825  0.9195
 3167SOL    HW221135   1.500   3.338   2.989 -1.1600  1.0574  1.1979
 3168SOL     OW21136   2.432   1.560   2.154 -0.9585 -0.2816  0.6845
 3168SOL    HW121137   2.395   1.546   2.067  0.9517 -0.6214 -0.0918
 3168SOL    HW221138   2.393   1.487   2.203 -1.8240  0.9569  1.8324
 3169SOL     OW21139   1.509   4.464   7.369  0.1130 -0.1675 -0.8292
 3169SOL    HW121140   1.566   4.405   7.418  1.1466 -1.3060 -3.4199
 3169SOL    HW221141   1.479   4.409   7.297  0.8878  0.3574 -1.5539
 3170SOL     OW21142   0.749   1.988   3.934 -0.2047 -0.3959  0.2269
 3170SOL    HW121143   0.810   1.951   3.871  1.7377  0.1072  1.7984
 3170SOL    HW221144   0.770   2.081   3.926  1.1468 -0.7723 -0.5572
 3171SOL     OW21145   4.297   1.379  14.181  0.0612 -0.5265  0.0930
 3171SOL    HW121146   4.331   1.450  14.126 -0.1352 -0.7562 -0.3265
 3171SOL    HW221147   4.315   1.298  14.132  0.4333 -1.1512  1.2615
 3172SOL     OW21148   2.032   0.989   1.894  0.0444 -0.2449 -0.3730
 3172SOL    HW121149   1.991   0.974   1.809 -0.1215  2.6739 -0.8019
 3172SOL    HW221150   2.090   0.912   1.893 -1.4304 -1.4048  1.6338
 3173SOL     OW21151   0.106   0.092   5.812  0.3116  0.3859  0.1958
 3173SOL    HW121152   0.195   0.120   5.830  0.5086 -1.2624  1.7864
 3173SOL    HW221153   0.071   0.180   5.825 -2.5640 -1.0353  2.1831
 3174SOL     OW21154   4.190   0.981   4.069 -0.9303  0.3180 -0.8690
 3174SOL    HW121155   4.221   0.949   3.985 -0.1856  0.6388 -0.7150
 3174SOL    HW221156   4.105   1.011   4.037 -0.5145  0.3986 -1.9015
 3175SOL     OW21157   0.846   0.274   9.416  0.0686 -0.2877 -0.0156
 3175SOL    HW121158   0.856   0.185   9.382 -0.0391 -1.0689  1.9506
 3175SOL    HW221159   0.823   0.250   9.506 -3.3924  2.9720 -0.0325
 3176SOL     OW21160   1.686   0.482   3.877 -0.3758 -0.0078  0.6607
 3176SOL    HW121161   1.704   0.575   3.884 -0.3208  0.1131 -1.2695
 3176SOL    HW221162   1.701   0.444   3.964  0.8070 -0.1709  0.3857
 3177SOL     OW21163   1.920   2.472   1.005 -0.0975 -0.1777  0.3033
 3177SOL    HW121164   1.995   2.457   0.947 -0.5472  0.9373 -0.5816
 3177SOL    HW221165   1.934   2.397   1.063  0.9265 -3.4053 -4.0865
 3178SOL     OW21166   1.801   3.429   0.876 -0.0432 -0.1758  0.0792
 3178SOL    HW121167   1.747   3.378   0.937 -1.7192  1.3952 -0.1306
 3178SOL    HW221168   1.797   3.380   0.795 -1.9423 -1.3272  0.8694
 3179SOL     OW21169   0.028   4.637   8.454  0.3624 -0.0963 -0.5153
 3179SOL    HW121170   4.686   4.630   8.510  0.5721  1.8856  0.0363
 3179SOL    HW221171   0.004   4.575   8.385 -1.4689 -0.4657  0.4529
 3180SOL     OW21172   3.284   4.231   8.582 -0.2614 -0.7253  0.2446
 3180SOL    HW121173   3.356   4.242   8.520 -0.5134 -4.1387 -0.6192
 3180SOL    HW221174   3.332   4.246   8.664  0.3093  1.2838 -0.4524
 3181SOL     OW21175   2.869   2.192   7.373  0.1056  0.2716 -0.1261
 3181SOL    HW121176   2.831   2.159   7.455  3.4953 -1.1340  0.8770
 3181SOL    HW221177   2.922   2.263   7.409  0.2354  0.2552 -0.2839
 3182SOL     OW21178   1.679   0.840   5.213 -0.4219  0.1206  0.0760
 3182SOL    HW121179   1.615   0.816   5.146 -0.6934  0.0409  0.3671
 3182SOL    HW221180   1.762   0.833   5.164  1.3139  0.7833  2.9156
 3183SOL     OW21181   4.351   4.186   6.205 -0.0502 -0.4925 -0.3161
 3183SOL    HW121182   4.365   4.119   6.272 -0.2906 -0.5293 -0.3024
 3183SOL    HW221183   4.294   4.242   6.258 -0.8299 -0.4444 -1.2025
 3184SOL     OW21184   0.917   2.287  10.038  1.1543 -0.0034  0.7325
 3184SOL    HW121185   0.834   2.330  10.058  0.5864 -0.3542 -0.8759
 3184SOL    HW221186   0.977   2.332  10.098  2.0976 -0.9353  0.4905
 3185SOL     OW21187   1.582   1.498   8.557  0.7300 -0.1134  0.1192
 3185SOL    HW121188   1.577   1.548   8.476 -0.4460  2.9707  2.0633
 3185SOL    HW221189   1.502   1.521   8.604  0.3858  2.4523 -1.7491
 3186SOL     OW21190   4.444   0.529  17.432 -0.0474  0.6028  0.0046
 3186SOL    HW121191   4.359   0.572  17.424  0.8571  2.1056 -1.4025
 3186SOL    HW221192   4.446   0.494  17.521  1.5448 -0.2543 -0.3606
 3187SOL     OW21193   3.626   2.299   5.234 -0.8083 -0.1727 -0.4370
 3187SOL    HW121194   3.606   2.220   5.285 -1.2308 -0.4210 -0.9818
 3187SOL    HW221195   3.649   2.261   5.149 -1.6451  0.9256 -1.1481
 3188SOL     OW21196   3.655   3.961   8.599 -0.4975  0.3574  0.2159
 3188SOL    HW121197   3.744   3.967   8.563 -0.2450 -0.9806  0.6278
 3188SOL    HW221198   3.630   4.051   8.620  1.5542  1.5978 -2.6598
 3189SOL     OW21199   4.456   2.007  15.291 -0.3366  0.5285  0.8340
 3189SOL    HW121200   4.386   1.967  15.238 -1.3129  0.6426  2.0435
 3189SOL    HW221201   4.420   2.017  15.379  0.9496 -2.8591  1.7555
 3190SOL     OW21202   4.080   3.968   8.715 -0.1090 -0.4413 -0.0878
 3190SOL    HW121203   4.101   4.021   8.638  2.1892  0.3280  1.0267
 3190SOL    HW221204   3.995   4.005   8.738  0.0544  0.9501 -1.7042
 3191SOL     OW21205   0.431   4.476  17.436 -0.5749  0.6565 -0.2723
 3191SOL    HW121206   0.489   4.499  17.508 -0.3666  0.1149 -0.2651
 3191SOL    HW221207   0.443   4.381  17.443  1.7111  0.9708  0.0068
 3192SOL     OW21208   3.033   0.088   9.181 -0.3140  0.1979  0.0492
 3192SOL    HW121209   3.014   0.101   9.274  2.1494 -0.1304  0.5904
 3192SOL    HW221210   2.966   0.141   9.138  0.6248  1.7288  0.4470
 3193SOL     OW21211   1.432   4.653   4.637 -0.2006 -0.2174  0.4487
 3193SOL    HW121212   1.382   4.734   4.631 -3.4097 -2.0435  2.5618
 3193SOL    HW221213   1.366   4.592   4.670 -0.2311  0.2809  1.3307
 3194SOL     OW21214   1.880   2.657   7.658  0.2622  0.2022  0.1847
 3194SOL    HW121215   1.832   2.646   7.576  0.2810 -1.8306  0.4493
 3194SOL    HW221216   1.905   2.570   7.688  2.5718  1.4064  1.8035
 3195SOL     OW21217   0.218   2.654  13.234  0.2240  0.0501 -0.5900
 3195SOL    HW121218   0.141   2.693  13.193 -0.2905  0.1230  0.4260
 3195SOL    HW221219   0.225   2.575  13.180 -1.7152  1.0696 -2.3359
 3196SOL     OW21220   2.283   3.517   3.330 -0.1053  0.4667 -0.0210
 3196SOL    HW121221   2.366   3.474   3.308 -0.5034 -0.3906  0.1853
 3196SOL    HW221222   2.322   3.595   3.370 -1.1810  0.2426  1.4688
 3197SOL     OW21223   3.626   4.097   8.908 -0.3471 -0.2107 -0.0024
 3197SOL    HW121224   3.645   4.087   9.001  0.6714 -1.1518 -0.3114
 3197SOL    HW221225   3.558   4.032   8.891  1.5590 -2.0345 -0.6196
 3198SOL     OW21226   2.812   1.753   2.315  0.0458  0.3045  0.0913
 3198SOL    HW121227   2.755   1.828   2.330  0.3271  0.3228  1.0445
 3198SOL    HW221228   2.759   1.682   2.349 -0.3255  0.5182 -0.0383
 3199SOL     OW21229   0.684   1.403  15.928 -0.6580 -0.0228 -0.1347
 3199SOL    HW121230   0.662   1.310  15.931  1.0763 -0.5081 -2.4924
 3199SOL    HW221231   0.602   1.437  15.891 -2.7579 -3.0540  1.7240
 3200SOL     OW21232   0.869   3.208  12.586 -0.2094  0.0310 -0.6111
 3200SOL    HW121233   0.846   3.280  12.644 -0.7469  2.2493 -3.5458
 3200SOL    HW221234   0.863   3.258  12.504  0.8552 -1.8011 -1.8098
 3201SOL     OW21235   2.677   4.475   8.602  0.4198 -0.1792  0.0187
 3201SOL    HW121236   2.659   4.381   8.606 -0.2467 -0.0487  0.1423
 3201SOL    HW221237   2.617   4.499   8.531  1.0979 -0.9740 -0.8220
 3202SOL     OW21238   3.002   1.402   3.628  0.1390  0.0377  0.0739
 3202SOL    HW121239   3.021   1.350   3.550  1.8108  1.3207 -0.3762
 3202SOL    HW221240   2.907   1.413   3.633 -0.1971 -1.5682 -2.4640
 3203SOL     OW21241   4.536   4.244  16.846 -0.5751 -0.2545  0.5270
 3203SOL    HW121242   4.516   4.220  16.936  1.0931  1.6003  1.3990
 3203SOL    HW221243   4.616   4.297  16.851 -0.2738 -0.6390 -0.3025
 3204SOL     OW21244   1.911   3.583   4.316  0.5936  0.1753 -0.2307
 3204SOL    HW121245   1.958   3.665   4.329  0.8280 -0.4493  2.9693
 3204SOL    HW221246   1.886   3.577   4.408  0.7748  2.4475 -0.0381
 3205SOL     OW21247   1.353   4.556   6.412 -0.3115 -0.0828 -0.4510
 3205SOL    HW121248   1.349   4.522   6.502  2.0831  1.7003  0.3326
 3205SOL    HW221249   1.262   4.583   6.396 -0.3643  0.0902  0.1350
 3206SOL     OW21250   0.621   1.584   7.189  0.0017  0.2916 -0.6759
 3206SOL    HW121251   0.640   1.599   7.096  0.8560  1.5956 -0.2817
 3206SOL    HW221252   0.545   1.525   7.185 -0.4875  1.0501 -2.5687
 3207SOL     OW21253   0.166   0.382  14.954 -0.1342  0.2723  0.9116
 3207SOL    HW121254   0.178   0.475  14.937 -0.0238 -0.1806 -1.6017
 3207SOL    HW221255   0.178   0.355  14.863  0.6221  0.6552  0.9015
 3208SOL     OW21256   2.180   3.723   7.614 -0.3008 -0.2710 -0.1574
 3208SOL    HW121257   2.231   3.804   7.618 -0.0835 -0.3092 -1.7987
 3208SOL    HW221258   2.104   3.750   7.562  0.3251 -1.4230 -1.6984
 3209SOL     OW21259   0.960   1.035   3.855 -0.4060 -0.4704  0.8858
 3209SOL    HW121260   0.882   1.039   3.910 -0.9031 -1.3980  0.2400
 3209SOL    HW221261   1.028   0.990   3.906 -0.0211 -1.6188 -0.6400
 3210SOL     OW21262   4.539   2.970   8.323  0.1154  0.2802  0.8950
 3210SOL    HW121263   4.555   2.908   8.253 -1.6359  0.3228  0.4473
 3210SOL    HW221264   4.575   3.047   8.279 -0.9955 -1.1753 -2.5559
 3211SOL     OW21265   1.086   4.691   0.919 -0.6191 -0.2657  0.0226
 3211SOL    HW121266   1.050   4.694   1.007  0.8807  1.2266  0.5849
 3211SOL    HW221267   1.174   4.657   0.939 -0.9731 -1.5552 -0.5616
 3212SOL     OW21268   1.888   2.642   4.539 -0.1599  0.1113 -0.1472
 3212SOL    HW121269   1.979   2.670   4.537 -0.4847  1.2980  2.2698
 3212SOL    HW221270   1.857   2.705   4.604  0.8413 -0.3730  0.7946
 3213SOL     OW21271   0.113   1.874   4.515 -0.0885  0.0433  0.2817
 3213SOL    HW121272   0.167   1.938   4.560  1.8854 -0.8223 -0.8967
 3213SOL    HW221273   0.136   1.890   4.424 -1.9308 -1.3336 -0.4469
 3214SOL     OW21274   3.362   3.539   7.577 -0.2972  0.4394  0.1015
 3214SOL    HW121275   3.403   3.458   7.545  1.6052  0.8746  1.4913
 3214SOL    HW221276   3.353   3.523   7.671 -0.3845  0.7477  0.1434
 3215SOL     OW21277   0.381   4.019  12.985  0.0866  0.4161  0.5304
 3215SOL    HW121278   0.414   4.108  12.998  0.2182  0.4982 -0.4071
 3215SOL    HW221279   0.290   4.034  13.010 -0.7082 -1.8995 -0.9747
 3216SOL     OW21280   0.679   4.158   8.017 -0.1156 -0.1018  0.1824
 3216SOL    HW121281   0.757   4.215   8.018 -0.7897  0.8081  1.7737
 3216SOL    HW221282   0.691   4.127   8.107 -0.9323  1.5726  0.8703
 3217SOL     OW21283   4.441   1.480  16.977  0.0027 -0.0589  0.1388
 3217SOL    HW121284   4.410   1.398  16.938 -1.9966  1.7909 -2.1916
 3217SOL    HW221285   4.375   1.545  16.952  0.6884  0.5330 -0.1257
 3218SOL     OW21286   4.122   3.336   9.624 -0.1951 -0.1454  0.2091
 3218SOL    HW121287   4.195   3.380   9.581  1.0992 -0.3470  2.2262
 3218SOL    HW221288   4.150   3.245   9.629 -1.4279 -0.3923  2.5313
 3219SOL     OW21289   0.067   0.238   9.294 -0.0385  0.3797 -0.6102
 3219SOL    HW121290   0.151   0.195   9.308 -0.4412  0.2144  1.3515
 3219SOL    HW221291   0.062   0.261   9.387 -1.0480 -0.5118 -0.4452
 3220SOL     OW21292   2.244   0.940  16.252 -0.7733 -0.4466 -0.5205
 3220SOL    HW121293   2.302   0.878  16.297 -0.5079  3.2944  4.2603
 3220SOL    HW221294   2.222   0.995  16.327  0.3603 -1.6368  0.6913
 3221SOL     OW21295   3.452   0.872   0.503  0.0476 -0.3534  0.2022
 3221SOL    HW121296   3.515   0.871   0.574  0.9016 -2.2098 -0.5919
 3221SOL    HW221297   3.370   0.873   0.553  0.2117 -2.4919  0.5134
 3222SOL     OW21298   2.122   3.778   4.337  0.1337 -0.4630  0.1232
 3222SOL    HW121299   2.051   3.816   4.286  0.1519  0.3666  0.7188
 3222SOL    HW221300   2.168   3.862   4.336  0.6588 -0.7255  1.4445
 3223SOL     OW21301   1.111   1.786   3.637 -0.4877 -0.5950 -0.2148
 3223SOL    HW121302   1.136   1.774   3.729  1.6365 -0.5709 -0.7864
 3223SOL    HW221303   1.017   1.782   3.652 -0.4680  0.7970  0.3230
 3224SOL     OW21304   0.039   4.688   0.942 -0.0809 -0.1707  0.3307
 3224SOL    HW121305   0.056   0.017   0.872 -0.1440 -0.3233  0.1771
 3224SOL    HW221306   0.098   4.621   0.907 -2.3178 -1.8219 -0.2109
 3225SOL     OW21307   4.565   1.769   2.016  0.2014 -0.3039 -0.1668
 3225SOL    HW121308   4.643   1.717   2.034 -0.3199 -1.0951 -0.2007
 3225SOL    HW221309   4.537   1.733   1.932  0.8224  1.3265 -1.0742
 3226SOL     OW21310   0.102   0.335  16.683 -0.3288 -0.3325  0.1481
 3226SOL    HW121311   0.037   0.401  16.706  1.4985  1.0254  1.4512
 3226SOL    HW221312   0.108   0.294  16.769 -0.6364 -0.9826 -0.1465
 3227SOL     OW21313   0.194   3.634  12.481 -0.4560 -0.6556 -0.3428
 3227SOL    HW121314   0.211   3.694  12.554  0.4862 -1.6133  0.2166
 3227SOL    HW221315   0.206   3.558  12.538  0.0210 -0.1257  0.2697
 3228SOL     OW21316   3.111   0.919   2.816  0.0235  0.5687  0.6355
 3228SOL    HW121317   3.063   0.924   2.898 -0.1703  0.4931  0.5266
 3228SOL    HW221318   3.167   0.995   2.825  1.3801 -0.3657  0.1865
 3229SOL     OW21319   3.837   2.740   0.857  0.2508 -0.2193  0.4916
 3229SOL    HW121320   3.822   2.673   0.790  0.2904  0.2238  0.0427
 3229SOL    HW221321   3.814   2.824   0.817 -0.1608 -0.2997  0.5511
 3230SOL     OW21322   3.276   3.557   3.561 -0.3515  0.0152 -0.4916
 3230SOL    HW121323   3.344   3.555   3.493  1.1033 -0.2050  0.9621
 3230SOL    HW221324   3.289   3.650   3.577 -0.1584 -0.1797  0.4995
 3231SOL     OW21325   4.296   1.497  13.837  0.1958 -0.2406  0.2401
 3231SOL    HW121326   4.320   1.447  13.759 -0.6012 -1.1581  0.5820
 3231SOL    HW221327   4.376   1.550  13.840  0.8631 -1.3505  2.1183
 3232SOL     OW21328   3.186   0.253   3.065 -0.4274 -0.1651 -0.0310
 3232SOL    HW121329   3.123   0.202   3.116  1.0606 -1.1121  0.8669
 3232SOL    HW221330   3.262   0.195   3.063  0.8536  1.4883  0.3225
 3233SOL     OW21331   2.629   4.159  16.340 -0.0720  0.0557  0.3159
 3233SOL    HW121332   2.672   4.243  16.358 -1.1954  0.4975  0.9299
 3233SOL    HW221333   2.650   4.150  16.247 -1.0444  0.2801  0.0686
 3234SOL     OW21334   1.169   1.047   2.672  0.4308  0.6352  0.0702
 3234SOL    HW121335   1.085   1.004   2.688  1.3925 -0.5488  1.8558
 3234SOL    HW221336   1.235   0.979   2.675  0.0775  0.3125  0.4625
 3235SOL     OW21337   1.406   2.634   7.562  0.2333  0.1486 -0.3198
 3235SOL    HW121338   1.361   2.612   7.644 -1.2372  0.6732 -1.0057
 3235SOL    HW221339   1.347   2.607   7.492 -0.8078 -0.6144  0.8583
 3236SOL     OW21340   1.253   0.854  13.899  0.7896 -0.0882  0.1775
 3236SOL    HW121341   1.179   0.910  13.875  0.4361 -1.4832 -2.0518
 3236SOL    HW221342   1.222   0.770  13.864  0.6977  0.3585 -0.8082
 3237SOL     OW21343   4.300   1.657   8.248 -0.5180  0.0990  0.2306
 3237SOL    HW121344   4.211   1.684   8.268  0.2047  1.5222  1.5547
 3237SOL    HW221345   4.331   1.633   8.335  1.5175  1.8280 -0.0233
 3238SOL     OW21346   0.228   0.658  17.573 -0.0021  0.2468  0.0661
 3238SOL    HW121347   0.288   0.683  17.643  0.5891  0.5158 -0.5498
 3238SOL    HW221348   0.227   0.562  17.576  3.6295  0.2902  1.7423
 3239SOL     OW21349   3.516   4.177   7.000 -0.5508  0.0103 -0.2602
 3239SOL    HW121350   3.479   4.148   7.084  1.9019  1.6352  1.3819
 3239SOL    HW221351   3.608   4.157   7.015  0.0962  3.0134 -0.2993
 3240SOL     OW21352   4.318   4.305   2.571 -0.2318  0.1223 -0.1665
 3240SOL    HW121353   4.343   4.300   2.479  0.8774 -3.1990  0.3151
 3240SOL    HW221354   4.253   4.236   2.580  1.1005 -1.0059  0.8165
 3241SOL     OW21355   1.273   4.141   9.655 -0.2306 -0.1700 -0.2191
 3241SOL    HW121356   1.296   4.052   9.678  0.6563  0.8989  2.9453
 3241SOL    HW221357   1.179   4.147   9.672 -0.1747  1.2305 -0.3344
 3242SOL     OW21358   0.196   1.406  16.571  0.0837  0.5312  0.6497
 3242SOL    HW121359   0.224   1.446  16.653 -0.5815 -0.1501  1.2095
 3242SOL    HW221360   0.262   1.338  16.559  1.4986  1.7319  1.6343
 3243SOL     OW21361   1.813   4.166   4.392  0.6035  0.7227 -0.2220
 3243SOL    HW121362   1.849   4.188   4.478 -0.8407  0.2097  0.5199
 3243SOL    HW221363   1.823   4.242   4.335  1.2764  2.1799  1.8492
 3244SOL     OW21364   0.277   4.606   6.640  0.0854  0.0380  0.1368
 3244SOL    HW121365   0.304   4.633   6.728  1.6096 -1.8522  0.2342
 3244SOL    HW221366   0.210   4.546   6.671  0.5869 -0.0346  1.0868
 3245SOL     OW21367   2.623   2.578   3.423  0.8396  0.1080 -0.1288
 3245SOL    HW121368   2.575   2.594   3.343 -0.9282 -2.0788  0.4840
 3245SOL    HW221369   2.553   2.577   3.488 -1.6620 -1.4096 -2.8748
 3246SOL     OW21370   1.303   3.930   8.514  0.2014  1.0348 -0.1476
 3246SOL    HW121371   1.264   3.873   8.581  0.8334  1.5688  0.6816
 3246SOL    HW221372   1.279   4.018   8.545  1.4243  1.8262 -1.4485
 3247SOL     OW21373   2.060   3.656   6.709 -0.1162  0.2393 -0.0816
 3247SOL    HW121374   2.132   3.595   6.724 -0.0532  0.6223  1.1999
 3247SOL    HW221375   2.038   3.649   6.616 -2.4369  0.9265  0.4008
 3248SOL     OW21376   1.178   4.548   3.211 -0.8468 -0.0087  0.4990
 3248SOL    HW121377   1.116   4.608   3.253 -0.1223  1.1711 -0.1324
 3248SOL    HW221378   1.135   4.538   3.126  3.4998  0.4359 -1.7211
 3249SOL     OW21379   1.788   2.788   8.044  0.2182 -0.1458  0.8062
 3249SOL    HW121380   1.719   2.736   8.004 -0.2047  1.1013 -0.0997
 3249SOL    HW221381   1.811   2.851   7.975  0.5736  2.4529  3.2818
 3250SOL     OW21382   0.204   3.485   4.386  0.8354  0.5976 -0.2240
 3250SOL    HW121383   0.239   3.551   4.328  0.0575  0.0274 -1.3395
 3250SOL    HW221384   0.237   3.515   4.471 -1.9169  1.9894  0.3682
 3251SOL     OW21385   2.560   0.322   9.630  0.3781  0.6163 -0.2625
 3251SOL    HW121386   2.645   0.279   9.623 -0.0098 -0.4464  1.8285
 3251SOL    HW221387   2.512   0.258   9.681  1.1362 -2.5166 -3.4927
 3252SOL     OW21388   2.296   2.753   3.748 -0.2254  0.3157  0.0516
 3252SOL    HW121389   2.288   2.730   3.841 -2.4058  0.2649 -0.1622
 3252SOL    HW221390   2.354   2.829   3.757 -0.7264  0.5215  1.5565
 3253SOL     OW21391   4.269   4.697   8.229 -0.3401  0.1803 -0.0685
 3253SOL    HW121392   4.330   0.021   8.184 -0.2082  1.5906  1.9569
 3253SOL    HW221393   4.259   4.621   8.171  0.3917 -0.6215  0.8704
 3254SOL     OW21394   0.709   1.325   5.766  0.2892  0.5666 -0.1704
 3254SOL    HW121395   0.764   1.364   5.835  1.1961 -0.0718 -0.5437
 3254SOL    HW221396   0.690   1.234   5.789 -2.0181  1.9104  3.3602
 3255SOL     OW21397   2.874   1.188   8.569 -0.0145  0.5793  0.4291
 3255SOL    HW121398   2.906   1.278   8.575  0.4244  0.5071 -1.0095
 3255SOL    HW221399   2.785   1.203   8.539 -0.1835  0.7458  1.0144
 3256SOL     OW21400   2.672   3.770   2.873 -0.0250 -0.0752 -0.3512
 3256SOL    HW121401   2.673   3.675   2.858  0.3723 -0.1581  0.2308
 3256SOL    HW221402   2.586   3.796   2.840 -0.5767 -1.4323 -0.0014
 3257SOL     OW21403   2.160   4.641   8.447  0.0431  0.1013 -0.0166
 3257SOL    HW121404   2.141   4.701   8.374  0.6650 -0.9487 -1.0238
 3257SOL    HW221405   2.085   4.583   8.436  0.0850  0.0777 -0.1704
 3258SOL     OW21406   1.688   3.477   5.621  0.6441  0.3838  0.5807
 3258SOL    HW121407   1.599   3.509   5.634 -0.4314 -1.5444 -1.9012
 3258SOL    HW221408   1.669   3.387   5.645 -0.4705  0.7245  0.9672
 3259SOL     OW21409   3.760   1.313  13.230 -0.2763 -0.3372 -0.0782
 3259SOL    HW121410   3.803   1.242  13.182 -0.0536  0.5181 -1.1192
 3259SOL    HW221411   3.671   1.289  13.206  0.6379 -1.6829 -2.1629
 3260SOL     OW21412   3.937   3.654   4.109  0.2649  0.0736 -0.6546
 3260SOL    HW121413   3.981   3.576   4.142  0.7038  0.0249 -1.3770
 3260SOL    HW221414   3.844   3.635   4.122 -0.2284  2.1760 -1.0075
 3261SOL     OW21415   3.125   3.839  16.384 -0.1459  0.1634 -0.2234
 3261SOL    HW121416   3.097   3.766  16.440  0.3895  0.7055  0.7574
 3261SOL    HW221417   3.214   3.805  16.374 -0.0758  0.9013 -2.0730
 3262SOL     OW21418   1.523   3.946   6.766  0.5174 -0.2615 -0.3047
 3262SOL    HW121419   1.520   3.877   6.832  2.8643 -0.5780 -0.4937
 3262SOL    HW221420   1.504   3.892   6.689 -1.0899  1.9208 -1.4208
 3263SOL     OW21421   1.456   0.160   4.133 -0.3101 -0.3129 -0.0950
 3263SOL    HW121422   1.396   0.231   4.154  1.9030  1.9578 -1.3880
 3263SOL    HW221423   1.531   0.174   4.191  0.1298  1.8552 -1.1597
 3264SOL     OW21424   4.628   3.479   3.432 -0.0013  0.4285  0.3063
 3264SOL    HW121425   4.655   3.466   3.341 -1.1435 -0.2677  0.0742
 3264SOL    HW221426   4.541   3.518   3.423 -0.7502 -1.1786  0.6273
 3265SOL     OW21427   1.055   1.072   7.892 -0.8622  0.3447  0.2574
 3265SOL    HW121428   1.134   1.099   7.939 -1.2408 -0.5828  1.4334
 3265SOL    HW221429   1.033   1.021   7.970 -3.0656  1.5703  0.4269
 3266SOL     OW21430   0.351   1.183  13.188  0.2896  0.0947  1.1448
 3266SOL    HW121431   0.363   1.263  13.137 -1.5611 -1.4019 -1.6666
 3266SOL    HW221432   0.261   1.157  13.166  1.0846 -0.1400 -1.9037
 3267SOL     OW21433   1.515   1.076   6.570 -0.2072 -0.0702 -0.3446
 3267SOL    HW121434   1.519   1.058   6.664  0.8690  0.0661 -0.3572
 3267SOL    HW221435   1.480   1.165   6.574 -0.6437 -0.3346  1.4940
 3268SOL     OW21436   2.093   0.349   4.853  0.2438 -1.0501  0.2736
 3268SOL    HW121437   2.161   0.311   4.797  1.1785 -0.5930  1.1059
 3268SOL    HW221438   2.020   0.288   4.848 -1.1192  0.6673 -0.8888
 3269SOL     OW21439   0.755   2.432   5.242  0.3439  0.2273  0.5236
 3269SOL    HW121440   0.805   2.436   5.323  1.2223 -1.4442  0.0894
 3269SOL    HW221441   0.805   2.490   5.185  2.7449  0.1009  2.5018
 3270SOL     OW21442   1.397   4.289   6.275  0.2635  0.4174  0.0498
 3270SOL    HW121443   1.391   4.338   6.357 -1.9092  3.0987 -1.7101
 3270SOL    HW221444   1.431   4.205   6.307  1.7943  0.4810 -1.3859
 3271SOL     OW21445   0.507   3.427   2.990  0.1609  0.6175  0.0493
 3271SOL    HW121446   0.509   3.419   2.895  0.6091  2.7695 -0.1131
 3271SOL    HW221447   0.509   3.335   3.019 -1.9949 -0.1606 -2.3318
 3272SOL     OW21448   4.432   0.148   7.667  0.5262 -0.2155  0.1733
 3272SOL    HW121449   4.456   0.194   7.747 -1.0840 -1.1686  1.1870
 3272SOL    HW221450   4.350   0.108   7.695 -0.5823  0.3260 -2.2646
 3273SOL     OW21451   2.495   4.668  11.873  0.5169 -0.5270 -0.4002
 3273SOL    HW121452   2.541   4.666  11.789  2.3143  1.0092  0.5430
 3273SOL    HW221453   2.536   4.607  11.934  0.4604  1.1481  1.2944
 3274SOL     OW21454   2.705   3.344   6.248  0.4548 -0.1530 -0.1859
 3274SOL    HW121455   2.678   3.435   6.260 -2.3993 -1.3767  2.8254
 3274SOL    HW221456   2.790   3.361   6.207  1.3312 -0.4800  1.5212
 3275SOL     OW21457   3.017   3.452   3.477 -0.6378  0.4505  0.7871
 3275SOL    HW121458   2.945   3.445   3.539 -1.8412 -1.5818 -0.8424
 3275SOL    HW221459   3.088   3.488   3.530 -0.7398  0.4565  0.9193
 3276SOL     OW21460   3.692   2.858  14.920 -0.5313 -0.3195 -0.7393
 3276SOL    HW121461   3.734   2.913  14.854  1.6060  0.6198  1.3773
 3276SOL    HW221462   3.737   2.779  14.891  0.8795 -0.1772  1.0611
 3277SOL     OW21463   0.871   3.216   8.230  0.1869 -0.1448  0.0786
 3277SOL    HW121464   0.920   3.232   8.311 -1.1269  1.6306  0.5283
 3277SOL    HW221465   0.813   3.292   8.239  0.5969 -0.1112  2.3952
 3278SOL     OW21466   1.159   2.440   5.938 -0.3734 -0.0694  0.5057
 3278SOL    HW121467   1.098   2.482   5.999 -0.3736 -2.3649  2.0903
 3278SOL    HW221468   1.176   2.359   5.986 -0.4673  0.4719  1.4520
 3279SOL     OW21469   2.292   2.180   7.986 -0.1230  0.1469 -0.3156
 3279SOL    HW121470   2.219   2.233   7.953 -0.4477  0.3801  0.7789
 3279SOL    HW221471   2.363   2.245   7.987  0.6949 -0.7495  0.0724
 3280SOL     OW21472   3.060   2.356   5.346 -0.3036  0.1756  0.1749
 3280SOL    HW121473   3.139   2.342   5.294 -0.3448 -0.8652  0.4027
 3280SOL    HW221474   2.997   2.401   5.290 -1.5217  0.8988  2.1256
 3281SOL     OW21475   2.692   1.204  15.659  0.1959 -0.1699  0.2980
 3281SOL    HW121476   2.660   1.290  15.687  1.6557 -0.7188  3.7090
 3281SOL    HW221477   2.626   1.176  15.596  0.8569 -1.8695  0.3585
 3282SOL     OW21478   4.192   2.639   8.230  0.6174 -0.2222 -0.4320
 3282SOL    HW121479   4.148   2.627   8.146 -0.6480 -0.4680  0.2714
 3282SOL    HW221480   4.153   2.562   8.272  2.7733 -2.0045 -1.6906
 3283SOL     OW21481   2.058   4.304  16.616  0.1917 -0.1110  0.2636
 3283SOL    HW121482   2.083   4.279  16.706 -0.5093 -0.4355  0.3708
 3283SOL    HW221483   1.971   4.338  16.639 -0.4119 -0.7005 -1.1758
 3284SOL     OW21484   2.641   1.858   4.595  0.2979  0.0705  0.1407
 3284SOL    HW121485   2.576   1.835   4.662  0.5977  0.4803  0.5722
 3284SOL    HW221486   2.611   1.803   4.522 -0.2484  0.9277 -0.2762
 3285SOL     OW21487   2.914   4.158   3.246 -0.0574 -0.5108 -0.0948
 3285SOL    HW121488   2.897   4.115   3.162 -1.8870  0.4168 -0.2095
 3285SOL    HW221489   3.007   4.181   3.251 -0.4000  0.4389  2.0149
 3286SOL     OW21490   3.122   2.828  17.703  0.2405 -0.9059  0.1988
 3286SOL    HW121491   3.186   2.840   0.035  0.6469  0.0142 -0.3346
 3286SOL    HW221492   3.082   2.915  17.709  2.0874 -0.0902  0.5210
 3287SOL     OW21493   0.508   2.976   4.279 -0.1371 -0.7140  0.5532
 3287SOL    HW121494   0.562   2.898   4.289 -0.4932 -0.5327  3.8416
 3287SOL    HW221495   0.489   2.980   4.373  0.8567 -2.4765  0.8236
 3288SOL     OW21496   2.911   2.855   6.361  0.7790  0.5938 -0.2026
 3288SOL    HW121497   2.869   2.886   6.442  0.7337 -3.6056  1.3698
 3288SOL    HW221498   2.908   2.938   6.313  0.8068  1.1548  0.7498
 3289SOL     OW21499   3.734   1.225   7.867  0.1453  0.1893  0.2341
 3289SOL    HW121500   3.787   1.302   7.850 -2.3268  1.8098 -0.2313
 3289SOL    HW221501   3.803   1.163   7.845  0.9253  1.0542  0.2453
 3290SOL     OW21502   3.071   4.208   4.997 -0.3443 -0.3346  0.6189
 3290SOL    HW121503   3.156   4.191   5.038  0.2452  1.5609  0.2212
 3290SOL    HW221504   3.014   4.244   5.065 -2.1051  1.0393 -1.5889
 3291SOL     OW21505   2.622   0.852  12.110  0.1808  0.6605 -0.5728
 3291SOL    HW121506   2.622   0.819  12.020  2.0105 -1.1935  0.1179
 3291SOL    HW221507   2.659   0.939  12.102  2.9736 -0.4702  0.0960
 3292SOL     OW21508   1.042   3.915   4.321  0.1871  0.1559  0.0234
 3292SOL    HW121509   0.957   3.893   4.284  0.3186 -0.5025  0.1093
 3292SOL    HW221510   1.091   3.853   4.268  1.7468  1.1026  0.3385
 3293SOL     OW21511   1.944   3.071   5.514 -0.5091 -0.1294  0.1282
 3293SOL    HW121512   1.989   3.038   5.436 -1.6364 -1.1775 -0.0597
 3293SOL    HW221513   1.998   3.148   5.533 -2.5955  1.3147  0.1316
 3294SOL     OW21514   0.378   0.624   3.834 -0.3599 -0.4274 -0.1042
 3294SOL    HW121515   0.295   0.577   3.828 -0.5858 -0.2948  1.8190
 3294SOL    HW221516   0.436   0.593   3.764  1.5599  1.8174  0.4916
 3295SOL     OW21517   2.376   3.081   4.990 -0.1658  0.5251  0.0572
 3295SOL    HW121518   2.297   3.134   4.998 -0.9005 -0.2772 -1.7414
 3295SOL    HW221519   2.438   3.143   4.953  0.1267 -0.3234 -0.8781
 3296SOL     OW21520   4.339   1.461   3.522  0.1660 -0.2882  0.5745
 3296SOL    HW121521   4.386   1.544   3.524 -0.5168  0.1849 -2.1619
 3296SOL    HW221522   4.271   1.461   3.588 -0.5716  0.6088 -0.1922
 3297SOL     OW21523   1.333   3.342   9.983 -0.0450  0.1864  0.3203
 3297SOL    HW121524   1.398   3.395   9.937 -1.3823  0.7273 -0.9405
 3297SOL    HW221525   1.273   3.411  10.012  0.3769  1.6032 -2.2312
 3298SOL     OW21526   2.915   0.024   8.251  0.2777  0.0333  0.0241
 3298SOL    HW121527   2.965   0.042   8.331  1.7350 -3.6318 -0.0699
 3298SOL    HW221528   2.869   4.682   8.284  0.1604  0.3192  0.5176
 3299SOL     OW21529   3.055   2.397   1.353  0.1387 -0.1308 -0.5364
 3299SOL    HW121530   3.023   2.438   1.433 -1.4998 -0.6687 -0.9217
 3299SOL    HW221531   3.148   2.408   1.371  0.5739 -3.5543 -0.6461
 3300SOL     OW21532   1.712   2.639   1.122  0.5763  0.0330  0.0588
 3300SOL    HW121533   1.711   2.694   1.043  0.2208 -0.9402 -0.6159
 3300SOL    HW221534   1.748   2.556   1.090  0.1098  0.4539 -1.5564
 3301SOL     OW21535   1.270   2.932  10.773 -0.4091 -0.2288 -0.1824
 3301SOL    HW121536   1.212   2.857  10.787 -1.5752  0.2568 -2.2755
 3301SOL    HW221537   1.349   2.885  10.749  1.1244  2.4493 -0.4080
 3302SOL     OW21538   1.064   4.580  10.300  0.1347 -0.0879 -0.2351
 3302SOL    HW121539   1.039   4.493  10.268  0.2505 -0.6668  1.2378
 3302SOL    HW221540   1.109   4.573  10.385  0.7824  0.3627 -0.5405
 3303SOL     OW21541   0.592   0.890   3.258 -0.2244  0.1315  0.2543
 3303SOL    HW121542   0.511   0.856   3.220  0.1702 -1.6233  0.9658
 3303SOL    HW221543   0.568   0.981   3.271 -1.3123 -0.2424  0.9044
 3304SOL     OW21544   4.517   3.178   4.378  0.5598 -0.9044  0.7846
 3304SOL    HW121545   4.603   3.202   4.410 -0.0341 -1.3347  2.6816
 3304SOL    HW221546   4.472   3.153   4.459 -1.2138 -0.1986  0.0302
 3305SOL     OW21547   3.440   1.189   3.419 -0.4384 -0.1408 -0.1495
 3305SOL    HW121548   3.429   1.127   3.347  0.2477 -0.8780  0.3867
 3305SOL    HW221549   3.525   1.225   3.392 -0.1111 -1.3537 -0.7314
 3306SOL     OW21550   0.327   3.566   6.124 -0.2745  0.3268  0.4757
 3306SOL    HW121551   0.402   3.598   6.073 -0.5772  1.9082  1.0078
 3306SOL    HW221552   0.327   3.625   6.200 -0.9203 -1.0423  1.5223
 3307SOL     OW21553   2.212   3.939   1.557 -0.0212 -0.1188 -0.2473
 3307SOL    HW121554   2.165   3.859   1.537 -0.2136 -0.9240  3.3044
 3307SOL    HW221555   2.140   3.992   1.593  0.6581  0.1054  0.7989
 3308SOL     OW21556   2.343   1.445  16.344 -0.4461 -0.7664 -0.2270
 3308SOL    HW121557   2.406   1.392  16.295  0.4126  0.7329 -0.7270
 3308SOL    HW221558   2.267   1.430  16.288 -0.7185  0.3013 -0.1415
 3309SOL     OW21559   3.939   2.722   9.928 -0.0968 -0.0810 -0.2931
 3309SOL    HW121560   3.970   2.812   9.943  1.3959 -0.3765 -1.5856
 3309SOL    HW221561   3.904   2.701  10.014 -0.7725 -2.4152 -1.1371
 3310SOL     OW21562   0.569   0.808   6.357 -0.3270  0.1438  0.0828
 3310SOL    HW121563   0.487   0.857   6.359  0.5198  1.5073  2.0842
 3310SOL    HW221564   0.597   0.814   6.266 -0.3278 -1.2044  0.0025
 3311SOL     OW21565   2.459   3.759   4.382 -0.5656  0.6371 -0.0089
 3311SOL    HW121566   2.399   3.687   4.364  0.4011 -0.6058  1.7272
 3311SOL    HW221567   2.523   3.712   4.435 -2.3943  0.4566  2.0276
 3312SOL     OW21568   2.030   4.706   5.539 -0.6002 -0.3381 -0.1471
 3312SOL    HW121569   2.044   0.060   5.505 -1.9563 -0.2282 -0.4284
 3312SOL    HW221570   2.120   4.673   5.540 -0.3867  0.2737  0.9348
 3313SOL     OW21571   0.765   3.172  17.667  0.1433  0.4314 -0.4602
 3313SOL    HW121572   0.828   3.209  17.605  1.5108 -0.1737  0.5453
 3313SOL    HW221573   0.694   3.236  17.665 -0.3475 -0.1340 -1.1829
 3314SOL     OW21574   3.905   4.389   9.005 -0.0862 -0.3256  0.2041
 3314SOL    HW121575   3.895   4.441   9.085  0.2157 -1.3328  0.8921
 3314SOL    HW221576   3.994   4.356   9.012  0.3717  0.8300 -0.0418
 3315SOL     OW21577   3.286   0.414   2.867  0.6490 -0.0290  0.0208
 3315SOL    HW121578   3.247   0.346   2.922 -0.4621 -0.8475 -1.7659
 3315SOL    HW221579   3.380   0.404   2.884  0.9200 -0.9195 -2.0174
 3316SOL     OW21580   4.622   0.051   9.101  0.9305  0.4488  0.2514
 3316SOL    HW121581   4.611   4.728   9.176  0.5698  0.4479  0.1946
 3316SOL    HW221582   4.692   0.107   9.136  0.8319  0.0529  1.0836
 3317SOL     OW21583   4.673   4.633   5.749  0.4700  0.5348  0.3866
 3317SOL    HW121584   4.723   4.559   5.784 -2.2705 -1.0222  1.0165
 3317SOL    HW221585   4.724   4.708   5.779 -0.8369  1.8545 -0.6803
 3318SOL     OW21586   2.232   2.139   3.335  0.0391 -0.1871 -0.0118
 3318SOL    HW121587   2.248   2.094   3.418  1.0768  1.5497  0.7322
 3318SOL    HW221588   2.184   2.066   3.295  1.5654 -0.2288 -1.7884
 3319SOL     OW21589   1.827   1.077  12.600 -0.0687 -0.1427  0.2436
 3319SOL    HW121590   1.750   1.134  12.602 -0.1199 -0.1614 -1.0548
 3319SOL    HW221591   1.787   0.996  12.631 -1.0191  1.0720  2.1842
 3320SOL     OW21592   4.500   1.883  13.922 -0.5099  0.3103 -0.2809
 3320SOL    HW121593   4.408   1.900  13.899 -0.6554 -0.0606  0.0233
 3320SOL    HW221594   4.539   1.970  13.932 -2.3213  1.6687 -4.8254
 3321SOL     OW21595   2.549   2.637   0.866 -0.2445  0.1391 -0.4372
 3321SOL    HW121596   2.471   2.610   0.915 -2.2322  3.2142 -1.9953
 3321SOL    HW221597   2.606   2.608   0.937 -1.4262  0.9427  0.8380
 3322SOL     OW21598   4.567   4.360   6.352 -0.3135  0.2948  0.3752
 3322SOL    HW121599   4.639   4.314   6.309 -2.0134 -1.2689 -0.7994
 3322SOL    HW221600   4.489   4.340   6.301  1.2332  0.4133 -2.0133
 3323SOL     OW21601   0.934   2.486   3.182 -0.2713  0.3152  0.2614
 3323SOL    HW121602   0.874   2.515   3.113 -3.0068 -0.3569  2.3488
 3323SOL    HW221603   0.910   2.547   3.252 -0.1975 -1.8980  2.2216
 3324SOL     OW21604   4.088   4.048   6.655  0.3841  0.0129  0.2173
 3324SOL    HW121605   4.052   3.971   6.698 -1.4714  0.6890 -0.1075
 3324SOL    HW221606   4.181   4.026   6.647  0.5809  0.6096  0.8711
 3325SOL     OW21607   3.533   2.760  13.156  0.1912  0.1519  0.1726
 3325SOL    HW121608   3.575   2.744  13.240 -0.0452 -1.1356  0.0347
 3325SOL    HW221609   3.479   2.835  13.181 -0.7640 -0.2402 -0.7078
 3326SOL     OW21610   1.964   4.078   8.574 -0.5350 -0.3832  0.0394
 3326SOL    HW121611   2.002   4.000   8.616  0.0351 -0.3865 -0.4744
 3326SOL    HW221612   1.963   4.145   8.642 -0.3287 -0.5354  0.1937
 3327SOL     OW21613   2.351   3.519   7.133 -0.5261  0.6407 -0.2237
 3327SOL    HW121614   2.356   3.424   7.141 -0.8553  0.6006 -0.4502
 3327SOL    HW221615   2.440   3.536   7.162 -0.5561 -0.0996  0.2822
 3328SOL     OW21616   4.645   1.902   6.847 -0.1796 -0.1764  0.1267
 3328SOL    HW121617   4.681   1.818   6.816  1.1670  0.4841 -0.1008
 3328SOL    HW221618   4.590   1.918   6.771 -1.6358 -2.5805  0.6615
 3329SOL     OW21619   4.155   3.666   4.665 -0.3440  0.1778 -0.1267
 3329SOL    HW121620   4.247   3.647   4.684 -0.9943  0.0874  2.9784
 3329SOL    HW221621   4.113   3.660   4.751  0.5611 -0.7812  0.2498
 3330SOL     OW21622   4.432   3.353   8.703 -0.4501 -0.0326  0.2187
 3330SOL    HW121623   4.474   3.426   8.748 -0.3158 -0.4664  0.7973
 3330SOL    HW221624   4.456   3.367   8.611  0.6630  0.2622  0.5453
 3331SOL     OW21625   1.855   4.518   8.095 -0.3850  0.3505  0.2033
 3331SOL    HW121626   1.830   4.598   8.048  0.5806 -0.1082 -1.0825
 3331SOL    HW221627   1.772   4.473   8.080 -0.2558 -0.4775  1.9836
 3332SOL     OW21628   1.904   4.534   8.372  0.3625 -0.3828  0.4725
 3332SOL    HW121629   1.964   4.460   8.384 -0.6214 -1.2684 -0.0624
 3332SOL    HW221630   1.893   4.528   8.277 -0.5576 -0.0609  0.5637
 3333SOL     OW21631   2.764   4.593   0.706  0.3200  0.2856 -0.5646
 3333SOL    HW121632   2.836   4.655   0.695 -0.2357  0.9559 -0.3628
 3333SOL    HW221633   2.784   4.556   0.792 -0.5435  1.6942  0.2376
 3334SOL     OW21634   1.228   2.176  13.523  0.6301  0.9103 -0.2234
 3334SOL    HW121635   1.168   2.119  13.571 -0.5856  1.7158 -0.7486
 3334SOL    HW221636   1.188   2.179  13.435  0.0630 -2.1325 -0.0745
 3335SOL     OW21637   2.296   1.980   4.461  0.6388  0.4321  0.4846
 3335SOL    HW121638   2.354   1.977   4.385 -2.0856 -0.7943 -1.5391
 3335SOL    HW221639   2.218   1.935   4.428  1.6922 -0.3759 -0.9077
 3336SOL     OW21640   0.647   4.724  13.624 -0.9520 -0.2562  0.3537
 3336SOL    HW121641   0.603   4.680  13.697 -3.0745 -0.0210 -0.8012
 3336SOL    HW221642   0.615   4.670  13.552 -0.9969 -2.6267  2.1405
 3337SOL     OW21643   3.389   3.692   2.541  0.4257 -0.4314 -0.2810
 3337SOL    HW121644   3.361   3.683   2.450 -1.4744 -2.7705  0.5621
 3337SOL    HW221645   3.317   3.647   2.584 -2.0542  1.5031 -2.4189
 3338SOL     OW21646   2.533   3.149  15.453  0.1410 -0.0396  0.2698
 3338SOL    HW121647   2.532   3.140  15.548  1.6302  0.3386  0.3218
 3338SOL    HW221648   2.444   3.122  15.430  0.1433 -0.3194  0.5891
 3339SOL     OW21649   4.525   1.757   8.508  0.3902 -0.2991 -0.0537
 3339SOL    HW121650   4.615   1.788   8.494  1.0525 -0.6092  3.5066
 3339SOL    HW221651   4.538   1.667   8.537  0.9235  0.3180  1.6509
 3340SOL     OW21652   4.023   4.204  10.108  0.5817  0.1300 -0.5521
 3340SOL    HW121653   4.085   4.159  10.052  0.6711 -0.9504  0.4242
 3340SOL    HW221654   3.987   4.128  10.153  2.1571  0.0103  0.4752
 3341SOL     OW21655   0.513   0.611   3.236 -0.3386  0.1181  0.2011
 3341SOL    HW121656   0.546   0.598   3.147 -0.5449 -0.3685  0.1971
 3341SOL    HW221657   0.598   0.621   3.280  0.0834 -1.4581 -0.2797
 3342SOL     OW21658   0.266   0.703   5.044 -0.7623 -0.0780 -0.2320
 3342SOL    HW121659   0.237   0.711   5.135 -0.0823 -1.8954  0.1500
 3342SOL    HW221660   0.287   0.795   5.027 -0.5733  0.1145  0.9995
 3343SOL     OW21661   3.027   2.964  13.284  0.6168  0.7253 -0.2695
 3343SOL    HW121662   3.044   2.912  13.363  1.6577  2.3941  0.6074
 3343SOL    HW221663   2.992   3.047  13.315  0.9771 -0.0538  2.3234
 3344SOL     OW21664   1.144   0.478   1.676  0.1277  0.0699 -0.2965
 3344SOL    HW121665   1.217   0.461   1.617  0.7584 -0.0804  0.5378
 3344SOL    HW221666   1.096   0.395   1.674  0.3801 -0.0465 -1.5047
 3345SOL     OW21667   3.714   2.994   8.002 -0.4591  0.4697  0.2039
 3345SOL    HW121668   3.648   3.040   8.054 -1.0675  0.6514 -0.7144
 3345SOL    HW221669   3.783   2.999   8.067  0.7005 -1.6529 -0.8577
 3346SOL     OW21670   2.401   4.395  12.724 -0.2062  0.2437 -0.4173
 3346SOL    HW121671   2.493   4.395  12.700 -0.6177 -0.4082 -2.0226
 3346SOL    HW221672   2.396   4.345  12.806 -1.0743 -0.8723 -1.1435
 3347SOL     OW21673   3.626   3.518  17.004 -0.3613  0.2900 -0.3711
 3347SOL    HW121674   3.671   3.580  17.061 -1.4539 -0.2896  1.1111
 3347SOL    HW221675   3.694   3.486  16.944  0.7133 -0.2252  1.1140
 3348SOL     OW21676   1.896   1.679   4.070  0.5116 -0.1659 -0.0065
 3348SOL    HW121677   1.941   1.594   4.075 -0.5479 -0.7968 -1.1691
 3348SOL    HW221678   1.914   1.720   4.154  0.1618 -1.0380  0.4912
 3349SOL     OW21679   4.643   0.036   4.279  0.2038 -0.2055  0.1464
 3349SOL    HW121680   4.584   0.091   4.330  0.5051  0.8928 -0.6723
 3349SOL    HW221681   4.725   0.065   4.321 -1.0499 -0.5742  2.8423
 3350SOL     OW21682   1.056   4.294  11.108 -0.5748  0.4286  0.6091
 3350SOL    HW121683   1.149   4.302  11.129 -0.2928 -1.3822  0.0698
 3350SOL    HW221684   1.032   4.211  11.149 -0.3568 -1.1039 -2.3360
 3351SOL     OW21685   0.499   2.985   3.593 -0.2612  0.6165 -0.0415
 3351SOL    HW121686   0.459   3.043   3.659 -2.0268 -0.7754  0.1147
 3351SOL    HW221687   0.582   3.032   3.585  0.5155 -0.7187  0.3181
 3352SOL     OW21688   0.495   0.295   3.561 -0.3094  0.4872 -0.2688
 3352SOL    HW121689   0.490   0.387   3.588 -1.6798 -0.1017  1.5098
 3352SOL    HW221690   0.431   0.260   3.623 -1.8839 -1.1902 -2.8698
 3353SOL     OW21691   3.278   1.734   3.395  0.0832  0.6770  0.5235
 3353SOL    HW121692   3.219   1.685   3.452 -2.3787  1.9959 -0.9119
 3353SOL    HW221693   3.294   1.673   3.323  0.6716 -0.7279  1.8310
 3354SOL     OW21694   1.122   1.062  13.577  0.4064 -0.7714 -0.5250
 3354SOL    HW121695   1.147   0.977  13.539  1.5614 -0.3235 -0.7668
 3354SOL    HW221696   1.110   1.046  13.670  1.4130 -2.0236 -0.6155
 3355SOL     OW21697   4.422   0.991   6.486  0.2465  0.4051  0.3351
 3355SOL    HW121698   4.451   0.961   6.400 -2.3204 -0.5626 -0.1789
 3355SOL    HW221699   4.337   0.950   6.503 -0.0132  1.0951  0.6969
 3356SOL     OW21700   1.082   1.055   3.127 -0.1693 -0.1037 -0.1997
 3356SOL    HW121701   1.163   1.010   3.152  0.6371  1.5122  0.1544
 3356SOL    HW221702   1.114   1.108   3.054 -0.4564 -0.1890 -0.3861
 3357SOL     OW21703   3.736   3.148  12.281 -0.5190 -0.1365 -0.3040
 3357SOL    HW121704   3.801   3.102  12.228  0.1104 -2.1274  2.2099
 3357SOL    HW221705   3.691   3.075  12.323 -1.5796  1.9615  2.1859
 3358SOL     OW21706   1.290   0.780   7.983 -0.2198 -0.0476  0.1210
 3358SOL    HW121707   1.355   0.752   7.918 -1.8495  3.5233 -3.0393
 3358SOL    HW221708   1.339   0.764   8.064  0.0659 -0.9097 -0.2171
 3359SOL     OW21709   1.610   1.540   5.445  0.1608 -0.3688 -0.1267
 3359SOL    HW121710   1.632   1.476   5.378 -0.5912  0.8570 -1.5379
 3359SOL    HW221711   1.614   1.624   5.399  1.5152  1.1467  2.7562
 3360SOL     OW21712   3.653   1.778   7.571 -0.0185 -0.2064  0.0838
 3360SOL    HW121713   3.673   1.852   7.513 -0.7601  0.3175  0.4933
 3360SOL    HW221714   3.619   1.722   7.501 -1.1152 -0.4912  0.8498
 3361SOL     OW21715   3.218   0.866   0.623  0.3969 -0.0193 -0.7060
 3361SOL    HW121716   3.208   0.941   0.682  0.3852 -0.6920  0.1477
 3361SOL    HW221717   3.142   0.881   0.566 -1.1060  0.7253  1.4903
 3362SOL     OW21718   4.353   2.458   6.111 -0.2865  0.6843 -0.1526
 3362SOL    HW121719   4.442   2.469   6.077 -0.3059 -1.1583 -0.7923
 3362SOL    HW221720   4.320   2.390   6.053 -0.2664 -0.2265  0.9005
 3363SOL     OW21721   1.770   1.549   0.532  0.3622 -0.2257  0.2915
 3363SOL    HW121722   1.733   1.461   0.543 -0.5000  0.2466  1.2437
 3363SOL    HW221723   1.732   1.572   0.447  1.4683 -1.8380 -0.6335
 3364SOL     OW21724   4.657   0.642   0.835 -0.5807  0.4790 -0.2016
 3364SOL    HW121725   4.634   0.722   0.788  0.5627 -0.2351 -1.9712
 3364SOL    HW221726   0.001   0.614   0.789 -0.2399 -0.5073  0.9859
 3365SOL     OW21727   1.946   4.152   2.246 -0.0895 -0.2130  0.0884
 3365SOL    HW121728   1.958   4.061   2.275  1.4089 -0.9542 -2.8712
 3365SOL    HW221729   1.927   4.196   2.329  0.4337  0.2680 -0.0463
 3366SOL     OW21730   0.173   4.732   3.405  0.0272  0.1093 -0.1480
 3366SOL    HW121731   0.264   0.012   3.432 -0.1539  0.7567  0.1078
 3366SOL    HW221732   0.194   4.651   3.358 -2.2412  0.0042 -0.9563
 3367SOL     OW21733   2.370   2.589   7.249  0.0271  0.0293  0.0473
 3367SOL    HW121734   2.436   2.613   7.184  0.9804 -0.9675  0.6509
 3367SOL    HW221735   2.406   2.505   7.276  1.3821  0.4166 -0.5550
 3368SOL     OW21736   0.179   0.248  16.173  0.0918  0.1497  0.2793
 3368SOL    HW121737   0.167   0.224  16.265 -0.2027 -1.4480 -0.1683
 3368SOL    HW221738   0.101   0.202  16.140 -0.2107 -0.6319  2.0991
 3369SOL     OW21739   0.883   1.849   4.384  0.0283 -0.2307 -0.3733
 3369SOL    HW121740   0.866   1.787   4.313 -0.3611 -1.0764  0.4533
 3369SOL    HW221741   0.805   1.826   4.435 -0.4691  0.4963 -0.8222
 3370SOL     OW21742   0.539   0.445  11.302  0.4427 -0.1492  0.2879
 3370SOL    HW121743   0.494   0.516  11.258  2.8789 -0.6641 -3.0559
 3370SOL    HW221744   0.535   0.382  11.229 -0.6876 -0.5042  0.6619
 3371SOL     OW21745   0.838   1.710   2.141  0.2954 -0.2928 -0.0121
 3371SOL    HW121746   0.822   1.697   2.234 -1.4268 -0.6405 -0.3586
 3371SOL    HW221747   0.766   1.770   2.118  0.1678 -0.3256  0.3003
 3372SOL     OW21748   2.408   1.117  17.266  0.4587  0.3440 -0.1419
 3372SOL    HW121749   2.326   1.137  17.312 -0.6965  1.1324 -2.5348
 3372SOL    HW221750   2.376   1.047  17.208  3.3501 -1.9744  1.0670
 3373SOL     OW21751   0.238   4.172   6.948  0.3086  0.3753 -0.0346
 3373SOL    HW121752   0.219   4.156   7.040  2.0268 -1.6366 -0.0325
 3373SOL    HW221753   0.313   4.231   6.957 -0.4220  1.0964  1.2961
 3374SOL     OW21754   3.716   1.236   1.794  0.4669  0.0200  0.5677
 3374SOL    HW121755   3.776   1.243   1.720 -1.2529 -2.5961 -1.0741
 3374SOL    HW221756   3.681   1.326   1.797  0.9943  0.2626 -0.9963
 3375SOL     OW21757   4.653   4.631  15.421  0.0595  0.1529  0.0516
 3375SOL    HW121758   4.731   4.587  15.456 -0.6577  0.5622  2.1378
 3375SOL    HW221759   4.687   4.671  15.340  0.7366 -0.3820  0.0718
 3376SOL     OW21760   1.054   1.031  14.271 -0.2479 -0.4561  0.3371
 3376SOL    HW121761   1.060   0.982  14.353  0.0738  0.5774  0.9212
 3376SOL    HW221762   1.136   1.004  14.230 -1.5597 -2.3943 -1.0153
 3377SOL     OW21763   2.314   1.893   2.695 -0.5208  0.4036 -0.2002
 3377SOL    HW121764   2.284   1.803   2.707 -0.2990  0.5628  1.5252
 3377SOL    HW221765   2.409   1.892   2.708 -0.7438 -1.8529  1.2261
 3378SOL     OW21766   4.058   1.319   2.901  0.3452  0.4168 -0.2518
 3378SOL    HW121767   4.090   1.408   2.892  1.6692  0.0449  0.7261
 3378SOL    HW221768   3.965   1.334   2.917  0.0614  1.8251 -3.2894
 3379SOL     OW21769   3.844   0.781   0.356 -0.0843  0.5172 -0.0595
 3379SOL    HW121770   3.833   0.810   0.447  1.1523 -2.7720  1.1516
 3379SOL    HW221771   3.878   0.866   0.329  0.4205 -0.2557 -1.8583
 3380SOL     OW21772   1.071   4.235   2.987  0.2882 -0.8423 -0.1572
 3380SOL    HW121773   1.046   4.268   2.901  0.5449 -2.2227 -0.7596
 3380SOL    HW221774   1.008   4.163   2.999  2.1441 -2.3779  0.4035
 3381SOL     OW21775   3.723   0.438  10.647  0.3593 -0.7299  0.2342
 3381SOL    HW121776   3.694   0.366  10.703 -0.7674 -2.3239 -2.3959
 3381SOL    HW221777   3.646   0.474  10.603  0.4386 -2.2251 -1.1630
 3382SOL     OW21778   1.159   2.112   7.017 -0.5469 -0.0119  0.9546
 3382SOL    HW121779   1.203   2.105   6.933 -0.9531 -1.5887  0.8738
 3382SOL    HW221780   1.144   2.020   7.038 -1.9762 -0.1806 -0.8419
 3383SOL     OW21781   4.641   0.298   4.539  0.1512  0.5487 -0.0607
 3383SOL    HW121782   4.625   0.335   4.452  0.2572 -2.1833 -1.2634
 3383SOL    HW221783   4.733   0.314   4.557 -0.1179  2.3028 -0.2928
 3384SOL     OW21784   3.289   1.599   0.760  0.1072  0.3218  0.2404
 3384SOL    HW121785   3.246   1.683   0.773 -1.4188 -0.4392  0.0742
 3384SOL    HW221786   3.299   1.602   0.665  3.2239 -1.4212  0.4948
 3385SOL     OW21787   3.969   0.007   9.434 -0.2683  0.3520 -0.4288
 3385SOL    HW121788   3.885   0.050   9.422 -0.5262 -0.5895 -2.0349
 3385SOL    HW221789   3.994   0.036   9.522  0.9267 -0.7276 -0.4085
 3386SOL     OW21790   4.406   2.370   4.093  0.1192  0.4362 -0.8056
 3386SOL    HW121791   4.365   2.343   4.011 -2.2501 -2.9949  1.4900
 3386SOL    HW221792   4.471   2.303   4.114  0.1964  1.1853  1.3444
 3387SOL     OW21793   3.808   3.400  12.262 -0.3587  0.3482 -0.5614
 3387SOL    HW121794   3.791   3.308  12.281 -1.1691  0.7008  0.4254
 3387SOL    HW221795   3.896   3.402  12.225  0.5781 -0.6705  1.6093
 3388SOL     OW21796   0.800   0.849   8.321 -0.1380  0.3381 -0.4049
 3388SOL    HW121797   0.744   0.869   8.397 -0.8437 -0.7099 -0.6483
 3388SOL    HW221798   0.821   0.760   8.349  0.2170  1.2368  2.2831
 3389SOL     OW21799   4.536   0.952  14.911 -0.3358  0.4751  0.3977
 3389SOL    HW121800   4.450   0.968  14.949  0.4623  3.1028  1.1070
 3389SOL    HW221801   4.509   0.875  14.860 -1.4080  0.5768  0.8160
 3390SOL     OW21802   3.966   4.337   2.652 -0.3044  0.5361 -0.4652
 3390SOL    HW121803   3.994   4.246   2.637  2.9513  1.1613  1.6662
 3390SOL    HW221804   3.952   4.360   2.744 -1.6590 -1.8669 -0.0695
 3391SOL     OW21805   3.778   1.362  17.220  0.0000  0.2895  0.5461
 3391SOL    HW121806   3.831   1.284  17.238  0.1173  0.7235  2.0653
 3391SOL    HW221807   3.757   1.359  17.127  0.9986  1.1643  0.2813
 3392SOL     OW21808   2.889   1.202   4.625 -0.4552 -0.9472 -0.4516
 3392SOL    HW121809   2.918   1.286   4.589 -0.8115 -0.4558  0.4204
 3392SOL    HW221810   2.795   1.220   4.627 -0.1955  0.3891 -0.2141
 3393SOL     OW21811   1.932   2.900  12.843 -0.7697 -0.0467  0.4693
 3393SOL    HW121812   1.865   2.961  12.812 -1.5213 -0.5249  1.1568
 3393SOL    HW221813   1.885   2.818  12.856 -0.3447 -0.3554  0.0405
 3394SOL     OW21814   4.611   2.072   2.131 -0.0538  0.4957  0.1677
 3394SOL    HW121815   4.565   2.115   2.059  1.2078 -1.0874 -1.6136
 3394SOL    HW221816   4.640   1.988   2.095 -1.4465  0.1865 -0.2352
 3395SOL     OW21817   3.643   2.115  11.593  0.6384 -0.5568  0.0167
 3395SOL    HW121818   3.639   2.027  11.631 -0.3721 -0.8099 -0.6731
 3395SOL    HW221819   3.713   2.116  11.528 -0.2980 -0.3399 -0.9755
 3396SOL     OW21820   4.675   2.340   4.119  0.3424 -0.1094  0.4448
 3396SOL    HW121821   0.012   2.276   4.117 -1.8830 -2.4014 -4.7778
 3396SOL    HW221822   4.714   2.412   4.069  1.1202 -0.0132  1.1837
 3397SOL     OW21823   1.978   0.282  15.249  0.2764  0.3511 -0.0460
 3397SOL    HW121824   1.915   0.334  15.299 -0.9442  0.9746 -2.2793
 3397SOL    HW221825   2.040   0.267  15.321 -0.4894 -1.1085  0.3234
 3398SOL     OW21826   2.214   1.291  15.626  0.3005 -0.1259  0.1812
 3398SOL    HW121827   2.149   1.336  15.679  0.5765  1.0828 -0.4994
 3398SOL    HW221828   2.236   1.221  15.687  0.2922 -1.1356 -0.9790
 3399SOL     OW21829   0.405   1.120   3.616  0.1933 -0.3668 -0.1555
 3399SOL    HW121830   0.397   1.046   3.676  1.5490 -0.0579  0.3925
 3399SOL    HW221831   0.360   1.085   3.539 -0.7188 -0.3473  0.3687
 3400SOL     OW21832   3.777   2.521  16.338 -0.0968 -0.5135 -0.3404
 3400SOL    HW121833   3.790   2.480  16.253  0.9133  0.6200 -0.7342
 3400SOL    HW221834   3.729   2.596  16.304 -2.5135 -3.4959 -3.4189
 3401SOL     OW21835   4.213   2.273   2.916 -0.3494 -0.1039  0.2943
 3401SOL    HW121836   4.252   2.335   2.855  0.1811  0.8953  1.6492
 3401SOL    HW221837   4.123   2.306   2.916 -0.7217 -1.1190 -0.5685
 3402SOL     OW21838   3.817   1.878   5.663 -0.3778  0.3254 -0.4037
 3402SOL    HW121839   3.722   1.889   5.672 -0.4680 -1.9097  1.2807
 3402SOL    HW221840   3.832   1.786   5.683  2.2155  0.4752 -1.5843
 3403SOL     OW21841   3.715   3.560   8.251 -0.1368  0.4845 -0.3094
 3403SOL    HW121842   3.719   3.466   8.265  1.9947  0.8942  1.8892
 3403SOL    HW221843   3.622   3.579   8.264 -0.3789  0.1881 -1.5590
 3404SOL     OW21844   4.435   3.274   0.814  0.3675  0.0548  0.0064
 3404SOL    HW121845   4.489   3.323   0.875  1.4508 -0.5938 -0.4332
 3404SOL    HW221846   4.487   3.194   0.810  1.4386  0.6219  2.4936
 3405SOL     OW21847   4.133   0.790   8.019 -0.3400 -0.2334  0.0749
 3405SOL    HW121848   4.203   0.800   7.954 -1.8345 -1.6040 -1.7466
 3405SOL    HW221849   4.185   0.745   8.085  0.1454  0.1647 -0.0259
 3406SOL     OW21850   4.060   2.220  10.093 -0.5469  0.2271 -0.2188
 3406SOL    HW121851   4.049   2.302  10.046 -1.9431  0.9503  1.3462
 3406SOL    HW221852   3.986   2.245  10.149 -0.0719  3.1641 -0.9419
 3407SOL     OW21853   4.489   0.733   8.968  0.2920  0.9821 -1.1253
 3407SOL    HW121854   4.414   0.688   9.008  0.3793  1.8048 -0.0288
 3407SOL    HW221855   4.443   0.763   8.890 -1.8182 -0.5394 -0.4805
 3408SOL     OW21856   0.830   3.872   4.171  0.0795  0.4260 -0.4860
 3408SOL    HW121857   0.835   3.807   4.101 -0.5114  0.2107 -0.3302
 3408SOL    HW221858   0.782   3.941   4.125 -0.0332  0.4663 -0.3121
 3409SOL     OW21859   1.610   0.249   3.167 -0.1534  0.2426 -0.0093
 3409SOL    HW121860   1.549   0.220   3.234 -1.1309  0.3623 -0.8375
 3409SOL    HW221861   1.603   0.342   3.190  0.0930  0.3707 -0.4392
 3410SOL     OW21862   4.252   0.913   0.921 -0.1529 -0.2390 -0.8553
 3410SOL    HW121863   4.203   0.907   1.003  1.0653 -1.8545 -0.2384
 3410SOL    HW221864   4.184   0.952   0.867 -0.4429 -1.1806 -1.1577
 3411SOL     OW21865   2.564   2.142   4.985 -0.4970  0.1338  0.3225
 3411SOL    HW121866   2.523   2.158   4.900  0.6701  1.3579 -0.0230
 3411SOL    HW221867   2.634   2.207   4.989 -1.5721  1.5014 -3.1443
 3412SOL     OW21868   2.681   1.930  15.986 -0.1776  0.4766 -0.4849
 3412SOL    HW121869   2.620   1.927  16.060 -0.2281  2.4381 -0.4258
 3412SOL    HW221870   2.692   1.838  15.964 -1.2563  0.3359 -0.4115
 3413SOL     OW21871   0.003   1.923   7.912  0.2876  0.1194  0.6888
 3413SOL    HW121872   0.017   2.018   7.915 -0.1609  0.2047  0.0896
 3413SOL    HW221873   4.642   1.917   7.909  0.3334 -0.2298  0.0783
 3414SOL     OW21874   2.182   4.704   6.406 -0.5998 -0.0007 -0.1455
 3414SOL    HW121875   2.104   4.666   6.447  0.3538 -2.2056 -0.3717
 3414SOL    HW221876   2.178   0.059   6.440 -2.9500  0.2692 -1.1211
 3415SOL     OW21877   4.175   4.610  12.093  0.2927 -0.0779 -0.1806
 3415SOL    HW121878   4.202   4.668  12.165 -1.0909 -0.5523  0.7319
 3415SOL    HW221879   4.136   4.673  12.033 -1.0806  0.0436  0.8068
 3416SOL     OW21880   1.463   4.024   6.368  0.2729  0.1776  0.0621
 3416SOL    HW121881   1.448   3.932   6.391 -0.9426  0.5185  0.5946
 3416SOL    HW221882   1.516   4.022   6.288  0.7838 -1.0159  0.4234
 3417SOL     OW21883   2.631   0.526  15.969 -0.3560  0.4609  0.4460
 3417SOL    HW121884   2.682   0.602  15.997 -0.0547  0.5098 -0.2492
 3417SOL    HW221885   2.683   0.488  15.898  1.2667  2.4923  0.5715
 3418SOL     OW21886   4.380   2.290   8.607 -0.3967 -0.1491  0.0317
 3418SOL    HW121887   4.438   2.325   8.675 -0.2416 -0.5020  0.0803
 3418SOL    HW221888   4.398   2.346   8.531  0.7219 -0.0907  0.3331
 3419SOL     OW21889   4.484   0.741  17.734 -0.2159 -0.5474 -0.1415
 3419SOL    HW121890   4.497   0.755   0.090 -0.6342 -1.0376 -0.0039
 3419SOL    HW221891   4.481   0.645  17.732  0.0367 -0.5840  1.1232
 3420SOL     OW21892   1.975   1.336   6.771 -0.4177 -0.1532 -0.2851
 3420SOL    HW121893   1.965   1.308   6.680  2.8134 -1.6200 -0.2156
 3420SOL    HW221894   1.901   1.297   6.817  0.0774 -1.3821 -0.5083
 3421SOL     OW21895   1.418   3.836   8.126  0.0783 -0.2737  0.3039
 3421SOL    HW121896   1.430   3.747   8.160 -0.3746 -0.8810 -1.0905
 3421SOL    HW221897   1.451   3.880   8.204 -1.2498 -0.1862  0.8091
 3422SOL     OW21898   4.297   3.350   4.811 -0.0298  0.7984  0.2423
 3422SOL    HW121899   4.206   3.355   4.779  0.4680 -0.9745 -1.4374
 3422SOL    HW221900   4.281   3.329   4.903 -1.2855 -1.1400 -0.4136
 3423SOL     OW21901   1.147   0.673   7.279 -0.5777  0.0390  0.8541
 3423SOL    HW121902   1.167   0.674   7.185 -2.3824 -0.6826  0.4661
 3423SOL    HW221903   1.109   0.588   7.302  1.8015 -0.5505  2.6156
 3424SOL     OW21904   0.711   2.325  12.394 -0.0717  0.2789  0.0847
 3424SOL    HW121905   0.757   2.345  12.476 -0.3153 -0.0948  0.3140
 3424SOL    HW221906   0.640   2.390  12.388 -0.8383 -0.7235 -1.6017
 3425SOL     OW21907   0.450   4.609  16.997  0.1678  0.1344 -0.1366
 3425SOL    HW121908   0.368   4.651  17.021  1.1146  0.9352  1.6533
 3425SOL    HW221909   0.485   4.619  17.086  0.5017 -1.2444 -0.1213
 3426SOL     OW21910   3.920   3.787   8.964 -0.4022  0.0775 -0.1319
 3426SOL    HW121911   3.919   3.882   8.974  0.8178  0.0816 -0.1361
 3426SOL    HW221912   3.975   3.761   9.037  0.1995  2.1518  0.1538
 3427SOL     OW21913   0.846   3.701  11.864  0.1694  0.2472 -0.6365
 3427SOL    HW121914   0.787   3.772  11.887  1.3464  1.3030 -0.8870
 3427SOL    HW221915   0.897   3.693  11.944  1.4514  1.2993 -1.3464
 3428SOL     OW21916   2.696   3.859  14.187 -0.5087 -0.1395  0.6381
 3428SOL    HW121917   2.755   3.853  14.112 -3.4254 -1.5399 -1.5362
 3428SOL    HW221918   2.758   3.814  14.246  0.0125 -0.6070 -0.2691
 3429SOL     OW21919   0.848   1.293   5.065  0.6406  0.1858  0.0631
 3429SOL    HW121920   0.853   1.371   5.009  2.8089 -1.7796 -2.4671
 3429SOL    HW221921   0.941   1.295   5.089  0.9576 -1.2259 -1.0581
 3430SOL     OW21922   2.121   0.720   1.810 -0.0833 -0.3067  0.4645
 3430SOL    HW121923   2.193   0.756   1.758  1.3138 -2.9051  0.6275
 3430SOL    HW221924   2.158   0.638   1.843 -1.6899 -0.9091  0.7663
 3431SOL     OW21925   4.348   2.840  17.380 -0.0765 -0.3025  0.4655
 3431SOL    HW121926   4.440   2.831  17.407 -0.9623 -1.9719  2.9221
 3431SOL    HW221927   4.365   2.821  17.288 -1.4063  0.2599  0.0993
 3432SOL     OW21928   4.497   4.546  11.184 -0.5111  0.1071  0.4552
 3432SOL    HW121929   4.459   4.634  11.191  0.5266  0.1794  5.5152
 3432SOL    HW221930   4.589   4.565  11.168 -1.0597  1.1840 -1.4503
 3433SOL     OW21931   3.381   0.247   7.301 -0.2266 -0.1138 -0.2976
 3433SOL    HW121932   3.387   0.180   7.369  2.2729  0.4418  0.0151
 3433SOL    HW221933   3.464   0.286   7.330 -0.0305 -0.8292  0.0955
 3434SOL     OW21934   3.673   4.554   2.147 -0.2129 -0.2686 -0.4437
 3434SOL    HW121935   3.600   4.511   2.192 -2.0552  0.2710 -2.9011
 3434SOL    HW221936   3.692   4.616   2.217  2.3219 -0.8582 -0.6033
 3435SOL     OW21937   4.413   3.079   5.272  0.6976  0.0798  0.1786
 3435SOL    HW121938   4.334   3.133   5.269  0.6168 -0.0434  0.0582
 3435SOL    HW221939   4.455   3.128   5.343  0.6438 -1.6044  1.3733
 3436SOL     OW21940   3.844   3.299   2.295 -0.4070  0.3293  0.6312
 3436SOL    HW121941   3.814   3.379   2.250 -1.6555 -0.3967  0.1720
 3436SOL    HW221942   3.768   3.242   2.305 -0.2351 -0.4875 -2.6152
 3437SOL     OW21943   3.598   2.800   5.227 -0.0311 -0.4316  0.5117
 3437SOL    HW121944   3.615   2.707   5.245  0.4654 -0.2353  1.0456
 3437SOL    HW221945   3.615   2.841   5.311  2.1798  2.4545 -1.3266
 3438SOL     OW21946   4.260   4.493   8.015 -0.1726  0.5112  0.4648
 3438SOL    HW121947   4.184   4.439   7.993 -0.3173  0.8227  0.2017
 3438SOL    HW221948   4.332   4.432   7.999 -1.2692 -1.1027  1.6894
 3439SOL     OW21949   0.813   1.248   2.158  0.4021 -0.1257  0.0445
 3439SOL    HW121950   0.808   1.167   2.107 -0.6563  0.4264 -0.7267
 3439SOL    HW221951   0.723   1.254   2.191  0.6515 -0.4390  0.7923
 3440SOL     OW21952   2.899   2.188  11.485  0.1215  0.2243 -0.1371
 3440SOL    HW121953   2.899   2.261  11.424 -1.1157  1.1413  0.9522
 3440SOL    HW221954   2.825   2.221  11.537 -0.2307 -0.3219 -0.2909
 3441SOL     OW21955   3.909   0.967   1.013 -0.0750  0.3013 -0.4046
 3441SOL    HW121956   3.949   0.880   1.010  0.1244  0.3936 -0.3599
 3441SOL    HW221957   3.971   1.014   1.068  1.1481  0.1894 -1.6730
 3442SOL     OW21958   2.672   0.030   4.283  0.4267 -0.4141 -0.3128
 3442SOL    HW121959   2.754   4.718   4.295 -0.7852 -2.2684  0.6976
 3442SOL    HW221960   2.669   0.089   4.358 -1.5271  0.4167 -1.0136
 3443SOL     OW21961   0.852   1.480   1.969  0.1057 -0.2973 -0.0466
 3443SOL    HW121962   0.862   1.560   2.020  1.0931 -1.4952  1.6254
 3443SOL    HW221963   0.862   1.415   2.038 -2.0585  0.0367  0.5721
 3444SOL     OW21964   3.426   2.521   6.649  0.4885 -0.2172  0.3566
 3444SOL    HW121965   3.492   2.584   6.680 -0.4690  0.7856  0.3587
 3444SOL    HW221966   3.445   2.534   6.556  0.3432 -0.7517  0.2565
 3445SOL     OW21967   3.985   2.559   0.049 -0.5440 -0.5001 -0.4423
 3445SOL    HW121968   4.024   2.486   0.002 -0.7192 -0.4162 -0.7194
 3445SOL    HW221969   3.943   2.613  17.719 -0.3220 -0.9386 -0.9260
 3446SOL     OW21970   2.162   4.155   6.624 -0.5864  0.1057 -0.1020
 3446SOL    HW121971   2.104   4.181   6.696  1.3001  0.7788  1.1849
 3446SOL    HW221972   2.247   4.161   6.667  0.2921 -0.1388 -1.8287
 3447SOL     OW21973   0.561   1.034   0.278  0.4758  0.5654 -0.2749
 3447SOL    HW121974   0.599   1.054   0.192  0.7028  3.5581  0.5069
 3447SOL    HW221975   0.480   1.086   0.275 -0.5672 -1.0553 -0.0353
 3448SOL     OW21976   0.331   4.083   9.379  0.6386 -0.1943 -0.4710
 3448SOL    HW121977   0.404   4.140   9.354  0.2357  0.0016 -1.1971
 3448SOL    HW221978   0.371   4.039   9.454  1.4549  1.7160  0.1932
 3449SOL     OW21979   1.678   3.988   5.083 -0.4295 -0.1163  0.5406
 3449SOL    HW121980   1.653   3.978   5.175  0.3657  2.7086  1.0719
 3449SOL    HW221981   1.771   4.001   5.105 -0.3395  1.1656 -0.6045
 3450SOL     OW21982   3.815   4.030   1.435 -0.2092 -0.5868  0.6615
 3450SOL    HW121983   3.895   4.020   1.383 -1.7513 -1.7859 -1.4179
 3450SOL    HW221984   3.851   4.041   1.524  0.8261 -1.0189  0.3037
 3451SOL     OW21985   2.779   1.479   1.603  0.2534  0.3628  0.9479
 3451SOL    HW121986   2.701   1.518   1.641  0.5205  0.5730  1.2848
 3451SOL    HW221987   2.796   1.523   1.519  0.9871 -3.4209 -0.8957
 3452SOL     OW21988   3.706   4.328   4.046  0.3680 -0.2860 -0.0834
 3452SOL    HW121989   3.682   4.377   4.124 -0.4178 -1.9416  0.7073
 3452SOL    HW221990   3.635   4.323   3.982 -1.4879 -0.7287  2.0096
 3453SOL     OW21991   4.161   1.854  12.628 -0.2131 -0.3817  0.1724
 3453SOL    HW121992   4.239   1.811  12.662 -0.2318 -0.8160 -0.3376
 3453SOL    HW221993   4.188   1.941  12.598 -1.4277 -0.1568 -0.2834
 3454SOL     OW21994   1.411   2.467   4.979  0.1786 -0.0271 -0.6021
 3454SOL    HW121995   1.486   2.523   4.958 -1.1473  1.2324 -2.0143
 3454SOL    HW221996   1.343   2.534   4.993 -0.8919 -1.1119 -0.6075
 3455SOL     OW21997   3.111   4.294  11.007 -0.3798  0.2741  0.5692
 3455SOL    HW121998   3.057   4.343  11.070  0.7780 -0.2364  1.9807
 3455SOL    HW221999   3.090   4.345  10.929  1.0911  0.8440  0.5522
 3456SOL     OW22000   1.524   1.012   9.440 -0.3019  0.5083 -0.0894
 3456SOL    HW122001   1.450   1.071   9.421 -0.2719  0.8518  0.8740
 3456SOL    HW222002   1.516   0.992   9.533  2.0792  0.0326  0.0086
 3457SOL     OW22003   0.391   4.421   3.412  0.2379 -0.0965 -0.3052
 3457SOL    HW122004   0.320   4.463   3.363  0.5686  1.1738  0.3007
 3457SOL    HW222005   0.348   4.367   3.477 -0.9839 -0.7548 -1.6491
 3458SOL     OW22006   3.780   2.193   6.885  0.1173  1.0421  0.0098
 3458SOL    HW122007   3.738   2.173   6.801 -0.3213  0.0245  0.4719
 3458SOL    HW222008   3.761   2.285   6.902  0.8130  1.2010 -0.0557
 3459SOL     OW22009   4.074   0.868   1.673 -0.1201 -0.0759  0.2905
 3459SOL    HW122010   4.123   0.856   1.593 -1.1534  1.6347 -0.6129
 3459SOL    HW222011   4.141   0.898   1.734  0.4231  1.1419 -0.9030
 3460SOL     OW22012   2.750   2.656   5.873  0.2499  0.8282  0.0431
 3460SOL    HW122013   2.755   2.657   5.968  0.9716 -0.4895  0.0197
 3460SOL    HW222014   2.825   2.599   5.855  0.1854  0.6455  0.3691
 3461SOL     OW22015   1.030   0.951   6.958 -0.2880  0.6810  0.3289
 3461SOL    HW122016   1.000   0.916   7.042  0.3826  2.8132  1.4525
 3461SOL    HW222017   1.034   1.046   6.973 -0.9476  0.6261  0.8817
 3462SOL     OW22018   0.927   0.026   7.703  0.4209 -0.1142 -0.3125
 3462SOL    HW122019   0.967   0.112   7.716  0.4357 -0.1779  0.0586
 3462SOL    HW222020   0.835   0.052   7.702  0.0993 -1.2573 -1.2658
 3463SOL     OW22021   3.891   1.583   4.372  0.0792  0.1850 -0.2350
 3463SOL    HW122022   3.899   1.549   4.460 -0.2265  1.3436  0.2476
 3463SOL    HW222023   3.804   1.620   4.386  0.5950  0.7993  1.2929
 3464SOL     OW22024   4.389   3.410  16.977 -0.1702 -0.1814  0.1066
 3464SOL    HW122025   4.317   3.472  16.966 -1.5044 -1.8684 -0.6438
 3464SOL    HW222026   4.400   3.384  16.886  1.3644 -3.1185  1.1422
 3465SOL     OW22027   2.319   0.670   3.866  0.1618  0.0824  0.0961
 3465SOL    HW122028   2.325   0.602   3.798 -0.6431 -0.0882  0.1963
 3465SOL    HW222029   2.410   0.698   3.862  0.4266 -0.8325 -0.4597
 3466SOL     OW22030   2.310   0.161   1.688 -0.2883 -0.2039  0.4530
 3466SOL    HW122031   2.245   0.231   1.688 -0.9483 -0.8255  0.3918
 3466SOL    HW222032   2.270   0.076   1.670  1.1580 -0.9610  0.7751
 3467SOL     OW22033   1.016   3.881  11.728  0.1741 -0.0602  0.1861
 3467SOL    HW122034   0.984   3.807  11.779 -2.1751  0.6591 -0.2322
 3467SOL    HW222035   1.101   3.855  11.693 -1.1697 -1.4442 -2.1158
 3468SOL     OW22036   1.067   0.968   1.739  0.5943  0.2236 -0.9395
 3468SOL    HW122037   1.142   1.022   1.714  1.2417  0.5568  1.8064
 3468SOL    HW222038   1.105   0.880   1.739  0.4518  0.1706  0.1150
 3469SOL     OW22039   2.936   2.628   4.361  0.3213  0.5782  0.0706
 3469SOL    HW122040   2.989   2.648   4.284 -0.1982  1.2461 -0.1187
 3469SOL    HW222041   2.905   2.540   4.339 -0.9641  1.5162 -1.9052
 3470SOL     OW22042   1.060   0.381   3.899 -0.3368 -0.8677  0.2937
 3470SOL    HW122043   1.082   0.290   3.877  1.2717  0.3007 -2.9342
 3470SOL    HW222044   1.123   0.430   3.847 -1.4746 -1.6943 -1.8712
 3471SOL     OW22045   3.753   4.715  12.294 -0.4691  0.1682  0.3756
 3471SOL    HW122046   3.805   4.668  12.358 -0.3540 -0.4036 -0.1412
 3471SOL    HW222047   3.775   4.664  12.217  0.2998  2.2947 -0.8221
 3472SOL     OW22048   0.251   2.339   0.395  0.1564  0.2022  0.4029
 3472SOL    HW122049   0.225   2.379   0.478  0.9168 -0.8579  1.1567
 3472SOL    HW222050   0.304   2.264   0.423  1.2563  1.1865  0.9391
 3473SOL     OW22051   3.037   2.011   2.306  0.0411 -0.7800  0.1328
 3473SOL    HW122052   3.097   1.953   2.258 -0.8741 -2.2094  0.7158
 3473SOL    HW222053   3.090   2.091   2.311 -0.9159 -0.3245  2.8399
 3474SOL     OW22054   3.160   0.908   7.898 -0.1755  0.4546  0.2807
 3474SOL    HW122055   3.213   0.971   7.850 -0.4973 -0.5009 -1.3083
 3474SOL    HW222056   3.227   0.876   7.958  0.5676  2.7861  0.6996
 3475SOL     OW22057   1.121   0.107   3.907  0.5512 -0.1619  0.0806
 3475SOL    HW122058   1.201   0.056   3.920 -0.7045 -1.8776  1.0723
 3475SOL    HW222059   1.077   0.085   3.989 -0.2526 -0.7426 -0.5124
 3476SOL     OW22060   1.410   3.173   3.272  0.1830  0.8701  0.7034
 3476SOL    HW122061   1.505   3.162   3.263  0.1640  1.0660  0.2980
 3476SOL    HW222062   1.406   3.263   3.305  3.1314  2.0706 -2.2125
 3477SOL     OW22063   3.988   0.551  10.604 -0.2565  0.8980 -0.3496
 3477SOL    HW122064   3.948   0.557  10.517  0.5404  0.2574 -0.7628
 3477SOL    HW222065   3.921   0.495  10.643  0.8579 -0.1296  0.1014
 3478SOL     OW22066   4.700   2.677   1.043  0.6192 -0.0556  0.0804
 3478SOL    HW122067   4.707   2.769   1.065  2.0426  0.1023 -1.0228
 3478SOL    HW222068   4.617   2.658   1.088  0.2061 -1.3869 -1.2381
 3479SOL     OW22069   2.428   0.636   8.586 -0.2655 -0.3065 -0.0343
 3479SOL    HW122070   2.384   0.714   8.552  2.5260  2.3784  2.4397
 3479SOL    HW222071   2.512   0.643   8.540 -1.6342 -0.5257 -2.5316
 3480SOL     OW22072   1.058   2.926   3.173  0.0259  0.3145  0.5515
 3480SOL    HW122073   1.066   2.837   3.206  0.6043 -0.0621 -0.6083
 3480SOL    HW222074   1.097   2.962   3.252  0.3484  0.2934  0.4034
 3481SOL     OW22075   3.008   3.708   1.877  0.0923  0.4345  0.0372
 3481SOL    HW122076   2.971   3.669   1.798  3.4611 -1.2653 -0.7253
 3481SOL    HW222077   2.961   3.792   1.874 -3.0352 -1.4324 -3.4475
 3482SOL     OW22078   2.127   0.466   2.560  0.7898  0.1243  0.2631
 3482SOL    HW122079   2.194   0.443   2.625 -0.7261 -1.4434  1.2512
 3482SOL    HW222080   2.051   0.451   2.616  0.2595 -0.5155 -0.6417
 3483SOL     OW22081   1.412   2.239   6.823 -0.1966 -0.5680  0.0127
 3483SOL    HW122082   1.335   2.294   6.841 -0.4647 -1.0061  0.2146
 3483SOL    HW222083   1.434   2.256   6.732  1.6294  0.7158  0.6986
 3484SOL     OW22084   2.146   1.322  17.295 -0.0464  0.6134 -0.2216
 3484SOL    HW122085   2.104   1.408  17.294 -1.4863 -0.0802  0.0453
 3484SOL    HW222086   2.103   1.283  17.218 -0.2329  1.0483 -0.3362
 3485SOL     OW22087   3.872   3.279  12.564  0.0416 -0.0758 -0.3667
 3485SOL    HW122088   3.863   3.198  12.512 -1.7921 -1.1458  1.6161
 3485SOL    HW222089   3.787   3.286  12.607  0.7289  0.4183  0.9087
 3486SOL     OW22090   3.447   1.655   5.899  0.0064 -0.0072 -0.2719
 3486SOL    HW122091   3.388   1.611   5.959  0.2109  0.3038  0.1548
 3486SOL    HW222092   3.473   1.720   5.964 -0.5172 -0.3016  0.2336
 3487SOL     OW22093   1.601   3.213   7.947 -0.0544 -0.0231  0.2942
 3487SOL    HW122094   1.671   3.258   7.900  0.8329 -2.2935 -0.5698
 3487SOL    HW222095   1.651   3.181   8.021 -2.3589 -0.3763  1.7023
 3488SOL     OW22096   1.529   3.723  11.092  0.5322 -0.4095 -0.1720
 3488SOL    HW122097   1.453   3.716  11.034  1.2746  0.0340 -1.1921
 3488SOL    HW222098   1.507   3.651  11.152 -0.6628  1.0655  1.1551
 3489SOL     OW22099   3.424   1.910   0.589 -0.4189 -0.2463  0.6224
 3489SOL    HW122100   3.364   1.984   0.591  0.5128  0.6020 -2.3651
 3489SOL    HW222101   3.379   1.828   0.571 -0.0572  0.4181 -3.3845
 3490SOL     OW22102   0.010   1.214  13.183  0.3417 -0.5597  0.2781
 3490SOL    HW122103   0.062   1.148  13.137  1.8924  0.2987  0.7970
 3490SOL    HW222104   0.039   1.295  13.141  0.4436 -0.3751  0.7125
 3491SOL     OW22105   4.477   0.637   1.485 -0.1600 -0.2693  0.5394
 3491SOL    HW122106   4.487   0.542   1.488 -1.9977 -0.4881 -0.0899
 3491SOL    HW222107   4.555   0.661   1.436 -0.5624 -1.1707 -0.5220
 3492SOL     OW22108   2.386   1.622   6.785 -0.2165 -0.6666 -0.0273
 3492SOL    HW122109   2.319   1.686   6.761 -2.4423 -2.1642  2.3155
 3492SOL    HW222110   2.345   1.541   6.755  2.1254 -1.9487  0.2397
 3493SOL     OW22111   2.889   4.104   5.948  0.0913 -0.1143  0.4698
 3493SOL    HW122112   2.839   4.030   5.913 -1.1891 -0.3788  2.8364
 3493SOL    HW222113   2.973   4.064   5.970  1.4562  1.4663 -2.0052
 3494SOL     OW22114   3.298   4.714  12.555 -0.0285  0.2106 -0.0256
 3494SOL    HW122115   3.291   4.721  12.460 -0.9571  0.0473  0.0277
 3494SOL    HW222116   3.382   4.668  12.557 -0.0360  0.1662 -0.5878
 3495SOL     OW22117   3.870   1.079   4.701  0.1523 -0.2151  0.3207
 3495SOL    HW122118   3.889   1.163   4.660  0.4035 -0.6316 -0.4271
 3495SOL    HW222119   3.794   1.095   4.757  0.8796  1.9466  0.6826
 3496SOL     OW22120   2.261   2.192  10.121  0.2257 -0.3341  0.3736
 3496SOL    HW122121   2.290   2.125  10.182 -0.4945  0.4430  1.5517
 3496SOL    HW222122   2.338   2.249  10.113 -1.0607  1.0953 -2.0351
 3497SOL     OW22123   4.384   4.617  15.507 -0.3230 -0.1062  0.7065
 3497SOL    HW122124   4.470   4.617  15.464 -1.2069  0.0120 -1.0985
 3497SOL    HW222125   4.331   4.572  15.441  0.7636 -0.1082 -0.1760
 3498SOL     OW22126   2.877   0.914   5.061  0.0883  0.0131  0.0094
 3498SOL    HW122127   2.886   0.945   4.971 -2.2351  2.4733  0.6231
 3498SOL    HW222128   2.971   0.914   5.078  0.0107 -0.8449  0.3996
 3499SOL     OW22129   2.954   2.358   4.006  0.1805  0.2347  0.3112
 3499SOL    HW122130   2.941   2.368   4.100 -1.2019 -2.1295  0.3745
 3499SOL    HW222131   3.033   2.409   3.991  0.0612  0.1535 -0.6218
 3500SOL     OW22132   3.330   4.234   4.365 -0.0760  0.5992  0.0681
 3500SOL    HW122133   3.340   4.224   4.460  1.8443 -3.3504 -0.5568
 3500SOL    HW222134   3.414   4.202   4.332 -0.5186  0.4544 -0.9311
 3501SOL     OW22135   1.756   0.831   5.473  0.2103  0.6134 -0.0081
 3501SOL    HW122136   1.682   0.820   5.533  1.4220  0.6046  1.4666
 3501SOL    HW222137   1.720   0.824   5.384 -1.6449 -3.1471  1.0286
 3502SOL     OW22138   0.964   1.482   4.036 -0.7502  0.1765 -0.0367
 3502SOL    HW122139   0.947   1.409   3.976  1.0891  0.6340 -1.1062
 3502SOL    HW222140   0.933   1.549   3.976  0.6343  0.1329 -0.8160
 3503SOL     OW22141   3.305   0.854  17.598  0.1656 -0.0833 -0.3769
 3503SOL    HW122142   3.323   0.849  17.691 -0.0289 -0.1681 -0.3453
 3503SOL    HW222143   3.210   0.858  17.608  0.0622  0.7634 -1.6501
 3504SOL     OW22144   2.546   4.729   8.181  0.0725 -0.1499  0.1324
 3504SOL    HW122145   2.589   4.703   8.099  1.1741  1.5806  0.1484
 3504SOL    HW222146   2.572   0.086   8.184 -1.4879  0.3058  0.0169
 3505SOL     OW22147   3.414   3.259   3.519  0.2212  0.2317 -0.0494
 3505SOL    HW122148   3.385   3.237   3.430  0.0288  0.2539  0.0089
 3505SOL    HW222149   3.332   3.242   3.564  0.3919 -0.0851  0.1405
 3506SOL     OW22150   3.954   2.298   0.376  0.2746 -0.2954 -0.3171
 3506SOL    HW122151   3.860   2.310   0.371  0.2839 -0.4416 -0.8370
 3506SOL    HW222152   3.978   2.221   0.325 -1.7664 -0.6659 -0.6849
 3507SOL     OW22153   1.321   1.790   9.438 -0.1924  0.0141 -0.3605
 3507SOL    HW122154   1.323   1.744   9.354 -2.5554  0.1024 -0.4699
 3507SOL    HW222155   1.375   1.866   9.417  3.0587 -2.3263 -0.5556
 3508SOL     OW22156   2.324   4.677   8.865  0.3851  0.2208 -0.3038
 3508SOL    HW122157   2.275   4.733   8.805 -1.5977 -1.3188 -0.1334
 3508SOL    HW222158   2.404   4.680   8.812  1.8966  1.0551  2.0017
 3509SOL     OW22159   3.403   2.136   7.304 -0.3259  0.4072  0.2401
 3509SOL    HW122160   3.342   2.063   7.315 -0.6391  1.1066  3.2945
 3509SOL    HW222161   3.340   2.204   7.283 -1.4953 -0.8378 -0.2640
 3510SOL     OW22162   1.522   3.883   2.383  0.2575 -0.4819  0.3623
 3510SOL    HW122163   1.453   3.824   2.414 -0.6433  0.7222  0.6331
 3510SOL    HW222164   1.504   3.905   2.292 -0.1120  1.9115  1.0169
 3511SOL     OW22165   0.900   0.370   6.263  0.0890  0.3720  0.2671
 3511SOL    HW122166   0.877   0.406   6.177 -0.6407  1.1428  0.7917
 3511SOL    HW222167   0.815   0.369   6.305 -0.0551  1.8489  0.0262
 3512SOL     OW22168   3.604   1.368  15.374 -0.5938  0.5970  0.3963
 3512SOL    HW122169   3.557   1.319  15.306  2.0618  0.4904 -1.3693
 3512SOL    HW222170   3.628   1.442  15.318 -3.1576  0.1886 -1.2502
 3513SOL     OW22171   1.519   4.270   3.436 -0.3623  0.3482  0.3142
 3513SOL    HW122172   1.503   4.361   3.413  1.3328  0.1167 -1.7240
 3513SOL    HW222173   1.440   4.228   3.402 -0.6537  1.6057 -0.5468
 3514SOL     OW22174   4.163   2.852   7.666 -0.1155 -0.3098 -0.4093
 3514SOL    HW122175   4.253   2.858   7.700  0.1944 -2.2661 -0.8908
 3514SOL    HW222176   4.124   2.922   7.717  0.6211 -0.3697  0.2393
 3515SOL     OW22177   1.590   4.058   6.124  0.4907 -0.8480 -0.5001
 3515SOL    HW122178   1.537   3.994   6.076 -0.2390  2.5494 -4.2365
 3515SOL    HW222179   1.641   4.100   6.054 -0.5750  0.4491 -0.4920
 3516SOL     OW22180   1.195   2.314   7.224  0.0318 -0.0879 -0.2605
 3516SOL    HW122181   1.168   2.268   7.144 -0.5013 -0.3823  0.0804
 3516SOL    HW222182   1.179   2.251   7.295 -1.2640  0.1220 -0.3554
 3517SOL     OW22183   3.646   2.213   0.025  0.0932  0.4569  0.4042
 3517SOL    HW122184   3.652   2.263   0.107  1.2717  3.2646 -1.3992
 3517SOL    HW222185   3.578   2.152   0.053 -0.7111  1.2580  0.1609
 3518SOL     OW22186   1.632   1.221   3.844 -0.1192  0.1604 -0.4835
 3518SOL    HW122187   1.582   1.196   3.766 -1.0744 -0.3821  0.2879
 3518SOL    HW222188   1.579   1.294   3.877 -1.2626 -1.9229  2.3414
 3519SOL     OW22189   3.342   2.741  13.436 -0.4643  0.2694  0.2501
 3519SOL    HW122190   3.306   2.659  13.404 -0.3954 -0.9764  3.3636
 3519SOL    HW222191   3.437   2.730  13.442 -0.5342 -0.9620 -1.0819
 3520SOL     OW22192   2.622   2.074   7.277  0.3445 -0.2357 -0.4988
 3520SOL    HW122193   2.566   2.151   7.276  0.6405 -0.0088  0.5986
 3520SOL    HW222194   2.703   2.111   7.311 -0.2589 -0.3133  0.9813
 3521SOL     OW22195   4.399   1.406   0.399 -0.2687 -0.8964  0.3548
 3521SOL    HW122196   4.482   1.359   0.392 -0.4211 -1.2099  0.6719
 3521SOL    HW222197   4.358   1.403   0.313 -2.0884 -2.7883  1.3096
 3522SOL     OW22198   0.183   1.048   9.186  0.3662 -0.4140  0.5900
 3522SOL    HW122199   0.167   1.137   9.154 -0.5535 -0.3276  1.2965
 3522SOL    HW222200   0.095   1.013   9.173  0.2161  0.3334 -0.4920
 3523SOL     OW22201   1.086   3.395  15.772  0.2001 -0.5677  0.1414
 3523SOL    HW122202   1.106   3.480  15.812  0.6860 -2.3847  3.7056
 3523SOL    HW222203   1.174   3.362  15.752 -0.4110 -1.6138 -0.7636
 3524SOL     OW22204   3.606   4.719   7.385  0.2174 -0.0315  0.2081
 3524SOL    HW122205   3.589   4.697   7.477  1.9803 -0.2748  0.4787
 3524SOL    HW222206   3.696   0.018   7.390  1.1263 -2.2811 -0.6236
 3525SOL     OW22207   4.464   2.450   4.723  0.2275 -0.5890 -0.0050
 3525SOL    HW122208   4.440   2.528   4.674 -2.1287 -0.6198  1.0984
 3525SOL    HW222209   4.405   2.453   4.799  1.2000  0.1267  0.7205
 3526SOL     OW22210   2.073   3.592   2.068  0.4127  0.3008 -0.5382
 3526SOL    HW122211   2.141   3.659   2.063 -0.3246  0.8934 -2.4971
 3526SOL    HW222212   2.107   3.507   2.039  0.0544  0.1885 -0.6244
 3527SOL     OW22213   4.550   2.606   8.597  0.6461 -0.3029  0.2326
 3527SOL    HW122214   4.634   2.628   8.555 -0.3358  2.4841 -0.2689
 3527SOL    HW222215   4.505   2.573   8.519  0.4104 -1.7689  0.9996
 3528SOL     OW22216   2.981   4.275   7.712  0.0427 -0.1547 -0.0345
 3528SOL    HW122217   2.944   4.233   7.635  0.7426 -3.2148  1.3057
 3528SOL    HW222218   3.031   4.200   7.744 -0.3324 -0.6775 -0.6725
 3529SOL     OW22219   3.523   4.066   0.145  0.1391  0.3323  0.1751
 3529SOL    HW122220   3.526   4.116   0.063  0.4686 -1.7654 -1.1212
 3529SOL    HW222221   3.513   3.980   0.104 -0.5960  0.0820  0.8664
 3530SOL     OW22222   1.224   1.031  13.072 -0.0131  0.4518  0.6047
 3530SOL    HW122223   1.202   1.114  13.114 -2.0895  0.5788 -0.7267
 3530SOL    HW222224   1.217   1.059  12.981 -1.1265 -0.3013  0.4489
 3531SOL     OW22225   0.923   2.549   5.476  0.1546  0.1810 -0.8204
 3531SOL    HW122226   0.972   2.500   5.542 -0.8541 -0.0371 -0.2386
 3531SOL    HW222227   0.996   2.590   5.430  1.4867 -0.4424  0.7636
 3532SOL     OW22228   3.844   3.726   1.291  0.1175  0.7974 -0.5872
 3532SOL    HW122229   3.876   3.650   1.341  0.0107 -0.8002 -2.9771
 3532SOL    HW222230   3.918   3.786   1.300  0.0046  0.7083  1.0335
 3533SOL     OW22231   2.565   0.863   6.753  0.2103 -0.1726  0.2890
 3533SOL    HW122232   2.525   0.783   6.787  0.4103 -0.0426  0.8183
 3533SOL    HW222233   2.513   0.929   6.799 -1.7661  0.1289 -2.3666
 3534SOL     OW22234   2.277   2.315   3.672  0.2264  0.1311  0.2598
 3534SOL    HW122235   2.204   2.264   3.707 -1.1489  0.1321 -2.6328
 3534SOL    HW222236   2.351   2.261   3.698 -0.5068 -0.5676  0.8851
 3535SOL     OW22237   3.747   1.506   4.053  0.3937 -0.0601  0.0324
 3535SOL    HW122238   3.692   1.584   4.041  1.7533  1.0247  0.8538
 3535SOL    HW222239   3.790   1.501   3.968  1.0232 -0.7767  0.3974
 3536SOL     OW22240   3.421   1.502   1.188 -0.0611 -0.5673  0.0089
 3536SOL    HW122241   3.331   1.509   1.156  0.0559  0.9486  0.0201
 3536SOL    HW222242   3.472   1.542   1.117  1.0551 -0.6494  0.7707
 3537SOL     OW22243   0.246   2.005  14.852  0.2850 -0.0431 -0.7255
 3537SOL    HW122244   0.336   2.026  14.828  0.7040 -1.4108 -0.3532
 3537SOL    HW222245   0.223   2.097  14.859  1.0952  0.1022  0.0517
 3538SOL     OW22246   1.760   4.151   3.014  0.2447  0.1703  0.5116
 3538SOL    HW122247   1.807   4.078   2.975  1.0927  1.0187 -0.0582
 3538SOL    HW222248   1.797   4.223   2.963 -2.2404  0.2306 -1.1865
 3539SOL     OW22249   2.221   2.812   2.868 -0.5592 -0.3470  0.0971
 3539SOL    HW122250   2.149   2.823   2.805  0.6317 -0.8269 -1.3458
 3539SOL    HW222251   2.169   2.772   2.938 -2.5879  1.7922 -0.1858
 3540SOL     OW22252   4.572   3.395   2.730 -0.1846 -0.4251  0.4520
 3540SOL    HW122253   4.604   3.415   2.818 -1.1710 -0.8446  0.9127
 3540SOL    HW222254   4.611   3.309   2.721  2.0961  0.7235 -0.6220
 3541SOL     OW22255   3.426   2.920   7.522  0.2208  0.4433 -0.3591
 3541SOL    HW122256   3.340   2.939   7.485  0.7696  0.3755 -1.6678
 3541SOL    HW222257   3.409   2.835   7.561  1.8965 -0.4324 -1.5194
 3542SOL     OW22258   3.410   1.178   6.688  0.2445  0.6325  0.5291
 3542SOL    HW122259   3.325   1.184   6.731  0.2896 -3.9791  1.2271
 3542SOL    HW222260   3.401   1.248   6.623  0.9534  2.4883  2.4327
 3543SOL     OW22261   1.628   3.019  13.404 -0.1350  0.3366 -0.2359
 3543SOL    HW122262   1.678   2.969  13.339 -0.4847  0.4191 -0.5720
 3543SOL    HW222263   1.635   3.109  13.370  3.5231  1.2147  2.8893
 3544SOL     OW22264   4.246   2.873  10.097  0.1694 -0.3330  0.7674
 3544SOL    HW122265   4.161   2.891  10.138 -0.0164 -1.3807  0.8445
 3544SOL    HW222266   4.249   2.910  10.008 -0.8658 -2.2102 -0.0556
 3545SOL     OW22267   1.691   1.632   7.066  0.1759  0.2434  0.0772
 3545SOL    HW122268   1.774   1.611   7.024 -0.3779  0.7273 -1.2429
 3545SOL    HW222269   1.661   1.553   7.111  2.3886 -0.9183 -0.5145
 3546SOL     OW22270   2.243   3.895   5.779  0.4525 -0.5545 -0.3888
 3546SOL    HW122271   2.237   3.847   5.861  1.1117  1.2506  0.7070
 3546SOL    HW222272   2.331   3.931   5.769  0.6515 -0.3907  2.0247
 3547SOL     OW22273   0.639   1.826   4.529  0.0952  0.0177 -0.1141
 3547SOL    HW122274   0.628   1.806   4.622 -4.0796  0.2829 -0.5394
 3547SOL    HW222275   0.555   1.867   4.509  1.0330  2.6064  1.3358
 3548SOL     OW22276   4.118   1.001   1.268  0.2437 -0.4306 -0.2129
 3548SOL    HW122277   4.069   1.055   1.329 -0.0459 -1.0538  0.1019
 3548SOL    HW222278   4.182   1.071   1.251 -1.1489  0.7593 -0.5125
 3549SOL     OW22279   1.800   1.351  17.392  0.6449 -0.6773 -0.0212
 3549SOL    HW122280   1.859   1.347  17.317  0.4890 -1.8034 -0.0860
 3549SOL    HW222281   1.739   1.282  17.368 -0.6094  0.3888  0.1037
 3550SOL     OW22282   0.506   3.152   3.823  0.1264  0.2146  0.1564
 3550SOL    HW122283   0.525   3.081   3.885 -0.3481  0.2777  0.3766
 3550SOL    HW222284   0.417   3.161   3.857 -0.3783  1.1226 -1.3996
 3551SOL     OW22285   0.737   2.429   1.258  0.4040 -0.0380 -0.4515
 3551SOL    HW122286   0.767   2.349   1.300  0.0432  1.1164  2.0133
 3551SOL    HW222287   0.778   2.408   1.174  1.7743  0.5846  0.0711
 3552SOL     OW22288   3.294   3.044   5.457 -0.2088 -0.1247  0.2598
 3552SOL    HW122289   3.373   3.097   5.463 -0.7383  0.7003 -0.0636
 3552SOL    HW222290   3.332   2.957   5.468 -0.1482 -0.1008  0.2387
 3553SOL     OW22291   3.351   0.406   5.102  0.3548  0.2338  0.2527
 3553SOL    HW122292   3.362   0.316   5.070  3.5092  0.0933  1.6769
 3553SOL    HW222293   3.333   0.377   5.191 -0.0282 -1.8945 -0.5138
 3554SOL     OW22294   3.118   0.922   3.512 -0.0567  0.5166  0.0395
 3554SOL    HW122295   3.086   0.838   3.478  0.0367  0.5781 -0.1969
 3554SOL    HW222296   3.071   0.992   3.466  1.6716  1.4271 -0.3502
 3555SOL     OW22297   4.357   0.580   3.048 -0.2957  1.0440 -0.2226
 3555SOL    HW122298   4.280   0.580   3.104  0.4504 -0.8829  0.7638
 3555SOL    HW222299   4.398   0.661   3.080  1.2560 -0.4660  1.5594
 3556SOL     OW22300   1.885   3.328   6.944  0.0869  0.6626 -0.5409
 3556SOL    HW122301   1.923   3.271   6.877 -0.6187 -0.6864  0.2030
 3556SOL    HW222302   1.966   3.339   6.993  0.4241 -0.3154 -0.8772
 3557SOL     OW22303   2.700   0.252   8.242  0.0801  0.0849 -0.0821
 3557SOL    HW122304   2.719   0.164   8.276 -3.0858 -0.6265 -0.1807
 3557SOL    HW222305   2.750   0.306   8.303  0.2472  0.7853 -0.8406
 3558SOL     OW22306   0.858   2.862   8.928  0.1453  0.3160 -0.0785
 3558SOL    HW122307   0.881   2.807   9.003 -4.2262 -1.7685 -0.2827
 3558SOL    HW222308   0.763   2.871   8.938 -0.1717  0.0289 -2.7075
 3559SOL     OW22309   3.328   4.423  16.925 -0.1362 -0.1919 -0.0920
 3559SOL    HW122310   3.273   4.354  16.963  1.9639 -1.8436 -0.0106
 3559SOL    HW222311   3.265   4.453  16.859 -0.0622  1.1597  0.4662
 3560SOL     OW22312   4.640   0.974  17.074  0.0510  0.1985 -0.1926
 3560SOL    HW122313   4.610   0.920  17.001 -3.2934  0.4635  1.0018
 3560SOL    HW222314   4.617   0.929  17.156  1.9618  0.0758  0.2651
 3561SOL     OW22315   2.303   2.301   3.979 -0.3609  0.0445  0.6810
 3561SOL    HW122316   2.271   2.235   3.917 -1.4696  1.5295 -0.3138
 3561SOL    HW222317   2.344   2.371   3.928 -1.1574 -0.0394 -0.0677
 3562SOL     OW22318   2.597   1.522  12.921 -0.1926 -0.0746  0.2404
 3562SOL    HW122319   2.644   1.440  12.930  2.8477  1.7051  0.6219
 3562SOL    HW222320   2.615   1.558  12.834 -2.8152  2.0325  0.5666
 3563SOL     OW22321   1.279   0.857   7.472  0.0208  0.2343 -0.3296
 3563SOL    HW122322   1.242   0.807   7.399 -1.1655 -0.5168  0.7766
 3563SOL    HW222323   1.216   0.852   7.544 -0.1136  0.3593 -0.4377
 3564SOL     OW22324   0.831   2.174   7.345  0.1039 -0.5953 -0.2403
 3564SOL    HW122325   0.812   2.125   7.265 -0.9384 -1.1654  0.3586
 3564SOL    HW222326   0.828   2.262   7.308  2.7434 -1.4693 -2.5546
 3565SOL     OW22327   0.157   1.905  12.618 -0.0401  0.5262 -0.6832
 3565SOL    HW122328   0.247   1.911  12.585  1.1270  0.9302  2.4809
 3565SOL    HW222329   0.155   1.809  12.621 -2.0870  0.5909 -0.2028
 3566SOL     OW22330   1.716   1.858   5.570  0.0477 -0.0857 -0.3318
 3566SOL    HW122331   1.801   1.858   5.525  0.2916  2.9614  0.1756
 3566SOL    HW222332   1.718   1.782   5.628 -1.8204  0.7672  0.8501
 3567SOL     OW22333   0.989   3.114   6.846  0.0017 -0.0073 -0.1066
 3567SOL    HW122334   1.014   3.204   6.827  0.6161  0.4602  2.9240
 3567SOL    HW222335   0.991   3.088   6.754  0.5763  0.8585 -0.3443
 3568SOL     OW22336   2.465   0.326   1.529 -0.0391  0.0139 -0.2931
 3568SOL    HW122337   2.470   0.405   1.582  1.0741 -0.6432  0.5892
 3568SOL    HW222338   2.439   0.263   1.596  1.3328 -0.1912  0.0525
 3569SOL     OW22339   1.874   2.900   3.135 -0.6939  0.0304  0.4315
 3569SOL    HW122340   1.896   2.846   3.060 -1.2876  0.2665  0.0871
 3569SOL    HW222341   1.948   2.960   3.141 -0.6069 -0.2060  1.8705
 3570SOL     OW22342   4.576   2.323   1.609 -0.1044 -0.0999 -0.1233
 3570SOL    HW122343   4.494   2.336   1.656  0.9737  0.8577  1.5119
 3570SOL    HW222344   4.572   2.403   1.556 -0.4215  0.7939  1.2357
 3571SOL     OW22345   3.902   2.892  10.153  0.1776 -0.3510  0.3992
 3571SOL    HW122346   3.812   2.916  10.175  0.8348  0.9509  1.6590
 3571SOL    HW222347   3.944   2.895  10.239  0.0687 -0.6274  0.4614
 3572SOL     OW22348   3.655   4.145  11.704  0.0519 -0.4235  0.0079
 3572SOL    HW122349   3.629   4.214  11.643  0.3325  1.2509  1.7739
 3572SOL    HW222350   3.582   4.147  11.767  0.0373  1.7405 -0.0772
 3573SOL     OW22351   1.909   2.577   1.297  0.6235 -0.4828 -0.4643
 3573SOL    HW122352   1.863   2.608   1.375  1.7014 -0.7230  0.2667
 3573SOL    HW222353   1.848   2.604   1.229  0.2545  0.7513  0.3626
 3574SOL     OW22354   0.816   2.033  14.892  0.7524 -0.7095 -0.2290
 3574SOL    HW122355   0.896   2.012  14.940  1.0013  0.2519 -0.2190
 3574SOL    HW222356   0.750   2.020  14.960  1.1250  0.2154  0.3062
 3575SOL     OW22357   4.577   1.708  13.532 -0.3454 -0.2533  0.0595
 3575SOL    HW122358   4.555   1.797  13.503  0.2479  0.4292  1.6888
 3575SOL    HW222359   4.499   1.658  13.507  0.5629 -0.5080 -2.2679
 3576SOL     OW22360   0.173   1.615   2.487  0.1843  0.4169  0.3086
 3576SOL    HW122361   0.258   1.572   2.499 -0.4880 -0.7621  0.8228
 3576SOL    HW222362   0.126   1.549   2.436 -1.4335  1.1130  0.9097
 3577SOL     OW22363   0.922   3.890   4.888 -0.2955 -0.1992  0.6837
 3577SOL    HW122364   0.878   3.962   4.935 -0.4705 -0.8806  1.5667
 3577SOL    HW222365   0.870   3.868   4.811  1.7414  1.6837 -1.2039
 3578SOL     OW22366   3.994   0.023   3.403  0.1791 -0.2819  0.2582
 3578SOL    HW122367   3.972   4.670   3.433  0.7941 -0.8920 -1.0592
 3578SOL    HW222368   4.086   0.028   3.431 -0.3765  0.9653  1.8782
 3579SOL     OW22369   0.290   2.489   4.694 -0.2310 -0.0820 -0.0385
 3579SOL    HW122370   0.211   2.533   4.727  0.2083  1.0621 -0.5284
 3579SOL    HW222371   0.281   2.405   4.740  2.5083  0.8707  2.1920
 3580SOL     OW22372   0.357   0.361   1.434  0.4952  0.0650  0.8219
 3580SOL    HW122373   0.327   0.282   1.389  1.0059 -0.1724  0.8935
 3580SOL    HW222374   0.278   0.414   1.433 -0.4647 -1.3915  0.1406
 3581SOL     OW22375   3.935   2.412   9.225 -0.3133  0.0366 -0.1879
 3581SOL    HW122376   3.897   2.484   9.277  1.2290 -0.1986  1.2779
 3581SOL    HW222377   4.020   2.395   9.265 -0.5275  1.6219  0.9591
 3582SOL     OW22378   1.371   0.386   1.939 -0.1312 -0.0218 -0.3463
 3582SOL    HW122379   1.337   0.310   1.985  0.8566 -0.0310  0.3844
 3582SOL    HW222380   1.356   0.353   1.851 -2.0599 -0.3595  0.1175
 3583SOL     OW22381   3.234   0.252   6.012 -0.3531 -0.1317 -0.2681
 3583SOL    HW122382   3.164   0.191   6.033 -0.5443 -0.0910 -0.7960
 3583SOL    HW222383   3.247   0.294   6.097  1.8354 -2.1756  0.4185
 3584SOL     OW22384   4.361   0.323   6.848 -0.0848  0.5501 -0.0647
 3584SOL    HW122385   4.363   0.261   6.921  1.1551  1.6879  0.8804
 3584SOL    HW222386   4.345   0.270   6.770 -0.9873  0.4482  0.1927
 3585SOL     OW22387   3.437   2.820   3.024 -0.1573  0.6632  0.4067
 3585SOL    HW122388   3.521   2.866   3.030 -0.8288  1.6312  2.3702
 3585SOL    HW222389   3.459   2.738   3.070 -0.3689 -1.1883 -2.7721
 3586SOL     OW22390   3.621   2.251  11.836  0.2268  0.2145  0.8319
 3586SOL    HW122391   3.606   2.204  11.754  0.3580 -0.6847  1.3198
 3586SOL    HW222392   3.694   2.200  11.871  1.8191  0.5833 -1.9715
 3587SOL     OW22393   3.891   4.569  12.119  0.2762  0.7212 -0.2292
 3587SOL    HW122394   3.980   4.605  12.120  0.1875  1.0407 -2.7135
 3587SOL    HW222395   3.915   4.476  12.120  2.4256  1.2769 -0.7591
 3588SOL     OW22396   2.901   1.110  15.750  0.4461 -0.2530  0.2872
 3588SOL    HW122397   2.954   1.162  15.690 -1.1280  1.3432  0.2896
 3588SOL    HW222398   2.818   1.144  15.718  0.8163  0.4465  0.0731
 3589SOL     OW22399   3.519   2.299  16.716 -0.4453 -0.0011  0.2563
 3589SOL    HW122400   3.428   2.312  16.688  0.1140  1.0179 -1.0215
 3589SOL    HW222401   3.566   2.338  16.643 -1.6803  1.9901  0.5322
 3590SOL     OW22402   1.867   0.764   5.752 -0.1530  0.2987  0.2493
 3590SOL    HW122403   1.921   0.753   5.674 -1.1699  0.3173 -0.4649
 3590SOL    HW222404   1.864   0.676   5.790 -0.8691  1.3305  2.5709
 3591SOL     OW22405   0.106   2.597   8.057  0.0115  0.7171  0.1535
 3591SOL    HW122406   0.102   2.687   8.025 -1.4669  0.7232  0.3311
 3591SOL    HW222407   0.172   2.559   7.999 -1.5129 -1.8651  0.0865
 3592SOL     OW22408   1.863   4.270  13.549  0.2172  0.4684 -0.0188
 3592SOL    HW122409   1.912   4.198  13.588 -1.4686  0.6920  2.4899
 3592SOL    HW222410   1.779   4.234  13.521  0.6339  1.0578 -2.0449
 3593SOL     OW22411   3.236   0.766   8.307 -0.0585 -0.4056  0.3627
 3593SOL    HW122412   3.254   0.695   8.368 -0.9400  1.5905  2.9316
 3593SOL    HW222413   3.147   0.738   8.285  0.1024 -2.9944  2.9799
 3594SOL     OW22414   0.019   0.249   8.043 -0.0241 -0.3762 -0.2084
 3594SOL    HW122415   0.100   0.198   8.046 -0.3546 -0.9504 -1.0068
 3594SOL    HW222416   0.040   0.332   8.085 -0.5961  0.7455 -2.1560
 3595SOL     OW22417   1.869   1.332   8.777 -0.1404  0.5161  0.3429
 3595SOL    HW122418   1.800   1.346   8.842 -2.3724  0.1622 -1.9630
 3595SOL    HW222419   1.854   1.239   8.760 -0.5516  0.5411  0.5857
 3596SOL     OW22420   1.218   2.526   3.039  0.7595 -0.5134 -0.1640
 3596SOL    HW122421   1.169   2.591   3.089  0.4344 -1.2062  0.4126
 3596SOL    HW222422   1.307   2.530   3.073  0.8571  2.2450 -0.6963
 3597SOL     OW22423   2.160   4.211   3.636  0.5100  0.7707  0.0893
 3597SOL    HW122424   2.105   4.288   3.621  0.9367  1.2555  1.0261
 3597SOL    HW222425   2.186   4.213   3.728  1.0411 -0.8219 -0.0418
 3598SOL     OW22426   1.903   0.982   4.146 -0.5247 -0.0981  0.2867
 3598SOL    HW122427   1.864   1.019   4.067  3.2797  2.5518 -0.3727
 3598SOL    HW222428   1.830   0.967   4.205 -0.7430 -0.9569 -0.2035
 3599SOL     OW22429   1.505   2.940  13.033 -0.8984  0.1584 -0.5249
 3599SOL    HW122430   1.476   2.880  12.964 -1.4668  1.4565 -1.4041
 3599SOL    HW222431   1.570   2.885  13.078  0.2220  1.2057 -0.8857
 3600SOL     OW22432   3.769   4.117   4.955 -0.2243  0.8506  0.1552
 3600SOL    HW122433   3.817   4.174   4.895  0.3750  0.3631  0.1694
 3600SOL    HW222434   3.758   4.042   4.897 -1.5325  2.1851 -1.3208
 3601SOL     OW22435   0.132   4.408   8.816 -0.0956 -0.0076 -0.5001
 3601SOL    HW122436   0.174   4.361   8.888  0.3959  0.5674 -0.4100
 3601SOL    HW222437   0.137   4.493   8.859 -0.5147 -0.2571  0.0320
 3602SOL     OW22438   4.134   2.278   2.147 -0.1484  0.1037  0.6192
 3602SOL    HW122439   4.157   2.227   2.069  2.6103  2.2383  0.0293
 3602SOL    HW222440   4.038   2.275   2.144 -0.0882 -1.5154  0.3747
 3603SOL     OW22441   2.139   4.721  10.096  0.7940  0.2532 -0.3844
 3603SOL    HW122442   2.187   0.030  10.167 -1.2464 -0.4368  1.4344
 3603SOL    HW222443   2.132   0.065  10.042 -0.9383  1.2733  1.3419
 3604SOL     OW22444   2.368   0.909  13.637  0.0085  0.0358 -0.2849
 3604SOL    HW122445   2.347   0.883  13.727 -1.4684  2.3789  0.0540
 3604SOL    HW222446   2.449   0.958  13.648  0.2420 -0.5441  0.5742
 3605SOL     OW22447   1.117   1.595   7.348  0.4248 -0.5069  0.0524
 3605SOL    HW122448   1.148   1.561   7.264  0.0156  1.3051 -0.8465
 3605SOL    HW222449   1.043   1.540   7.372 -0.6985  0.1921 -1.7573
 3606SOL     OW22450   4.390   1.211   2.033  0.6545 -0.1967  0.5224
 3606SOL    HW122451   4.345   1.295   2.033 -0.6780 -0.9158  0.7268
 3606SOL    HW222452   4.341   1.166   1.964  1.2917  1.3032 -0.9175
 3607SOL     OW22453   4.563   4.266   6.016 -0.1754 -0.1895 -0.2462
 3607SOL    HW122454   4.512   4.293   5.940  1.9655  1.3396 -1.1250
 3607SOL    HW222455   4.496   4.212   6.059 -1.0636  1.2599  0.1626
 3608SOL     OW22456   1.907   3.505   4.607 -0.0244 -0.6674 -0.2911
 3608SOL    HW122457   1.997   3.528   4.633 -0.1511 -1.6771  1.0084
 3608SOL    HW222458   1.899   3.420   4.650 -1.9069 -0.8813 -1.0604
 3609SOL     OW22459   0.977   3.403   2.263 -0.2276 -0.4708 -0.0058
 3609SOL    HW122460   0.888   3.424   2.290  0.8250 -1.3365  4.2533
 3609SOL    HW222461   1.023   3.404   2.347 -1.0904 -1.7168  0.4804
 3610SOL     OW22462   1.608   2.035   3.043  0.2420  0.5232  0.0010
 3610SOL    HW122463   1.678   1.997   3.095 -1.1070 -0.9537  0.7149
 3610SOL    HW222464   1.640   2.124   3.028  1.4057 -0.0974 -1.1974
 3611SOL     OW22465   1.453   0.367  17.542 -0.1004  0.3780 -0.2795
 3611SOL    HW122466   1.530   0.422  17.527 -0.5809  1.0613 -0.2275
 3611SOL    HW222467   1.415   0.394  17.626 -0.9216 -0.2433 -0.4533
 3612SOL     OW22468   4.723   0.433   7.697 -0.2066  0.0401  0.0561
 3612SOL    HW122469   0.008   0.343   7.671 -1.0486  0.3682 -1.6840
 3612SOL    HW222470   4.659   0.425   7.767  0.2245 -0.4671  0.3909
 3613SOL     OW22471   3.538   0.165   3.137 -0.1472 -0.2896 -0.9423
 3613SOL    HW122472   3.539   0.242   3.080 -1.3328  0.8432  0.5813
 3613SOL    HW222473   3.482   0.109   3.083 -0.1671 -2.0598  0.9102
 3614SOL     OW22474   2.868   3.814   0.728  0.3181  0.1188  0.2068
 3614SOL    HW122475   2.857   3.761   0.807 -1.0168  0.2274  0.1016
 3614SOL    HW222476   2.950   3.859   0.749  1.0964 -0.4751 -1.5515
 3615SOL     OW22477   2.866   4.474  16.746 -0.4115  0.2699 -0.6564
 3615SOL    HW122478   2.782   4.517  16.730 -0.0127  1.6159  0.8291
 3615SOL    HW222479   2.844   4.384  16.768  1.7179  0.3447  1.7135
 3616SOL     OW22480   2.538   3.282   3.705  0.0092  0.3884 -0.0311
 3616SOL    HW122481   2.543   3.335   3.784 -2.2751 -0.4644  0.6806
 3616SOL    HW222482   2.622   3.237   3.712 -0.6511 -0.8698 -0.2693
 3617SOL     OW22483   0.917   3.553   4.979 -0.2094 -0.1493  0.2259
 3617SOL    HW122484   0.982   3.605   4.931  0.9441 -0.9182  0.9351
 3617SOL    HW222485   0.943   3.464   4.954 -1.5483 -0.6020  0.4329
 3618SOL     OW22486   4.406   1.717   3.474  0.1596 -0.4122  0.0955
 3618SOL    HW122487   4.400   1.734   3.380  0.3654 -2.1916 -0.2485
 3618SOL    HW222488   4.352   1.785   3.513  0.6484 -0.0525  0.1397
 3619SOL     OW22489   0.887   1.682  16.418 -0.0643 -0.3756  0.1832
 3619SOL    HW122490   0.935   1.600  16.409 -0.6880 -0.5256 -1.6847
 3619SOL    HW222491   0.821   1.668  16.350  0.2190  2.5787 -0.7054
 3620SOL     OW22492   3.566   2.737   5.687 -0.5758 -0.2412  0.5051
 3620SOL    HW122493   3.625   2.669   5.657 -0.2787 -0.0249  0.5999
 3620SOL    HW222494   3.493   2.736   5.625 -0.1754  1.2221 -0.0063
 3621SOL     OW22495   1.723   1.649  10.506  0.3739 -0.0075  0.0889
 3621SOL    HW122496   1.809   1.616  10.533  0.4432 -0.2031 -0.3765
 3621SOL    HW222497   1.741   1.742  10.525 -0.7001 -0.0443  1.2325
 3622SOL     OW22498   1.199   1.506   6.698 -0.0550  0.1497  0.4340
 3622SOL    HW122499   1.129   1.448   6.667  0.5700 -0.1737 -0.3670
 3622SOL    HW222500   1.192   1.483   6.791  1.4750 -4.4411 -0.5504
 3623SOL     OW22501   2.112   0.777   2.638  0.1660  0.7315 -0.1112
 3623SOL    HW122502   2.023   0.750   2.662  1.4204 -4.4996 -1.4836
 3623SOL    HW222503   2.162   0.721   2.698  0.4918  0.9006 -0.2265
 3624SOL     OW22504   0.117   1.553   5.182 -0.2614 -0.0360  0.0740
 3624SOL    HW122505   0.041   1.601   5.150 -1.4218 -0.7319  1.7745
 3624SOL    HW222506   0.101   1.463   5.154  1.7672 -0.3078 -0.2507
 3625SOL     OW22507   3.171   3.758   3.386 -0.0005 -0.1880  0.4687
 3625SOL    HW122508   3.213   3.774   3.471 -1.4241  1.0986  0.9351
 3625SOL    HW222509   3.218   3.822   3.333  1.7570 -0.5857  1.5565
 3626SOL     OW22510   4.168   2.120   1.922  0.0828 -0.1410 -0.9368
 3626SOL    HW122511   4.146   2.041   1.971  1.2617  0.8098  1.1240
 3626SOL    HW222512   4.099   2.110   1.856 -0.0249 -3.0029 -0.3714
 3627SOL     OW22513   1.145   2.638   4.307 -0.1118  0.0622 -0.0323
 3627SOL    HW122514   1.151   2.685   4.224  0.0897  2.1690  1.1891
 3627SOL    HW222515   1.053   2.656   4.323 -0.0153  0.5589 -0.0331
 3628SOL     OW22516   3.645   0.772   1.140 -0.7645 -0.0834 -0.4198
 3628SOL    HW122517   3.598   0.751   1.059 -1.5630 -1.2194  0.3389
 3628SOL    HW222518   3.639   0.686   1.182  0.5066  0.6850  1.3376
 3629SOL     OW22519   1.591   4.364  13.187  0.3949  0.2335  0.8630
 3629SOL    HW122520   1.606   4.350  13.280 -0.2121 -1.4890  0.7026
 3629SOL    HW222521   1.497   4.354  13.179  0.3556  1.4960 -0.2243
 3630SOL     OW22522   3.815   2.492   4.655 -0.3782 -0.2778 -0.3915
 3630SOL    HW122523   3.764   2.471   4.733 -0.6550  0.8952 -0.2529
 3630SOL    HW222524   3.899   2.453   4.680  0.7273  1.1611 -1.8558
 3631SOL     OW22525   4.611   1.573   2.449  0.5531  0.4067  0.0917
 3631SOL    HW122526   4.622   1.514   2.524 -0.5015 -0.5913 -0.5453
 3631SOL    HW222527   4.653   1.525   2.379  3.1215  2.4995  0.2089
 3632SOL     OW22528   3.954   0.172   7.910  0.0885  0.2193 -0.4206
 3632SOL    HW122529   4.045   0.145   7.897  0.3979  1.4713 -0.8502
 3632SOL    HW222530   3.922   0.194   7.823 -1.2561 -2.1021 -0.5058
 3633SOL     OW22531   2.027   2.208  12.509 -0.2907  0.1009  0.1790
 3633SOL    HW122532   2.091   2.137  12.519  1.0374  1.3550  0.5354
 3633SOL    HW222533   2.042   2.244  12.422 -2.3010 -0.4192 -0.3911
 3634SOL     OW22534   0.679   0.425   7.661  0.5589  0.0573  0.5803
 3634SOL    HW122535   0.654   0.339   7.629 -0.8218  0.4739  0.5185
 3634SOL    HW222536   0.704   0.404   7.751  1.6887  0.8658  0.4535
 3635SOL     OW22537   3.056   4.005   4.015 -0.8632  0.2177 -0.7400
 3635SOL    HW122538   3.081   3.917   4.045  1.5011  0.9955 -0.4454
 3635SOL    HW222539   3.038   4.052   4.096  1.3117  0.6483 -0.5273
 3636SOL     OW22540   3.406   2.976  13.249  0.3245  0.1052  0.6065
 3636SOL    HW122541   3.375   2.973  13.340 -0.2813  1.2085  0.4374
 3636SOL    HW222542   3.387   3.066  13.223 -2.6389 -0.5147  0.6643
 3637SOL     OW22543   3.239   4.394   9.246 -0.5751  0.4278 -1.0509
 3637SOL    HW122544   3.203   4.444   9.173  2.6729  0.5749 -2.5624
 3637SOL    HW222545   3.329   4.425   9.246 -1.0165  1.7137  0.6449
 3638SOL     OW22546   0.293   3.066   2.667  0.3478  0.0972  0.3828
 3638SOL    HW122547   0.219   3.122   2.693 -1.1886 -2.5566  1.6921
 3638SOL    HW222548   0.252   2.980   2.662  0.8296 -0.1113  0.0303
 3639SOL     OW22549   2.612   2.506   7.126  0.1702 -0.1001  0.5212
 3639SOL    HW122550   2.648   2.561   7.057  1.5925  0.0005  1.3464
 3639SOL    HW222551   2.684   2.445   7.145 -0.5384 -1.2701 -0.5664
 3640SOL     OW22552   4.615   0.485   1.054  0.2125  0.5676  0.2866
 3640SOL    HW122553   4.531   0.440   1.044  0.4034  0.2799 -0.0553
 3640SOL    HW222554   4.635   0.508   0.963 -0.3489 -0.0948 -0.0110
 3641SOL     OW22555   2.692   0.475  16.884 -0.4365  0.0264  0.3030
 3641SOL    HW122556   2.627   0.493  16.817 -0.3949  2.7379  0.9818
 3641SOL    HW222557   2.630   0.469  16.956 -1.6928  2.7066 -0.5634
 3642SOL     OW22558   4.448   2.063   8.509 -0.1588  0.0409  0.1263
 3642SOL    HW122559   4.535   2.034   8.534 -0.2913 -1.2840 -0.9411
 3642SOL    HW222560   4.427   2.143   8.557  0.9515 -0.8611  2.0610
 3643SOL     OW22561   0.718   0.988  13.336 -0.2332 -0.2046  0.3140
 3643SOL    HW122562   0.649   0.966  13.274  0.6692  1.4432 -1.3067
 3643SOL    HW222563   0.674   1.001  13.420  0.7503 -1.7366  1.0583
 3644SOL     OW22564   4.062   1.976   7.766 -0.1288  0.2825  0.4819
 3644SOL    HW122565   3.966   1.975   7.765 -0.0959  1.8161 -3.9923
 3644SOL    HW222566   4.075   1.932   7.850  3.6374  0.5753  0.0619
 3645SOL     OW22567   0.121   3.745   0.117  0.1925  0.7009 -0.5155
 3645SOL    HW122568   0.161   3.667   0.078  2.1234  1.7295 -0.5590
 3645SOL    HW222569   0.121   3.719   0.209 -1.8434  1.2282 -0.3701
 3646SOL     OW22570   2.669   2.225   4.311 -0.0519 -0.0323  0.3390
 3646SOL    HW122571   2.632   2.188   4.391  0.7535 -0.1096  0.6759
 3646SOL    HW222572   2.630   2.312   4.314  2.2239  0.9796  0.6483
 3647SOL     OW22573   2.446   1.227   8.924 -0.3903 -0.3443  0.2625
 3647SOL    HW122574   2.532   1.221   8.965 -0.7491 -1.1368  0.9000
 3647SOL    HW222575   2.379   1.164   8.951 -1.0401  0.3416  0.2579
 3648SOL     OW22576   2.135   4.703   3.056 -0.5125  0.4294  0.2969
 3648SOL    HW122577   2.073   0.040   3.044 -3.2312 -2.2884 -1.6533
 3648SOL    HW222578   2.088   4.633   3.011 -1.2065 -0.2958  2.1642
 3649SOL     OW22579   2.817   3.604   6.589  0.3660  0.2228 -0.6844
 3649SOL    HW122580   2.862   3.644   6.663  1.2601  0.6018 -1.4285
 3649SOL    HW222581   2.855   3.516   6.584  0.7278  0.3877 -0.7776
 3650SOL     OW22582   3.891   3.664   5.596  0.3845 -0.4336  0.0214
 3650SOL    HW122583   3.818   3.704   5.549 -0.7246  0.0639  2.1835
 3650SOL    HW222584   3.855   3.678   5.683  1.2629  0.2384  0.2797
 3651SOL     OW22585   2.111   3.743   3.706  0.2363 -0.2638 -0.4405
 3651SOL    HW122586   2.052   3.694   3.648  0.2689 -1.9011  0.9130
 3651SOL    HW222587   2.141   3.671   3.761 -1.8484  0.4334  1.5996
 3652SOL     OW22588   4.304   1.423  16.406 -0.3381 -0.2921  0.1734
 3652SOL    HW122589   4.271   1.496  16.352 -1.2042 -1.2181 -0.5459
 3652SOL    HW222590   4.393   1.417  16.371 -0.7837  0.5270 -1.0940
 3653SOL     OW22591   3.483   0.184   3.935  0.1442  0.0742 -0.2752
 3653SOL    HW122592   3.507   0.144   4.019  0.5730  2.2156  0.6099
 3653SOL    HW222593   3.564   0.161   3.890  0.4841  1.0979 -0.1846
 3654SOL     OW22594   2.298   1.162  12.270  0.1706 -0.0761  0.0067
 3654SOL    HW122595   2.208   1.131  12.262 -0.0733  0.9787 -1.3368
 3654SOL    HW222596   2.332   1.123  12.189 -0.9255  2.7175 -1.7701
 3655SOL     OW22597   4.352   4.455   8.892  0.3129 -0.2158  0.4019
 3655SOL    HW122598   4.278   4.516   8.893 -1.5213 -2.4424  2.1167
 3655SOL    HW222599   4.428   4.512   8.886 -0.5411  0.9362  0.5725
 3656SOL     OW22600   2.195   3.123   7.744 -0.3902 -0.0915  0.0937
 3656SOL    HW122601   2.269   3.071   7.713 -0.0521 -1.4055  3.0862
 3656SOL    HW222602   2.127   3.055   7.743 -1.2490  0.7984 -1.5605
 3657SOL     OW22603   1.446   4.345   2.695 -0.0503  0.6867  0.1562
 3657SOL    HW122604   1.505   4.416   2.720  1.0637  0.1024 -0.8508
 3657SOL    HW222605   1.400   4.340   2.779 -1.4028  0.4544 -0.5868
 3658SOL     OW22606   4.242   0.335  14.440  0.3461  0.0989  0.3176
 3658SOL    HW122607   4.296   0.279  14.384 -0.2216 -0.3882  0.2588
 3658SOL    HW222608   4.169   0.373  14.391 -0.4078 -2.2752 -0.3957
 3659SOL     OW22609   3.909   1.622   7.586  0.3646 -0.4589  0.5181
 3659SOL    HW122610   3.826   1.576   7.570 -0.0825  0.3114  0.6313
 3659SOL    HW222611   3.881   1.710   7.612  2.0592  0.0797  0.4987
 3660SOL     OW22612   1.557   0.448   4.219 -0.0038  0.3461 -0.0964
 3660SOL    HW122613   1.555   0.531   4.267 -0.3762  1.4909 -2.1026
 3660SOL    HW222614   1.649   0.439   4.192 -0.8337  1.2342 -3.2348
 3661SOL     OW22615   4.222   1.029  15.395  0.0358  0.4042  0.3226
 3661SOL    HW122616   4.286   1.036  15.466 -1.0729 -0.5115  1.4091
 3661SOL    HW222617   4.281   1.037  15.320  0.3338  1.8818  0.7113
 3662SOL     OW22618   2.123   2.162   6.006 -0.5476 -0.3128  0.1911
 3662SOL    HW122619   2.109   2.111   5.926  1.0767 -1.4501  0.6390
 3662SOL    HW222620   2.143   2.249   5.970  1.5394  1.3169  5.4017
 3663SOL     OW22621   4.733   2.806  10.561  0.4606  0.0474  0.3489
 3663SOL    HW122622   4.678   2.783  10.636  1.3355 -0.1621  0.9248
 3663SOL    HW222623   0.041   2.726  10.530 -1.3588 -0.0040 -1.9753
 3664SOL     OW22624   0.583   1.475   3.377  0.3389 -0.0957  0.2106
 3664SOL    HW122625   0.559   1.540   3.311  4.1981  0.3952 -0.7226
 3664SOL    HW222626   0.610   1.532   3.448 -1.6366  1.0644  0.0368
 3665SOL     OW22627   1.004   2.467   7.750 -0.2437  0.5740 -0.5643
 3665SOL    HW122628   0.942   2.505   7.688 -0.6126 -0.3342 -0.7462
 3665SOL    HW222629   0.984   2.523   7.825  0.0293 -0.5040  0.2958
 3666SOL     OW22630   3.621   2.017  17.381 -0.0479 -0.3990  0.3964
 3666SOL    HW122631   3.566   1.945  17.350 -1.9875  0.5738  1.6302
 3666SOL    HW222632   3.657   2.041  17.295  0.2700  1.7211  1.1131
 3667SOL     OW22633   2.561   1.512   6.300 -0.2511 -0.7154 -0.1038
 3667SOL    HW122634   2.621   1.513   6.226  1.0594 -0.3593  0.9521
 3667SOL    HW222635   2.590   1.433   6.346  0.3121 -0.5750 -0.2222
 3668SOL     OW22636   1.690   3.057  12.812  0.4020 -0.4637 -0.1797
 3668SOL    HW122637   1.675   3.109  12.733 -0.6759 -1.1005 -0.3871
 3668SOL    HW222638   1.599   3.046  12.841  0.6260 -1.9138 -0.0418
 3669SOL     OW22639   2.487   1.991   3.995 -0.1114 -0.4627 -0.2953
 3669SOL    HW122640   2.396   1.998   3.967  0.0075  0.2261 -0.5137
 3669SOL    HW222641   2.470   1.977   4.088  0.5392  1.2231  0.0731
 3670SOL     OW22642   4.538   0.643  10.426 -0.2942  0.3226  0.5654
 3670SOL    HW122643   4.506   0.556  10.401 -1.0023  0.2453  1.7344
 3670SOL    HW222644   4.492   0.696  10.360 -2.9184  0.3598  2.4127
 3671SOL     OW22645   4.137   0.385   5.915 -0.4792  0.1247 -0.9623
 3671SOL    HW122646   4.188   0.313   5.878 -0.5719 -0.9452  1.0230
 3671SOL    HW222647   4.133   0.437   5.834 -1.3687  1.3312 -0.1397
 3672SOL     OW22648   1.114   0.102   4.712 -0.4565  0.3501  0.2624
 3672SOL    HW122649   1.205   0.127   4.728  0.9539 -4.6645  0.1809
 3672SOL    HW222650   1.075   0.187   4.728 -1.7271 -0.3429  0.8278
 3673SOL     OW22651   0.768   2.752   6.406  0.2860  0.0729  0.0735
 3673SOL    HW122652   0.797   2.829   6.455 -2.0383  0.4422  0.8817
 3673SOL    HW222653   0.708   2.791   6.343 -0.1036  1.4339  1.3024
 3674SOL     OW22654   3.848   3.437   8.988  0.0889 -0.0828  0.2885
 3674SOL    HW122655   3.935   3.465   9.016  0.3958 -2.4712  1.7295
 3674SOL    HW222656   3.819   3.519   8.949  1.7196  1.7289  2.8266
 3675SOL     OW22657   1.436   2.785   9.510 -0.3002  0.2208  0.4006
 3675SOL    HW122658   1.413   2.878   9.503 -2.5540 -0.4415 -1.0574
 3675SOL    HW222659   1.492   2.789   9.587  0.8400 -2.0289 -0.3279
 3676SOL     OW22660   4.408   4.700   6.099 -1.0121 -0.3215  0.3032
 3676SOL    HW122661   4.429   4.705   6.006  0.7485  1.5764  0.8027
 3676SOL    HW222662   4.497   4.681   6.127 -0.5281 -1.9246 -2.3190
 3677SOL     OW22663   0.850   1.571   3.099  0.1151 -0.3660 -0.8598
 3677SOL    HW122664   0.854   1.666   3.084  0.3073 -0.0957  0.9120
 3677SOL    HW222665   0.755   1.560   3.101  0.1838 -0.4273  1.1373
 3678SOL     OW22666   1.689   1.057   1.349 -0.0999  0.1765  0.2305
 3678SOL    HW122667   1.618   1.034   1.288  0.6009 -0.7663 -0.2249
 3678SOL    HW222668   1.664   1.139   1.392 -3.0222  0.2135 -1.5288
 3679SOL     OW22669   3.664   0.627   6.036  0.1550  0.5619 -0.3655
 3679SOL    HW122670   3.607   0.672   6.098  3.2418  0.4340  2.6096
 3679SOL    HW222671   3.747   0.626   6.085  0.8459  1.7632 -1.5106
 3680SOL     OW22672   3.038   3.893   5.573  0.1336 -0.0903  0.0015
 3680SOL    HW122673   2.983   3.870   5.499 -0.4347 -0.7424  0.6203
 3680SOL    HW222674   2.977   3.936   5.633  0.3280  1.1166 -0.6662
 3681SOL     OW22675   2.934   1.843   7.717 -0.1266  0.0633  1.1562
 3681SOL    HW122676   3.008   1.847   7.778  1.8010  1.2705 -1.2522
 3681SOL    HW222677   2.938   1.751   7.691 -0.9376  0.0652  1.0298
 3682SOL     OW22678   4.286   0.736   1.217  0.2007 -0.1155  0.1291
 3682SOL    HW122679   4.313   0.666   1.276 -0.0024 -0.1502  0.1798
 3682SOL    HW222680   4.362   0.742   1.158 -2.0670 -0.5396 -2.8444
 3683SOL     OW22681   2.008   3.595   9.410 -0.0855 -0.9007 -0.3778
 3683SOL    HW122682   1.976   3.667   9.354 -1.3740 -0.0647  1.4348
 3683SOL    HW222683   1.953   3.594   9.488 -0.5829  0.6925 -0.6928
 3684SOL     OW22684   3.459   4.434   2.253  0.4385 -0.8326 -0.2545
 3684SOL    HW122685   3.440   4.364   2.191 -1.0089  0.3638 -1.1475
 3684SOL    HW222686   3.375   4.479   2.248 -0.1882 -1.7919  1.7658
 3685SOL     OW22687   2.963   0.318   1.904  0.4177 -0.2408  0.1125
 3685SOL    HW122688   2.965   0.406   1.941 -1.1392  0.7053 -2.0114
 3685SOL    HW222689   3.055   0.304   1.880 -0.0043 -0.5083 -1.3714
 3686SOL     OW22690   3.085   0.186   7.010 -0.0814 -0.1286  0.0858
 3686SOL    HW122691   3.130   0.123   6.953  1.4347  0.5443  0.5466
 3686SOL    HW222692   3.084   0.266   6.957  0.4958  1.2831  2.2409
 3687SOL     OW22693   0.511   4.346   8.112 -0.4371  0.2435 -0.4952
 3687SOL    HW122694   0.564   4.266   8.109 -1.8680 -0.6735 -0.8658
 3687SOL    HW222695   0.474   4.339   8.200  0.4215  0.8288 -0.0820
 3688SOL     OW22696   4.028   2.211   3.625  0.0847 -0.5550  0.4303
 3688SOL    HW122697   3.969   2.252   3.688 -0.0927 -1.7503  1.0270
 3688SOL    HW222698   4.039   2.129   3.673 -0.2859 -0.1265  1.2384
 3689SOL     OW22699   0.467   4.276  12.980 -0.2802 -0.1164  0.3293
 3689SOL    HW122700   0.465   4.278  12.884  0.2830 -2.0044  0.2799
 3689SOL    HW222701   0.508   4.358  13.006 -2.5759  0.8151  1.0298
 3690SOL     OW22702   0.637   0.405   8.448 -0.5286  0.3567  0.4002
 3690SOL    HW122703   0.707   0.420   8.510  1.3974 -2.9038 -0.9640
 3690SOL    HW222704   0.621   0.314   8.473  0.9934  0.1640  0.6242
 3691SOL     OW22705   1.938   0.446   4.444  0.0995 -0.3287 -0.1872
 3691SOL    HW122706   1.863   0.395   4.473 -2.1375  0.6552 -4.2520
 3691SOL    HW222707   1.991   0.367   4.429  0.1194 -0.1686 -0.9841
 3692SOL     OW22708   3.855   0.859   0.616  0.3830  0.1044  0.6573
 3692SOL    HW122709   3.776   0.838   0.666  0.0240 -0.7193 -0.2634
 3692SOL    HW222710   3.926   0.837   0.675  1.2598  1.1736  0.0131
 3693SOL     OW22711   0.111   0.289   0.838 -0.3651  0.0602  0.3405
 3693SOL    HW122712   0.144   0.371   0.874  0.4277 -0.1467  0.0795
 3693SOL    HW222713   0.029   0.318   0.798  0.1963 -0.8404 -1.4461
 3694SOL     OW22714   1.550   4.425   4.105 -0.6789  0.1934 -0.5216
 3694SOL    HW122715   1.645   4.424   4.118 -0.5699 -1.0231 -1.4041
 3694SOL    HW222716   1.545   4.434   4.010 -0.7423 -0.5163 -0.5832
 3695SOL     OW22717   3.935   1.096   1.463  0.6093  0.2167 -0.0405
 3695SOL    HW122718   3.845   1.074   1.487  0.3168 -0.1110 -1.4128
 3695SOL    HW222719   3.969   1.152   1.532  0.2481  1.0085 -0.4999
 3696SOL     OW22720   0.689   2.193   3.645 -0.3057 -1.1029 -0.1337
 3696SOL    HW122721   0.600   2.230   3.645 -0.7905 -2.2939  0.2065
 3696SOL    HW222722   0.727   2.228   3.726  0.3583  0.0558 -0.9474
 3697SOL     OW22723   3.665   2.167   3.629 -0.4217  0.0592  0.7838
 3697SOL    HW122724   3.750   2.203   3.657 -0.7120  2.6827 -1.7522
 3697SOL    HW222725   3.644   2.218   3.551  1.9250 -1.9034 -1.1234
 3698SOL     OW22726   2.841   3.829   5.047 -0.0385  0.4169 -0.2702
 3698SOL    HW122727   2.825   3.789   5.132 -2.5514  1.5214 -0.1982
 3698SOL    HW222728   2.780   3.903   5.046 -0.3861  0.1351 -0.2297
 3699SOL     OW22729   1.210   2.675  15.375 -0.1080 -0.5933 -0.2941
 3699SOL    HW122730   1.159   2.716  15.445  2.3459  2.6599 -0.4199
 3699SOL    HW222731   1.201   2.736  15.302  1.5274  0.8548  0.7127
 3700SOL     OW22732   2.226   2.455   7.443  0.0478 -0.5914  0.0666
 3700SOL    HW122733   2.155   2.408   7.399 -1.6787  0.8306  1.3557
 3700SOL    HW222734   2.250   2.516   7.374 -3.0743  0.1387 -0.3714
 3701SOL     OW22735   4.336   3.836  15.496 -0.0561 -0.2484  0.2498
 3701SOL    HW122736   4.411   3.817  15.439  0.3680 -0.2387  0.8031
 3701SOL    HW222737   4.310   3.749  15.526 -2.6659 -0.2773 -2.0531
 3702SOL     OW22738   2.730   1.069   2.875 -0.1257 -0.2020 -0.5741
 3702SOL    HW122739   2.763   0.984   2.906 -0.8904 -0.6229 -0.9205
 3702SOL    HW222740   2.798   1.093   2.812 -2.0526 -0.9503 -2.9456
 3703SOL     OW22741   1.158   2.886   9.339 -0.4679  0.2694 -0.5636
 3703SOL    HW122742   1.207   2.808   9.314  0.3762  0.7230 -0.3070
 3703SOL    HW222743   1.210   2.964   9.321  0.3664 -0.8504 -3.0081
 3704SOL     OW22744   2.609   1.493  15.079 -0.1443 -0.4567 -0.2260
 3704SOL    HW122745   2.625   1.559  15.012  1.2432  0.5427  1.1116
 3704SOL    HW222746   2.609   1.413  15.025  1.8405 -0.4050 -0.2770
 3705SOL     OW22747   3.213   1.967   7.102  0.4925 -0.2730 -0.0179
 3705SOL    HW122748   3.128   1.954   7.145 -0.1113 -2.1490 -1.8049
 3705SOL    HW222749   3.265   1.891   7.127 -0.8117 -0.8901  0.8168
 3706SOL     OW22750   2.181   4.672  15.680  0.4838 -0.0303 -0.0196
 3706SOL    HW122751   2.128   4.593  15.691 -1.4304  1.6624  2.9709
 3706SOL    HW222752   2.152   4.694  15.591 -0.1205  0.8840  0.4079
 3707SOL     OW22753   2.000   0.163   4.592  0.0778  0.0264 -0.1750
 3707SOL    HW122754   2.071   0.101   4.608 -0.9430 -1.2606 -0.6338
 3707SOL    HW222755   1.931   0.097   4.599 -0.6880  0.6191 -2.1302
 3708SOL     OW22756   2.791   0.512  13.323  0.3077  0.2200 -0.1286
 3708SOL    HW122757   2.704   0.509  13.363 -0.8306 -1.3862 -2.7397
 3708SOL    HW222758   2.781   0.582  13.258  1.1243 -0.1995 -0.7089
 3709SOL     OW22759   3.744   2.563   0.215 -0.1129 -0.1524 -0.1123
 3709SOL    HW122760   3.825   2.581   0.167  0.5515 -1.6193  0.4386
 3709SOL    HW222761   3.742   2.631   0.282 -0.3215 -1.5418  1.2991
 3710SOL     OW22762   0.067   3.290   3.079 -0.3201 -0.0565 -0.1057
 3710SOL    HW122763   4.726   3.233   3.090  0.1127 -0.3074  1.6108
 3710SOL    HW222764   0.121   3.234   3.023  1.7194  0.9294  0.8749
 3711SOL     OW22765   2.990   2.089   7.885 -0.0945 -0.0233  0.2835
 3711SOL    HW122766   3.017   2.090   7.793  1.2664 -2.6297  0.6340
 3711SOL    HW222767   3.023   2.175   7.910  0.0738 -0.0824  0.2626
 3712SOL     OW22768   0.427   0.530   4.589  0.4957  0.1912 -0.7909
 3712SOL    HW122769   0.470   0.609   4.619  0.8314  0.3897 -1.7838
 3712SOL    HW222770   0.494   0.467   4.613 -0.7505 -1.1548 -0.8521
 3713SOL     OW22771   3.907   1.272   6.130  0.1011 -0.2156  0.0170
 3713SOL    HW122772   3.817   1.244   6.149  0.2073 -0.1389  0.6339
 3713SOL    HW222773   3.960   1.207   6.176 -1.8021 -1.7955 -0.0027
 3714SOL     OW22774   4.040   0.822   5.400  0.3423 -0.1357  0.0289
 3714SOL    HW122775   4.057   0.782   5.315  2.4868 -0.3291  0.5507
 3714SOL    HW222776   4.000   0.758   5.459 -0.3436 -0.3915 -0.7180
 3715SOL     OW22777   0.033   1.297  14.145 -0.0858  0.4017  0.1699
 3715SOL    HW122778   4.711   1.367  14.111  1.6300  0.3904 -2.7533
 3715SOL    HW222779   0.038   1.316  14.239 -2.4012  1.3207  0.1214
 3716SOL     OW22780   1.765   2.850   0.215  0.3100  0.0625 -0.2557
 3716SOL    HW122781   1.777   2.896   0.299 -0.3830 -1.1865  0.5298
 3716SOL    HW222782   1.852   2.812   0.205 -0.1297 -1.3150  1.1953
 3717SOL     OW22783   1.971   2.236   2.981 -0.4963 -0.5002  0.2485
 3717SOL    HW122784   1.964   2.142   2.965 -0.1474 -0.3423 -0.8338
 3717SOL    HW222785   2.000   2.227   3.072 -0.3781  0.7185  0.3401
 3718SOL     OW22786   4.025   2.081   7.323  0.1947 -0.3876 -0.0873
 3718SOL    HW122787   3.986   1.999   7.354  1.0699 -1.2752 -1.3073
 3718SOL    HW222788   4.107   2.057   7.280 -1.4037 -1.6629 -2.4221
 3719SOL     OW22789   3.215   3.385   6.337  0.0958 -0.1868 -0.5552
 3719SOL    HW122790   3.142   3.441   6.309  0.7687  1.3178  0.7134
 3719SOL    HW222791   3.233   3.342   6.253  0.0460  0.5448 -0.9456
 3720SOL     OW22792   2.461   1.639   3.251 -0.0391  0.2372 -0.5581
 3720SOL    HW122793   2.394   1.678   3.194 -1.1664  0.0273  0.6117
 3720SOL    HW222794   2.511   1.713   3.284 -1.8768  0.3607  1.9714
 3721SOL     OW22795   3.853   4.168   2.192 -0.0868 -0.8270  0.0793
 3721SOL    HW122796   3.880   4.222   2.267 -0.4750  1.9167 -1.7707
 3721SOL    HW222797   3.940   4.128   2.190  0.2252 -0.1239 -0.4609
 3722SOL     OW22798   1.531   1.225   8.579  0.5428  0.6438  0.7053
 3722SOL    HW122799   1.498   1.315   8.585 -0.3497  0.4895 -2.1213
 3722SOL    HW222800   1.599   1.241   8.513  0.2050  1.2230  0.4939
 3723SOL     OW22801   0.275   3.996   9.765 -0.1883 -0.6109  0.4295
 3723SOL    HW122802   0.193   4.043   9.750 -1.3223 -2.5313  0.5237
 3723SOL    HW222803   0.261   3.950   9.848 -1.9585 -1.6636 -0.4592
 3724SOL     OW22804   1.225   4.733   4.303 -0.2110 -0.3898 -0.1274
 3724SOL    HW122805   1.293   0.021   4.241 -0.4052  0.0059 -0.1968
 3724SOL    HW222806   1.225   4.637   4.296 -0.0279 -0.3217 -0.9886
 3725SOL     OW22807   4.165   1.587   2.901  0.4190  0.6767 -0.2024
 3725SOL    HW122808   4.098   1.650   2.929 -0.0087  0.4028 -0.6017
 3725SOL    HW222809   4.205   1.634   2.828 -0.8092  1.2866 -0.4917
 3726SOL     OW22810   1.687   2.380  12.341  0.0518  0.2457  0.6014
 3726SOL    HW122811   1.743   2.438  12.393  1.1458  0.9255 -1.3166
 3726SOL    HW222812   1.601   2.414  12.366 -0.7347 -1.3911  0.0577
 3727SOL     OW22813   3.242   1.296   8.519  0.4007 -0.0827  0.5881
 3727SOL    HW122814   3.281   1.222   8.473  1.6147  0.6801  0.3867
 3727SOL    HW222815   3.309   1.312   8.586  1.7504 -2.1255 -0.2622
 3728SOL     OW22816   4.191   3.156  17.142  0.3546 -0.1278  0.4133
 3728SOL    HW122817   4.267   3.207  17.114  1.2300 -0.6159  1.8984
 3728SOL    HW222818   4.122   3.221  17.150 -0.4691 -0.9699  0.1450
 3729SOL     OW22819   3.775   1.836   0.049 -0.3873  0.5787 -0.4621
 3729SOL    HW122820   3.825   1.841  17.706 -0.1322 -0.8538 -0.3954
 3729SOL    HW222821   3.701   1.891   0.023 -1.7494 -1.3060 -0.5836
 3730SOL     OW22822   1.911   4.428   9.789  0.3629 -0.5555 -0.6051
 3730SOL    HW122823   1.916   4.512   9.744 -0.4569  0.4604  1.1856
 3730SOL    HW222824   1.867   4.461   9.868 -2.0260  0.9146 -2.5565
 3731SOL     OW22825   2.040   4.466   1.578  0.1120  0.4760  0.2625
 3731SOL    HW122826   1.971   4.399   1.582  1.7864 -1.2754 -0.2910
 3731SOL    HW222827   1.985   4.545   1.576 -0.6881 -0.0686  0.4159
 3732SOL     OW22828   4.612   0.089  16.410 -0.2002  0.1498 -0.4033
 3732SOL    HW122829   4.585   0.181  16.405 -0.9208 -0.1445 -1.9039
 3732SOL    HW222830   4.707   0.099  16.405 -0.2651  2.7599  3.2987
 3733SOL     OW22831   1.506   4.564   2.244 -0.3417 -0.4528  0.1220
 3733SOL    HW122832   1.511   4.599   2.333 -1.5948 -0.7771  0.3166
 3733SOL    HW222833   1.420   4.586   2.208  1.6483  2.6844 -2.7531
 3734SOL     OW22834   0.947   0.623   3.616 -0.2781 -0.0231  0.0040
 3734SOL    HW122835   0.922   0.551   3.674 -1.5966  0.8682  0.5254
 3734SOL    HW222836   0.882   0.620   3.546  0.5978  0.8877 -0.8625
 3735SOL     OW22837   2.166   1.731  11.343  0.3488 -0.7944 -0.1737
 3735SOL    HW122838   2.226   1.736  11.417  0.3934  2.8179 -0.4567
 3735SOL    HW222839   2.075   1.730  11.375  1.2693 -0.6265  2.4382
 3736SOL     OW22840   1.129   2.065   8.448  0.5369 -0.3081 -0.4768
 3736SOL    HW122841   1.143   2.023   8.533  0.4926 -0.2406 -0.4364
 3736SOL    HW222842   1.099   2.146   8.489  2.2321  0.0784 -0.0218
 3737SOL     OW22843   1.451   0.011   2.949 -0.3494 -0.4371 -0.1629
 3737SOL    HW122844   1.543   4.723   2.942 -1.2148 -2.9419 -3.4819
 3737SOL    HW222845   1.448   0.059   3.032 -0.9662 -0.5623 -0.1115
 3738SOL     OW22846   3.879   0.861   9.025 -0.6994 -0.4717 -0.1367
 3738SOL    HW122847   3.811   0.817   8.973 -0.6923 -2.0031  1.1444
 3738SOL    HW222848   3.899   0.785   9.080  0.0950  0.1912  0.4808
 3739SOL     OW22849   1.338   1.629   9.670 -0.3928 -0.5242  0.1441
 3739SOL    HW122850   1.341   1.679   9.588  0.8519 -0.2734  0.3386
 3739SOL    HW222851   1.253   1.641   9.713 -0.0961 -0.8364  0.8233
 3740SOL     OW22852   3.921   3.008  12.154 -0.3006  0.0686 -0.3533
 3740SOL    HW122853   3.982   3.028  12.225 -0.0516 -0.9528 -0.2849
 3740SOL    HW222854   3.957   2.926  12.121 -1.3310  0.5582 -2.7466
 3741SOL     OW22855   2.954   3.559   4.013 -0.4127 -0.4330 -0.2147
 3741SOL    HW122856   2.985   3.468   4.018 -1.5501 -0.7204  1.3588
 3741SOL    HW222857   3.021   3.581   3.948 -0.3648 -0.1127 -0.0586
 3742SOL     OW22858   1.957   2.123   8.273 -0.5038  0.3469 -0.3025
 3742SOL    HW122859   1.874   2.155   8.308 -1.0300 -0.3849 -0.9039
 3742SOL    HW222860   1.917   2.088   8.194 -1.8130  1.9204 -0.3438
 3743SOL     OW22861   0.409   2.865   1.024 -0.3303  0.6549 -0.0955
 3743SOL    HW122862   0.425   2.926   1.096 -0.3554 -0.5632  0.9368
 3743SOL    HW222863   0.353   2.794   1.056 -1.7361  0.3601 -3.1954
 3744SOL     OW22864   0.941   1.294   7.760 -0.1341 -0.9761  0.0101
 3744SOL    HW122865   0.942   1.199   7.771 -0.1084 -1.4169 -3.8139
 3744SOL    HW222866   1.027   1.311   7.798 -0.3449  1.6051 -0.6467
 3745SOL     OW22867   2.598   1.913  15.357 -0.1541 -0.1479 -0.0826
 3745SOL    HW122868   2.506   1.886  15.352 -0.4030  0.7313 -0.2398
 3745SOL    HW222869   2.584   2.006  15.338 -0.9869  0.1095  1.8555
 3746SOL     OW22870   0.965   0.583   7.772  0.4075 -0.1544  0.0563
 3746SOL    HW122871   0.954   0.525   7.697  0.5226  1.2604 -1.0599
 3746SOL    HW222872   1.047   0.553   7.811  2.1532  3.5373 -0.7507
 3747SOL     OW22873   4.663   2.948   5.141 -0.2446 -0.1933  0.2840
 3747SOL    HW122874   4.606   2.977   5.070 -0.9205 -2.1047  0.0245
 3747SOL    HW222875   4.635   3.010   5.207 -0.7812  0.9621 -1.0294
 3748SOL     OW22876   0.135   1.805   2.234  0.5371 -0.1313 -0.3693
 3748SOL    HW122877   0.122   1.877   2.173  0.5295  0.4068  0.2704
 3748SOL    HW222878   0.091   1.732   2.190  0.6309 -0.7484  0.5419
 3749SOL     OW22879   0.908   3.981   8.859 -0.1315 -0.3584  0.0643
 3749SOL    HW122880   0.859   3.939   8.930  1.1604 -1.3084  0.3903
 3749SOL    HW222881   0.856   3.955   8.783  0.8961 -0.1516 -0.6962
 3750SOL     OW22882   2.143   0.603   5.649 -0.4600  0.6156  0.7879
 3750SOL    HW122883   2.177   0.585   5.562 -2.3585  2.7595 -0.4258
 3750SOL    HW222884   2.069   0.542   5.652 -0.8315  1.0110 -0.4590
 3751SOL     OW22885   1.030   4.550   9.294 -0.2423 -0.0097  0.5504
 3751SOL    HW122886   0.971   4.615   9.334 -0.3110  0.1291  0.2252
 3751SOL    HW222887   0.982   4.469   9.310  1.0774 -1.4004 -2.5969
 3752SOL     OW22888   0.059   3.526  11.604 -0.2017  0.4128 -0.1771
 3752SOL    HW122889   0.109   3.605  11.583  0.6693  0.1912  1.0790
 3752SOL    HW222890   0.010   3.567  11.675  0.3376 -1.1798  1.1254
 3753SOL     OW22891   2.434   1.318   5.780 -0.6652  0.0883  0.3086
 3753SOL    HW122892   2.480   1.247   5.825  1.5761  1.6482  0.4549
 3753SOL    HW222893   2.424   1.281   5.692 -2.9269  3.1159 -0.6996
 3754SOL     OW22894   1.080   1.714   5.076 -0.1470 -0.1666 -0.2099
 3754SOL    HW122895   1.099   1.714   4.983  2.3325  0.2094  0.2943
 3754SOL    HW222896   1.064   1.807   5.091 -0.2114 -0.6720  2.8621
 3755SOL     OW22897   2.486   4.449   7.301  0.2720 -0.6826  0.3134
 3755SOL    HW122898   2.484   4.354   7.293  2.3845 -0.7821  0.9408
 3755SOL    HW222899   2.474   4.479   7.211 -1.2446 -0.3391  0.6231
 3756SOL     OW22900   2.015   3.630   9.904 -0.1363  1.0100  0.3442
 3756SOL    HW122901   1.961   3.558   9.936  0.8341 -0.3617 -1.1063
 3756SOL    HW222902   2.051   3.669   9.984  2.3817  2.3387 -1.3966
 3757SOL     OW22903   2.415   3.179   6.949 -0.2196 -0.3684 -0.2652
 3757SOL    HW122904   2.499   3.192   6.993 -1.2273  2.1125  0.9372
 3757SOL    HW222905   2.428   3.085   6.937 -0.2518 -0.5973  1.5003
 3758SOL     OW22906   4.192   3.040   5.668 -0.1255  0.4201 -0.4500
 3758SOL    HW122907   4.145   3.020   5.587  1.8143 -1.0781 -1.1998
 3758SOL    HW222908   4.185   2.963   5.724 -0.0430  1.1004  0.4898
 3759SOL     OW22909   0.169   3.337   7.362 -0.8321 -0.2637  0.1691
 3759SOL    HW122910   0.234   3.406   7.365 -1.5735  0.4426  0.0226
 3759SOL    HW222911   0.229   3.266   7.340 -1.0363 -0.7583  1.1914
 3760SOL     OW22912   3.150   0.195  11.311  0.0585 -0.4170  0.0879
 3760SOL    HW122913   3.199   0.272  11.340 -0.3533  0.6096 -1.9790
 3760SOL    HW222914   3.214   0.125  11.300 -1.6343 -2.2947  2.1060
 3761SOL     OW22915   2.450   0.512   7.366  0.0307 -0.3216 -0.0577
 3761SOL    HW122916   2.499   0.524   7.448  1.8666  0.0400 -1.2090
 3761SOL    HW222917   2.501   0.441   7.327  0.3351  0.7243 -1.5629
 3762SOL     OW22918   0.023   1.018   1.926  0.5375 -0.6047  0.8000
 3762SOL    HW122919   4.674   1.014   1.972 -0.7250 -0.3037 -1.5179
 3762SOL    HW222920   0.014   0.962   1.849  0.2359 -0.5386  0.7878
 3763SOL     OW22921   3.307   0.153  12.213  0.0780  0.2198  0.0429
 3763SOL    HW122922   3.367   0.082  12.237  0.3216  0.2050 -0.6042
 3763SOL    HW222923   3.237   0.102  12.172  0.3417  0.4973 -0.7532
 3764SOL     OW22924   3.334   0.823   0.122 -0.4636 -0.2801  0.1333
 3764SOL    HW122925   3.392   0.857   0.190  0.0008  1.8555 -1.3368
 3764SOL    HW222926   3.323   0.731   0.147  0.3388 -0.0068  1.4920
 3765SOL     OW22927   3.845   1.162  13.008  0.2306 -0.3904  0.1231
 3765SOL    HW122928   3.799   1.210  12.939 -1.4388 -4.3013 -1.4792
 3765SOL    HW222929   3.835   1.073  12.974  1.6643 -0.2401 -0.6809
 3766SOL     OW22930   1.240   0.581   0.551 -0.0681 -0.1912 -0.2442
 3766SOL    HW122931   1.283   0.639   0.488 -1.0077  1.6681  0.8312
 3766SOL    HW222932   1.157   0.625   0.568 -1.1189 -2.3198  0.1710
 3767SOL     OW22933   1.695   3.591   5.197 -0.6929  0.2081  0.4502
 3767SOL    HW122934   1.669   3.503   5.223 -3.1504  1.0002  0.6733
 3767SOL    HW222935   1.617   3.639   5.225 -1.0182 -0.5382  0.8227
 3768SOL     OW22936   3.840   1.536  10.394 -0.5231 -0.6296 -0.3425
 3768SOL    HW122937   3.925   1.568  10.365 -0.0994  0.0354  1.6578
 3768SOL    HW222938   3.861   1.464  10.453  1.8657 -0.3099 -0.8183
 3769SOL     OW22939   0.611   0.554  11.947 -0.2217 -0.2104 -0.1046
 3769SOL    HW122940   0.654   0.485  11.997 -1.0267  0.0121  0.8864
 3769SOL    HW222941   0.537   0.508  11.909 -0.1216  0.1623 -0.7580
 3770SOL     OW22942   3.826   3.795  16.632 -0.6020  0.1134  0.8249
 3770SOL    HW122943   3.733   3.773  16.628 -0.2516 -1.1113 -0.6724
 3770SOL    HW222944   3.849   3.831  16.546  0.3482 -0.0724  0.9939
 3771SOL     OW22945   0.296   0.588   7.288  0.4356 -0.7333 -0.5375
 3771SOL    HW122946   0.299   0.631   7.374  0.4468  0.9397 -1.3883
 3771SOL    HW222947   0.202   0.596   7.276  0.3325  0.1750  0.8806
 3772SOL     OW22948   2.128   1.058   5.592  0.6641 -0.8501  0.1062
 3772SOL    HW122949   2.099   1.085   5.679  1.7361  2.6859 -0.6043
 3772SOL    HW222950   2.182   0.986   5.625  0.8307 -0.3667  0.8896
 3773SOL     OW22951   0.128   1.896   9.419  0.7094 -0.1736 -0.2302
 3773SOL    HW122952   0.127   1.802   9.398  1.5436  0.2549 -2.2074
 3773SOL    HW222953   0.197   1.923   9.358  1.4805 -0.8242  0.3529
 3774SOL     OW22954   2.785   3.608   7.056 -0.1020 -0.0917 -0.3095
 3774SOL    HW122955   2.855   3.672   7.073 -1.0097  1.0438 -0.8533
 3774SOL    HW222956   2.807   3.551   6.983  0.6244  0.4691 -0.5301
 3775SOL     OW22957   0.661   0.700  12.158  0.3261  0.0422  0.0643
 3775SOL    HW122958   0.648   0.653  12.076 -2.1598 -1.2349  1.1717
 3775SOL    HW222959   0.705   0.630  12.207 -0.2329 -0.0175  0.4838
 3776SOL     OW22960   1.820   4.188   4.932  0.5561 -0.8285 -0.0489
 3776SOL    HW122961   1.892   4.156   4.985  0.8070  0.4318  0.3556
 3776SOL    HW222962   1.758   4.227   4.994  0.1728 -0.0452 -0.9154
 3777SOL     OW22963   3.635   0.326   5.308  0.0754  0.3116 -0.1065
 3777SOL    HW122964   3.637   0.419   5.333  1.9349 -0.2495  1.8381
 3777SOL    HW222965   3.696   0.336   5.236 -0.5321 -0.8128 -0.7688
 3778SOL     OW22966   0.914   0.198   8.044  0.1841  0.1882  0.4990
 3778SOL    HW122967   0.844   0.135   8.062 -1.0792  1.8389  1.3726
 3778SOL    HW222968   0.866   0.242   7.974 -1.0971 -3.8606 -1.1275
 3779SOL     OW22969   3.404   1.377   6.497  0.2487 -0.5308  0.2919
 3779SOL    HW122970   3.308   1.375   6.495  0.3499 -2.8167 -1.8851
 3779SOL    HW222971   3.423   1.471   6.503 -2.3053 -0.0749  1.1093
 3780SOL     OW22972   0.365   1.936  13.377  0.4360  0.5438  0.0838
 3780SOL    HW122973   0.384   1.928  13.284  1.2570 -0.3803  0.3347
 3780SOL    HW222974   0.287   1.992  13.379  0.7241  0.9985 -1.5824
 3781SOL     OW22975   0.495   2.344   8.847  0.0084  0.9239 -0.0047
 3781SOL    HW122976   0.564   2.305   8.794  1.5804  1.3931  1.6999
 3781SOL    HW222977   0.445   2.392   8.781 -3.0984 -2.1143  0.1427
 3782SOL     OW22978   0.610   2.737   4.247 -0.0748 -0.0745 -0.9479
 3782SOL    HW122979   0.563   2.664   4.285 -0.7455  2.6662  3.5320
 3782SOL    HW222980   0.654   2.695   4.174 -0.7207 -2.0481 -0.1904
 3783SOL     OW22981   1.738   0.558  15.729 -0.0181  0.6724 -0.2076
 3783SOL    HW122982   1.751   0.482  15.786 -1.6355 -1.4884 -2.7575
 3783SOL    HW222983   1.803   0.549  15.659  0.8430  1.0008  0.5390
 3784SOL     OW22984   1.094   1.728   8.853 -0.4008  0.0469  0.3146
 3784SOL    HW122985   1.087   1.760   8.943  1.1236 -0.3805  0.5803
 3784SOL    HW222986   1.081   1.635   8.871  0.7190 -0.7085 -2.8704
 3785SOL     OW22987   2.797   4.122   9.615  0.3810 -0.3107 -0.1540
 3785SOL    HW122988   2.776   4.039   9.659 -2.6091 -0.0900 -1.1175
 3785SOL    HW222989   2.785   4.186   9.684 -0.0973 -1.7785  1.1218
 3786SOL     OW22990   4.158   0.349   1.071  0.3969 -0.6401 -0.1436
 3786SOL    HW122991   4.196   0.403   1.140  0.2618 -1.2358  0.3908
 3786SOL    HW222992   4.145   0.265   1.115  1.3447 -1.0020 -0.5422
 3787SOL     OW22993   2.371   1.415  14.142 -0.0429 -0.4191 -0.6888
 3787SOL    HW122994   2.357   1.321  14.154 -3.4310  0.0348 -1.2105
 3787SOL    HW222995   2.284   1.452  14.155  1.3202  2.6417 -0.2030
 3788SOL     OW22996   0.187   1.599  13.707  0.1301  0.4030  0.0668
 3788SOL    HW122997   0.280   1.586  13.725  0.2904  1.5040 -0.0031
 3788SOL    HW222998   0.145   1.544  13.775 -2.2650  2.3426  0.1688
 3789SOL     OW22999   3.295   1.433   1.611 -0.5355  0.7342 -0.6862
 3789SOL    HW123000   3.282   1.494   1.538  0.4483  0.4204 -1.1333
 3789SOL    HW223001   3.217   1.443   1.666 -1.0053  2.4565 -1.6434
 3790SOL     OW23002   1.555   1.395   2.066  0.5070 -0.3211 -0.6906
 3790SOL    HW123003   1.578   1.317   2.116  3.2098  3.1398  3.4665
 3790SOL    HW223004   1.576   1.460   2.133  1.1073  0.9414 -2.1044
 3791SOL     OW23005   0.733   0.393   7.067  0.1246 -0.1273  0.1637
 3791SOL    HW123006   0.691   0.457   7.125 -0.8470 -0.4507 -0.1897
 3791SOL    HW223007   0.737   0.324   7.133 -1.6441 -1.4244 -1.0847
 3792SOL     OW23008   0.328   0.501   0.898 -0.3199  0.5958 -0.3909
 3792SOL    HW123009   0.411   0.516   0.854 -0.3765 -0.9242 -1.0217
 3792SOL    HW223010   0.370   0.457   0.972 -2.1044  0.5899  0.6292
 3793SOL     OW23011   0.551   4.250   1.197 -0.0885 -0.0447  0.1536
 3793SOL    HW123012   0.500   4.169   1.188 -0.0145 -0.0448 -0.2711
 3793SOL    HW223013   0.538   4.286   1.110 -0.5828  2.5913  1.3304
 3794SOL     OW23014   2.864   2.474  14.775 -0.2380  0.6004  0.4013
 3794SOL    HW123015   2.855   2.555  14.826  0.0586  1.2079 -0.5203
 3794SOL    HW223016   2.771   2.457  14.763 -0.4819  0.0390  3.1027
 3795SOL     OW23017   3.106   4.073   3.738 -0.5388 -0.2541 -1.0132
 3795SOL    HW123018   3.088   4.051   3.829 -0.6333 -1.7519 -1.3929
 3795SOL    HW223019   3.082   4.165   3.735  0.0890 -0.1194 -1.7414
 3796SOL     OW23020   2.922   1.801  15.291 -0.2325  0.1681  0.1985
 3796SOL    HW123021   2.860   1.827  15.359  0.2677 -0.5664  0.9251
 3796SOL    HW223022   2.896   1.864  15.223 -0.3052 -0.7128 -0.5887
 3797SOL     OW23023   1.631   0.043  14.502  0.2136 -0.3766  1.1123
 3797SOL    HW123024   1.580   4.697  14.498 -0.1920 -0.1414  1.6102
 3797SOL    HW223025   1.652   0.060  14.410 -0.5066 -1.9428  0.6569
 3798SOL     OW23026   3.112   4.272   7.322  0.4353  0.6091 -0.3991
 3798SOL    HW123027   3.086   4.192   7.368  0.6433  0.9606  0.3297
 3798SOL    HW223028   3.030   4.313   7.295  0.4550 -0.7920 -2.6356
 3799SOL     OW23029   0.191   4.715   5.570  1.0154  0.3461  0.9639
 3799SOL    HW123030   0.134   0.040   5.521  2.7292  1.1341 -0.0908
 3799SOL    HW223031   0.169   0.009   5.659  0.9513 -0.1913  1.1202
 3800SOL     OW23032   3.897   0.079  16.029 -0.3312 -0.1666 -0.0225
 3800SOL    HW123033   3.893   4.722  16.055 -0.8884 -0.4005 -0.9486
 3800SOL    HW223034   3.836   0.079  15.956  2.5387 -1.9210 -2.4214
 3801SOL     OW23035   1.371   1.817   7.668 -0.2721 -0.2934  0.7284
 3801SOL    HW123036   1.347   1.840   7.758  0.6973  1.3362  0.5860
 3801SOL    HW223037   1.288   1.828   7.623 -0.0871 -1.0772  0.2080
 3802SOL     OW23038   3.651   4.463   5.890 -0.3770  0.2110  0.0611
 3802SOL    HW123039   3.630   4.542   5.940  0.3612  1.7514 -2.0635
 3802SOL    HW223040   3.660   4.410   5.969 -1.1447 -1.9170 -1.2682
 3803SOL     OW23041   4.491   3.325   7.968 -0.1038  0.1256  0.2545
 3803SOL    HW123042   4.498   3.409   7.922  1.0902  1.2091  2.4363
 3803SOL    HW223043   4.456   3.274   7.895 -0.9096  1.5901 -0.3866
 3804SOL     OW23044   2.561   3.953   2.487  0.3517 -0.3571  0.1815
 3804SOL    HW123045   2.637   3.900   2.509  0.5179 -0.0238  0.4090
 3804SOL    HW223046   2.600   4.037   2.465  0.1828 -0.1682  0.5911
 3805SOL     OW23047   4.194   2.962  17.572 -0.1147  0.3953 -0.2065
 3805SOL    HW123048   4.121   2.901  17.569  0.3985 -0.1421 -1.4810
 3805SOL    HW223049   4.260   2.923  17.516  0.7866  2.1254 -0.3663
 3806SOL     OW23050   2.621   1.673   4.404  0.2846 -0.0139 -0.2725
 3806SOL    HW123051   2.716   1.663   4.399  0.1819 -0.2492 -1.8428
 3806SOL    HW223052   2.599   1.582   4.384 -0.0883  0.4559 -1.9554
 3807SOL     OW23053   3.878   2.274   6.539  0.2709 -0.3391 -0.1651
 3807SOL    HW123054   3.906   2.279   6.630 -2.2482  2.6341  0.4550
 3807SOL    HW223055   3.811   2.205   6.541  0.5615 -0.5888  0.6878
 3808SOL     OW23056   3.732   3.755   7.994 -0.4699  0.2995  0.4765
 3808SOL    HW123057   3.696   3.674   8.029 -2.4200  1.5414  1.2992
 3808SOL    HW223058   3.826   3.746   8.011 -0.4969  1.3756  1.1637
 3809SOL     OW23059   3.545   4.266   2.446 -0.0055  0.5252 -0.6309
 3809SOL    HW123060   3.497   4.324   2.386 -0.3916 -0.9151 -1.7087
 3809SOL    HW223061   3.619   4.322   2.471  0.4867 -0.3967 -0.0424
 3810SOL     OW23062   4.179   2.985   3.729  0.1705 -0.5518  0.0064
 3810SOL    HW123063   4.100   3.032   3.755  0.4026  1.1475 -2.3992
 3810SOL    HW223064   4.236   3.012   3.802 -0.1328 -2.2324  0.8684
 3811SOL     OW23065   4.376   0.103  17.488  0.3652  0.1570  0.6954
 3811SOL    HW123066   4.377   0.170  17.419  0.2792 -2.6143 -2.0095
 3811SOL    HW223067   4.299   0.132  17.537 -0.0568 -2.1302  1.3433
 3812SOL     OW23068   4.049   1.038  17.157 -0.0692  0.1846 -0.0860
 3812SOL    HW123069   3.978   0.983  17.125  1.2957 -1.2756 -0.6064
 3812SOL    HW223070   4.069   1.003  17.244  1.3420  0.2061 -0.4041
 3813SOL     OW23071   1.579   3.997   4.269  0.1855  0.4215  0.0004
 3813SOL    HW123072   1.514   4.048   4.221 -0.9681 -1.5951 -0.5642
 3813SOL    HW223073   1.646   4.064   4.281  0.1439  0.0040  2.5810
 3814SOL     OW23074   4.128   1.048   4.562  0.2703 -0.0591  0.5845
 3814SOL    HW123075   4.110   1.098   4.482 -0.2142 -1.9362 -0.5126
 3814SOL    HW223076   4.045   1.005   4.581  2.3816 -3.8626  1.2338
 3815SOL     OW23077   2.853   0.294   7.686  0.0754  0.4537 -0.3233
 3815SOL    HW123078   2.890   0.221   7.735 -1.7912 -1.2199 -1.4051
 3815SOL    HW223079   2.759   0.278   7.700  0.4464 -2.5320 -1.2340
 3816SOL     OW23080   4.269   1.448   2.001 -0.1431 -0.1890  0.2626
 3816SOL    HW123081   4.289   1.541   1.992  0.8303 -0.4564 -0.4222
 3816SOL    HW223082   4.209   1.423   1.931  1.5483 -0.9897 -0.9025
 3817SOL     OW23083   2.071   0.944  12.566  0.0615 -0.0288  0.1588
 3817SOL    HW123084   2.011   0.870  12.566  0.4096 -0.3168 -1.2220
 3817SOL    HW223085   2.016   1.022  12.567 -0.2720 -0.3284  3.0506
 3818SOL     OW23086   4.422   2.814  11.792 -0.1894  0.2104 -0.1981
 3818SOL    HW123087   4.340   2.765  11.800  0.1889 -0.4301 -0.2153
 3818SOL    HW223088   4.454   2.762  11.718 -1.9395 -0.6637 -0.3506
 3819SOL     OW23089   0.224   1.912   2.453  0.7938  0.2728 -1.0705
 3819SOL    HW123090   0.190   1.869   2.374  0.7695 -2.6317  0.5168
 3819SOL    HW223091   0.179   1.855   2.514  1.5589 -0.3273 -1.0669
 3820SOL     OW23092   2.767   1.837  15.557  0.7432 -0.0990 -0.4891
 3820SOL    HW123093   2.726   1.750  15.559  1.6111 -0.4278  2.3503
 3820SOL    HW223094   2.717   1.875  15.485 -0.2675 -1.1863 -0.3715
 3821SOL     OW23095   3.751   0.186   3.428  0.5560 -0.0341 -0.0528
 3821SOL    HW123096   3.690   0.119   3.399 -0.0978  0.8336 -0.6884
 3821SOL    HW223097   3.833   0.141   3.407  1.4396  0.8606  1.4981
 3822SOL     OW23098   4.556   3.371   5.737  0.2420 -0.2992 -0.2903
 3822SOL    HW123099   4.491   3.377   5.806 -0.4195  1.9803 -1.1226
 3822SOL    HW223100   4.580   3.279   5.726 -0.9091 -0.4534 -1.6101
 3823SOL     OW23101   1.801   1.660   8.723 -0.7670 -0.0276  0.1764
 3823SOL    HW123102   1.842   1.694   8.802  1.2030 -0.2679 -0.7350
 3823SOL    HW223103   1.727   1.721   8.727 -0.5532  0.3269 -1.0366
 3824SOL     OW23104   3.488   2.018   5.925  0.2109  0.3617 -0.2966
 3824SOL    HW123105   3.510   1.954   5.993  1.9641  1.5344  0.2684
 3824SOL    HW223106   3.393   2.017   5.933  0.0706  0.1521 -2.1225
 3825SOL     OW23107   3.824   2.600   0.607 -0.1003  0.1555 -0.3821
 3825SOL    HW123108   3.877   2.582   0.530  1.1181  3.4639 -0.3208
 3825SOL    HW223109   3.733   2.603   0.577  0.2402 -1.5752 -1.5455
 3826SOL     OW23110   3.627   4.188  14.367 -0.2835 -0.6135 -0.0274
 3826SOL    HW123111   3.570   4.144  14.430 -1.6921  0.4173 -0.5842
 3826SOL    HW223112   3.691   4.225  14.426 -1.5129 -0.2423  1.0668
 3827SOL     OW23113   4.000   2.679  10.995  0.1483 -0.6555  0.3660
 3827SOL    HW123114   4.051   2.633  11.062  1.2537  0.9891  0.6682
 3827SOL    HW223115   3.996   2.609  10.929 -0.1470 -0.5774  0.3017
 3828SOL     OW23116   4.718   4.496   8.215  0.2332 -0.0277  0.0649
 3828SOL    HW123117   0.053   4.534   8.163 -0.2689  1.7378  0.6875
 3828SOL    HW223118   0.011   4.405   8.205 -0.9841 -0.5258  1.0874
 3829SOL     OW23119   1.784   1.749   8.118 -0.6260  0.0533  0.1809
 3829SOL    HW123120   1.853   1.814   8.125  1.7639 -2.4483 -0.3418
 3829SOL    HW223121   1.709   1.807   8.134 -0.4194  0.4386 -0.2533
 3830SOL     OW23122   0.340   3.205   2.386  0.1822  0.1982 -0.3676
 3830SOL    HW123123   0.321   3.175   2.475  3.6040 -1.2252 -0.1048
 3830SOL    HW223124   0.254   3.181   2.353  0.1037 -1.0066  0.7085
 3831SOL     OW23125   1.462   1.139   0.098  0.6106  0.2168 -0.3138
 3831SOL    HW123126   1.399   1.196   0.054 -0.7460 -1.1087 -0.0876
 3831SOL    HW223127   1.471   1.076   0.027  0.6672 -2.0312  1.6902
 3832SOL     OW23128   4.278   3.866   8.313  0.1694 -0.1101 -0.3481
 3832SOL    HW123129   4.317   3.787   8.349  0.7256 -0.3185 -1.3954
 3832SOL    HW223130   4.221   3.829   8.245  1.2924  0.3215 -1.5157
 3833SOL     OW23131   4.450   3.557  12.283  0.2641  0.0076 -0.3018
 3833SOL    HW123132   4.436   3.616  12.210  1.1726  1.6061  0.8256
 3833SOL    HW223133   4.436   3.472  12.240  0.0182  0.5400 -1.2556
 3834SOL     OW23134   2.462   1.328  11.835  0.1103 -0.1451  0.0251
 3834SOL    HW123135   2.419   1.242  11.831 -1.7991  0.9266 -2.5549
 3834SOL    HW223136   2.428   1.375  11.758  0.4999  1.0737  0.6032
 3835SOL     OW23137   0.256   0.010   8.940  0.0039 -0.2432 -0.2566
 3835SOL    HW123138   0.209   0.085   8.975  1.5352 -0.6679  2.6740
 3835SOL    HW223139   0.255   0.038   8.848  0.4286 -2.2349 -0.8841
 3836SOL     OW23140   2.831   3.350   7.540  0.3084 -0.6204  0.0577
 3836SOL    HW123141   2.790   3.264   7.533  1.3408 -0.9675 -1.8621
 3836SOL    HW223142   2.752   3.390   7.577 -0.1350  0.3038 -1.8888
 3837SOL     OW23143   3.365   3.846   2.889 -0.5100 -0.2028  0.6029
 3837SOL    HW123144   3.292   3.895   2.851  1.4302  1.4682 -1.0266
 3837SOL    HW223145   3.333   3.759   2.913  1.1313 -1.5237 -1.9296
 3838SOL     OW23146   2.277   1.024   2.897 -0.1093  0.3101  0.0732
 3838SOL    HW123147   2.345   1.076   2.939 -0.0178 -1.5501  2.1695
 3838SOL    HW223148   2.279   1.047   2.804 -1.5570 -0.2116 -0.0880
 3839SOL     OW23149   0.471   3.191  10.099 -0.1197 -0.1304 -0.2828
 3839SOL    HW123150   0.408   3.152  10.158 -0.0461  1.5056  0.8901
 3839SOL    HW223151   0.532   3.212  10.169 -0.2426  0.3925 -0.3327
 3840SOL     OW23152   1.396   1.492   5.584  0.3178  0.2504 -0.1348
 3840SOL    HW123153   1.476   1.513   5.537  0.4101 -1.5991 -0.7894
 3840SOL    HW223154   1.410   1.398   5.594  0.6583  0.2059 -1.0183
 3841SOL     OW23155   3.653   2.317   9.274 -0.1060 -0.0292 -0.0139
 3841SOL    HW123156   3.607   2.366   9.207  0.7018  1.0199  0.2022
 3841SOL    HW223157   3.744   2.333   9.249  0.4843 -0.1486  2.0490
 3842SOL     OW23158   3.998   3.067   2.676 -0.3020 -0.2533  0.2083
 3842SOL    HW123159   4.081   3.093   2.636 -0.2921  0.1007  0.4656
 3842SOL    HW223160   3.953   3.150   2.693  0.7624  0.4719 -0.4940
 3843SOL     OW23161   2.315   0.380   2.769  0.3841  0.1645 -0.4218
 3843SOL    HW123162   2.408   0.370   2.790  0.4824  0.2168 -0.8340
 3843SOL    HW223163   2.280   0.324   2.839 -1.5385 -0.8488 -2.2039
 3844SOL     OW23164   0.140   0.147   4.338  0.1809 -0.0021  0.1106
 3844SOL    HW123165   0.221   0.117   4.297 -0.0265 -0.2329 -0.1271
 3844SOL    HW223166   0.130   0.237   4.310 -1.3299 -0.9408 -2.3625
 3845SOL     OW23167   2.041   2.027  11.427 -0.1029  0.0254 -0.2439
 3845SOL    HW123168   2.134   2.048  11.424  0.2230 -1.3173  0.4593
 3845SOL    HW223169   2.041   1.991  11.516  0.4456  1.0540  0.1776
 3846SOL     OW23170   0.807   0.254  10.088  0.1998 -0.2680 -0.1667
 3846SOL    HW123171   0.836   0.179  10.140  1.6529  1.0487  0.9618
 3846SOL    HW223172   0.715   0.231  10.089 -0.0158  0.5839 -0.6353
 3847SOL     OW23173   3.643   2.570   3.640 -0.1592 -0.3146  0.3004
 3847SOL    HW123174   3.552   2.585   3.664 -0.8780 -0.8636 -2.1061
 3847SOL    HW223175   3.673   2.568   3.731  0.2357 -0.0127  0.1785
 3848SOL     OW23176   1.098   1.463   3.167 -0.3499 -0.0943  0.5177
 3848SOL    HW123177   1.118   1.525   3.237 -0.8771  1.0793 -0.3712
 3848SOL    HW223178   1.018   1.502   3.131 -0.0862  1.1859  1.3268
 3849SOL     OW23179   0.619   1.479  13.515  0.5840  0.2483 -0.0695
 3849SOL    HW123180   0.584   1.558  13.472  0.3334 -0.0261 -0.3714
 3849SOL    HW223181   0.648   1.510  13.601  0.2354 -0.8798  0.4611
 3850SOL     OW23182   1.697   3.475  12.335 -0.0702 -0.0989  0.1727
 3850SOL    HW123183   1.670   3.562  12.306 -1.9499 -0.7076  0.0761
 3850SOL    HW223184   1.750   3.496  12.411  2.5142 -2.2609 -1.0505
 3851SOL     OW23185   3.406   2.935   4.491 -0.4804 -0.4751 -0.0006
 3851SOL    HW123186   3.483   2.921   4.437 -0.7932  4.7285 -1.7722
 3851SOL    HW223187   3.423   2.888   4.573 -1.9413 -0.1587  0.4923
 3852SOL     OW23188   4.690   2.903   0.386 -0.3703  0.4704 -0.3927
 3852SOL    HW123189   4.673   2.918   0.293 -1.2311  3.6234  0.2493
 3852SOL    HW223190   4.720   2.812   0.384  0.5369  0.7037  1.9214
 3853SOL     OW23191   2.896   0.490   3.262 -0.9494  0.0300 -0.2856
 3853SOL    HW123192   2.843   0.488   3.342 -1.2375  0.2822 -0.4731
 3853SOL    HW223193   2.973   0.442   3.293 -1.1182  0.2437  0.4801
 3854SOL     OW23194   0.061   1.725   6.230  0.8554 -0.0350 -0.0241
 3854SOL    HW123195   0.120   1.774   6.288  1.0124 -0.6474  0.3305
 3854SOL    HW223196   4.731   1.708   6.299  0.2957 -1.2812 -0.8739
 3855SOL     OW23197   0.707   0.839   3.785  0.2367  0.4952 -0.0039
 3855SOL    HW123198   0.751   0.780   3.723  2.8020  0.6782  1.6590
 3855SOL    HW223199   0.717   0.931   3.763 -0.1042  0.4473 -0.3607
 3856SOL     OW23200   4.233   0.143   4.238  0.0555 -0.1863  0.1534
 3856SOL    HW123201   4.305   0.098   4.282  1.6169  0.4279 -1.7662
 3856SOL    HW223202   4.232   0.237   4.259  1.2252 -0.0102 -0.5622
 3857SOL     OW23203   4.099   3.883   2.368  0.4033 -0.1217 -0.1643
 3857SOL    HW123204   4.164   3.855   2.304 -0.2228  0.4074 -1.0275
 3857SOL    HW223205   4.161   3.930   2.424  2.1305 -2.1643 -0.3717
 3858SOL     OW23206   3.415   2.176   6.787  0.2763  0.8526 -0.2873
 3858SOL    HW123207   3.419   2.269   6.807  0.2191  0.6200  0.7935
 3858SOL    HW223208   3.373   2.184   6.701  0.6551 -3.2729 -0.8777
 3859SOL     OW23209   2.374   2.134   4.738  0.9423 -0.6585  0.3109
 3859SOL    HW123210   2.445   2.112   4.677  0.4838  1.6902 -1.0407
 3859SOL    HW223211   2.306   2.164   4.678 -2.3510 -3.0568  2.8197
 3860SOL     OW23212   2.758   4.012   7.242 -0.2064  0.6691 -0.2697
 3860SOL    HW123213   2.692   3.944   7.255  0.0393  0.7314  1.3942
 3860SOL    HW223214   2.715   4.092   7.274 -1.6671 -1.2553  2.5640
 3861SOL     OW23215   3.384   3.256   4.870  0.6757  0.1393  0.0544
 3861SOL    HW123216   3.430   3.217   4.944 -0.6030 -2.2806 -0.4449
 3861SOL    HW223217   3.309   3.270   4.928 -0.6088 -2.2888 -1.0225
 3862SOL     OW23218   1.090   2.583   9.767  0.3107 -0.5816 -0.3606
 3862SOL    HW123219   1.153   2.542   9.707  1.2373 -0.9454  0.8564
 3862SOL    HW223220   1.023   2.515   9.772  1.0552 -1.2108  0.9696
 3863SOL     OW23221   4.579   4.238  15.018  0.2277  0.0843 -0.2927
 3863SOL    HW123222   4.607   4.156  14.976 -0.0952 -0.6387  0.9159
 3863SOL    HW223223   4.547   4.193  15.096 -2.7684  2.8747  0.0740
 3864SOL     OW23224   2.861   3.779  16.247  0.1555 -0.6021  0.6970
 3864SOL    HW123225   2.936   3.804  16.301  1.4582 -2.4151 -0.2597
 3864SOL    HW223226   2.816   3.715  16.302 -1.5394  0.8216  0.9843
 3865SOL     OW23227   0.771   3.811  10.774 -0.2288 -0.0602  0.0231
 3865SOL    HW123228   0.838   3.743  10.783  0.0925  0.0818 -1.3593
 3865SOL    HW223229   0.705   3.781  10.837 -0.0706  1.4125  0.8845
 3866SOL     OW23230   0.887   4.426   5.855  0.7260  0.5930  0.2945
 3866SOL    HW123231   0.885   4.465   5.768 -0.3244 -0.7225 -0.2620
 3866SOL    HW223232   0.978   4.423   5.884  0.7224  0.5864  0.3049
 3867SOL     OW23233   0.046   1.177   3.528 -0.1649 -0.1839  0.1396
 3867SOL    HW123234   4.691   1.204   3.509 -0.9521 -2.3695  0.7762
 3867SOL    HW223235   0.057   1.125   3.448  0.3442  0.0743  0.0419
 3868SOL     OW23236   3.304   2.458   2.601  0.2362  0.4877 -0.1896
 3868SOL    HW123237   3.332   2.547   2.622 -0.0192  0.4013  0.5043
 3868SOL    HW223238   3.231   2.442   2.662 -0.1563  1.4629 -0.3955
 3869SOL     OW23239   1.411   3.184   9.096 -0.2209  1.0096  0.2894
 3869SOL    HW123240   1.447   3.223   9.016  0.1952 -1.2253 -0.6192
 3869SOL    HW223241   1.473   3.112   9.106 -0.1271  0.9682 -0.5335
 3870SOL     OW23242   0.624   4.024   0.460 -0.2241 -0.1708  0.2303
 3870SOL    HW123243   0.631   4.109   0.502 -0.0107  0.8793 -1.9671
 3870SOL    HW223244   0.586   4.037   0.374 -0.6894 -1.7800  0.1869
 3871SOL     OW23245   0.216   1.311   7.360  0.2787 -0.0730  0.3138
 3871SOL    HW123246   0.204   1.364   7.439 -1.3344  0.0112  0.0014
 3871SOL    HW223247   0.165   1.365   7.299 -0.2007 -1.1637 -0.2427
 3872SOL     OW23248   2.363   3.465   6.602 -0.0137  0.1350  0.1156
 3872SOL    HW123249   2.346   3.509   6.686  0.6939  1.0539 -0.2272
 3872SOL    HW223250   2.322   3.379   6.606 -0.2002  0.1620 -1.4275
 3873SOL     OW23251   4.217   4.305  11.364 -0.3710  0.3698 -0.0885
 3873SOL    HW123252   4.185   4.227  11.409  0.3041  0.6853  0.9380
 3873SOL    HW223253   4.153   4.373  11.385 -3.1836 -2.7114  1.2567
 3874SOL     OW23254   3.605   2.517   8.841 -0.4617 -0.1825  0.2685
 3874SOL    HW123255   3.594   2.590   8.781 -0.7794  0.4178  1.0583
 3874SOL    HW223256   3.697   2.492   8.829 -0.1726  0.2966  1.3923
 3875SOL     OW23257   1.580   0.830  13.890 -0.0091 -0.0807 -0.2320
 3875SOL    HW123258   1.515   0.774  13.933 -0.4108 -0.2403 -1.0552
 3875SOL    HW223259   1.516   0.887  13.848 -0.3371 -0.6676 -0.5407
 3876SOL     OW23260   3.064   4.106   9.525  0.2141 -0.3033 -0.1011
 3876SOL    HW123261   2.979   4.118   9.566 -0.4478  1.8618 -2.1174
 3876SOL    HW223262   3.044   4.076   9.436  1.0829  1.8887 -1.0299
 3877SOL     OW23263   3.131   4.433   9.524  0.3037  0.2112 -0.4389
 3877SOL    HW123264   3.185   4.427   9.446  1.1444 -2.1389  0.3380
 3877SOL    HW223265   3.051   4.404   9.479  1.1644 -1.1010 -1.1065
 3878SOL     OW23266   1.476   1.075   2.888  0.1050 -0.3706 -0.0862
 3878SOL    HW123267   1.458   1.169   2.893  2.5517  0.0985 -0.0513
 3878SOL    HW223268   1.441   1.048   2.973  0.3261 -1.2150 -0.2585
 3879SOL     OW23269   1.772   3.200   7.432  0.2967  0.5136  0.3842
 3879SOL    HW123270   1.818   3.120   7.456  1.5019  0.7623 -1.0572
 3879SOL    HW223271   1.837   3.250   7.382  0.1605 -0.7985 -1.1229
 3880SOL     OW23272   3.005   3.887   8.081 -0.7861  0.2542 -0.1610
 3880SOL    HW123273   2.947   3.843   8.019 -3.2004 -2.8932  4.3476
 3880SOL    HW223274   2.958   3.918   8.158  2.4417 -1.3498  2.4769
 3881SOL     OW23275   3.490   2.117   0.375  0.7513 -0.2330 -0.3142
 3881SOL    HW123276   3.402   2.112   0.411 -0.3383 -1.5133 -3.1778
 3881SOL    HW223277   3.466   2.094   0.285 -0.0738 -0.9456  0.0943
 3882SOL     OW23278   1.017   3.045   3.745  0.2237  0.3608 -0.1302
 3882SOL    HW123279   1.024   2.958   3.707  0.6087  0.0147  0.7319
 3882SOL    HW223280   1.033   3.115   3.682  0.3586  1.7373  1.4266
 3883SOL     OW23281   1.543   2.296   2.204 -0.4491 -0.0019  0.0468
 3883SOL    HW123282   1.457   2.337   2.215 -0.7890 -1.0254  1.1896
 3883SOL    HW223283   1.535   2.273   2.111  0.0532  3.6557 -0.9296
 3884SOL     OW23284   1.437   2.773   3.220  0.1115  1.1119  0.1500
 3884SOL    HW123285   1.393   2.831   3.159 -1.5458 -1.1994 -0.8673
 3884SOL    HW223286   1.514   2.825   3.243  0.9531 -0.4485  0.8858
 3885SOL     OW23287   2.017   2.875  17.688 -0.0701 -0.1072 -0.4023
 3885SOL    HW123288   2.019   2.853   0.044  1.3853  0.7764 -0.2215
 3885SOL    HW223289   1.963   2.807  17.648 -0.2788 -0.5173  0.5523
 3886SOL     OW23290   0.569   1.691   1.042 -0.4155 -0.2104  0.1315
 3886SOL    HW123291   0.505   1.707   1.111  1.3716 -0.7517  1.9129
 3886SOL    HW223292   0.639   1.639   1.082 -2.0749 -1.5816  1.2613
 3887SOL     OW23293   0.586   3.221   9.866  0.3646  0.7641  0.1081
 3887SOL    HW123294   0.532   3.219   9.945  1.3945 -1.9344  0.7550
 3887SOL    HW223295   0.521   3.201   9.799  0.3679 -2.3455  0.9938
 3888SOL     OW23296   3.259   3.597   3.003  0.3701  0.3191 -0.1709
 3888SOL    HW123297   3.313   3.537   2.952 -0.3643 -0.1708 -0.3823
 3888SOL    HW223298   3.219   3.543   3.072  1.1936  0.0124  0.0636
 3889SOL     OW23299   2.347   4.569  13.375  0.4106 -0.1859  0.1564
 3889SOL    HW123300   2.326   4.497  13.435 -2.1348 -0.3671 -0.9433
 3889SOL    HW223301   2.425   4.603  13.419  1.0354 -1.2238 -0.1426
 3890SOL     OW23302   0.546   2.476   7.204 -0.0039 -0.0149 -0.7967
 3890SOL    HW123303   0.462   2.484   7.249 -0.7806 -2.0973 -1.8767
 3890SOL    HW223304   0.551   2.381   7.194 -0.1371 -0.0035 -0.9792
 3891SOL     OW23305   2.289   1.469   3.747 -0.1603  0.0352  0.8192
 3891SOL    HW123306   2.302   1.374   3.739 -0.9628  0.0322 -0.5390
 3891SOL    HW223307   2.201   1.478   3.710 -0.4527 -0.3064  1.4221
 3892SOL     OW23308   0.191   1.859  17.648  0.9159  0.2275 -0.4649
 3892SOL    HW123309   0.229   1.938  17.686  1.5257 -0.4440  0.3344
 3892SOL    HW223310   0.125   1.847  17.717  0.2249  0.9968 -0.9930
 3893SOL     OW23311   3.942   2.246   7.657  0.1169  0.1940  0.0001
 3893SOL    HW123312   3.888   2.220   7.583 -3.1492  2.2412  1.6530
 3893SOL    HW223313   3.882   2.315   7.687 -1.0273  0.2562 -2.5063
 3894SOL     OW23314   2.180   0.406   9.255 -0.2507 -0.5548  0.2777
 3894SOL    HW123315   2.254   0.467   9.248 -2.5357  2.2923  0.9410
 3894SOL    HW223316   2.234   0.330   9.276  2.3001  0.6643 -1.7376
 3895SOL     OW23317   0.916   3.867   3.337 -0.3275  0.2169  0.1087
 3895SOL    HW123318   0.942   3.797   3.396 -0.4447  0.9960  1.0956
 3895SOL    HW223319   0.921   3.942   3.397 -0.5260  0.0806  0.2947
 3896SOL     OW23320   1.834   1.806  12.832 -0.6189  0.3432  0.2554
 3896SOL    HW123321   1.850   1.715  12.856  0.5699  0.8763  1.5155
 3896SOL    HW223322   1.739   1.805  12.844 -0.4365 -1.6153  1.6322
 3897SOL     OW23323   1.820   3.410   8.155 -0.4968 -0.4478  0.1018
 3897SOL    HW123324   1.816   3.503   8.134 -4.0129 -0.3587  1.0879
 3897SOL    HW223325   1.829   3.368   8.070  1.7207 -0.9542  0.5876
 3898SOL     OW23326   2.139   1.164   3.075 -0.0160  0.4557 -0.1506
 3898SOL    HW123327   2.163   1.102   3.006  1.7658  0.4637  0.4640
 3898SOL    HW223328   2.085   1.120   3.141  0.3776  2.6292  1.6061
 3899SOL     OW23329   1.996   1.837   7.593  0.3509 -0.2675  0.3147
 3899SOL    HW123330   2.008   1.786   7.513  0.6050 -1.2492  0.9725
 3899SOL    HW223331   1.944   1.910   7.561  0.2366  0.8307  2.9980
 3900SOL     OW23332   2.001   0.740  16.494 -0.2192  0.3077  0.1335
 3900SOL    HW123333   2.045   0.668  16.538 -0.0849  1.0821  1.2878
 3900SOL    HW223334   2.079   0.793  16.480 -0.5992  1.4895  2.3893
 3901SOL     OW23335   3.507   1.186   0.934 -0.1089 -0.0342  0.2516
 3901SOL    HW123336   3.488   1.267   0.886 -0.4081 -0.1028  0.2546
 3901SOL    HW223337   3.526   1.233   1.015  0.3202 -0.3308  0.3226
 3902SOL     OW23338   1.756   2.288   4.716 -0.1223 -0.1335 -0.7314
 3902SOL    HW123339   1.723   2.204   4.746  2.0831 -0.0868  1.8294
 3902SOL    HW223340   1.851   2.273   4.711 -0.1459  0.1028 -2.0015
 3903SOL     OW23341   3.414   1.603  15.172  0.6416 -0.0666  0.4598
 3903SOL    HW123342   3.406   1.677  15.111 -0.4224  0.5137  1.2973
 3903SOL    HW223343   3.485   1.550  15.135  1.0399  0.6938  0.1251
 3904SOL     OW23344   0.376   0.199   7.230 -0.4873  0.1315  0.2452
 3904SOL    HW123345   0.391   0.288   7.262  1.5778 -0.9960  2.3914
 3904SOL    HW223346   0.377   0.218   7.136  0.0246 -0.3718  0.1500
 3905SOL     OW23347   3.043   2.176   4.804 -0.0440 -0.4203 -0.1320
 3905SOL    HW123348   2.964   2.205   4.758  0.6485 -0.1043 -1.1246
 3905SOL    HW223349   3.091   2.126   4.738 -0.0725 -2.4054  1.3469
 3906SOL     OW23350   3.445   2.176  14.398 -0.6748 -0.1050 -0.3089
 3906SOL    HW123351   3.538   2.197  14.392 -0.4797 -1.2476 -1.2358
 3906SOL    HW223352   3.427   2.186  14.491 -2.5331 -1.5268 -0.5280
 3907SOL     OW23353   0.272   2.390  16.183 -0.2582 -0.2497  0.1676
 3907SOL    HW123354   0.254   2.298  16.161  0.1912 -0.5119  0.9136
 3907SOL    HW223355   0.183   2.421  16.200  0.0580  1.4129 -1.2164
 3908SOL     OW23356   2.880   2.119   6.966 -0.3604 -0.3176 -0.5585
 3908SOL    HW123357   2.909   2.065   7.039  0.0602  0.5736 -0.0634
 3908SOL    HW223358   2.829   2.061   6.909 -0.1854 -1.5080  0.4948
 3909SOL     OW23359   1.717   4.566   2.547  0.7145 -0.6508  0.0133
 3909SOL    HW123360   1.713   4.590   2.639  0.2041  1.7744 -0.6423
 3909SOL    HW223361   1.726   4.653   2.508  0.9429 -0.3918  0.6442
 3910SOL     OW23362   3.359   3.453   5.425 -0.0108  0.5440  0.1398
 3910SOL    HW123363   3.405   3.491   5.350  0.5072 -1.6477 -0.6718
 3910SOL    HW223364   3.411   3.489   5.497 -0.4855  1.9142 -0.1955
 3911SOL     OW23365   3.194   4.477   4.251 -0.0690  0.1517 -0.5442
 3911SOL    HW123366   3.269   4.516   4.295 -0.0581  0.2234 -0.6261
 3911SOL    HW223367   3.223   4.386   4.253  1.2863  0.5858 -0.2033
 3912SOL     OW23368   0.948   1.611  10.976  0.1158  0.1327  0.2230
 3912SOL    HW123369   0.874   1.586  11.031  0.2345  1.3663  0.9720
 3912SOL    HW223370   1.014   1.543  10.993  1.4409  1.6441  1.2284
 3913SOL     OW23371   3.481   1.247  13.149  0.5978  0.3612  0.1256
 3913SOL    HW123372   3.465   1.257  13.055  1.3193 -1.4750 -0.2080
 3913SOL    HW223373   3.504   1.154  13.162 -1.8988 -0.1400  0.9158
 3914SOL     OW23374   4.191   4.106   5.154 -0.0542  0.7727 -0.6484
 3914SOL    HW123375   4.158   4.042   5.091  0.8496 -0.3965  0.0708
 3914SOL    HW223376   4.219   4.056   5.231  2.5997  2.8296 -0.3101
 3915SOL     OW23377   1.513   3.289   9.363 -0.0280 -0.5605  0.6261
 3915SOL    HW123378   1.486   3.285   9.271  1.2652  0.3168  0.2090
 3915SOL    HW223379   1.596   3.332   9.344 -0.8145  1.0079  0.7350
 3916SOL     OW23380   2.588   0.490   7.587  1.1349  0.7626  0.0893
 3916SOL    HW123381   2.565   0.432   7.659  0.0090 -0.1014 -0.9853
 3916SOL    HW223382   2.660   0.540   7.628  1.8321  0.3479 -0.6373
 3917SOL     OW23383   1.182   4.042   6.022  0.0340  0.1152 -1.0722
 3917SOL    HW123384   1.216   4.132   6.029 -0.4005  0.2450 -0.6151
 3917SOL    HW223385   1.257   3.991   5.991 -0.2333 -1.9483  1.6438
 3918SOL     OW23386   0.426   2.724   5.887  0.5577 -0.3732  0.3841
 3918SOL    HW123387   0.358   2.662   5.860  0.5966 -0.5835  0.7688
 3918SOL    HW223388   0.471   2.755   5.808 -1.9792 -1.1851 -1.3659
 3919SOL     OW23389   3.919   2.624   5.923 -0.0113 -0.0713  0.0657
 3919SOL    HW123390   3.996   2.645   5.870  0.1078 -0.9421 -0.1096
 3919SOL    HW223391   3.880   2.571   5.853  0.2192 -0.1740  0.0143
 3920SOL     OW23392   2.838   3.730   4.751 -0.0537 -0.0699 -0.6483
 3920SOL    HW123393   2.858   3.757   4.841 -0.6451 -2.1832  0.1176
 3920SOL    HW223394   2.853   3.806   4.694 -1.6327  0.4499 -0.3756
 3921SOL     OW23395   3.713   3.559   2.454  0.4394 -0.5451  0.1344
 3921SOL    HW123396   3.734   3.554   2.361 -1.2830  0.7729 -0.3147
 3921SOL    HW223397   3.750   3.643   2.480 -1.8051 -0.2471  2.3569
 3922SOL     OW23398   0.105   1.636   5.839  0.2091  0.5513  0.2140
 3922SOL    HW123399   0.048   1.709   5.865 -1.0176 -0.4235  0.2402
 3922SOL    HW223400   0.106   1.627   5.744 -0.4297 -0.0041  0.2597
 3923SOL     OW23401   4.721   3.963   5.597 -0.3256 -0.2137  0.2087
 3923SOL    HW123402   0.006   3.872   5.578  0.8192  0.6588 -2.7279
 3923SOL    HW223403   4.648   3.969   5.535  1.1437  2.6907 -1.2584
 3924SOL     OW23404   2.710   2.597   7.701 -0.6961 -0.2871  0.2345
 3924SOL    HW123405   2.772   2.617   7.632 -0.9378 -1.6547 -0.3837
 3924SOL    HW223406   2.626   2.607   7.656 -1.9802 -1.2654  2.4074
 3925SOL     OW23407   4.469   3.604   7.475 -0.1625 -0.0261 -0.5309
 3925SOL    HW123408   4.386   3.635   7.440  1.0222  0.1037 -3.2174
 3925SOL    HW223409   4.539   3.636   7.418 -0.2193  0.2734 -0.4332
 3926SOL     OW23410   2.136   0.523  15.353 -0.2587 -0.2154 -0.3224
 3926SOL    HW123411   2.157   0.503  15.262  2.3618 -3.2367  0.9456
 3926SOL    HW223412   2.179   0.607  15.371  0.5192 -0.9431  1.1944
 3927SOL     OW23413   4.514   2.442   1.263 -0.1357 -0.2168  0.0414
 3927SOL    HW123414   4.431   2.394   1.252 -0.4978 -0.0581  2.1362
 3927SOL    HW223415   4.514   2.469   1.171  0.6804 -0.5516 -0.0519
 3928SOL     OW23416   3.382   0.324   6.392  0.4907  0.6060  0.3492
 3928SOL    HW123417   3.417   0.395   6.339 -0.0323  0.5337 -0.0876
 3928SOL    HW223418   3.423   0.343   6.477  1.3569  2.0937 -0.4058
 3929SOL     OW23419   4.515   3.671   8.768  0.0260 -0.1468  0.0243
 3929SOL    HW123420   4.461   3.632   8.836 -0.6624  0.7797  0.0020
 3929SOL    HW223421   4.474   3.754   8.746  2.4266  0.8943 -0.5758
 3930SOL     OW23422   4.017   3.888   2.768 -0.0809 -0.1918  0.7970
 3930SOL    HW123423   3.981   3.897   2.856  0.0351 -0.8802  0.9148
 3930SOL    HW223424   3.970   3.819   2.722  0.2634  0.0587  0.0630
 3931SOL     OW23425   3.916   2.625  13.602 -0.3427 -0.4173  0.0281
 3931SOL    HW123426   3.964   2.590  13.677 -1.1109  0.2208  0.8144
 3931SOL    HW223427   3.948   2.571  13.530  0.5569  2.7645 -1.9326
 3932SOL     OW23428   1.559   0.884   9.672 -0.0544 -0.0538  0.4712
 3932SOL    HW123429   1.472   0.869   9.708 -0.2413 -1.1133 -0.4310
 3932SOL    HW223430   1.618   0.875   9.747  0.2335  1.7617  0.4602
 3933SOL     OW23431   1.895   3.046   6.558 -0.0946  0.0440 -0.0148
 3933SOL    HW123432   1.903   2.975   6.495  0.7015 -1.9421  2.2863
 3933SOL    HW223433   1.902   2.993   6.638 -0.2586  0.7122  0.4500
 3934SOL     OW23434   4.489   2.239  16.416  0.1562 -0.2139  0.0950
 3934SOL    HW123435   4.398   2.231  16.446 -0.7573  0.2066 -2.5395
 3934SOL    HW223436   4.516   2.315  16.467  0.6565  0.7994 -1.7202
 3935SOL     OW23437   3.127   0.326  13.839 -0.7125 -0.4476 -0.7221
 3935SOL    HW123438   3.121   0.291  13.928  1.1109 -0.5111 -0.6119
 3935SOL    HW223439   3.039   0.320  13.804 -0.1669 -0.3796 -2.1103
 3936SOL     OW23440   0.267   3.538   0.047 -0.4479  0.0614  0.3519
 3936SOL    HW123441   0.292   3.448   0.069  0.4921  0.1115 -0.5446
 3936SOL    HW223442   0.282   3.541  17.690 -1.8388  1.3491  0.1704
 3937SOL     OW23443   2.610   4.220   8.662  0.0526  0.0120 -0.5723
 3937SOL    HW123444   2.521   4.216   8.696  0.0605  2.2638 -0.2433
 3937SOL    HW223445   2.657   4.158   8.718 -1.1066  0.3620  0.7904
 3938SOL     OW23446   0.845   4.657   4.321 -0.4354  0.1406  0.5182
 3938SOL    HW123447   0.790   4.609   4.260 -0.4900  0.3786  0.3791
 3938SOL    HW223448   0.798   4.663   4.404  0.1650  1.9580  0.7285
 3939SOL     OW23449   1.870   1.730  13.114 -0.5215  0.6422 -0.0458
 3939SOL    HW123450   1.962   1.711  13.092 -0.3323  0.5693  0.8223
 3939SOL    HW223451   1.838   1.641  13.122 -2.2789  1.4950  2.0412
 3940SOL     OW23452   1.170   0.976   4.053 -0.1521  0.1718  0.2475
 3940SOL    HW123453   1.135   0.947   4.137 -0.5626  0.3870  0.1486
 3940SOL    HW223454   1.210   1.061   4.072 -0.7995  0.9824 -2.0692
 3941SOL     OW23455   2.534   2.491   3.896  0.1669 -0.3276 -0.2933
 3941SOL    HW123456   2.591   2.558   3.932 -2.5253  0.9114  1.6891
 3941SOL    HW223457   2.592   2.415   3.893  2.2214  1.2833 -0.8186
 3942SOL     OW23458   1.875   2.541   6.650 -0.3718  0.6789 -0.1156
 3942SOL    HW123459   1.930   2.465   6.629 -1.0298  0.1921 -0.0750
 3942SOL    HW223460   1.798   2.512   6.602  0.6188 -2.1082 -0.0071
 3943SOL     OW23461   4.408   3.380   3.212 -0.5693 -0.3409 -0.5276
 3943SOL    HW123462   4.408   3.466   3.171  0.0415  0.0124  0.2389
 3943SOL    HW223463   4.415   3.411   3.302  0.9657 -1.9792 -0.0916
 3944SOL     OW23464   0.494   2.007   8.610 -0.9644 -0.0457  0.1327
 3944SOL    HW123465   0.581   1.982   8.579 -1.2351 -0.0132 -0.6370
 3944SOL    HW223466   0.449   1.995   8.526  0.8385 -0.7692 -0.7365
 3945SOL     OW23467   2.352   0.380   6.223 -0.6550 -0.1223 -0.9392
 3945SOL    HW123468   2.409   0.316   6.180  2.3056  1.9260 -0.0732
 3945SOL    HW223469   2.390   0.372   6.311 -0.4175  0.9080 -0.9568
 3946SOL     OW23470   2.074   0.746   7.783  0.1059 -0.4746  0.0109
 3946SOL    HW123471   1.995   0.721   7.831 -0.6923  0.0752 -1.0388
 3946SOL    HW223472   2.090   0.828   7.830  1.9850  0.2425 -1.8826
 3947SOL     OW23473   4.230   4.303  10.650  0.2170 -0.4315  0.9745
 3947SOL    HW123474   4.252   4.306  10.557 -0.6300  1.6539  0.8295
 3947SOL    HW223475   4.312   4.346  10.677 -0.7089  1.6296  0.5349
 3948SOL     OW23476   3.449   0.974   6.859 -0.1227  0.7188 -0.4204
 3948SOL    HW123477   3.545   0.974   6.852 -0.0909 -0.6920 -0.0330
 3948SOL    HW223478   3.427   1.043   6.796  0.1064 -0.9680 -2.3438
 3949SOL     OW23479   4.677   3.435   9.461  0.3724  0.5411  0.7045
 3949SOL    HW123480   4.643   3.519   9.493 -0.9200  0.6242 -0.8984
 3949SOL    HW223481   4.641   3.383   9.533 -0.7792 -0.5682 -0.6797
 3950SOL     OW23482   2.852   4.341   1.231 -0.1692  0.2355  0.0751
 3950SOL    HW123483   2.832   4.401   1.303 -0.7785 -0.6910  0.6862
 3950SOL    HW223484   2.827   4.258   1.272 -0.8758  2.1823  3.5517
 3951SOL     OW23485   0.220   4.610  16.314  0.4372  0.5249  0.0270
 3951SOL    HW123486   0.250   4.630  16.403  0.2186 -0.1073  0.2427
 3951SOL    HW223487   0.288   4.549  16.289 -0.7445 -0.6582 -0.2904
 3952SOL     OW23488   2.101   3.151   6.789 -0.0935  0.0678  0.3793
 3952SOL    HW123489   2.038   3.078   6.793  0.3161 -0.2662  0.7114
 3952SOL    HW223490   2.116   3.171   6.881 -1.2131  2.3309  0.0474
 3953SOL     OW23491   2.380   3.561   1.903  0.5536 -0.8625 -0.7031
 3953SOL    HW123492   2.468   3.531   1.882  1.3747  0.9948  0.0671
 3953SOL    HW223493   2.392   3.643   1.952 -0.8370 -1.0020 -0.1202
 3954SOL     OW23494   2.778   0.665   8.488  0.6118  0.4398 -0.6431
 3954SOL    HW123495   2.865   0.641   8.521  0.9957  0.2000 -1.8070
 3954SOL    HW223496   2.757   0.749   8.529  0.5301 -1.0016  2.2148
 3955SOL     OW23497   2.460   2.197   3.198  0.4206 -0.0193 -0.1755
 3955SOL    HW123498   2.394   2.196   3.267  0.5934  0.3585 -0.0033
 3955SOL    HW223499   2.414   2.143   3.134  0.0344  1.4022 -1.0945
 3956SOL     OW23500   0.877   1.833   3.082  0.3226  0.3409  0.4949
 3956SOL    HW123501   0.971   1.847   3.093  0.5109  0.1132 -0.7979
 3956SOL    HW223502   0.855   1.908   3.026 -0.9389 -1.5314 -1.5209
 3957SOL     OW23503   4.566   2.974   2.394 -0.5903 -0.3667  0.2436
 3957SOL    HW123504   4.646   2.922   2.401  0.5148  1.1574 -1.0938
 3957SOL    HW223505   4.572   3.022   2.311 -0.0403 -1.5135 -0.3759
 3958SOL     OW23506   4.173   2.880   7.392 -0.2108  0.1703 -0.2472
 3958SOL    HW123507   4.086   2.918   7.399 -0.2171  0.1551 -0.2415
 3958SOL    HW223508   4.191   2.860   7.484 -2.6148  1.3784  0.4881
 3959SOL     OW23509   0.084   2.351   5.335 -0.4405 -0.6211 -0.0737
 3959SOL    HW123510   0.117   2.440   5.331 -1.1793 -0.2751  1.7592
 3959SOL    HW223511   0.054   2.351   5.426 -0.2643  2.0895 -0.0398
 3960SOL     OW23512   0.916   1.461   9.273 -0.2408 -0.0250 -0.2665
 3960SOL    HW123513   0.926   1.436   9.364 -0.4108 -0.5480 -0.3871
 3960SOL    HW223514   0.867   1.390   9.231  2.6777  0.8537 -5.1646
 3961SOL     OW23515   3.483   0.105  10.499  0.1090 -0.3978 -0.5272
 3961SOL    HW123516   3.564   0.141  10.462 -1.6382  0.8065 -3.1839
 3961SOL    HW223517   3.415   0.151  10.451  0.4484  1.1348  0.4566
 3962SOL     OW23518   4.631   4.500   7.366  0.3138 -0.4746  0.1908
 3962SOL    HW123519   4.615   4.588   7.401  0.2807  0.1980 -1.4927
 3962SOL    HW223520   4.634   4.527   7.274  0.3932 -0.7980  0.0977
 3963SOL     OW23521   4.622   0.464   2.763 -0.2609  0.3364 -0.0875
 3963SOL    HW123522   4.616   0.412   2.683 -2.3812 -0.4279  0.5480
 3963SOL    HW223523   4.717   0.465   2.774  0.0135  1.2476 -2.5300
 3964SOL     OW23524   4.443   1.012   8.149 -0.0214  0.4219 -0.1043
 3964SOL    HW123525   4.429   0.919   8.169 -1.9618  0.6253 -0.5171
 3964SOL    HW223526   4.375   1.057   8.199  1.5965 -0.0742  2.5572
 3965SOL     OW23527   3.283   4.119   5.132  0.2393  0.1093 -0.0662
 3965SOL    HW123528   3.339   4.150   5.203  0.4756 -0.0846 -0.1670
 3965SOL    HW223529   3.353   4.127   5.067  2.5474  1.7911  2.5979
 3966SOL     OW23530   2.235   1.696   4.175  0.6618  0.4769  0.0558
 3966SOL    HW123531   2.301   1.629   4.189  0.3401  0.1465  0.0009
 3966SOL    HW223532   2.167   1.674   4.239  0.3621  0.8652 -0.1281
 3967SOL     OW23533   1.832   4.316   7.327  0.6682  0.6716 -0.2476
 3967SOL    HW123534   1.809   4.238   7.377 -0.3318  0.7345 -0.6140
 3967SOL    HW223535   1.880   4.360   7.396  2.4218 -0.5322 -0.6942
 3968SOL     OW23536   1.032   3.296   3.598 -0.1724 -0.8957  0.7342
 3968SOL    HW123537   1.045   3.330   3.510  0.6270 -1.7916  0.4949
 3968SOL    HW223538   1.114   3.311   3.644 -0.0350 -1.1571  0.5736
 3969SOL     OW23539   1.411   3.137   5.150 -0.1981 -0.8031  0.0019
 3969SOL    HW123540   1.457   3.054   5.159 -3.5295 -2.5208  1.0833
 3969SOL    HW223541   1.326   3.118   5.110  0.6814 -1.5095 -1.5260
 3970SOL     OW23542   0.453   2.137   6.009 -0.8041  0.2327 -0.3266
 3970SOL    HW123543   0.445   2.139   5.914  3.5587 -0.5841 -0.7170
 3970SOL    HW223544   0.468   2.228   6.033 -2.4855  0.8747 -1.7402
 3971SOL     OW23545   2.984   3.763   6.417 -0.4738 -0.0188  0.5432
 3971SOL    HW123546   2.989   3.855   6.443  1.5245 -0.5091  1.9127
 3971SOL    HW223547   2.932   3.725   6.488  0.1535  1.4695  1.8062
 3972SOL     OW23548   0.828   0.463   1.401  0.7053 -0.3074 -0.3180
 3972SOL    HW123549   0.903   0.513   1.434  0.3643  0.5303 -0.7974
 3972SOL    HW223550   0.759   0.508   1.449 -0.7127 -1.0079 -1.7205
 3973SOL     OW23551   1.646   3.450   7.046 -0.1861 -0.2127 -0.0481
 3973SOL    HW123552   1.728   3.403   7.033  0.4091  0.4769  1.2804
 3973SOL    HW223553   1.683   3.519   7.101 -0.7943  1.2496 -1.4408
 3974SOL     OW23554   1.538   3.107   8.741  0.0849 -0.3664  0.4884
 3974SOL    HW123555   1.522   3.150   8.825 -0.8987  0.3929 -0.0787
 3974SOL    HW223556   1.452   3.074   8.714  0.1781  1.0803 -1.5823
 3975SOL     OW23557   0.955   0.026   5.555 -0.0607 -0.2125 -0.0818
 3975SOL    HW123558   1.022   0.021   5.622  0.4978 -1.1297 -0.7093
 3975SOL    HW223559   1.017   0.060   5.490 -0.8177  0.3736 -0.5008
 3976SOL     OW23560   0.097   2.087   5.477  0.2614  0.5979  0.2674
 3976SOL    HW123561   0.177   2.139   5.484  0.7089 -0.0653  0.1423
 3976SOL    HW223562   0.121   2.031   5.403 -0.7213 -1.0466  1.2077
 3977SOL     OW23563   2.774   0.981   8.290 -0.2031 -0.2861 -0.1716
 3977SOL    HW123564   2.765   1.077   8.292  2.4842 -0.0846  2.0644
 3977SOL    HW223565   2.834   0.970   8.216 -1.7317  0.8942 -1.5890
 3978SOL     OW23566   1.229   4.363  11.710  0.2802  0.6520  0.0562
 3978SOL    HW123567   1.289   4.346  11.783 -0.6263 -1.5158  0.2829
 3978SOL    HW223568   1.180   4.439  11.742  0.4955  0.1862  1.5031
 3979SOL     OW23569   1.238   2.374  15.587  0.3896 -0.1314 -0.0538
 3979SOL    HW123570   1.204   2.389  15.499  0.3403  0.5495  0.0748
 3979SOL    HW223571   1.262   2.282  15.586 -2.8487 -0.9414 -1.0814
 3980SOL     OW23572   0.099   3.960   8.538  0.2704  0.2197 -0.5415
 3980SOL    HW123573   0.114   4.024   8.608  1.6626 -1.5811  0.8190
 3980SOL    HW223574   0.027   4.004   8.493 -0.2159  0.4714  0.4846
 3981SOL     OW23575   3.497   0.553   2.308  0.6030  0.2962 -0.0746
 3981SOL    HW123576   3.442   0.477   2.288  0.7945 -0.0238  0.5870
 3981SOL    HW223577   3.518   0.582   2.220  2.3284 -1.0881 -0.1230
 3982SOL     OW23578   0.542   4.294   5.030  0.4939  0.4031 -0.2575
 3982SOL    HW123579   0.479   4.271   5.098 -0.7160  1.7705 -0.9268
 3982SOL    HW223580   0.501   4.376   5.004 -2.2925 -0.7942  0.3746
 3983SOL     OW23581   4.199   1.163  16.567  0.2279 -0.4210 -0.6420
 3983SOL    HW123582   4.209   1.079  16.521 -0.9457 -0.5116 -0.7458
 3983SOL    HW223583   4.235   1.216  16.496  1.5109 -0.3373  0.0910
 3984SOL     OW23584   1.609   0.503  12.422 -0.3568 -0.2493  0.1511
 3984SOL    HW123585   1.578   0.586  12.387  0.1256 -0.0069  0.3015
 3984SOL    HW223586   1.603   0.443  12.347 -0.3663  0.3733 -0.3451
 3985SOL     OW23587   4.713   2.757   7.109 -0.4316 -0.1818 -0.1203
 3985SOL    HW123588   0.029   2.822   7.060 -1.2779 -0.3941 -1.2718
 3985SOL    HW223589   0.039   2.683   7.112 -1.1142 -0.6606  2.0264
 3986SOL     OW23590   2.270   3.842   5.295  0.3186  0.0521  0.2638
 3986SOL    HW123591   2.283   3.931   5.328 -2.2078  1.4113 -2.3933
 3986SOL    HW223592   2.266   3.795   5.378 -1.2852 -1.1214 -0.4752
 3987SOL     OW23593   0.302   3.773  12.697  0.2228 -0.3471  0.0734
 3987SOL    HW123594   0.333   3.863  12.697  0.9548 -0.5980  1.1761
 3987SOL    HW223595   0.300   3.741  12.787  1.4547  0.2997  0.3325
 3988SOL     OW23596   3.692   3.480   7.458  0.6856 -0.1482  0.4145
 3988SOL    HW123597   3.646   3.557   7.426 -0.4429 -1.3427 -0.8224
 3988SOL    HW223598   3.761   3.522   7.510 -0.8201  2.1372  0.5307
 3989SOL     OW23599   0.590   1.775   2.962 -0.1472  0.1446 -0.6318
 3989SOL    HW123600   0.540   1.746   2.885  0.2075 -1.3746 -0.2861
 3989SOL    HW223601   0.677   1.792   2.928 -0.5444 -0.5906 -2.0145
 3990SOL     OW23602   2.273   1.499   9.209 -0.2294 -0.3688  0.0669
 3990SOL    HW123603   2.222   1.520   9.288 -3.5749  2.1062 -2.7798
 3990SOL    HW223604   2.359   1.477   9.244  0.0677  1.1728  0.2866
 3991SOL     OW23605   3.785   3.364   3.529 -0.4304 -0.2285 -0.9288
 3991SOL    HW123606   3.705   3.376   3.580 -2.1559 -2.5257 -3.0834
 3991SOL    HW223607   3.743   3.332   3.449 -0.0085  1.8560 -1.9749
 3992SOL     OW23608   4.054   4.439  16.313 -0.0593  0.2366  0.2407
 3992SOL    HW123609   4.031   4.355  16.352 -0.2549  0.1567 -0.0508
 3992SOL    HW223610   4.150   4.444  16.315  0.1354 -2.3490 -4.5535
 3993SOL     OW23611   3.838   1.395   2.565 -0.2483  0.1407  0.0032
 3993SOL    HW123612   3.924   1.391   2.523 -0.8493 -1.2020 -1.0908
 3993SOL    HW223613   3.777   1.382   2.492 -0.6486  0.3682  0.2962
 3994SOL     OW23614   0.168   1.276   5.997  0.0963 -0.1569 -0.2493
 3994SOL    HW123615   0.158   1.193   5.950  2.5803 -0.0470 -0.9690
 3994SOL    HW223616   0.256   1.293   5.965 -0.0149  0.4605 -0.2302
 3995SOL     OW23617   1.534   3.386   8.910 -0.1771  0.2092 -0.1508
 3995SOL    HW123618   1.477   3.458   8.884 -1.9178 -1.9127 -2.2564
 3995SOL    HW223619   1.611   3.394   8.854 -1.0549 -0.9386 -1.5157
 3996SOL     OW23620   4.183   2.088   0.869  0.2349 -0.3864  0.2454
 3996SOL    HW123621   4.164   2.068   0.777  1.2967 -1.3292  0.2270
 3996SOL    HW223622   4.246   2.158   0.853  0.5796 -1.0064 -1.0904
 3997SOL     OW23623   1.804   1.729   5.105 -0.6768 -0.0587 -0.2796
 3997SOL    HW123624   1.801   1.640   5.071 -2.4277  0.3312 -1.1364
 3997SOL    HW223625   1.895   1.743   5.077 -0.5705  1.2015  0.6993
 3998SOL     OW23626   2.228   4.356   1.299  0.1758 -0.0539  0.2401
 3998SOL    HW123627   2.269   4.304   1.231  0.3388 -1.3520  1.3167
 3998SOL    HW223628   2.281   4.342   1.377  0.6011 -1.6259 -0.3348
 3999SOL     OW23629   0.344   4.150   2.355 -0.0524 -0.1134  0.4052
 3999SOL    HW123630   0.422   4.204   2.369 -0.6304  0.4155  1.5638
 3999SOL    HW223631   0.305   4.149   2.442 -2.6274 -2.4785 -0.7973
 4000SOL     OW23632   1.211   1.354  11.632  0.7023 -0.3297 -0.1602
 4000SOL    HW123633   1.130   1.398  11.604  0.1768 -1.7852 -0.9587
 4000SOL    HW223634   1.252   1.430  11.672 -0.5207  0.6490 -0.7329
 4001SOL     OW23635   0.171   2.569  11.336 -0.0498 -0.0189  0.2763
 4001SOL    HW123636   0.254   2.589  11.379  1.0153 -2.1723 -0.7799
 4001SOL    HW223637   0.107   2.544  11.402 -2.0617  4.5331 -0.0057
 4002SOL     OW23638   3.775   2.330  17.311  0.2676 -0.3657  0.5980
 4002SOL    HW123639   3.708   2.262  17.302 -1.9897  1.7710  1.1625
 4002SOL    HW223640   3.856   2.288  17.339  0.8219 -0.2384 -0.7812
 4003SOL     OW23641   2.747   0.612   2.270 -0.3385 -0.3253 -0.0546
 4003SOL    HW123642   2.728   0.698   2.306  0.6499 -0.4261  0.7281
 4003SOL    HW223643   2.788   0.570   2.346  0.9555 -0.4561 -0.8084
 4004SOL     OW23644   1.802   1.602   1.367  0.5198 -0.2173 -0.2159
 4004SOL    HW123645   1.752   1.527   1.333 -2.0391  1.0210  0.8812
 4004SOL    HW223646   1.738   1.671   1.353  0.3643  0.0030  1.5867
 4005SOL     OW23647   0.220   4.141   2.607 -0.4479  0.8474 -0.2739
 4005SOL    HW123648   0.211   4.089   2.686  2.2339  0.1563 -0.4022
 4005SOL    HW223649   0.313   4.153   2.627  0.0336 -0.1641 -1.9437
 4006SOL     OW23650   1.539   3.603   9.416 -0.3566 -0.9965 -0.2812
 4006SOL    HW123651   1.610   3.636   9.471 -1.3027  1.6501 -0.6201
 4006SOL    HW223652   1.498   3.524   9.452 -2.1387 -0.9961 -2.3153
 4007SOL     OW23653   0.169   0.502   8.602  0.2701 -0.1686 -0.2236
 4007SOL    HW123654   0.163   0.556   8.681 -2.7237 -0.9560  0.0740
 4007SOL    HW223655   0.221   0.432   8.643 -0.9195 -1.8956 -1.6892
 4008SOL     OW23656   0.070   4.009  15.092  0.3292  0.3198 -0.2407
 4008SOL    HW123657   4.734   3.977  15.148  0.3527 -3.5280 -2.4536
 4008SOL    HW223658   0.039   4.006  15.001  0.1158 -0.7414 -0.1276
 4009SOL     OW23659   0.316   1.714   0.231 -0.0747 -0.1518 -0.3775
 4009SOL    HW123660   0.233   1.752   0.204  0.3170 -0.0245 -1.4325
 4009SOL    HW223661   0.283   1.674   0.311  0.0250  0.6379  0.0648
 4010SOL     OW23662   1.308   1.797   0.860  0.3607 -0.0991  0.2882
 4010SOL    HW123663   1.241   1.771   0.797 -0.7967  1.7166  0.7929
 4010SOL    HW223664   1.384   1.802   0.802 -0.8155 -1.7251 -1.3871
 4011SOL     OW23665   2.122   1.362  16.181 -0.1050  0.3345  0.5189
 4011SOL    HW123666   2.060   1.305  16.136  0.5942  1.4904 -1.9026
 4011SOL    HW223667   2.083   1.447  16.160  0.5582  1.0514  2.2140
 4012SOL     OW23668   4.692   3.587   3.692  0.2025 -0.3979  0.2547
 4012SOL    HW123669   0.027   3.525   3.715 -0.4276 -0.7146  1.3155
 4012SOL    HW223670   4.665   3.565   3.603  0.4196 -1.4830  0.4529
 4013SOL     OW23671   3.325   3.816   7.530 -0.0053 -0.3683 -0.0691
 4013SOL    HW123672   3.384   3.844   7.461 -0.0045  0.0439  0.1009
 4013SOL    HW223673   3.351   3.725   7.542  1.1862  0.1054  0.9600
 4014SOL     OW23674   0.665   1.997   1.920  0.0744 -0.5416 -0.2895
 4014SOL    HW123675   0.646   1.916   1.968  0.0776  0.4657  1.4132
 4014SOL    HW223676   0.601   2.061   1.952  0.3931 -1.0401  1.3646
 4015SOL     OW23677   1.152   4.549  11.419 -0.0630  0.3381 -0.0568
 4015SOL    HW123678   1.221   4.500  11.374  2.8060  2.1643  2.3551
 4015SOL    HW223679   1.111   4.482  11.474 -1.8462 -0.2133 -2.0323
 4016SOL     OW23680   1.781   0.947   6.276  0.1378 -0.0131  0.6422
 4016SOL    HW123681   1.799   0.863   6.234  0.1821  1.5811 -2.5284
 4016SOL    HW223682   1.692   0.951   6.243  0.8185  0.2607 -1.1551
 4017SOL     OW23683   3.292   1.299   4.494  0.1477  0.1848  0.0190
 4017SOL    HW123684   3.210   1.265   4.457 -0.1867  0.8997  0.1098
 4017SOL    HW223685   3.282   1.393   4.508  2.0177  0.6944 -2.1335
 4018SOL     OW23686   0.695   0.381   2.845 -0.2917 -0.1663  0.3106
 4018SOL    HW123687   0.769   0.423   2.801 -1.0546 -0.7273 -1.5056
 4018SOL    HW223688   0.647   0.333   2.777 -0.6458 -0.2733  0.6399
 4019SOL     OW23689   0.284   1.182   0.309  0.5427  0.0972 -0.1851
 4019SOL    HW123690   0.271   1.254   0.247  1.8263  0.5892  0.1166
 4019SOL    HW223691   0.193   1.153   0.315  0.2524  0.4318 -2.9099
 4020SOL     OW23692   4.633   2.536   2.921 -0.1843  0.5534  0.4894
 4020SOL    HW123693   4.691   2.543   2.845 -0.1836  2.1437  0.6552
 4020SOL    HW223694   4.596   2.624   2.918  1.1418  1.0436 -1.8463
 4021SOL     OW23695   2.889   3.911   8.409  0.4957  0.1791 -0.4956
 4021SOL    HW123696   2.870   3.983   8.469 -0.9797 -0.3327 -0.3505
 4021SOL    HW223697   2.887   3.836   8.468 -2.8450  0.6098 -0.0463
 4022SOL     OW23698   1.255   3.264   2.208 -0.5051 -0.7822  0.5245
 4022SOL    HW123699   1.168   3.252   2.168 -1.0539 -3.3861  2.4853
 4022SOL    HW223700   1.305   3.197   2.161 -2.0798 -0.2027 -1.9887
 4023SOL     OW23701   2.323   4.636  14.147  0.0091 -0.5540 -0.0167
 4023SOL    HW123702   2.265   4.695  14.195  0.7882 -0.7606  1.1684
 4023SOL    HW223703   2.273   4.555  14.144 -0.5400 -0.2263  0.2977
 4024SOL     OW23704   2.258   2.343   5.525 -0.1883 -0.2006 -0.4810
 4024SOL    HW123705   2.336   2.372   5.478  0.2735  0.9843  1.0130
 4024SOL    HW223706   2.286   2.269   5.578 -1.6355  1.5987  2.7897
 4025SOL     OW23707   3.682   3.909   4.833  0.4581  0.1283  0.5449
 4025SOL    HW123708   3.706   3.822   4.866 -0.2652 -0.3002 -0.0412
 4025SOL    HW223709   3.587   3.903   4.830  0.2709  1.9964  3.0284
 4026SOL     OW23710   0.803   1.690   3.850  0.6938 -0.1663 -0.2810
 4026SOL    HW123711   0.779   1.606   3.811 -0.0603  1.3395 -3.0914
 4026SOL    HW223712   0.803   1.743   3.770  0.7959  0.4865  0.1485
 4027SOL     OW23713   1.617   1.698   3.992 -0.0538 -0.7909 -0.3051
 4027SOL    HW123714   1.703   1.688   4.032 -0.3626  2.0679  1.0435
 4027SOL    HW223715   1.627   1.637   3.918  4.0619  0.1316 -0.4686
 4028SOL     OW23716   0.176   2.233   3.398  0.2595  0.7609 -0.4212
 4028SOL    HW123717   0.131   2.304   3.353 -0.5748  0.1798 -0.5117
 4028SOL    HW223718   0.164   2.164   3.332  2.2835 -0.3329  0.3818
 4029SOL     OW23719   0.983   1.077   1.996 -0.6284 -0.1337  0.0852
 4029SOL    HW123720   0.889   1.086   1.984 -0.4317 -0.7473 -1.9263
 4029SOL    HW223721   0.999   1.017   1.923 -0.7986  0.0347 -0.0909
 4030SOL     OW23722   2.998   1.208  15.483 -0.2313 -0.0865 -0.2969
 4030SOL    HW123723   2.998   1.150  15.407  1.4585  1.3641 -1.4180
 4030SOL    HW223724   3.066   1.269  15.452 -1.5849  1.6486  0.1059
 4031SOL     OW23725   3.583   2.897   9.346 -0.3340 -0.4856 -0.0652
 4031SOL    HW123726   3.668   2.863   9.315 -0.9065 -1.9559 -0.0257
 4031SOL    HW223727   3.537   2.813   9.351  0.7227 -0.8841  2.9220
 4032SOL     OW23728   1.256   1.247   1.344  0.2174  0.9633  0.1339
 4032SOL    HW123729   1.222   1.324   1.389  1.9177  2.0976 -0.5329
 4032SOL    HW223730   1.175   1.223   1.300  0.8779 -2.2949  0.6986
 4033SOL     OW23731   4.612   3.880  10.095  0.2317  0.3501  0.2223
 4033SOL    HW123732   4.609   3.814  10.164 -1.0943 -0.2904 -0.4409
 4033SOL    HW223733   4.680   3.939  10.125 -0.5965  0.7660  1.2887
 4034SOL     OW23734   3.542   0.378   2.952  0.3217 -0.6806 -0.1668
 4034SOL    HW123735   3.608   0.442   2.980  0.5093 -2.0538  2.5965
 4034SOL    HW223736   3.603   0.323   2.903  0.4434 -1.2876  0.6600
 4035SOL     OW23737   4.587   0.323   9.627  0.0318  0.3368  0.2576
 4035SOL    HW123738   4.676   0.292   9.613 -0.4096 -0.3656 -1.1098
 4035SOL    HW223739   4.607   0.407   9.667  1.7192  0.2223 -0.3567
 4036SOL     OW23740   3.971   4.373   8.651 -0.5281  0.5281 -0.1753
 4036SOL    HW123741   4.058   4.341   8.629 -1.2169 -0.9855 -0.7024
 4036SOL    HW223742   3.924   4.296   8.683 -0.1777  0.8435  1.0760
 4037SOL     OW23743   2.646   3.533   0.820 -0.2658 -0.0984  0.2341
 4037SOL    HW123744   2.603   3.456   0.857  2.2048 -2.5378 -1.9421
 4037SOL    HW223745   2.606   3.536   0.733 -0.4029  1.1139  0.3421
 4038SOL     OW23746   0.958   4.344  11.485  0.4536  0.0484 -0.1394
 4038SOL    HW123747   0.947   4.253  11.515 -2.2268 -0.2351 -1.9447
 4038SOL    HW223748   0.974   4.335  11.391  0.3747  1.3708 -0.2784
 4039SOL     OW23749   1.259   4.653   2.781  0.1158 -0.1794 -0.2037
 4039SOL    HW123750   1.190   4.683   2.841  2.0141  1.2605  1.2529
 4039SOL    HW223751   1.331   4.677   2.839  0.4175 -1.4130 -0.0721
 4040SOL     OW23752   0.048   0.782   4.827 -0.1439 -0.2403  0.5991
 4040SOL    HW123753   0.035   0.733   4.746 -2.1339 -0.3406  0.9770
 4040SOL    HW223754   0.091   0.727   4.893  0.3669  1.3670  1.6096
 4041SOL     OW23755   4.562   2.339   7.512  0.5255 -0.1796 -0.0432
 4041SOL    HW123756   4.488   2.330   7.572  0.5573  0.6482  0.1234
 4041SOL    HW223757   4.532   2.270   7.453  1.4037 -0.9503  0.4117
 4042SOL     OW23758   3.788   0.911   7.359 -0.3886  0.2178 -0.0356
 4042SOL    HW123759   3.875   0.909   7.321  1.2678  1.4671  3.7313
 4042SOL    HW223760   3.795   0.853   7.435  0.3153 -1.1258 -1.1196
 4043SOL     OW23761   1.341   2.780   5.364  0.7467  0.5115  0.2215
 4043SOL    HW123762   1.398   2.854   5.344 -2.6921  1.9311 -4.2873
 4043SOL    HW223763   1.279   2.787   5.291  0.5310 -2.5107  0.1237
 4044SOL     OW23764   3.403   2.422   8.243  0.0762  0.1997 -0.5831
 4044SOL    HW123765   3.317   2.381   8.255  0.4270 -0.4791 -0.3967
 4044SOL    HW223766   3.387   2.483   8.315 -0.9422 -0.3564 -0.3268
 4045SOL     OW23767   0.681   0.030   8.276 -0.2833  0.0993 -0.0406
 4045SOL    HW123768   0.639   4.685   8.310 -0.6819  0.9175  1.3574
 4045SOL    HW223769   0.768   0.038   8.316  1.0994  0.5089 -3.1217
 4046SOL     OW23770   4.349   0.277   6.109 -0.4948 -0.1142 -0.0168
 4046SOL    HW123771   4.315   0.283   6.198 -2.2494  0.5082 -0.7436
 4046SOL    HW223772   4.363   0.185   6.088 -0.7413  0.8111 -4.4298
 4047SOL     OW23773   2.572   4.056   2.088  0.1522  0.2557 -0.0577
 4047SOL    HW123774   2.609   4.120   2.027  1.5750 -1.3630 -0.8864
 4047SOL    HW223775   2.487   4.048   2.046  1.4972 -1.6114 -2.4050
 4048SOL     OW23776   0.669   3.946   4.737  0.4046 -0.2911 -0.4162
 4048SOL    HW123777   0.738   4.013   4.727  0.0059  0.1704 -0.0751
 4048SOL    HW223778   0.650   3.928   4.645  0.7294 -1.5552 -0.2262
 4049SOL     OW23779   2.915   0.693   3.738 -0.0140 -0.5577  0.1821
 4049SOL    HW123780   2.878   0.626   3.796 -0.8334 -1.8522 -1.8249
 4049SOL    HW223781   3.004   0.659   3.730  0.1828  0.2846 -1.2194
 4050SOL     OW23782   1.745   3.660   4.938  0.6790 -0.0645 -0.4632
 4050SOL    HW123783   1.667   3.663   4.883 -1.3777  1.5859  2.5382
 4050SOL    HW223784   1.713   3.638   5.025  3.3274 -2.0991 -0.0147
 4051SOL     OW23785   0.675   3.289   0.924  0.1411  0.0564  0.7382
 4051SOL    HW123786   0.610   3.285   0.994  0.4443  1.0977  1.0657
 4051SOL    HW223787   0.611   3.265   0.857  2.5654  1.8110 -2.1861
 4052SOL     OW23788   1.858   1.089   5.540 -0.3568 -0.5437 -0.4677
 4052SOL    HW123789   1.838   1.002   5.508 -0.5873  0.3432 -2.6975
 4052SOL    HW223790   1.954   1.080   5.541 -0.3629 -0.5078  0.8074
 4053SOL     OW23791   2.830   0.552   7.727 -0.0908  0.2765  0.7019
 4053SOL    HW123792   2.847   0.459   7.741 -0.4515 -0.0418 -1.0385
 4053SOL    HW223793   2.881   0.572   7.648 -0.0678  2.6812  1.3192
 4054SOL     OW23794   1.942   2.385   5.105 -0.4002  0.6560 -0.1302
 4054SOL    HW123795   1.935   2.419   5.016 -2.0192 -1.5680 -0.8547
 4054SOL    HW223796   1.928   2.290   5.097 -1.7054  0.8374  0.0367
 4055SOL     OW23797   3.062   1.173   3.785  0.1537  0.3177  0.0239
 4055SOL    HW123798   3.034   1.234   3.717  1.1026  1.7472  0.9251
 4055SOL    HW223799   3.157   1.182   3.783  0.0976  1.1406  1.4879
 4056SOL     OW23800   1.904   4.551  13.594 -0.2137 -0.0626 -0.3684
 4056SOL    HW123801   1.901   4.457  13.574  2.8729 -0.4525  0.9709
 4056SOL    HW223802   1.966   4.557  13.667 -0.7386  0.1960  0.0578
 4057SOL     OW23803   2.138   3.428   8.839 -0.1694  0.0704 -0.3727
 4057SOL    HW123804   2.084   3.444   8.916 -1.0106 -0.0673 -0.9311
 4057SOL    HW223805   2.104   3.492   8.777 -1.9520  1.6164  2.2127
 4058SOL     OW23806   4.550   3.925   7.079  0.3495  0.5617  0.2648
 4058SOL    HW123807   4.641   3.903   7.060 -0.4693 -1.9070 -0.8418
 4058SOL    HW223808   4.570   4.012   7.114  0.8197  0.4464  0.2763
 4059SOL     OW23809   3.004   1.133  13.269  0.4223 -0.5888  1.0331
 4059SOL    HW123810   3.026   1.226  13.257 -2.4713 -0.1188 -0.5694
 4059SOL    HW223811   3.060   1.082  13.211  1.8597  1.1638  0.8487
 4060SOL     OW23812   3.020   0.874   6.652 -0.5364 -0.2829 -0.5752
 4060SOL    HW123813   3.115   0.864   6.642 -0.0767 -0.0166  3.5964
 4060SOL    HW223814   3.003   0.899   6.561  1.8899 -0.9146 -1.1816
 4061SOL     OW23815   3.541   2.239   4.766  0.4960  0.3039 -0.1888
 4061SOL    HW123816   3.591   2.218   4.845  1.4661  1.4959 -0.4975
 4061SOL    HW223817   3.544   2.333   4.784 -1.2681 -0.3099  3.1841
 4062SOL     OW23818   4.646   0.209   8.633  0.0375  0.1771  0.6329
 4062SOL    HW123819   4.552   0.203   8.649 -0.6635  0.8423 -3.1595
 4062SOL    HW223820   4.643   0.236   8.541  0.7821  1.0573  0.8604
 4063SOL     OW23821   3.072   0.580   2.494 -0.4136  0.0533  0.8556
 4063SOL    HW123822   3.142   0.528   2.535 -0.3998 -0.0430  0.7111
 4063SOL    HW223823   3.091   0.666   2.530  1.6683 -0.3267  0.6652
 4064SOL     OW23824   4.650   4.619  11.452 -0.1215  0.3142 -0.1212
 4064SOL    HW123825   4.565   4.575  11.452  0.6315 -1.1469 -0.1903
 4064SOL    HW223826   4.704   4.553  11.407  1.0300 -0.0056  1.7398
 4065SOL     OW23827   1.086   3.726   9.031 -0.5083 -0.1893  0.1524
 4065SOL    HW123828   0.991   3.727   9.022 -0.4433 -1.6151 -0.6842
 4065SOL    HW223829   1.112   3.812   8.996 -1.0642 -0.3007 -0.5342
 4066SOL     OW23830   0.262   2.908  11.454  0.0874  0.0391  0.0520
 4066SOL    HW123831   0.300   2.996  11.464 -1.9560  1.0526 -1.0182
 4066SOL    HW223832   0.193   2.898  11.520 -0.9897  1.0277 -0.9069
 4067SOL     OW23833   3.972   3.222   3.669  0.0352  0.3669  0.6347
 4067SOL    HW123834   3.909   3.282   3.629 -0.1715  0.9126  1.7647
 4067SOL    HW223835   4.009   3.273   3.741  0.3324  1.1153 -0.0528
 4068SOL     OW23836   3.979   0.331   4.206 -0.2047 -0.1254 -0.3311
 4068SOL    HW123837   3.963   0.422   4.180  0.9107  0.1796  0.0187
 4068SOL    HW223838   4.073   0.340   4.224 -0.6633 -0.2742  2.1418
 4069SOL     OW23839   0.331   4.456   7.945 -0.1017 -0.6986 -0.2119
 4069SOL    HW123840   0.315   4.397   7.870 -1.0254 -4.1376  2.6789
 4069SOL    HW223841   0.387   4.403   8.002 -1.4317 -0.3437  1.4233
 4070SOL     OW23842   0.193   1.431   3.856  0.0002  0.6121 -0.1019
 4070SOL    HW123843   0.158   1.491   3.790  2.1380  1.4792 -0.4341
 4070SOL    HW223844   0.266   1.398   3.805  0.3247  0.7870  0.2519
 4071SOL     OW23845   0.772   0.148   6.004 -0.3221 -0.2508 -0.3927
 4071SOL    HW123846   0.850   0.097   6.024  0.9923  1.8946  0.0271
 4071SOL    HW223847   0.712   0.085   6.043  0.4567 -0.9059 -0.2398
 4072SOL     OW23848   1.291   0.952   1.424  0.4523 -0.0098 -0.0911
 4072SOL    HW123849   1.319   0.966   1.514 -1.4477  0.2946  0.4458
 4072SOL    HW223850   1.236   1.026   1.400 -0.0807 -0.5830 -0.6466
 4073SOL     OW23851   2.593   1.494   8.165 -0.5861  0.0324  0.1766
 4073SOL    HW123852   2.587   1.406   8.203  4.2058 -0.6657 -0.6757
 4073SOL    HW223853   2.567   1.544   8.242  1.6505 -1.3190  1.7974
 4074SOL     OW23854   3.984   4.019   9.098 -0.4038 -0.2096 -0.0378
 4074SOL    HW123855   4.006   3.972   9.178 -0.5876  0.6095  0.4915
 4074SOL    HW223856   3.944   4.096   9.138 -0.5080 -0.5529  0.5235
 4075SOL     OW23857   3.189   2.906   4.757 -0.0217 -0.1756  0.3312
 4075SOL    HW123858   3.280   2.876   4.751  0.3620  0.9512  0.5985
 4075SOL    HW223859   3.154   2.831   4.805 -1.8489  1.5889  1.7576
 4076SOL     OW23860   4.434   2.507   9.242  0.7219  0.3727 -0.0822
 4076SOL    HW123861   4.464   2.566   9.172  1.4744 -0.2881 -0.3051
 4076SOL    HW223862   4.500   2.439   9.252  0.6033  0.0939 -1.1899
 4077SOL     OW23863   0.694   2.028  15.121 -0.6138 -0.1603 -0.0939
 4077SOL    HW123864   0.661   2.116  15.137  3.7912  1.4847 -0.1224
 4077SOL    HW223865   0.686   1.992  15.209 -0.8642 -0.1456 -0.1117
 4078SOL     OW23866   0.399   0.813  15.172  0.6418  0.4621 -0.1652
 4078SOL    HW123867   0.323   0.756  15.163 -0.6100  2.2880 -1.1600
 4078SOL    HW223868   0.462   0.753  15.212 -1.8401 -1.4615  0.8478
 4079SOL     OW23869   1.817   0.468   4.147 -0.0692  0.1499  0.4908
 4079SOL    HW123870   1.902   0.452   4.107 -0.2280  1.2126 -0.2890
 4079SOL    HW223871   1.841   0.480   4.239  0.4225  3.6274 -0.0945
 4080SOL     OW23872   0.175   2.492   0.200 -0.3301 -0.5313  0.2838
 4080SOL    HW123873   0.233   2.472   0.127  1.9265 -0.3551  2.0430
 4080SOL    HW223874   0.208   2.428   0.262  0.8907 -1.7477 -1.6134
 4081SOL     OW23875   1.865   3.996   9.727 -0.0242 -0.4121 -0.1300
 4081SOL    HW123876   1.924   4.068   9.705  1.6097 -1.3920  1.0295
 4081SOL    HW223877   1.787   4.042   9.757  1.8675  0.3672  3.5408
 4082SOL     OW23878   0.112   1.262   7.714 -0.4899  0.3015 -0.3881
 4082SOL    HW123879   0.193   1.233   7.755 -1.4547 -0.7314  0.7537
 4082SOL    HW223880   0.114   1.356   7.732 -1.6307  0.6676 -2.0278
 4083SOL     OW23881   0.521   1.103   5.231  0.0147  0.3726 -0.2488
 4083SOL    HW123882   0.535   1.192   5.198  0.7399  0.5834  0.6243
 4083SOL    HW223883   0.604   1.056   5.229 -1.5944 -2.4615  1.0880
 4084SOL     OW23884   3.232   2.043   6.006 -0.1304 -0.0854 -0.1865
 4084SOL    HW123885   3.186   1.986   5.944  0.2342 -0.0580 -0.4819
 4084SOL    HW223886   3.166   2.062   6.072  1.7542  1.8705  1.1410
 4085SOL     OW23887   0.120   0.644   5.730 -0.1361 -0.7589 -0.1742
 4085SOL    HW123888   0.113   0.629   5.636  0.8040  0.9803 -0.5279
 4085SOL    HW223889   0.062   0.572   5.754  0.3782 -1.0624  0.1573
 4086SOL     OW23890   1.606   0.014   4.868 -0.6900 -0.1981 -0.3254
 4086SOL    HW123891   1.566   4.705   4.793 -1.2356  1.3728 -0.9311
 4086SOL    HW223892   1.559   4.711   4.943 -0.6191 -0.6513 -0.5108
 4087SOL     OW23893   3.108   0.087   0.868  0.2983  0.3073 -0.0828
 4087SOL    HW123894   3.022   0.126   0.852  0.3112  0.2023 -0.3933
 4087SOL    HW223895   3.105   0.017   0.803  0.2933 -0.4354  0.7072
 4088SOL     OW23896   0.262   3.640   3.534  0.3447  0.1102 -0.5707
 4088SOL    HW123897   0.293   3.673   3.450  4.1687 -3.6617 -0.5961
 4088SOL    HW223898   0.177   3.605   3.506  0.9933 -0.8746 -1.2958
 4089SOL     OW23899   1.904   2.827   6.433 -0.3848  0.3657  0.1757
 4089SOL    HW123900   1.991   2.804   6.464 -0.5457 -2.0240 -1.1584
 4089SOL    HW223901   1.906   2.790   6.345 -1.0952 -0.1974  0.3880
 4090SOL     OW23902   2.281   0.292   8.181 -0.1534  0.3516 -0.2685
 4090SOL    HW123903   2.259   0.359   8.116 -0.3186  0.2178 -0.3489
 4090SOL    HW223904   2.202   0.239   8.191  0.5778 -0.4340  1.3885
 4091SOL     OW23905   1.963   2.998   4.674  0.2159 -0.0800  0.7389
 4091SOL    HW123906   2.022   2.952   4.734  2.8714 -0.0716 -1.8848
 4091SOL    HW223907   2.015   3.078   4.665 -3.1237  1.8718 -1.5007
 4092SOL     OW23908   0.685   4.657   1.813 -0.0594  0.2229  0.0195
 4092SOL    HW123909   0.742   4.602   1.759 -2.6921  0.6753 -3.1824
 4092SOL    HW223910   0.605   4.676   1.764  0.6736  0.6572 -0.9972
 4093SOL     OW23911   4.332   0.144   6.624 -0.4849 -0.8639  0.6888
 4093SOL    HW123912   4.278   0.070   6.653 -0.4818 -1.8941 -1.9025
 4093SOL    HW223913   4.417   0.102   6.637 -0.5466 -1.2211 -0.0382
 4094SOL     OW23914   2.321   0.494   0.335  0.1645 -0.5901  0.1136
 4094SOL    HW123915   2.409   0.468   0.366 -0.1377 -0.5752  1.0031
 4094SOL    HW223916   2.268   0.440   0.393  1.2736 -1.0368  0.7264
 4095SOL     OW23917   2.601   3.180   6.631 -0.6234  0.1176  0.0199
 4095SOL    HW123918   2.572   3.260   6.587  0.9172  2.0502  2.4918
 4095SOL    HW223919   2.519   3.144   6.664 -2.0224  0.3149 -3.2904
 4096SOL     OW23920   1.032   3.644   5.486 -0.2765  0.1063  0.3183
 4096SOL    HW123921   0.983   3.670   5.408  0.7961  1.2818  0.0349
 4096SOL    HW223922   0.965   3.585   5.520  0.6185  0.1221  2.0962
 4097SOL     OW23923   0.022   3.897   9.222 -0.1091  0.3559  0.1624
 4097SOL    HW123924   0.001   3.806   9.205  0.0301  0.5330 -0.9823
 4097SOL    HW223925   0.008   3.952   9.145 -0.1699 -1.0915 -0.8437
 4098SOL     OW23926   3.216   0.794  13.357  0.4413  1.0679  0.1924
 4098SOL    HW123927   3.128   0.826  13.375  0.9593  1.6193  1.7800
 4098SOL    HW223928   3.227   0.719  13.417  2.3190  0.6605 -0.6413
 4099SOL     OW23929   0.119   0.165   1.651 -0.7479 -0.5566 -0.2735
 4099SOL    HW123930   0.030   0.130   1.641 -0.3372 -1.8233  0.6179
 4099SOL    HW223931   0.165   0.105   1.592 -1.8157 -0.3850 -1.2879
 4100SOL     OW23932   2.263   4.541   5.905 -0.2573  0.2878 -0.1113
 4100SOL    HW123933   2.239   4.469   5.847  1.1306  0.1629 -0.5106
 4100SOL    HW223934   2.215   4.526   5.987  0.2104 -0.6409 -0.0068
 4101SOL     OW23935   4.142   3.363  16.437 -0.0491  0.2491 -0.1869
 4101SOL    HW123936   4.187   3.320  16.365 -1.3321 -0.1909 -0.7283
 4101SOL    HW223937   4.191   3.445  16.438  1.4329 -0.6409  0.3030
 4102SOL     OW23938   4.636   2.949  15.818  0.1278  0.4416 -0.0609
 4102SOL    HW123939   4.681   3.023  15.858 -0.2098  1.1138 -0.9153
 4102SOL    HW223940   4.689   2.877  15.854  1.7661  1.6798 -0.0166
 4103SOL     OW23941   3.320   1.882  16.469  0.2051  0.0641  0.7616
 4103SOL    HW123942   3.366   1.849  16.546 -0.7714  2.5845  2.4001
 4103SOL    HW223943   3.390   1.888  16.404  1.5110 -0.1914  2.1436
 4104SOL     OW23944   3.452   3.761   5.169 -0.6055 -0.2269 -0.2375
 4104SOL    HW123945   3.388   3.780   5.100  1.1429  0.4120 -1.6735
 4104SOL    HW223946   3.444   3.665   5.170 -0.6911 -0.2171  0.1207
 4105SOL     OW23947   2.219   1.257   3.604 -0.2710 -0.4262  0.2394
 4105SOL    HW123948   2.251   1.324   3.543 -0.6737 -0.2525  0.2157
 4105SOL    HW223949   2.128   1.246   3.577  0.0265  0.0111 -0.9511
 4106SOL     OW23950   1.943   0.364   5.691 -0.1584 -0.2756  0.1703
 4106SOL    HW123951   1.987   0.294   5.739  0.4434  1.6986  2.4791
 4106SOL    HW223952   1.943   0.340   5.598  1.3092  2.6977 -0.6178
 4107SOL     OW23953   0.142   1.551   8.602  0.5345  0.2707  0.1956
 4107SOL    HW123954   0.101   1.502   8.530 -0.6440 -1.3646  1.9599
 4107SOL    HW223955   0.128   1.641   8.574 -0.1042  0.0544 -0.2123
 4108SOL     OW23956   1.261   1.692  13.073  0.2059  0.1466 -0.2341
 4108SOL    HW123957   1.287   1.784  13.082  3.6602 -0.6945 -1.4898
 4108SOL    HW223958   1.214   1.693  12.989 -2.6567  1.5795  1.3767
 4109SOL     OW23959   3.067   3.274   7.423  0.5197  0.3734  0.0822
 4109SOL    HW123960   3.073   3.325   7.343  1.6938 -2.6513 -1.7809
 4109SOL    HW223961   2.980   3.294   7.455  0.5291  0.4115  0.0839
 4110SOL     OW23962   1.246   4.057  13.096  0.1481 -0.1585 -0.6316
 4110SOL    HW123963   1.213   4.122  13.034 -0.3731  0.0675 -0.1149
 4110SOL    HW223964   1.337   4.080  13.114  0.6295 -1.5256 -1.2968
 4111SOL     OW23965   3.387   0.372   5.634  0.7743  0.1793  0.3289
 4111SOL    HW123966   3.466   0.317   5.644 -0.0332 -1.0287  0.1266
 4111SOL    HW223967   3.403   0.435   5.704  0.1417  1.1283 -0.3859
 4112SOL     OW23968   3.905   1.298   8.392  0.7575  0.0631  0.7884
 4112SOL    HW123969   3.992   1.309   8.430  1.0105  0.9033 -0.0289
 4112SOL    HW223970   3.925   1.332   8.305 -2.0925  2.7836  1.1726
 4113SOL     OW23971   4.199   0.608  17.385  0.1031 -0.1924  0.3934
 4113SOL    HW123972   4.124   0.666  17.382  0.9223  0.7892 -1.3988
 4113SOL    HW223973   4.206   0.604  17.289 -3.9548  2.5259 -0.0047
 4114SOL     OW23974   3.733   0.207   3.708 -0.1267 -0.1992  0.9539
 4114SOL    HW123975   3.752   0.189   3.616  1.2961 -0.7330  1.3512
 4114SOL    HW223976   3.799   0.150   3.748  1.8935  0.5105 -1.4118
 4115SOL     OW23977   0.781   0.426  10.447 -0.2627  0.4574 -0.1355
 4115SOL    HW123978   0.740   0.408  10.531  0.4683 -0.0221  0.1228
 4115SOL    HW223979   0.823   0.347  10.413 -1.3443 -0.2177  0.1106
 4116SOL     OW23980   3.649   2.712  13.433 -0.0993 -0.1219 -0.0676
 4116SOL    HW123981   3.662   2.623  13.402  1.0607  0.2942 -0.7726
 4116SOL    HW223982   3.624   2.699  13.525  0.3008  1.3795  0.2522
 4117SOL     OW23983   4.432   2.827   7.008 -0.0913  0.2965 -0.6886
 4117SOL    HW123984   4.360   2.790   7.058  0.6967 -1.9143 -1.2068
 4117SOL    HW223985   4.512   2.794   7.049 -1.9354 -0.6595  2.1039
 4118SOL     OW23986   4.079   2.660   3.029 -0.1972 -0.2033 -0.3937
 4118SOL    HW123987   4.081   2.723   2.957 -1.7332 -0.2399 -0.4746
 4118SOL    HW223988   4.033   2.589   2.984 -0.2751 -0.5356  0.2084
 4119SOL     OW23989   4.387   0.389   2.856  0.0986  0.2100  0.4095
 4119SOL    HW123990   4.471   0.425   2.828 -0.2727  0.1341 -0.7700
 4119SOL    HW223991   4.368   0.452   2.926  1.4034  0.2379  0.7463
 4120SOL     OW23992   3.847   3.345  16.941 -0.1370  0.0813  0.4577
 4120SOL    HW123993   3.816   3.256  16.960 -2.8996  0.4078 -2.6260
 4120SOL    HW223994   3.902   3.354  17.019  0.4668  0.4936 -0.0161
 4121SOL     OW23995   4.191   4.267   6.008  0.3571  0.2660  0.8313
 4121SOL    HW123996   4.246   4.311   5.942  0.0256  1.3531  1.2780
 4121SOL    HW223997   4.261   4.230   6.062  0.3238  1.1073  1.4514
 4122SOL     OW23998   0.298   4.066   6.465 -0.3073  0.2167  0.4549
 4122SOL    HW123999   0.312   3.987   6.412 -1.9353 -0.5707  1.1896
 4122SOL    HW224000   0.227   4.027   6.517 -0.5707  2.6845  1.9759
 4123SOL     OW24001   2.339   4.145   1.938  0.1143 -0.5745  0.8697
 4123SOL    HW124002   2.267   4.157   1.999 -0.3052 -0.6624  0.4006
 4123SOL    HW224003   2.283   4.161   1.862  0.4500 -0.3879  0.6580
 4124SOL     OW24004   1.284   0.148   9.319  0.1658  0.0577 -0.7127
 4124SOL    HW124005   1.375   0.119   9.316 -0.0353 -0.6594  0.1673
 4124SOL    HW224006   1.235   0.071   9.289 -0.2152 -1.0867  2.8886
 4125SOL     OW24007   1.762   3.774   8.430  0.2114  0.3493  0.4221
 4125SOL    HW124008   1.699   3.845   8.436  0.4130  0.5909 -0.2586
 4125SOL    HW224009   1.813   3.795   8.508  0.4722  1.8313 -0.1377
 4126SOL     OW24010   2.143   2.183   9.867  0.0293  0.0640 -0.3471
 4126SOL    HW124011   2.198   2.182   9.945 -0.3530 -1.5534 -0.1035
 4126SOL    HW224012   2.085   2.109   9.884 -0.4047 -0.4915 -4.3686
 4127SOL     OW24013   1.165   2.381  13.718 -0.6187 -0.2614 -0.5460
 4127SOL    HW124014   1.243   2.399  13.771 -2.1374  1.4605  1.1253
 4127SOL    HW224015   1.201   2.321  13.652  0.5665  0.7170 -0.7881
 4128SOL     OW24016   3.660   4.217   6.697  0.0911  0.4385 -0.1195
 4128SOL    HW124017   3.579   4.167   6.704  0.5009  0.1166  2.3908
 4128SOL    HW224018   3.715   4.181   6.767 -1.0258  1.4394  1.2511
 4129SOL     OW24019   1.365   1.097   9.021  0.8243 -0.0324 -0.4136
 4129SOL    HW124020   1.409   1.148   8.954  1.3043 -0.4035 -0.3771
 4129SOL    HW224021   1.375   1.004   8.998 -1.7858 -0.3904 -0.1840
 4130SOL     OW24022   4.176   4.527   1.561  0.1883  0.3602 -0.2046
 4130SOL    HW124023   4.198   4.439   1.590  2.7666  0.4265 -1.9347
 4130SOL    HW224024   4.204   4.573   1.640 -2.4644  0.1691  0.8497
 4131SOL     OW24025   0.034   1.149   8.564 -0.3047 -0.3285  0.0630
 4131SOL    HW124026   0.017   1.171   8.655  4.2083  0.3295  0.7277
 4131SOL    HW224027   0.023   1.234   8.521 -0.3194  0.1548  1.0264
 4132SOL     OW24028   1.891   1.602   6.856 -0.1835 -0.2579 -0.3232
 4132SOL    HW124029   1.938   1.518   6.849 -2.2991 -1.5984  1.6058
 4132SOL    HW224030   1.808   1.574   6.817 -0.2601 -1.6510  0.8349
 4133SOL     OW24031   3.073   4.528   6.035  0.1925 -0.0738  0.0343
 4133SOL    HW124032   3.045   4.591   5.969 -1.0627 -1.3521 -0.6731
 4133SOL    HW224033   3.102   4.467   5.967 -2.3583 -1.1943 -0.0777
 4134SOL     OW24034   0.500   2.443   6.375 -0.2685 -0.1203 -0.2038
 4134SOL    HW124035   0.421   2.474   6.331  0.8809  2.6131 -0.3497
 4134SOL    HW224036   0.470   2.443   6.466 -0.8677 -2.5021 -0.4132
 4135SOL     OW24037   4.421   4.426   8.287 -0.3700  0.2798  0.4536
 4135SOL    HW124038   4.447   4.511   8.322 -0.7848  0.4729  0.2861
 4135SOL    HW224039   4.499   4.403   8.236 -0.5866 -2.2019  1.2497
 4136SOL     OW24040   3.754   1.687   6.877 -0.0278  0.1556  0.0538
 4136SOL    HW124041   3.834   1.656   6.833 -0.5099 -0.3914 -0.4422
 4136SOL    HW224042   3.787   1.675   6.966 -2.3696 -2.0681  0.6407
 4137SOL     OW24043   0.877   4.615  13.008  0.3778 -0.1097  0.5466
 4137SOL    HW124044   0.879   4.654  13.095 -0.5393 -1.5694  1.2296
 4137SOL    HW224045   0.971   4.606  12.994  0.0962  1.3003 -2.1758
 4138SOL     OW24046   4.579   0.029   9.597 -0.1009  0.0535  0.0096
 4138SOL    HW124047   4.571   0.124   9.605 -0.8069  0.1359 -1.7487
 4138SOL    HW224048   4.644   0.010   9.665 -0.6174  1.8011  0.9825
 4139SOL     OW24049   4.523   1.003   0.513 -0.3219 -0.5053  0.2688
 4139SOL    HW124050   4.575   0.973   0.588  0.2591 -0.9455 -0.3125
 4139SOL    HW224051   4.444   1.034   0.557 -0.8644 -1.9920  0.3527
 4140SOL     OW24052   3.105   1.721   1.234 -0.3471 -0.4984 -0.1405
 4140SOL    HW124053   3.130   1.796   1.180  0.1948  0.1239  0.9900
 4140SOL    HW224054   3.125   1.656   1.166 -2.5120  0.4877 -1.7308
 4141SOL     OW24055   4.233   0.406   4.335  1.0146  0.8490  0.4610
 4141SOL    HW124056   4.269   0.461   4.265 -2.6699  0.3680 -1.8387
 4141SOL    HW224057   4.311   0.388   4.387  1.1681  1.1413  0.3352
 4142SOL     OW24058   0.154   3.833  17.580 -0.0994  0.0174 -0.1621
 4142SOL    HW124059   0.126   3.743  17.563 -2.2551  0.4180  1.3537
 4142SOL    HW224060   0.131   3.841  17.673  0.3330  2.6939 -0.2927
 4143SOL     OW24061   3.593   3.188   2.355 -0.4244  0.0500  0.2251
 4143SOL    HW124062   3.591   3.109   2.409 -0.2703 -0.3204 -0.3160
 4143SOL    HW224063   3.502   3.213   2.341  0.0345  1.6354  0.0842
 4144SOL     OW24064   0.868   2.104  10.344  0.7913 -0.2932  0.2874
 4144SOL    HW124065   0.837   2.031  10.290  0.9335 -0.4490  0.4163
 4144SOL    HW224066   0.961   2.098  10.325  0.9697 -0.5110  1.2231
 4145SOL     OW24067   1.658   0.367   8.707  0.0578  0.6205 -0.2578
 4145SOL    HW124068   1.575   0.357   8.752  1.1858  1.7080  2.0247
 4145SOL    HW224069   1.714   0.340   8.780 -1.4389  0.6529  0.8880
 4146SOL     OW24070   4.681   3.765   6.199  0.2294 -0.1720 -0.3715
 4146SOL    HW124071   4.605   3.819   6.181 -2.4068 -3.7526 -0.0041
 4146SOL    HW224072   4.665   3.697   6.133 -2.7337  0.7331 -0.5974
 4147SOL     OW24073   0.695   0.649   0.237 -0.1445 -0.3388  0.4004
 4147SOL    HW124074   0.602   0.663   0.256 -0.0771 -0.6951  0.9766
 4147SOL    HW224075   0.690   0.690   0.151 -0.6798 -0.2871  0.4599
 4148SOL     OW24076   3.488   0.903  13.410 -0.3216  0.3845  0.1519
 4148SOL    HW124077   3.393   0.901  13.399 -0.1467  0.2011 -1.2906
 4148SOL    HW224078   3.506   0.865  13.496 -0.5970 -2.2482 -0.9336
 4149SOL     OW24079   0.137   2.931  11.187 -0.1490  0.3433 -0.2718
 4149SOL    HW124080   0.158   2.931  11.280  1.2707 -0.9794 -0.5915
 4149SOL    HW224081   0.087   3.012  11.174  1.3841  1.2507 -0.5853
 4150SOL     OW24082   4.586   1.520   7.818 -0.8756  0.1547  0.2796
 4150SOL    HW124083   4.612   1.556   7.734 -0.1394 -0.9295  0.0341
 4150SOL    HW224084   4.669   1.504   7.864  0.1342 -0.8372 -1.8872
 4151SOL     OW24085   4.176   3.428   9.238 -0.0822 -0.4274 -0.0149
 4151SOL    HW124086   4.159   3.406   9.147 -0.0438 -2.9662  0.5797
 4151SOL    HW224087   4.217   3.347   9.268  1.4982  0.5565  0.5143
 4152SOL     OW24088   4.219   1.333   6.966 -0.1932 -0.0657 -0.3778
 4152SOL    HW124089   4.287   1.306   6.905  0.6242  2.3644 -0.5347
 4152SOL    HW224090   4.273   1.348   7.044 -2.1011  1.4600  0.6535
 4153SOL     OW24091   2.902   2.757   3.139  0.2451  0.1099 -0.1602
 4153SOL    HW124092   2.863   2.725   3.057  1.7816  0.2627 -0.9603
 4153SOL    HW224093   2.882   2.850   3.133  1.3598  0.2751 -1.4792
 4154SOL     OW24094   1.083   0.053  15.255 -0.0823  0.4274  0.1503
 4154SOL    HW124095   1.114   0.138  15.288  0.7687  1.1996 -2.6319
 4154SOL    HW224096   1.096   4.734  15.333 -0.4222  1.6115  1.0269
 4155SOL     OW24097   3.935   0.810   7.820 -0.8441  0.8131 -0.1970
 4155SOL    HW124098   3.957   0.824   7.912  0.0024 -0.1074 -0.2637
 4155SOL    HW224099   4.020   0.775   7.791 -1.6815 -0.4815 -1.0984
 4156SOL     OW24100   2.943   3.212  14.464 -0.3050 -0.1629  0.0062
 4156SOL    HW124101   3.031   3.248  14.460 -0.7319  0.7113 -1.6627
 4156SOL    HW224102   2.930   3.178  14.553  2.6676 -1.2067  0.0485
 4157SOL     OW24103   4.674   1.673   7.580  0.8826  0.3158  0.2003
 4157SOL    HW124104   0.026   1.707   7.560  0.4134  1.4941  0.1651
 4157SOL    HW224105   4.624   1.754   7.567  0.7676  0.1109 -0.5926
 4158SOL     OW24106   0.499   1.802   9.639 -0.6137  0.1966 -0.3175
 4158SOL    HW124107   0.426   1.830   9.695 -0.6189 -1.1871  0.3713
 4158SOL    HW224108   0.465   1.809   9.550  1.2780  1.4078 -0.9368
 4159SOL     OW24109   3.329   3.911  13.371  0.9825 -0.4138  0.2710
 4159SOL    HW124110   3.384   3.864  13.434  1.6401 -1.3390 -1.0084
 4159SOL    HW224111   3.358   3.886  13.284  1.8036 -1.2503  0.7838
 4160SOL     OW24112   2.866   3.632   8.013  0.2491 -0.2509 -0.2498
 4160SOL    HW124113   2.785   3.584   8.027  1.0051 -0.9410  1.6933
 4160SOL    HW224114   2.925   3.589   8.074 -0.5935  0.1179  0.8191
 4161SOL     OW24115   3.856   3.350  16.369  0.0853 -0.0432 -0.0955
 4161SOL    HW124116   3.943   3.363  16.406 -0.1513  0.1490  0.4064
 4161SOL    HW224117   3.798   3.368  16.443  0.7531 -0.1598  0.4568
 4162SOL     OW24118   0.527   3.712  10.542 -0.2564  0.9465 -0.0760
 4162SOL    HW124119   0.554   3.791  10.497 -0.5026  1.3767  0.5273
 4162SOL    HW224120   0.592   3.722  10.612  0.1247 -1.5194 -0.0585
 4163SOL     OW24121   4.689   1.223   1.114 -0.3674  0.2308  0.6351
 4163SOL    HW124122   0.034   1.216   1.167  0.9273 -1.5060 -1.5342
 4163SOL    HW224123   4.724   1.231   1.025 -1.0705 -1.0647  0.2302
 4164SOL     OW24124   4.108   0.701  14.299 -0.3639 -0.0091 -0.1740
 4164SOL    HW124125   4.047   0.767  14.331  0.1598 -0.1011  0.9944
 4164SOL    HW224126   4.066   0.618  14.321  1.3147 -0.7751  0.1211
 4165SOL     OW24127   2.250   1.053   4.935 -0.4306 -0.4866 -0.0345
 4165SOL    HW124128   2.299   1.087   5.010  0.5728 -2.1371  0.0385
 4165SOL    HW224129   2.166   1.051   4.981  0.4547  0.8819  1.6311
 4166SOL     OW24130   0.631   3.401   8.546  0.5951 -0.8619  0.0164
 4166SOL    HW124131   0.591   3.398   8.459 -0.0914 -2.1940  0.3889
 4166SOL    HW224132   0.551   3.400   8.599  0.2598 -1.6021 -0.5152
 4167SOL     OW24133   3.118   4.089   4.555  0.0880 -0.4610 -0.2767
 4167SOL    HW124134   3.126   4.165   4.613  2.3378  0.1964 -1.4386
 4167SOL    HW224135   3.207   4.054   4.554  1.2083  2.4405  0.3813
 4168SOL     OW24136   0.529   3.767   9.304 -0.7296  0.2257  0.5662
 4168SOL    HW124137   0.490   3.816   9.231  0.1762 -1.9333 -1.3841
 4168SOL    HW224138   0.590   3.710   9.256 -0.9527 -0.9365  1.6661
 4169SOL     OW24139   1.147   1.628   3.425 -0.3007  0.3062 -0.0157
 4169SOL    HW124140   1.241   1.617   3.433 -0.3332  0.0271 -0.0351
 4169SOL    HW224141   1.126   1.696   3.489 -2.1612 -1.7161  1.5168
 4170SOL     OW24142   3.245   3.774  10.548 -0.0791  0.0785  0.2492
 4170SOL    HW124143   3.243   3.797  10.641  1.2059  0.2795  0.2236
 4170SOL    HW224144   3.215   3.853  10.504  0.8244  0.7828  0.8818
 4171SOL     OW24145   4.124   4.603   8.825 -0.2580  0.4481 -0.1945
 4171SOL    HW124146   4.073   4.533   8.785 -0.7128  1.7142 -1.8268
 4171SOL    HW224147   4.092   4.678   8.776  0.7982  0.2568 -1.1867
 4172SOL     OW24148   0.099   4.527   3.911 -0.2330  0.0084 -0.5119
 4172SOL    HW124149   0.185   4.509   3.949 -0.6343  0.7820  0.7591
 4172SOL    HW224150   0.046   4.468   3.965 -0.4671 -1.0353 -1.8909
 4173SOL     OW24151   2.326   4.099   3.884 -0.0803 -0.2014  0.4278
 4173SOL    HW124152   2.389   4.145   3.940  0.3489  1.6363 -1.5707
 4173SOL    HW224153   2.260   4.062   3.943  0.8015 -0.4059  1.2853
 4174SOL     OW24154   1.058   3.368   8.794 -0.1320 -0.1564  0.1901
 4174SOL    HW124155   0.978   3.416   8.772  0.9584  2.0133  0.9679
 4174SOL    HW224156   1.120   3.439   8.777  0.1354 -0.5550 -0.5062
 4175SOL     OW24157   0.190   4.166   3.030  0.0176 -0.5227 -0.0004
 4175SOL    HW124158   0.114   4.131   3.076  0.2864 -3.2867 -1.6012
 4175SOL    HW224159   0.216   4.083   2.989 -0.9686 -0.7552 -0.1578
 4176SOL     OW24160   3.450   0.462   3.974  0.4141 -0.7274 -0.1086
 4176SOL    HW124161   3.518   0.479   4.039  0.1146  1.1900 -0.2872
 4176SOL    HW224162   3.463   0.368   3.961  1.8004 -0.6980  1.0414
 4177SOL     OW24163   3.268   2.568  11.131  0.0142  0.0140 -0.1228
 4177SOL    HW124164   3.306   2.650  11.161 -0.2894  0.2946 -0.5027
 4177SOL    HW224165   3.230   2.534  11.212  0.8595 -0.6088  0.0123
 4178SOL     OW24166   4.681   3.062   6.019  0.3326  0.1937 -0.1664
 4178SOL    HW124167   4.641   3.103   5.943 -0.3765 -1.7117 -0.8288
 4178SOL    HW224168   4.702   3.140   6.070 -0.7564 -0.6562  1.5964
 4179SOL     OW24169   0.039   3.814   5.184 -0.4426  0.2630  0.2447
 4179SOL    HW124170   4.716   3.859   5.123  0.2283  0.1707 -0.4619
 4179SOL    HW224171   0.069   3.891   5.232 -0.0962  0.0886  0.3156
 4180SOL     OW24172   0.024   3.735   8.896 -0.2519  0.1861  0.2589
 4180SOL    HW124173   4.678   3.724   8.845  1.1879  1.8308 -2.3599
 4180SOL    HW224174   0.003   3.696   8.981 -2.6052 -0.5091 -0.6322
 4181SOL     OW24175   1.766   0.743   2.020 -0.4294 -0.0479  0.0894
 4181SOL    HW124176   1.719   0.677   1.969 -0.7345 -0.2281  0.6098
 4181SOL    HW224177   1.846   0.698   2.047  0.9024  1.4979 -1.2340
 4182SOL     OW24178   4.444   0.751  14.771 -0.4391 -0.3768 -0.0175
 4182SOL    HW124179   4.519   0.692  14.773  0.5662  0.7864 -3.4280
 4182SOL    HW224180   4.381   0.680  14.758  0.6468 -1.3457  0.0752
 4183SOL     OW24181   0.119   1.573  17.628 -0.3413  0.0321  0.3226
 4183SOL    HW124182   0.035   1.530  17.609 -1.8393  2.5281  1.2700
 4183SOL    HW224183   0.091   1.619  17.707 -2.0864  3.5071 -2.3217
 4184SOL     OW24184   4.551   4.275   7.073 -0.7303 -0.0721  0.2663
 4184SOL    HW124185   4.594   4.349   7.115 -2.5010  0.3653  1.2832
 4184SOL    HW224186   4.611   4.253   7.001  1.6609 -0.4533  2.3890
 4185SOL     OW24187   0.558   3.926  15.359  0.6751 -0.0998  0.8764
 4185SOL    HW124188   0.608   3.909  15.279 -2.7854  1.5132 -1.6635
 4185SOL    HW224189   0.476   3.960  15.324  0.8030 -0.7735 -0.0896
 4186SOL     OW24190   0.952   4.507   1.718 -0.3133 -0.0978  0.1201
 4186SOL    HW124191   0.950   4.463   1.633  1.0196  1.0635 -0.5085
 4186SOL    HW224192   1.012   4.580   1.704 -0.3463 -0.0658  0.1457
 4187SOL     OW24193   1.593   0.261  14.324  0.3710 -0.0878 -0.4830
 4187SOL    HW124194   1.541   0.185  14.298  0.0369  0.1735 -0.5780
 4187SOL    HW224195   1.545   0.270  14.406 -0.7086 -1.5565 -0.9688
 4188SOL     OW24196   0.034   2.779   4.251  0.0970 -0.4942  0.2500
 4188SOL    HW124197   4.723   2.849   4.299 -0.6694  0.9068 -2.4870
 4188SOL    HW224198   4.709   2.759   4.179  0.1601 -2.2227  0.6777
 4189SOL     OW24199   3.494   3.884  12.985  0.0191  0.1229 -0.1186
 4189SOL    HW124200   3.492   3.834  13.066 -2.0044 -0.5532 -0.5806
 4189SOL    HW224201   3.578   3.857  12.949 -0.5614 -1.2689 -0.4262
 4190SOL     OW24202   3.857   1.501   0.985  0.4611  0.6368  0.4341
 4190SOL    HW124203   3.798   1.460   1.048 -1.3824  3.3210  0.4606
 4190SOL    HW224204   3.802   1.521   0.909 -0.6145 -0.8418  0.8252
 4191SOL     OW24205   2.442   2.384  10.166 -0.0533 -0.3097  0.0455
 4191SOL    HW124206   2.535   2.365  10.177 -0.7822 -3.8505  0.1975
 4191SOL    HW224207   2.421   2.430  10.248  2.3949 -1.1538  1.1322
 4192SOL     OW24208   2.130   4.087   4.089  0.2084  0.1400 -0.0286
 4192SOL    HW124209   2.130   4.182   4.079 -1.8628  0.3083  1.6179
 4192SOL    HW224210   2.171   4.080   4.175 -1.3091  1.0078  0.7559
 4193SOL     OW24211   0.174   3.244  13.239 -0.5274 -0.1394  0.1780
 4193SOL    HW124212   0.114   3.277  13.306 -0.5513  1.6786 -0.7529
 4193SOL    HW224213   0.122   3.169  13.211 -1.4308  0.4876  0.2065
 4194SOL     OW24214   4.370   2.394   6.779 -0.0824  0.1343 -0.6842
 4194SOL    HW124215   4.383   2.367   6.688  1.5300  0.9454 -0.7032
 4194SOL    HW224216   4.407   2.482   6.785  0.8404 -0.1787 -1.7265
 4195SOL     OW24217   2.992   3.274   3.225  0.3507 -0.0436  0.5457
 4195SOL    HW124218   2.924   3.340   3.210 -0.5923 -1.8139 -2.7866
 4195SOL    HW224219   3.075   3.322   3.225  0.2771  0.1045  1.8585
 4196SOL     OW24220   0.275   1.144   7.026 -0.1174 -0.3110 -0.3748
 4196SOL    HW124221   0.282   1.122   6.934  0.7318  0.7808 -0.5791
 4196SOL    HW224222   0.181   1.158   7.033 -0.5207 -1.6713 -3.2973
 4197SOL     OW24223   4.013   3.931  14.718 -0.4125 -0.1861  0.4978
 4197SOL    HW124224   3.931   3.980  14.712 -1.0939 -1.4115 -0.2174
 4197SOL    HW224225   4.071   3.965  14.651  0.3905 -0.7530  0.9025
 4198SOL     OW24226   0.351   2.240   5.056  0.4368  0.3268  0.3381
 4198SOL    HW124227   0.359   2.336   5.060  0.9853  0.3105 -0.3339
 4198SOL    HW224228   0.289   2.223   4.985 -0.4253 -2.2420  1.7184
 4199SOL     OW24229   0.013   0.708   3.233 -0.5849  0.2033 -0.4692
 4199SOL    HW124230   4.703   0.740   3.311 -0.1335  2.1095 -0.9784
 4199SOL    HW224231   4.699   0.764   3.172  0.5553 -0.1624 -1.7166
 4200SOL     OW24232   1.578   2.008   5.076  0.0346  0.1748 -0.4106
 4200SOL    HW124233   1.486   2.026   5.091 -0.3018 -0.2203 -2.0148
 4200SOL    HW224234   1.586   1.943   5.006 -2.9379  0.5220 -1.0656
 4201SOL     OW24235   2.351   2.479   8.906  0.6497 -0.3228  0.6247
 4201SOL    HW124236   2.277   2.420   8.920  0.5427 -0.0626  1.1432
 4201SOL    HW224237   2.316   2.545   8.846 -2.3235 -3.4467 -1.1282
 4202SOL     OW24238   1.163   4.194   3.531 -0.5240  0.2958 -0.4826
 4202SOL    HW124239   1.244   4.145   3.518  0.0839  1.2046 -0.1311
 4202SOL    HW224240   1.153   4.212   3.438  0.9379 -3.5021 -1.4000
 4203SOL     OW24241   2.001   0.636   8.218  0.4578  0.8775  0.0226
 4203SOL    HW124242   2.038   0.671   8.299  0.5685  0.5838  0.0980
 4203SOL    HW224243   1.912   0.671   8.217  0.2548  0.3064 -2.0331
 4204SOL     OW24244   2.990   1.974   3.957 -0.3489 -0.0617  0.5108
 4204SOL    HW124245   3.029   2.002   3.874 -0.7063 -0.1451  0.3151
 4204SOL    HW224246   2.927   2.040   3.982  1.7483  1.9977  0.3727
 4205SOL     OW24247   4.087   1.101   6.237  0.7251  0.0809  0.3442
 4205SOL    HW124248   4.149   1.068   6.172 -1.2000 -0.1665 -1.3701
 4205SOL    HW224249   4.144   1.115   6.312  2.4873  0.8870 -1.1363
 4206SOL     OW24250   4.421   3.771   5.006 -0.1518 -0.4486  0.6265
 4206SOL    HW124251   4.448   3.719   4.930 -1.9904 -0.7274  0.1800
 4206SOL    HW224252   4.502   3.822   5.018  1.5306 -2.9506 -0.0778
 4207SOL     OW24253   3.654   0.752   2.070 -0.1086  0.2004  0.3438
 4207SOL    HW124254   3.730   0.730   2.016  0.3181 -1.6491  1.6991
 4207SOL    HW224255   3.689   0.823   2.124 -0.0556  2.1727 -2.2588
 4208SOL     OW24256   3.314   3.212   3.282 -0.1187  0.7035  0.2554
 4208SOL    HW124257   3.355   3.268   3.216  0.3404 -1.3859 -1.2141
 4208SOL    HW224258   3.283   3.141   3.226 -2.0738  1.3655  0.4828
 4209SOL     OW24259   0.720   1.043   0.504  0.5022 -0.5626  0.0292
 4209SOL    HW124260   0.654   0.986   0.544  0.3720  1.5296  2.8166
 4209SOL    HW224261   0.686   1.058   0.416 -1.1760 -2.4490  0.3384
 4210SOL     OW24262   0.762   4.233   8.824  0.1016 -0.2943  0.3068
 4210SOL    HW124263   0.801   4.158   8.870 -0.3368 -0.4624  0.4063
 4210SOL    HW224264   0.798   4.306   8.875 -0.0943 -0.2535  0.3861
 4211SOL     OW24265   1.404   1.396   3.968 -0.2361  0.2453 -0.6098
 4211SOL    HW124266   1.314   1.428   3.969 -0.7448 -1.1359 -2.3945
 4211SOL    HW224267   1.429   1.462   3.904 -0.4268  0.5765 -0.3413
 4212SOL     OW24268   0.655   3.562  11.728 -0.1190 -0.0284  0.0300
 4212SOL    HW124269   0.723   3.619  11.763  0.0626  0.6441 -1.4470
 4212SOL    HW224270   0.621   3.621  11.662  0.5418 -0.2705 -0.5290
 4213SOL     OW24271   2.604   2.578  10.564 -0.3017  0.3883 -0.1553
 4213SOL    HW124272   2.680   2.574  10.505  0.6940  1.1939  1.0635
 4213SOL    HW224273   2.636   2.541  10.646 -2.0854  1.0492  0.8115
 4214SOL     OW24274   0.064   3.777   7.093  0.0009  0.1168 -0.1428
 4214SOL    HW124275   0.065   3.814   7.005 -1.2642  0.8294  0.1518
 4214SOL    HW224276   0.146   3.728   7.101  0.6283  1.2685  0.5583
 4215SOL     OW24277   3.491   2.560  12.520  0.2732  0.6645 -0.5404
 4215SOL    HW124278   3.528   2.490  12.466 -0.3659 -0.6635  0.7596
 4215SOL    HW224279   3.398   2.540  12.530  0.5839 -0.7878 -0.4919
 4216SOL     OW24280   4.133   4.667   2.324  0.1084  0.2797 -0.1355
 4216SOL    HW124281   4.096   4.616   2.252 -2.8604  1.1793  0.7537
 4216SOL    HW224282   4.126   0.022   2.291 -2.7615  1.2558  3.0189
 4217SOL     OW24283   3.042   3.580   6.235 -0.6382  0.2916 -0.2115
 4217SOL    HW124284   3.003   3.647   6.292  0.7210  1.6096 -0.8277
 4217SOL    HW224285   3.064   3.627   6.155 -0.4460  1.6364  0.6357
 4218SOL     OW24286   0.399   0.068   8.298 -0.0514 -0.2355  0.3922
 4218SOL    HW124287   0.483   0.029   8.321  0.9305  1.0627 -0.9937
 4218SOL    HW224288   0.429   0.137   8.240 -0.0365 -1.7376 -1.3924
 4219SOL     OW24289   3.442   1.317   8.720 -0.1626  0.3301 -0.6237
 4219SOL    HW124290   3.499   1.251   8.682  0.6649  1.0065 -0.5452
 4219SOL    HW224291   3.428   1.285   8.809  0.6093  1.5617 -0.0537
 4220SOL     OW24292   0.269   0.859   7.018  0.0535 -0.6158 -0.3417
 4220SOL    HW124293   0.209   0.896   7.083  0.8597 -3.3996  1.9612
 4220SOL    HW224294   0.328   0.934   7.004  0.7032 -1.1038 -0.1807
 4221SOL     OW24295   0.512   3.201   6.253  0.1046  0.0206 -0.1066
 4221SOL    HW124296   0.601   3.215   6.286  0.6343  0.6265 -1.8072
 4221SOL    HW224297   0.469   3.221   6.336 -1.7159  1.0860 -1.3228
 4222SOL     OW24298   1.878   1.346   3.854 -0.2120 -0.0718 -0.0233
 4222SOL    HW124299   1.788   1.316   3.870 -0.5662  2.0630  2.0151
 4222SOL    HW224300   1.906   1.359   3.945  0.0782 -5.0163  0.5778
 4223SOL     OW24301   0.457   2.474   7.529 -0.1004  0.2561  0.3080
 4223SOL    HW124302   0.511   2.511   7.598  0.0702  0.7169 -0.0677
 4223SOL    HW224303   0.434   2.392   7.572 -1.3569 -0.4399 -1.6367
 4224SOL     OW24304   1.491   0.602  15.817 -0.3655 -0.0816 -0.3823
 4224SOL    HW124305   1.572   0.582  15.770  0.6178  0.4312  1.1059
 4224SOL    HW224306   1.490   0.526  15.876 -0.8266  1.0297  1.0244
 4225SOL     OW24307   4.136   3.371   7.354 -0.4150 -0.1889  0.0199
 4225SOL    HW124308   4.178   3.304   7.299  1.0941 -0.0577  1.0253
 4225SOL    HW224309   4.061   3.321   7.387  0.2026  0.2529  2.0394
 4226SOL     OW24310   4.557   4.591  14.788  0.7554  0.3255 -0.0424
 4226SOL    HW124311   4.492   4.578  14.858 -0.4132 -0.7830 -1.3457
 4226SOL    HW224312   4.620   4.519  14.789 -1.1494 -1.3324 -1.5869
 4227SOL     OW24313   4.337   3.460   5.944  0.2244  0.1455 -0.3849
 4227SOL    HW124314   4.260   3.421   5.983 -0.2589  0.2957 -1.1913
 4227SOL    HW224315   4.381   3.486   6.025 -1.8450  2.6771 -0.0926
 4228SOL     OW24316   0.384   1.581   8.484  0.4115 -0.5376  0.2734
 4228SOL    HW124317   0.289   1.581   8.496  0.2467 -2.0039 -1.0091
 4228SOL    HW224318   0.391   1.671   8.451  0.7891 -1.1154 -1.2394
 4229SOL     OW24319   4.014   3.066   4.862 -0.1949  0.3644  0.1397
 4229SOL    HW124320   4.098   3.112   4.858  0.4052 -0.6138  1.2478
 4229SOL    HW224321   4.014   3.030   4.773 -1.9880  1.6457 -0.3755
 4230SOL     OW24322   3.367   2.505   5.562  0.1322  0.5778  0.8336
 4230SOL    HW124323   3.376   2.418   5.521 -0.2376  1.7377 -1.7025
 4230SOL    HW224324   3.349   2.481   5.653 -1.7610  0.1605  0.3581
 4231SOL     OW24325   0.784   1.269   9.098 -0.6671 -0.6197 -0.0394
 4231SOL    HW124326   0.818   1.183   9.071 -0.5891 -0.6056  0.0143
 4231SOL    HW224327   0.691   1.252   9.079 -1.8965  3.4424  2.5317
 4232SOL     OW24328   4.617   1.102   5.733 -0.8158 -0.0937 -0.8566
 4232SOL    HW124329   4.686   1.082   5.796 -0.2255 -0.3587 -1.5885
 4232SOL    HW224330   4.619   1.030   5.671  0.5086  0.1482 -1.0906
 4233SOL     OW24331   4.627   2.081   5.763 -0.3745 -0.2699  0.2809
 4233SOL    HW124332   4.574   2.100   5.840 -2.2371  0.4663 -1.1921
 4233SOL    HW224333   4.553   2.073   5.703 -0.1230 -0.3062 -0.0316
 4234SOL     OW24334   4.302   1.735  15.904  0.3705 -0.0607  0.0027
 4234SOL    HW124335   4.373   1.724  15.968 -1.3765 -0.6576  1.8128
 4234SOL    HW224336   4.347   1.788  15.838  1.7820  0.2025  1.1495
 4235SOL     OW24337   1.552   2.595   8.902 -0.2634 -0.0340  0.5652
 4235SOL    HW124338   1.474   2.544   8.921  1.4161 -1.5348  3.4644
 4235SOL    HW224339   1.548   2.655   8.976  1.7663 -1.1146  1.5693
 4236SOL     OW24340   2.019   0.288  10.714  0.0958 -0.4580  0.0516
 4236SOL    HW124341   1.989   0.349  10.646  3.8164  1.3385  0.0297
 4236SOL    HW224342   2.112   0.308  10.721 -0.2153 -0.5126  4.2692
 4237SOL     OW24343   1.727   0.461   9.129  0.5986 -0.2401  0.1195
 4237SOL    HW124344   1.746   0.548   9.093 -0.1736 -1.1701 -2.5736
 4237SOL    HW224345   1.728   0.477   9.223 -1.9609  0.3106  0.0645
 4238SOL     OW24346   1.467   3.651   3.526 -0.2295 -0.0892 -0.9087
 4238SOL    HW124347   1.497   3.663   3.616  1.1735  0.6541 -1.4659
 4238SOL    HW224348   1.532   3.584   3.503 -0.7597 -0.5902 -0.9655
 4239SOL     OW24349   3.242   3.725   4.486 -0.1448 -0.3125 -0.2163
 4239SOL    HW124350   3.171   3.771   4.531  0.4132 -0.6812  1.0466
 4239SOL    HW224351   3.226   3.632   4.501 -1.6619  0.4749  3.2294
 4240SOL     OW24352   0.781   4.290  16.310 -0.0226  0.0797 -0.1212
 4240SOL    HW124353   0.826   4.332  16.236  1.8950 -3.0823 -0.7452
 4240SOL    HW224354   0.756   4.364  16.365 -0.5330  0.0738 -0.3472
 4241SOL     OW24355   1.132   2.896   2.021  0.3543  0.2457  0.1494
 4241SOL    HW124356   1.114   2.922   1.930 -0.1816  0.1613  0.2338
 4241SOL    HW224357   1.084   2.967   2.062  0.1238  0.1161  0.1039
 4242SOL     OW24358   3.690   4.350   1.504 -0.7982 -0.0700 -0.1113
 4242SOL    HW124359   3.737   4.298   1.438  0.2469  0.2060  0.4251
 4242SOL    HW224360   3.759   4.354   1.570 -1.8187  1.3805  0.8406
 4243SOL     OW24361   0.569   0.534   1.894  1.0382  0.3022  0.2025
 4243SOL    HW124362   0.473   0.527   1.895  0.9987  0.9010  1.0479
 4243SOL    HW224363   0.603   0.458   1.940  1.6943  0.5329  0.1007
 4244SOL     OW24364   2.535   0.299   0.345  0.0845 -0.5373 -0.5422
 4244SOL    HW124365   2.597   0.265   0.410 -0.4591 -0.0120  0.2559
 4244SOL    HW224366   2.515   0.219   0.296 -1.9003  0.4772 -1.3767
 4245SOL     OW24367   4.593   0.618   9.357 -0.0975 -0.2022  0.4896
 4245SOL    HW124368   4.563   0.543   9.306  0.2524  0.0303 -0.0597
 4245SOL    HW224369   4.675   0.580   9.389 -0.1757 -0.8437 -0.0670
 4246SOL     OW24370   2.919   0.978   6.397 -0.1879  0.7452 -0.7006
 4246SOL    HW124371   2.840   1.008   6.352 -1.0831 -0.1814  0.2331
 4246SOL    HW224372   2.964   1.058   6.426  2.0719 -0.9908  0.5720
 4247SOL     OW24373   3.885   4.607  16.434  0.4020 -0.2566 -0.2066
 4247SOL    HW124374   3.941   4.681  16.456  1.1881 -0.9748  0.2081
 4247SOL    HW224375   3.940   4.541  16.392 -1.3206 -0.0257 -2.8840
 4248SOL     OW24376   1.958   3.860  11.478 -0.5172  0.6225  0.4903
 4248SOL    HW124377   2.031   3.917  11.453 -0.4521  1.1590  1.8868
 4248SOL    HW224378   1.994   3.774  11.500 -0.1994  0.3563 -1.0957
 4249SOL     OW24379   0.125   2.490   4.275  0.1630  0.0114  0.0528
 4249SOL    HW124380   0.198   2.428   4.274  0.7533  0.7023  0.5768
 4249SOL    HW224381   0.128   2.513   4.182 -0.6342  0.4717  0.1427
 4250SOL     OW24382   1.278   2.998  12.066  0.1966  0.0009 -0.3292
 4250SOL    HW124383   1.210   3.061  12.090 -0.7713 -0.7821 -1.0177
 4250SOL    HW224384   1.239   2.913  12.089  0.0183 -0.6563 -3.0411
 4251SOL     OW24385   2.691   0.387  16.435 -0.0830  0.4313  0.3853
 4251SOL    HW124386   2.764   0.365  16.493  1.6455  2.1581 -1.1241
 4251SOL    HW224387   2.719   0.347  16.353 -2.8259 -0.4164 -0.1481
 4252SOL     OW24388   0.666   3.091   8.073 -0.9526 -0.4475  0.2962
 4252SOL    HW124389   0.585   3.141   8.082 -2.1375 -1.8554 -2.5729
 4252SOL    HW224390   0.713   3.107   8.155  2.4431 -0.8794 -1.5628
 4253SOL     OW24391   1.887   4.055   5.797 -0.3691 -0.3243 -0.0742
 4253SOL    HW124392   1.934   4.057   5.714 -0.6111 -1.8904 -0.2584
 4253SOL    HW224393   1.959   4.062   5.859 -0.2044 -1.2577 -0.1591
 4254SOL     OW24394   3.867   2.693   3.589  0.0296  0.4443 -0.0460
 4254SOL    HW124395   3.913   2.662   3.511 -1.9440 -1.8983 -0.2876
 4254SOL    HW224396   3.785   2.643   3.588 -0.3983  1.1522  0.1797
 4255SOL     OW24397   0.674   1.106   3.674 -0.0027  0.0517 -0.8012
 4255SOL    HW124398   0.585   1.116   3.641 -0.7123 -0.2951  0.9693
 4255SOL    HW224399   0.719   1.166   3.615  2.0432 -1.5508 -0.8641
 4256SOL     OW24400   0.303   2.032   2.696 -0.3213  0.6271  0.3697
 4256SOL    HW124401   0.278   2.007   2.607  1.5884  0.2457 -0.0452
 4256SOL    HW224402   0.214   2.049   2.729 -0.3281 -1.5206  1.4674
 4257SOL     OW24403   3.915   1.549  17.607  0.1016 -0.1007 -0.2063
 4257SOL    HW124404   3.968   1.588  17.538 -2.6848 -2.0686 -3.4538
 4257SOL    HW224405   3.844   1.502  17.563 -0.2959 -0.3794  0.7240
 4258SOL     OW24406   0.485   0.583  17.676  0.1979 -0.0841  0.4492
 4258SOL    HW124407   0.502   0.535  17.594  1.2566  2.3592 -0.7681
 4258SOL    HW224408   0.576   0.602  17.699  0.2011  1.1977 -0.6001
 4259SOL     OW24409   0.529   1.851   6.036 -0.2887 -0.6813 -0.9732
 4259SOL    HW124410   0.454   1.794   6.047 -1.1969  0.8278  0.6020
 4259SOL    HW224411   0.492   1.938   6.022 -0.7262 -0.5479  1.0810
 4260SOL     OW24412   2.466   1.940   3.541  0.5513  0.9374  0.5229
 4260SOL    HW124413   2.553   1.944   3.502 -0.7034 -0.4331 -2.4724
 4260SOL    HW224414   2.465   1.845   3.550 -1.1328  0.7166 -1.9337
 4261SOL     OW24415   2.153   1.510   6.387  0.1913  0.1357 -0.2029
 4261SOL    HW124416   2.091   1.481   6.320  0.9264  0.2600 -0.9471
 4261SOL    HW224417   2.098   1.567   6.441  1.9203  3.1092 -1.5830
 4262SOL     OW24418   2.517   4.255  11.395 -0.0557 -0.1111 -0.0555
 4262SOL    HW124419   2.508   4.159  11.391  0.2704 -0.0875 -1.2196
 4262SOL    HW224420   2.541   4.271  11.486 -3.5702 -1.4721  1.1119
 4263SOL     OW24421   0.701   0.608   3.039  0.1773  0.0503  0.7555
 4263SOL    HW124422   0.762   0.668   2.996  0.7425 -0.6384  0.6069
 4263SOL    HW224423   0.648   0.572   2.968  2.1881  0.6048 -1.0122
 4264SOL     OW24424   4.686   0.663   1.262  0.0232 -0.1682 -0.5292
 4264SOL    HW124425   4.646   0.750   1.258  0.5609  0.1167  0.1381
 4264SOL    HW224426   4.665   0.630   1.175  0.5020 -0.2298 -0.6229
 4265SOL     OW24427   4.263   2.279   3.851  0.5977  0.4819  0.1050
 4265SOL    HW124428   4.174   2.289   3.883  0.2662  1.6768 -1.2359
 4265SOL    HW224429   4.269   2.355   3.794  0.9218  1.2367  1.1324
 4266SOL     OW24430   1.512   1.190   7.537 -0.1440 -0.1785  0.2198
 4266SOL    HW124431   1.575   1.223   7.601 -1.8628  0.3401  1.6774
 4266SOL    HW224432   1.539   1.099   7.526 -1.1864 -0.3872 -0.6795
 4267SOL     OW24433   3.187   4.200   9.056 -0.0792  0.9289 -0.0711
 4267SOL    HW124434   3.214   4.267   9.118 -3.0845  1.1463  1.0103
 4267SOL    HW224435   3.253   4.133   9.074 -0.0180  1.2266  0.7965
 4268SOL     OW24436   4.464   1.544  16.033 -0.4929 -0.0850 -0.0901
 4268SOL    HW124437   4.502   1.554  15.946 -3.3443 -2.1780 -1.5911
 4268SOL    HW224438   4.415   1.462  16.025 -1.9997  0.7119  0.9885
 4269SOL     OW24439   0.020   4.441   3.663  0.2200  0.5188  0.0501
 4269SOL    HW124440   0.108   4.425   3.631  0.8456 -0.1848  2.1455
 4269SOL    HW224441   0.038   4.462   3.755 -0.3471 -1.5019  0.6423
 4270SOL     OW24442   0.259   4.161  13.377  0.3648  0.0311  1.0424
 4270SOL    HW124443   0.238   4.198  13.463 -2.3532  0.1365  0.3532
 4270SOL    HW224444   0.288   4.239  13.330 -1.3107  0.3983  0.6069
 4271SOL     OW24445   4.545   2.353   2.484 -0.0665  0.2808 -0.1248
 4271SOL    HW124446   4.514   2.385   2.568  1.5789  4.8025 -1.1909
 4271SOL    HW224447   4.464   2.348   2.433 -0.4864 -1.1295  0.6921
 4272SOL     OW24448   4.258   1.758  15.601 -0.1357 -0.1133  0.0534
 4272SOL    HW124449   4.162   1.758  15.603 -0.1201  1.5101  1.1027
 4272SOL    HW224450   4.281   1.668  15.579 -0.9035 -0.4468  0.5904
 4273SOL     OW24451   3.344   3.209   1.794 -0.3393  0.1967  0.2120
 4273SOL    HW124452   3.261   3.202   1.746 -0.0514  2.8404 -0.6829
 4273SOL    HW224453   3.375   3.291   1.756  0.2388  0.8220  2.0216
 4274SOL     OW24454   0.637   0.679  14.645  0.1334  0.5543 -0.6484
 4274SOL    HW124455   0.644   0.664  14.740 -0.9578 -1.0517 -0.8350
 4274SOL    HW224456   0.568   0.745  14.639  0.3975  1.2525  3.7706
 4275SOL     OW24457   4.182   1.720  17.715  0.0182 -0.1670 -0.1666
 4275SOL    HW124458   4.159   1.679   0.061  0.6435 -1.0295 -0.4179
 4275SOL    HW224459   4.093   1.722  17.679 -0.2115  0.5844  0.4339
 4276SOL     OW24460   4.664   0.914  11.055 -0.5297  0.3138  0.7135
 4276SOL    HW124461   4.704   0.976  11.117  1.1244  0.3590 -0.3914
 4276SOL    HW224462   4.653   0.983  10.989  2.3734 -0.8746 -1.0060
 4277SOL     OW24463   0.411   3.223   7.268 -0.2512 -0.0500  0.1589
 4277SOL    HW124464   0.493   3.260   7.236  0.1553 -0.6791  0.4849
 4277SOL    HW224465   0.438   3.220   7.360  0.9000  0.0297 -0.1768
 4278SOL     OW24466   2.687   2.531   5.480 -0.2427  0.2608  0.0151
 4278SOL    HW124467   2.595   2.530   5.451  0.0230 -3.1643 -0.6543
 4278SOL    HW224468   2.702   2.620   5.513 -0.0606 -0.8921  2.9804
 4279SOL     OW24469   1.144   4.506   6.013  0.1567  0.0987  0.8254
 4279SOL    HW124470   1.191   4.423   6.016  0.7077  0.3733 -0.5595
 4279SOL    HW224471   1.216   4.568   6.004 -1.1892  1.6836  1.0284
 4280SOL     OW24472   3.359   0.286   4.712  0.2448 -0.3571  0.2264
 4280SOL    HW124473   3.437   0.261   4.762 -0.4857  2.2433  2.6636
 4280SOL    HW224474   3.329   0.209   4.665 -0.7749 -0.0541  0.3855
 4281SOL     OW24475   4.581   0.337   0.732 -0.0055  0.7366  0.9678
 4281SOL    HW124476   4.603   0.419   0.689 -1.3743 -0.8158 -2.7184
 4281SOL    HW224477   4.508   0.355   0.791 -2.2375  1.5080 -2.0786
 4282SOL     OW24478   4.264   4.277   1.640  0.3817 -0.3353  0.0716
 4282SOL    HW124479   4.259   4.181   1.640  0.3871 -0.3357  0.1164
 4282SOL    HW224480   4.358   4.277   1.660  0.5667 -2.5062 -0.8278
 4283SOL     OW24481   3.225   4.035   2.112  0.0554 -0.4551 -0.4489
 4283SOL    HW124482   3.276   4.012   2.191 -0.6042 -1.6325 -0.3627
 4283SOL    HW224483   3.252   4.122   2.082 -0.5371  0.5178  1.8426
 4284SOL     OW24484   2.845   3.196  15.509  0.1570 -0.4221  0.0791
 4284SOL    HW124485   2.836   3.236  15.422 -0.1488  0.0718  0.3409
 4284SOL    HW224486   2.758   3.159  15.524 -0.1514 -0.0065 -0.6638
 4285SOL     OW24487   2.922   1.046   7.448  0.2493  0.3416 -0.0489
 4285SOL    HW124488   2.960   1.044   7.536 -1.9095 -1.3750  0.8576
 4285SOL    HW224489   2.829   1.051   7.472  0.2904 -1.0740  0.4405
 4286SOL     OW24490   1.053   3.514   8.550  0.2029  0.1093 -0.2391
 4286SOL    HW124491   1.113   3.525   8.476  0.2530 -1.6652 -0.4460
 4286SOL    HW224492   1.077   3.590   8.603  2.4435 -0.5409 -0.3357
 4287SOL     OW24493   3.972   1.103   4.952  0.4855 -0.8174  0.4876
 4287SOL    HW124494   3.955   1.075   4.862 -1.5800 -1.1605  0.9956
 4287SOL    HW224495   3.995   1.194   4.935 -2.2939 -0.0701  0.8512
 4288SOL     OW24496   3.672   0.626  15.708 -0.0807 -0.4788  0.3447
 4288SOL    HW124497   3.747   0.573  15.681  0.9334  1.0569  0.1143
 4288SOL    HW224498   3.710   0.680  15.778  1.1917  1.6325 -1.9902
 4289SOL     OW24499   3.434   3.496  11.544  0.4679  0.5934 -0.6407
 4289SOL    HW124500   3.398   3.472  11.630  1.7668 -1.0128 -0.5444
 4289SOL    HW224501   3.494   3.568  11.565  0.1050  0.9506 -0.8334
 4290SOL     OW24502   0.761   0.202   1.506  0.5562  0.6968 -0.4333
 4290SOL    HW124503   0.783   0.233   1.593  1.6625  1.0597 -0.8438
 4290SOL    HW224504   0.761   0.278   1.448 -0.5329  0.9433 -0.1143
 4291SOL     OW24505   3.855   4.039   4.320 -0.0740 -0.1285  0.0879
 4291SOL    HW124506   3.950   4.025   4.330  0.0724 -1.5884 -3.2890
 4291SOL    HW224507   3.819   4.021   4.406  0.6648  0.5425  0.5387
 4292SOL     OW24508   4.633   0.096   2.321 -0.0707 -0.6496  0.4717
 4292SOL    HW124509   4.657   0.081   2.230 -0.4980 -1.2672  0.4637
 4292SOL    HW224510   4.549   0.050   2.320  0.4460 -1.5322 -0.9456
 4293SOL     OW24511   2.487   3.434   2.184 -0.5566 -0.1738 -0.1711
 4293SOL    HW124512   2.460   3.524   2.166  1.9774  1.0093  1.9090
 4293SOL    HW224513   2.582   3.428   2.170 -0.6825 -0.4022 -0.9642
 4294SOL     OW24514   4.430   3.882  12.614 -0.0480  0.0642 -0.2216
 4294SOL    HW124515   4.493   3.873  12.686  0.3189  2.0460 -0.2767
 4294SOL    HW224516   4.460   3.963  12.573 -1.1921  1.0467  0.8854
 4295SOL     OW24517   1.191   1.440   4.166  0.0849  0.1597 -0.2130
 4295SOL    HW124518   1.101   1.453   4.136 -0.6075 -1.7500  1.0128
 4295SOL    HW224519   1.220   1.522   4.125  1.0800 -0.5983 -1.0117
 4296SOL     OW24520   2.717   3.160   6.954 -0.0803  0.0355  0.6684
 4296SOL    HW124521   2.700   3.229   6.889 -1.7397 -0.7007  0.3002
 4296SOL    HW224522   2.715   3.080   6.902 -0.8116 -0.8257  2.0378
 4297SOL     OW24523   3.069   1.729  17.074  0.1834  0.3991  0.3941
 4297SOL    HW124524   3.013   1.796  17.036 -0.3749  0.7105  1.7595
 4297SOL    HW224525   3.104   1.781  17.146 -0.5022  0.4299  0.7043
 4298SOL     OW24526   0.089   0.237  15.391  0.1957  0.0751 -0.4739
 4298SOL    HW124527   0.176   0.226  15.430  0.0058  0.0824 -0.0434
 4298SOL    HW224528   0.054   0.299  15.455 -1.2909 -0.4039 -0.8193
 4299SOL     OW24529   3.658   3.334   6.590  0.1419 -0.1266 -0.2219
 4299SOL    HW124530   3.668   3.244   6.560  0.2570 -0.7624  1.6981
 4299SOL    HW224531   3.581   3.324   6.645 -1.1113 -2.5883 -2.4523
 4300SOL     OW24532   0.025   0.580   0.293  0.5012 -0.0712  0.1746
 4300SOL    HW124533   0.005   0.541   0.208 -0.5189 -1.7299  1.1763
 4300SOL    HW224534   0.089   0.513   0.317 -0.3185 -1.8224 -2.5863
 4301SOL     OW24535   1.418   3.457  16.472 -0.5464 -0.4389  0.6251
 4301SOL    HW124536   1.439   3.428  16.560 -1.2059 -0.2611  0.8375
 4301SOL    HW224537   1.332   3.497  16.485  0.9112  2.5209  1.3293
 4302SOL     OW24538   3.790   0.653   3.383  0.0458  0.3084 -0.4248
 4302SOL    HW124539   3.809   0.643   3.476 -2.3224 -2.3985 -0.2277
 4302SOL    HW224540   3.787   0.564   3.346  0.6194  0.8290 -1.7599
 4303SOL     OW24541   1.809   3.440  10.082 -0.1961  0.4712 -0.4216
 4303SOL    HW124542   1.801   3.361  10.030  1.3144  0.5961 -0.8504
 4303SOL    HW224543   1.733   3.424  10.138  1.2919  0.9005  1.7535
 4304SOL     OW24544   1.314   2.030   5.100  0.4438 -0.3462  0.1530
 4304SOL    HW124545   1.280   2.097   5.158 -2.2241 -2.3247  0.8590
 4304SOL    HW224546   1.232   1.983   5.085  0.2587 -0.2569  0.8846
 4305SOL     OW24547   0.980   1.426   5.558 -0.5033  0.3817 -0.3257
 4305SOL    HW124548   1.004   1.495   5.495  0.3768 -0.1548 -0.5709
 4305SOL    HW224549   0.966   1.483   5.634 -3.1212 -1.0124  0.2350
 4306SOL     OW24550   3.364   1.898   4.597 -0.0201  0.2841  0.3545
 4306SOL    HW124551   3.349   1.809   4.564  0.4096  0.4288 -0.2253
 4306SOL    HW224552   3.434   1.886   4.661  0.4560 -1.0368 -0.4179
 4307SOL     OW24553   4.446   1.904   1.013  0.6585  0.2829  0.1743
 4307SOL    HW124554   4.437   1.977   0.951 -0.1018  0.0009 -0.0424
 4307SOL    HW224555   4.482   1.837   0.956  0.4211  0.5194 -0.2555
 4308SOL     OW24556   2.260   3.560   4.370 -0.0577 -0.0911 -0.5445
 4308SOL    HW124557   2.200   3.634   4.374 -2.2079 -1.7260 -2.1995
 4308SOL    HW224558   2.242   3.535   4.279 -0.2197 -0.5749 -0.3783
 4309SOL     OW24559   2.752   3.468   2.141  0.0268  0.1399  0.7935
 4309SOL    HW124560   2.778   3.560   2.147 -0.4282  0.4751 -2.2892
 4309SOL    HW224561   2.829   3.417   2.165 -0.4415 -0.1140  1.7854
 4310SOL     OW24562   1.006   2.516   7.001 -0.5311  0.4954  0.5455
 4310SOL    HW124563   1.082   2.482   6.953  0.4843  1.9283  1.1286
 4310SOL    HW224564   1.028   2.608   7.018  0.6801  0.8847 -3.2148
 4311SOL     OW24565   0.717   4.327  15.076 -0.0788 -0.9633  0.3741
 4311SOL    HW124566   0.758   4.250  15.036  0.8017 -0.5392  0.4687
 4311SOL    HW224567   0.638   4.333  15.022  0.8599 -0.9377 -0.9999
 4312SOL     OW24568   1.330   2.074   3.031 -0.3294 -0.1414 -0.0443
 4312SOL    HW124569   1.423   2.054   3.018 -0.2594  2.3959 -3.2619
 4312SOL    HW224570   1.297   2.001   3.084 -0.0673 -1.0997 -1.2130
 4313SOL     OW24571   1.101   2.943   6.577  0.1778  0.0889 -0.4504
 4313SOL    HW124572   1.009   2.924   6.555  0.0322 -0.3963  0.5825
 4313SOL    HW224573   1.149   2.924   6.496  0.3889  0.4495 -0.4095
 4314SOL     OW24574   4.575   3.823  12.323  0.5735  0.1967 -0.0750
 4314SOL    HW124575   4.585   3.917  12.314  0.5827  0.3090  1.1360
 4314SOL    HW224576   4.588   3.791  12.233  0.9041  0.1422 -0.0082
 4315SOL     OW24577   3.925   1.084   7.743 -0.4375 -0.1336 -1.0326
 4315SOL    HW124578   3.947   0.991   7.747  0.6364  0.0343 -3.3081
 4315SOL    HW224579   4.003   1.117   7.698  1.4600 -0.4057  2.0240
 4316SOL     OW24580   2.473   4.532  10.196 -0.1800  0.6395 -0.4199
 4316SOL    HW124581   2.554   4.559  10.239  0.0731  1.1551 -1.2091
 4316SOL    HW224582   2.423   4.530  10.277  0.6006 -0.7821  0.0277
 4317SOL     OW24583   2.683   2.013   7.950 -0.1626  0.0356  0.1621
 4317SOL    HW124584   2.764   1.994   7.903  0.4142 -1.0984  1.6308
 4317SOL    HW224585   2.674   1.936   8.006 -0.4759 -0.9703 -1.2825
 4318SOL     OW24586   4.683   3.768   3.892  0.0658  0.3284 -0.3545
 4318SOL    HW124587   4.679   3.700   3.959  1.3277  1.3854  0.7898
 4318SOL    HW224588   4.690   3.715   3.812  0.0415  1.3307 -1.0303
 4319SOL     OW24589   0.863   3.435  16.930  0.1603  0.4697 -0.8313
 4319SOL    HW124590   0.818   3.369  16.876  0.4540 -0.1337 -0.3324
 4319SOL    HW224591   0.950   3.406  16.956 -1.0737 -0.9507  1.7305
 4320SOL     OW24592   0.570   3.780   4.972 -0.1357 -0.0001  0.3307
 4320SOL    HW124593   0.621   3.845   4.925 -1.7459  0.1281 -1.2612
 4320SOL    HW224594   0.590   3.713   4.906  0.7187  3.0527 -2.4848
 4321SOL     OW24595   3.878   3.417   9.536 -0.3314  0.2369  0.1437
 4321SOL    HW124596   3.871   3.340   9.480  1.0328 -0.3226  0.7398
 4321SOL    HW224597   3.959   3.397   9.583  0.2454  1.5554 -0.2878
 4322SOL     OW24598   4.534   0.958  14.556 -0.1054 -0.1175  0.2836
 4322SOL    HW124599   4.503   0.986  14.470  2.1118  0.5619 -0.2975
 4322SOL    HW224600   4.504   0.867  14.562 -2.6572  0.6441 -1.0743
 4323SOL     OW24601   2.060   0.063  16.113  0.1752  0.4147 -1.4326
 4323SOL    HW124602   2.090   0.133  16.172  0.3196  0.9392 -2.1254
 4323SOL    HW224603   2.036   4.727  16.173 -1.3057  0.9825 -1.3441
 4324SOL     OW24604   1.839   0.575  11.205  0.1759  0.3475 -0.1728
 4324SOL    HW124605   1.818   0.620  11.124 -3.0249 -1.6231 -0.4745
 4324SOL    HW224606   1.901   0.638  11.242  0.8615  0.4138 -1.4658
 4325SOL     OW24607   2.943   3.326   6.127 -0.0951 -0.0090 -0.6266
 4325SOL    HW124608   3.016   3.385   6.143  1.5522 -1.6929 -1.8704
 4325SOL    HW224609   2.978   3.245   6.164 -2.3058 -1.0372 -0.7676
 4326SOL     OW24610   0.359   0.133   6.566  0.4953 -0.2855  0.0919
 4326SOL    HW124611   0.335   0.052   6.611  0.6308 -0.1929  0.3327
 4326SOL    HW224612   0.308   0.194   6.620  0.3622 -1.4022  1.2308
 4327SOL     OW24613   3.871   3.111   7.175  0.2467  0.2713 -0.2170
 4327SOL    HW124614   3.778   3.102   7.196  0.4587  0.2510  0.6862
 4327SOL    HW224615   3.872   3.188   7.118 -0.9899  0.1562 -0.3941
 4328SOL     OW24616   2.236   1.744   3.063 -0.2336 -0.2875  0.2368
 4328SOL    HW124617   2.187   1.755   2.982 -0.6986  0.5279  0.6364
 4328SOL    HW224618   2.176   1.690   3.115  0.5227  0.8785  2.3110
 4329SOL     OW24619   3.063   2.327   6.396 -0.4321  0.0219  0.5427
 4329SOL    HW124620   3.054   2.419   6.371  2.2780  0.3887  0.8966
 4329SOL    HW224621   3.028   2.297   6.313 -1.3583 -3.0075  2.0198
 4330SOL     OW24622   0.404   2.441  10.562  0.0980 -0.2278  0.1800
 4330SOL    HW124623   0.494   2.440  10.530  0.0161 -1.9831  0.0182
 4330SOL    HW224624   0.423   2.405  10.649 -0.7786  1.6492  1.1550
 4331SOL     OW24625   3.430   2.835   3.351 -0.1577 -0.3331 -0.1231
 4331SOL    HW124626   3.450   2.751   3.392  0.3314 -0.3357 -0.3687
 4331SOL    HW224627   3.340   2.817   3.325  0.3175 -2.2085 -0.4519
 4332SOL     OW24628   1.243   4.061   6.629 -0.0544  0.2459 -0.1056
 4332SOL    HW124629   1.201   4.040   6.546  0.3576  1.2378 -0.5596
 4332SOL    HW224630   1.335   4.039   6.616  0.0687  1.1409 -0.7125
 4333SOL     OW24631   0.930   0.791  13.278  0.1034 -0.1621 -0.2122
 4333SOL    HW124632   0.856   0.846  13.306  0.1606  0.3395 -1.0463
 4333SOL    HW224633   0.881   0.753  13.205  0.7839 -1.8528  0.2126
 4334SOL     OW24634   0.589   3.359  17.639 -0.0004  0.4732 -0.3262
 4334SOL    HW124635   0.531   3.412  17.584  1.0921  0.3818 -1.5578
 4334SOL    HW224636   0.537   3.280  17.651  1.0726 -0.0090  1.1216
 4335SOL     OW24637   1.990   0.070   2.605 -0.2209 -0.3310  0.2234
 4335SOL    HW124638   2.005   0.056   2.512 -0.4955  0.1371  0.1123
 4335SOL    HW224639   1.894   0.072   2.607 -0.1718  1.4864  0.8248
 4336SOL     OW24640   1.516   0.064   3.647  0.0639  0.2934  0.4375
 4336SOL    HW124641   1.524   0.045   3.741 -1.7399  1.5727  0.8639
 4336SOL    HW224642   1.524   0.159   3.660  2.0019  0.3934 -1.4639
 4337SOL     OW24643   2.288   1.952   4.986  0.1304  0.7374  0.8932
 4337SOL    HW124644   2.341   2.009   4.931  0.1217 -0.3820 -0.2784
 4337SOL    HW224645   2.239   2.009   5.044  0.2284  0.8851  0.8304
 4338SOL     OW24646   1.327   1.030   0.600 -0.1678  0.0486 -0.0277
 4338SOL    HW124647   1.420   1.046   0.618 -0.4372  0.6766  0.8413
 4338SOL    HW224648   1.324   1.077   0.516  3.2314 -1.7022 -1.1231
 4339SOL     OW24649   0.307   2.872   9.616  0.0093 -0.1549  0.4055
 4339SOL    HW124650   0.252   2.797   9.595 -1.0098  0.4703  0.8514
 4339SOL    HW224651   0.283   2.894   9.706 -2.1603  0.5041 -0.3350
 4340SOL     OW24652   2.342   4.226   8.482  0.1238 -0.1200  0.2940
 4340SOL    HW124653   2.353   4.181   8.566 -1.7736  0.7953  1.0310
 4340SOL    HW224654   2.342   4.316   8.513  0.1554 -0.3128  0.8561
 4341SOL     OW24655   1.226   3.252  13.413  0.6414 -0.3464  0.1357
 4341SOL    HW124656   1.279   3.260  13.334  0.9760  0.0642  0.3950
 4341SOL    HW224657   1.224   3.157  13.420  1.0283 -0.2670  1.3562
 4342SOL     OW24658   2.841   2.268   6.184  0.5890 -0.8154  0.1393
 4342SOL    HW124659   2.796   2.350   6.169  1.5272 -0.2452  0.4133
 4342SOL    HW224660   2.775   2.206   6.214  0.0329 -0.2299  0.1057
 4343SOL     OW24661   1.193   0.647  13.725  0.3805  0.0638 -0.1902
 4343SOL    HW124662   1.260   0.643  13.657  1.3413 -0.6746  0.7867
 4343SOL    HW224663   1.225   0.598  13.801 -2.1173 -0.4873  0.5211
 4344SOL     OW24664   1.340   2.212   8.693 -0.3498  0.6522  0.6043
 4344SOL    HW124665   1.342   2.271   8.618  0.2072 -1.4217 -0.9866
 4344SOL    HW224666   1.412   2.242   8.749 -1.1013  0.9442  1.4298
 4345SOL     OW24667   2.051   0.550   7.503 -0.5042 -0.1055  0.0807
 4345SOL    HW124668   2.029   0.504   7.423  0.6678  2.9772 -2.0236
 4345SOL    HW224669   1.983   0.518   7.563 -0.3511  0.7664  0.7327
 4346SOL     OW24670   3.044   0.676   6.918 -0.1016  0.4935  0.6874
 4346SOL    HW124671   3.044   0.771   6.930  0.4319  0.9773 -3.0511
 4346SOL    HW224672   2.968   0.666   6.861  0.1124  3.3378 -0.0971
 4347SOL     OW24673   2.969   4.191   2.236 -1.0974  0.0883  0.4169
 4347SOL    HW124674   2.887   4.238   2.221 -0.9578 -0.8533 -3.2420
 4347SOL    HW224675   3.027   4.251   2.283  1.8714 -2.5396  0.1311
 4348SOL     OW24676   1.993   3.239   2.316 -0.6417  0.0467 -0.2909
 4348SOL    HW124677   2.084   3.264   2.304 -0.3387 -0.3660  1.1019
 4348SOL    HW224678   1.949   3.309   2.268 -2.4849 -0.4636  0.6671
 4349SOL     OW24679   0.044   1.751   0.126  0.1929 -0.3488  0.5735
 4349SOL    HW124680   4.704   1.693   0.109 -1.5679  1.7086  1.3894
 4349SOL    HW224681   0.035   1.775   0.219  0.2932 -2.3296  1.0989
 4350SOL     OW24682   3.035   2.640   5.558  0.3121 -0.4963  0.3972
 4350SOL    HW124683   3.020   2.676   5.471 -0.0092  1.5870  1.3221
 4350SOL    HW224684   3.084   2.562   5.531  1.4467  0.3534  0.0060
 4351SOL     OW24685   3.842   4.559   8.452  0.1606  0.1891 -0.3771
 4351SOL    HW124686   3.901   4.522   8.518 -0.2573  0.0369 -0.0882
 4351SOL    HW224687   3.772   4.597   8.504 -0.6819  0.1777 -1.4939
 4352SOL     OW24688   1.466   1.184   2.575  0.7607 -0.0462 -0.2951
 4352SOL    HW124689   1.519   1.247   2.625 -0.9099 -1.0159  2.7402
 4352SOL    HW224690   1.487   1.099   2.614 -1.3061 -0.7941 -0.8690
 4353SOL     OW24691   4.018   2.593   6.452 -0.3025 -0.4999  0.1153
 4353SOL    HW124692   4.079   2.519   6.456  0.3945  0.0495 -0.5525
 4353SOL    HW224693   4.010   2.605   6.358 -0.4848  0.4981  0.2647
 4354SOL     OW24694   1.873   1.042   8.739 -0.0857 -1.2694  0.6714
 4354SOL    HW124695   1.882   0.961   8.689 -0.6289 -0.2605 -1.0644
 4354SOL    HW224696   1.784   1.038   8.774  0.2550 -1.2977  1.5397
 4355SOL     OW24697   0.290   0.363  11.088 -0.1465  0.2719 -0.1518
 4355SOL    HW124698   0.231   0.427  11.127  0.6617  1.1444 -0.3783
 4355SOL    HW224699   0.348   0.413  11.032  0.8002  0.1268  0.6963
 4356SOL     OW24700   2.398   0.670   8.130 -0.1467 -0.1300 -0.6557
 4356SOL    HW124701   2.389   0.762   8.157 -1.1747 -0.3616 -0.2219
 4356SOL    HW224702   2.479   0.648   8.175 -0.7904  0.0955  0.6027
 4357SOL     OW24703   0.189   3.612   9.693 -0.1816  0.1058 -0.0087
 4357SOL    HW124704   0.274   3.622   9.650  0.0194  2.5474  0.9280
 4357SOL    HW224705   0.154   3.530   9.660  1.0787  0.1192 -1.3909
 4358SOL     OW24706   0.681   2.626  15.612 -0.1062 -0.7486 -0.6563
 4358SOL    HW124707   0.595   2.669  15.617  0.2652 -0.0729 -0.0547
 4358SOL    HW224708   0.717   2.668  15.534 -0.6493  0.2675 -0.3562
 4359SOL     OW24709   0.743   4.106   4.970 -0.5017 -0.0410  0.2372
 4359SOL    HW124710   0.770   4.181   4.918  1.4094 -0.5965  0.4317
 4359SOL    HW224711   0.658   4.139   4.998 -1.0853  0.3229 -1.9986
 4360SOL     OW24712   3.200   0.428   4.098  0.6637 -0.5026 -0.1318
 4360SOL    HW124713   3.272   0.480   4.061  0.8573  1.8355  3.5758
 4360SOL    HW224714   3.213   0.339   4.066  1.0911 -1.0732  1.6174
 4361SOL     OW24715   4.365   2.582   4.306 -0.0889  0.2741 -0.2733
 4361SOL    HW124716   4.445   2.561   4.355  0.8032 -1.7340 -2.6322
 4361SOL    HW224717   4.314   2.502   4.318 -0.4168  0.8446  2.1261
 4362SOL     OW24718   4.337   4.151  16.138  0.5021 -0.2977  0.1476
 4362SOL    HW124719   4.254   4.123  16.176  0.4391 -0.1473  0.1183
 4362SOL    HW224720   4.332   4.245  16.120 -0.9805 -0.4424 -0.1873
 4363SOL     OW24721   4.355   3.961   6.376  0.0296 -0.2333  0.1830
 4363SOL    HW124722   4.283   3.898   6.387  1.6730 -1.9400  1.1809
 4363SOL    HW224723   4.395   3.961   6.462  0.8488 -1.0881 -0.1938
 4364SOL     OW24724   3.260   3.787   8.995 -0.2799  0.1626 -0.1968
 4364SOL    HW124725   3.314   3.844   9.051  0.0451 -0.8695  0.5318
 4364SOL    HW224726   3.314   3.789   8.916  1.9938  1.9520  1.3817
 4365SOL     OW24727   0.707   3.148   7.639  0.0401 -0.0421 -0.2451
 4365SOL    HW124728   0.718   3.062   7.680  0.3846 -0.8757 -2.0638
 4365SOL    HW224729   0.798   3.178   7.640  0.4048 -1.0374 -1.9946
 4366SOL     OW24730   2.225   3.368   5.527 -0.0330 -0.3023 -0.3234
 4366SOL    HW124731   2.272   3.357   5.610 -2.3939 -1.9334  0.7965
 4366SOL    HW224732   2.292   3.329   5.471  0.1318  1.7115 -1.5489
 4367SOL     OW24733   0.406   0.166   2.917  0.4323  0.3519 -0.0406
 4367SOL    HW124734   0.323   0.138   2.957  1.1508 -0.8656  0.5778
 4367SOL    HW224735   0.385   0.177   2.824  3.6277  1.3546 -0.6210
 4368SOL     OW24736   1.470   2.473   8.640  0.2496  0.1719  0.2126
 4368SOL    HW124737   1.542   2.499   8.582 -1.0999 -0.1123 -1.5529
 4368SOL    HW224738   1.510   2.500   8.723 -0.7100  1.4846  0.2537
 4369SOL     OW24739   4.283   3.906  17.327  0.3840 -0.2413 -0.2432
 4369SOL    HW124740   4.358   3.863  17.368 -0.2302 -0.8769  0.2141
 4369SOL    HW224741   4.270   3.987  17.376  2.2455  0.7574 -1.4153
 4370SOL     OW24742   0.516   0.699   4.276  0.7139 -0.0941 -0.5902
 4370SOL    HW124743   0.544   0.717   4.186  1.2089  1.0171 -0.2100
 4370SOL    HW224744   0.486   0.608   4.274  0.9137 -0.1233 -2.2438
 4371SOL     OW24745   3.020   3.294   8.440 -0.3258  0.4184  0.1927
 4371SOL    HW124746   3.026   3.210   8.393  0.6110  0.5693  0.0560
 4371SOL    HW224747   3.111   3.303   8.467 -0.9930  0.5561  2.4038
 4372SOL     OW24748   0.656   1.163   1.506 -0.4740 -0.2842  0.0742
 4372SOL    HW124749   0.687   1.080   1.544 -1.0541  0.2418  1.6907
 4372SOL    HW224750   0.711   1.230   1.545  0.7231 -0.7634 -0.7767
 4373SOL     OW24751   1.234   0.545   3.489  0.3454  0.4358 -0.2469
 4373SOL    HW124752   1.160   0.580   3.439 -2.1695 -1.8850  1.8585
 4373SOL    HW224753   1.301   0.595   3.444  0.6686 -1.2963 -1.7151
 4374SOL     OW24754   4.484   2.132   0.884 -0.9944 -0.4838  0.0086
 4374SOL    HW124755   4.494   2.153   0.791 -1.7388 -2.6095 -0.5666
 4374SOL    HW224756   4.564   2.161   0.929 -0.2725 -3.7486  0.8819
 4375SOL     OW24757   0.826   3.034   3.045  0.1220 -0.8179  0.1961
 4375SOL    HW124758   0.896   3.002   3.103 -0.2453  1.1629  1.7553
 4375SOL    HW224759   0.791   2.951   3.014  0.2465 -0.1954 -1.5841
 4376SOL     OW24760   2.325   0.825  13.898 -0.4274 -0.3410 -0.7176
 4376SOL    HW124761   2.237   0.862  13.891  0.9807  2.8529 -1.4611
 4376SOL    HW224762   2.334   0.839  13.992  1.1915  0.4178 -1.0001
 4377SOL     OW24763   3.321   1.797   7.531 -0.2479  0.2382  0.3926
 4377SOL    HW124764   3.346   1.865   7.593  0.5325 -0.4198  0.7955
 4377SOL    HW224765   3.330   1.721   7.588  0.9170  0.9429  1.1531
 4378SOL     OW24766   3.938   4.485  12.836 -0.0385  0.0984  0.3686
 4378SOL    HW124767   4.032   4.487  12.820 -0.3652 -0.1044 -1.5732
 4378SOL    HW224768   3.945   4.450  12.925  0.1303 -0.6925  0.0455
 4379SOL     OW24769   0.645   1.777   6.640  0.2489 -0.0736 -0.4965
 4379SOL    HW124770   0.689   1.862   6.651  2.1792 -0.9231 -1.6491
 4379SOL    HW224771   0.690   1.746   6.562 -1.3855  0.3799 -1.6161
 4380SOL     OW24772   0.041   2.139   2.757  0.0307 -0.1159 -0.3991
 4380SOL    HW124773   0.017   2.138   2.664 -1.3969  0.7004 -0.0382
 4380SOL    HW224774   4.731   2.223   2.770  0.7521  0.3983 -1.2204
 4381SOL     OW24775   2.192   3.854   2.135 -0.1466 -0.1562 -0.0318
 4381SOL    HW124776   2.210   3.913   2.209  1.4836 -2.7599  1.6659
 4381SOL    HW224777   2.098   3.867   2.136 -0.4457 -2.4760  1.2622
 4382SOL     OW24778   4.351   4.085   3.732  0.8469  0.1521 -0.3295
 4382SOL    HW124779   4.414   4.055   3.667 -0.3395  0.2684 -1.5390
 4382SOL    HW224780   4.339   4.177   3.708 -1.4076 -0.6714 -2.3487
 4383SOL     OW24781   0.056   0.957  13.440 -0.3778 -0.1195 -0.6641
 4383SOL    HW124782   0.110   1.029  13.471 -0.3026 -0.5997  0.3312
 4383SOL    HW224783   4.709   1.006  13.446  0.1764  0.8362 -1.0510
 4384SOL     OW24784   1.033   0.239   2.643  0.3063 -0.1596 -0.1178
 4384SOL    HW124785   1.126   0.233   2.666  0.3767  0.2305 -0.3003
 4384SOL    HW224786   1.029   0.306   2.575  0.0645  1.0280  1.0577
 4385SOL     OW24787   2.430   0.385   5.876 -0.0967  0.4159 -0.2950
 4385SOL    HW124788   2.486   0.323   5.830  0.9868  0.1501  1.3398
 4385SOL    HW224789   2.406   0.453   5.813  2.3890  1.3531 -0.2463
 4386SOL     OW24790   4.585   1.796   8.170  0.2571  0.3013 -0.0672
 4386SOL    HW124791   4.578   1.794   8.075 -0.2634  1.0780 -0.0459
 4386SOL    HW224792   4.511   1.742   8.195 -1.3873  2.6525  0.1917
 4387SOL     OW24793   0.186   1.213   4.917 -0.1265 -0.0964  0.5604
 4387SOL    HW124794   0.198   1.258   5.001 -1.8911 -0.6232  1.0846
 4387SOL    HW224795   0.248   1.141   4.929 -2.4777 -1.8176  2.2775
 4388SOL     OW24796   3.940   4.176   6.449 -0.1763 -0.7918 -0.1608
 4388SOL    HW124797   3.995   4.163   6.526 -3.0825 -2.1099  1.7154
 4388SOL    HW224798   3.947   4.089   6.409 -1.8165 -0.3847 -1.3351
 4389SOL     OW24799   1.277   0.615   5.814 -0.2239 -0.0050 -0.9517
 4389SOL    HW124800   1.219   0.539   5.814  1.7227 -1.4804 -0.0375
 4389SOL    HW224801   1.363   0.575   5.803 -0.7989 -0.9356 -2.0775
 4390SOL     OW24802   4.442   2.776   7.960 -0.4326  0.3535 -0.4917
 4390SOL    HW124803   4.467   2.814   7.876  0.2503  1.7632  0.3442
 4390SOL    HW224804   4.377   2.839   7.990 -0.2120  0.5552 -0.4371
 4391SOL     OW24805   2.280   1.279   8.174 -0.3379 -0.2065  0.6457
 4391SOL    HW124806   2.232   1.311   8.098  0.6724  1.2095  0.5975
 4391SOL    HW224807   2.201   1.280   8.227 -1.4271 -2.4815 -0.9625
 4392SOL     OW24808   0.156   4.488   4.996 -0.3256 -0.2324  0.3398
 4392SOL    HW124809   0.086   4.482   5.061 -0.0729 -1.0271  0.5408
 4392SOL    HW224810   0.234   4.503   5.050  0.3321 -0.7044 -0.4913
 4393SOL     OW24811   4.196   0.871   0.363 -0.0319  0.0671 -0.4470
 4393SOL    HW124812   4.288   0.889   0.347  0.0765 -0.4525 -0.4064
 4393SOL    HW224813   4.209   0.799   0.425 -1.5443  0.2716  0.1064
 4394SOL     OW24814   2.254   4.557   1.730 -0.7510 -0.3770 -0.1604
 4394SOL    HW124815   2.185   4.541   1.666 -0.1199 -1.1379 -0.6403
 4394SOL    HW224816   2.220   4.530   1.816 -2.6328  0.3524 -0.6683
 4395SOL     OW24817   4.221   0.533   1.892 -0.1830 -0.0660  0.0109
 4395SOL    HW124818   4.250   0.609   1.942  0.2410  0.6660 -1.3369
 4395SOL    HW224819   4.300   0.481   1.907 -0.0693  0.0361 -0.2462
 4396SOL     OW24820   4.403   4.289  10.416  0.4684  0.6654 -0.0972
 4396SOL    HW124821   4.458   4.250  10.484 -0.7847 -3.0160 -1.2089
 4396SOL    HW224822   4.452   4.257  10.341 -0.3360 -0.4163 -0.1682
 4397SOL     OW24823   3.550   1.042   8.149  0.2267  0.5382 -0.7936
 4397SOL    HW124824   3.498   1.101   8.094 -1.6068 -0.3752  0.0050
 4397SOL    HW224825   3.580   1.101   8.218  0.2189 -0.0447 -0.2951
 4398SOL     OW24826   2.158   1.043   2.637  0.0105 -0.3099 -0.3936
 4398SOL    HW124827   2.142   0.953   2.669 -0.3712 -0.1671 -0.1771
 4398SOL    HW224828   2.152   1.038   2.542 -2.1183  0.8206 -0.3113
 4399SOL     OW24829   2.261   4.218   7.952 -0.7968  0.3503  0.1121
 4399SOL    HW124830   2.347   4.240   7.917  0.7313 -2.2799  2.2259
 4399SOL    HW224831   2.208   4.195   7.875  1.2400  0.1716 -1.2415
 4400SOL     OW24832   3.239   0.310   1.870 -0.1019  0.3104 -0.6598
 4400SOL    HW124833   3.270   0.313   1.779  0.7244 -2.2778 -0.4606
 4400SOL    HW224834   3.241   0.401   1.898 -3.2000  0.2288 -0.1952
 4401SOL     OW24835   0.528   0.467   1.110  0.4037  0.3468 -0.2807
 4401SOL    HW124836   0.623   0.474   1.105  0.3793  1.8826  1.6022
 4401SOL    HW224837   0.505   0.475   1.202 -1.7006  1.7087 -0.9165
 4402SOL     OW24838   2.976   4.673   6.801  0.4810 -0.1512  0.3717
 4402SOL    HW124839   3.022   0.004   6.749 -0.5379 -1.5908 -2.3222
 4402SOL    HW224840   2.902   4.649   6.745  1.4125 -0.9100 -0.5253
 4403SOL     OW24841   2.797   2.745   6.711  0.0135 -0.6061 -0.6657
 4403SOL    HW124842   2.797   2.692   6.632 -1.4323 -0.6371 -0.6496
 4403SOL    HW224843   2.879   2.717   6.752  0.2586 -1.1838 -1.5512
 4404SOL     OW24844   4.510   3.949   7.623  0.3959  0.0310  0.6317
 4404SOL    HW124845   4.542   4.031   7.587  1.4116 -1.2102 -1.2945
 4404SOL    HW224846   4.421   3.938   7.588  1.0059  0.1071 -0.9356
 4405SOL     OW24847   0.688   2.953  10.146  0.2451  0.2476 -0.0353
 4405SOL    HW124848   0.716   2.982  10.059  0.3344 -4.3763 -1.5317
 4405SOL    HW224849   0.595   2.973  10.143  0.2354  0.2139  0.0413
 4406SOL     OW24850   3.104   1.662   8.065  0.0291  0.7331  0.1615
 4406SOL    HW124851   3.038   1.593   8.070  1.1474 -0.3433 -0.0748
 4406SOL    HW224852   3.114   1.681   8.158  0.5790  0.4146  0.1660
 4407SOL     OW24853   3.707   0.318  16.214  0.2768  0.2698  0.2615
 4407SOL    HW124854   3.650   0.258  16.165  0.0440  0.5211  0.2258
 4407SOL    HW224855   3.774   0.261  16.251  1.3050  0.2426 -1.6427
 4408SOL     OW24856   2.904   1.776   3.439  0.4830  0.6787 -0.4068
 4408SOL    HW124857   2.905   1.769   3.534  3.2655 -1.9226 -0.6029
 4408SOL    HW224858   2.945   1.693   3.412 -0.3223  0.2620 -0.3462
 4409SOL     OW24859   3.520   3.430  13.193  0.0966 -0.2354  0.4070
 4409SOL    HW124860   3.571   3.480  13.130  1.5948 -1.4027  0.6946
 4409SOL    HW224861   3.520   3.353  13.137  1.6607 -0.3184  0.5234
 4410SOL     OW24862   2.737   0.777  13.218 -0.5157 -0.2462 -0.7774
 4410SOL    HW124863   2.725   0.864  13.257  0.9111 -0.2697 -0.2888
 4410SOL    HW224864   2.683   0.779  13.139  0.9325  0.8333 -1.7496
 4411SOL     OW24865   4.514   3.508  17.548 -0.7333  0.4820  0.4381
 4411SOL    HW124866   4.449   3.458  17.499 -0.7931 -1.5148  2.5204
 4411SOL    HW224867   4.459   3.572  17.592 -0.8039  0.1386  0.8493
 4412SOL     OW24868   0.661   1.148   3.951 -0.2920  0.0254  0.3561
 4412SOL    HW124869   0.668   1.127   3.857  2.9139 -1.3782  0.8934
 4412SOL    HW224870   0.596   1.217   3.960 -0.8819 -0.1770 -2.2842
 4413SOL     OW24871   4.172   3.206   6.507  0.2703  0.2814  0.3265
 4413SOL    HW124872   4.204   3.242   6.424  0.3094  1.1286  0.7176
 4413SOL    HW224873   4.228   3.262   6.561  0.8363 -0.1447  0.1895
 4414SOL     OW24874   2.899   4.555   4.883 -0.3470  0.6627 -0.0382
 4414SOL    HW124875   2.949   4.581   4.806 -0.7561 -3.3871 -1.6939
 4414SOL    HW224876   2.911   4.634   4.936 -0.1903  2.4915 -2.8421
 4415SOL     OW24877   2.242   0.200  16.282  0.0779  0.2259 -0.5135
 4415SOL    HW124878   2.288   0.206  16.199 -0.7015  1.9022 -0.8117
 4415SOL    HW224879   2.302   0.266  16.315 -0.2417  0.5888 -0.6623
 4416SOL     OW24880   2.629   1.655   0.719 -0.2648 -0.4240 -0.1930
 4416SOL    HW124881   2.549   1.708   0.722 -1.1834 -1.7232 -2.5878
 4416SOL    HW224882   2.594   1.577   0.761 -1.1914 -0.3315 -0.7959
 4417SOL     OW24883   4.513   0.002   7.452 -0.1223 -0.4545  0.0985
 4417SOL    HW124884   4.435   4.693   7.419 -0.0697 -2.0308  2.0861
 4417SOL    HW224885   4.478   0.048   7.528 -1.1549  0.3383 -0.8511
 4418SOL     OW24886   1.124   1.686   6.489  0.2586 -0.4376  0.1365
 4418SOL    HW124887   1.168   1.633   6.555 -1.8505  0.0187  1.9332
 4418SOL    HW224888   1.069   1.744   6.542 -0.8508 -0.5449 -0.9000
 4419SOL     OW24889   3.951   4.054   1.694 -0.0915  0.4284 -0.2269
 4419SOL    HW124890   3.898   4.011   1.761  0.7170 -0.7711 -0.3681
 4419SOL    HW224891   4.039   4.044   1.729 -0.4258  1.2277  0.8357
 4420SOL     OW24892   4.106   0.153   7.463 -0.3247  0.5969 -0.0657
 4420SOL    HW124893   4.133   0.198   7.542  1.6867  0.3483 -0.6083
 4420SOL    HW224894   4.017   0.132   7.491  0.3238 -1.6481  0.3127
 4421SOL     OW24895   4.142   3.069   3.043  0.3706 -0.1964  0.1289
 4421SOL    HW124896   4.086   3.056   3.119  2.0479  1.0545  1.5787
 4421SOL    HW224897   4.158   3.162   3.029 -1.6691  0.3336  1.3538
 4422SOL     OW24898   0.069   2.083   6.981  0.2154 -0.4017  0.1321
 4422SOL    HW124899   0.008   2.023   6.938 -0.2384 -0.1914  0.4779
 4422SOL    HW224900   0.093   2.142   6.910 -0.8613  1.6755  1.5027
 4423SOL     OW24901   3.922   1.362   8.133  0.6137  0.2958 -0.5284
 4423SOL    HW124902   3.961   1.427   8.074 -1.5221  1.5136 -0.6090
 4423SOL    HW224903   3.960   1.280   8.102  1.7938  1.3456 -1.8654
 4424SOL     OW24904   2.466   3.545  17.486  0.4797 -0.1978  0.1972
 4424SOL    HW124905   2.558   3.563  17.503  0.6438 -0.2300 -0.6282
 4424SOL    HW224906   2.467   3.485  17.411 -0.3479  1.9623 -1.5641
 4425SOL     OW24907   3.401   2.098   9.868  0.0005  0.6168 -0.2335
 4425SOL    HW124908   3.399   2.112   9.773 -3.5157  2.5244  0.1508
 4425SOL    HW224909   3.432   2.010   9.892 -0.3604  0.6136  0.2174
 4426SOL     OW24910   0.496   1.571   5.270 -0.2472  0.5617  0.2639
 4426SOL    HW124911   0.438   1.627   5.217 -1.8920 -1.1852  0.2116
 4426SOL    HW224912   0.551   1.646   5.291  0.5236  0.6294 -1.9229
 4427SOL     OW24913   3.083   4.712   3.049 -0.0164  0.2306 -0.0161
 4427SOL    HW124914   3.117   4.635   3.093 -1.8296 -0.0077  0.9540
 4427SOL    HW224915   3.137   4.718   2.970  0.1044  0.8548  0.1129
 4428SOL     OW24916   4.220   0.453   7.900  0.6692 -0.1108 -0.7730
 4428SOL    HW124917   4.308   0.483   7.877  0.6541  0.2817 -0.3167
 4428SOL    HW224918   4.170   0.532   7.920 -1.1329 -1.0315 -1.6623
 4429SOL     OW24919   3.393   4.646  13.461  0.2383 -0.0886 -0.3684
 4429SOL    HW124920   3.305   4.623  13.432 -0.1235 -1.2535  1.6901
 4429SOL    HW224921   3.436   4.562  13.476 -0.3769 -0.1020  1.3485
 4430SOL     OW24922   0.044   2.049   0.671 -0.0077  0.0665 -0.4591
 4430SOL    HW124923   0.010   2.025   0.585 -1.7815  0.3137  0.1741
 4430SOL    HW224924   4.722   2.118   0.705  0.6899  1.2708 -1.7637
 4431SOL     OW24925   1.719   2.514  12.708  0.5187  0.0993 -0.2357
 4431SOL    HW124926   1.790   2.541  12.651 -0.1654  1.3680 -0.4845
 4431SOL    HW224927   1.722   2.419  12.698 -2.3414 -0.0447  0.0764
 4432SOL     OW24928   3.760   1.738   2.997 -0.0938 -0.2444 -0.1700
 4432SOL    HW124929   3.856   1.746   2.994 -0.1057 -0.5106 -1.2503
 4432SOL    HW224930   3.727   1.744   2.908 -0.0141  0.2377 -0.1717
 4433SOL     OW24931   0.164   0.355  16.966  0.3193 -0.0588 -0.8785
 4433SOL    HW124932   0.190   0.442  16.996  2.4997  0.1797 -3.4226
 4433SOL    HW224933   0.214   0.297  17.022  0.3641  0.0822 -0.7713
 4434SOL     OW24934   3.001   0.083   9.475  0.5088  0.2504 -0.2872
 4434SOL    HW124935   2.946   0.157   9.501 -0.0287 -0.6005  1.0053
 4434SOL    HW224936   2.972   0.003   9.518  2.1774 -0.8200 -1.1574
 4435SOL     OW24937   1.227   3.591   2.933 -0.5251  0.3558 -0.0685
 4435SOL    HW124938   1.287   3.658   2.900 -0.5886 -0.2920 -1.4729
 4435SOL    HW224939   1.147   3.644   2.922  1.1927  2.8619 -0.5180
 4436SOL     OW24940   1.862   2.813  11.975  0.2035 -0.2201 -0.1585
 4436SOL    HW124941   1.828   2.849  11.893 -0.3470  2.2417  1.1445
 4436SOL    HW224942   1.785   2.794  12.028  0.2781 -3.1154 -1.1091
 4437SOL     OW24943   3.957   3.988  17.121  0.0636 -0.2585  0.0762
 4437SOL    HW124944   3.918   4.065  17.079 -0.1614  0.3239  1.3658
 4437SOL    HW224945   3.944   3.928  17.048 -0.0519 -1.1728  0.8513
 4438SOL     OW24946   1.493   3.064  11.893 -0.4263 -0.3979  0.3453
 4438SOL    HW124947   1.537   3.138  11.936 -2.4635 -0.2343  2.2051
 4438SOL    HW224948   1.410   3.064  11.942 -0.2778 -2.5632  0.5965
 4439SOL     OW24949   3.722   1.956  10.643 -0.1030 -0.7182 -0.1800
 4439SOL    HW124950   3.644   2.005  10.671  1.0239 -0.3308  2.3304
 4439SOL    HW224951   3.701   1.890  10.710 -0.3283  0.5398  0.9734
 4440SOL     OW24952   2.437   3.666   5.722  0.0933  0.2999 -0.0352
 4440SOL    HW124953   2.414   3.735   5.784  0.6968 -0.0512  0.5891
 4440SOL    HW224954   2.452   3.587   5.775  0.8450  1.3140  1.2514
 4441SOL     OW24955   2.358   1.725   5.874 -0.3291 -0.5170  0.2018
 4441SOL    HW124956   2.405   1.806   5.857 -0.9285 -0.6484 -2.0479
 4441SOL    HW224957   2.363   1.679   5.791 -0.7547 -0.8606  0.3642
 4442SOL     OW24958   2.560   3.691   3.172  0.3630 -0.4613  0.2316
 4442SOL    HW124959   2.564   3.776   3.216 -0.3120  1.0555 -2.6609
 4442SOL    HW224960   2.586   3.718   3.084  0.0079 -1.6796 -0.2460
 4443SOL     OW24961   0.139   1.028   5.900  0.2237  0.5507 -0.1410
 4443SOL    HW124962   0.192   1.035   5.820 -0.4444 -1.4020 -0.7496
 4443SOL    HW224963   0.182   0.960   5.950  0.8940 -1.9216 -4.0402
 4444SOL     OW24964   0.839   2.200  17.685  0.0409  0.2901 -0.2006
 4444SOL    HW124965   0.769   2.139  17.711 -0.2244  0.8553  0.4216
 4444SOL    HW224966   0.910   2.169   0.003 -0.5510 -2.0838 -0.7644
 4445SOL     OW24967   4.546   2.803  12.272 -0.1352  0.4522  0.8233
 4445SOL    HW124968   4.544   2.838  12.183 -1.1420  2.5255  1.6480
 4445SOL    HW224969   4.632   2.765  12.259 -0.6586  0.0548 -1.5469
 4446SOL     OW24970   3.612   3.906   1.326  0.4644  0.3043  0.2439
 4446SOL    HW124971   3.654   3.826   1.293 -0.2809 -0.3686  0.9309
 4446SOL    HW224972   3.685   3.930   1.383 -0.8623 -0.8772  2.3989
 4447SOL     OW24973   0.038   0.683   9.067 -0.1548 -0.6375  0.2035
 4447SOL    HW124974   0.002   0.696   9.155  1.1631  1.3033  0.4445
 4447SOL    HW224975   4.694   0.684   9.012 -0.7160 -1.9626  0.9785
 4448SOL     OW24976   3.382   0.122   4.960  0.7772  0.1258  0.0008
 4448SOL    HW124977   3.319   0.096   4.893 -0.4616  2.3257  0.2878
 4448SOL    HW224978   3.335   0.082   5.033 -1.4832  1.8991 -0.4605
 4449SOL     OW24979   0.190   1.438   1.256  0.1412 -1.1208  0.2025
 4449SOL    HW124980   0.151   1.494   1.189 -2.0145 -1.1050  1.5058
 4449SOL    HW224981   0.241   1.369   1.214  0.7483 -0.8075  0.4098
 4450SOL     OW24982   2.910   4.596   9.579 -0.1144 -0.5129  0.2381
 4450SOL    HW124983   2.841   4.530   9.570  1.4277 -1.7463 -2.4531
 4450SOL    HW224984   2.988   4.542   9.572  0.4546  0.4864 -0.9589
 4451SOL     OW24985   2.955   4.393   9.337  0.5293  0.1571 -0.0946
 4451SOL    HW124986   2.912   4.461   9.285 -2.2451 -1.5726 -0.0555
 4451SOL    HW224987   3.035   4.382   9.286  1.5341 -0.4394  1.6177
 4452SOL     OW24988   0.059   2.488   2.463  0.0637 -0.4408 -0.2545
 4452SOL    HW124989   0.094   2.494   2.374  0.2422 -2.7290 -0.3307
 4452SOL    HW224990   4.725   2.423   2.450  0.2563 -0.9006  1.0759
 4453SOL     OW24991   2.331   2.283   6.861 -0.0367  0.7450  0.0185
 4453SOL    HW124992   2.386   2.244   6.929  0.9286  1.0551 -0.5779
 4453SOL    HW224993   2.269   2.339   6.908 -0.3495 -0.2136  0.7480
 4454SOL     OW24994   3.561   3.726   9.537 -0.2010  0.5002 -0.2915
 4454SOL    HW124995   3.538   3.805   9.488 -0.3743  0.2819 -0.5641
 4454SOL    HW224996   3.562   3.764   9.624  0.9398 -1.5152  0.5848
 4455SOL     OW24997   3.612   2.213  10.252  0.7193 -0.2675 -0.2552
 4455SOL    HW124998   3.609   2.245  10.162 -0.1170  0.9899  0.2130
 4455SOL    HW224999   3.542   2.147  10.255  1.0594 -0.6911 -1.8940
 4456SOL     OW25000   0.768   3.527   3.061 -0.5209 -0.3494  0.6282
 4456SOL    HW125001   0.809   3.442   3.047 -1.1893 -0.9146  2.1131
 4456SOL    HW225002   0.675   3.516   3.042 -0.3772  0.0179 -0.2617
 4457SOL     OW25003   2.229   0.939   4.699 -0.4727  0.2325 -0.1918
 4457SOL    HW125004   2.314   0.894   4.694 -2.3860 -3.5005  1.2615
 4457SOL    HW225005   2.230   0.986   4.783  1.1001 -0.6129  0.2614
 4458SOL     OW25006   2.403   1.470  15.955 -0.0796 -0.7507 -0.4035
 4458SOL    HW125007   2.326   1.527  15.954  0.1766 -0.3388  3.8570
 4458SOL    HW225008   2.448   1.502  15.876  0.1030  1.3398  0.5277
 4459SOL     OW25009   3.534   2.545  14.963  0.3855  0.2692 -0.0124
 4459SOL    HW125010   3.605   2.546  14.900  0.0123 -0.3004 -0.4447
 4459SOL    HW225011   3.573   2.503  15.039  0.5132  3.1377  1.5002
 4460SOL     OW25012   3.105   2.819   2.570  0.9873 -0.1371  0.3509
 4460SOL    HW125013   3.103   2.827   2.475  3.4935  1.4687  0.4325
 4460SOL    HW225014   3.179   2.875   2.591  1.3058  0.0455 -1.3215
 4461SOL     OW25015   2.641   3.836   1.907 -0.1549 -0.1676 -0.1424
 4461SOL    HW125016   2.667   3.916   1.951  1.8134 -2.2532  2.4967
 4461SOL    HW225017   2.586   3.809   1.981  0.0974  0.4025  0.2518
 4462SOL     OW25018   2.130   4.009   8.875  0.0994  0.0147  0.0063
 4462SOL    HW125019   2.121   3.937   8.936  1.3078  1.0799  1.4440
 4462SOL    HW225020   2.055   4.054   8.916  0.2266 -0.1531  0.4223
 4463SOL     OW25021   0.285   2.959   7.181  0.0923 -1.4041 -0.2670
 4463SOL    HW125022   0.330   3.031   7.225 -0.3135 -1.8111  0.8172
 4463SOL    HW225023   0.337   2.935   7.105 -0.4620 -0.7090 -0.8566
 4464SOL     OW25024   3.291   2.633   8.020  0.4735  0.0984 -0.1943
 4464SOL    HW125025   3.316   2.586   7.940 -1.0869 -4.2983  1.8901
 4464SOL    HW225026   3.373   2.680   8.029 -0.6124  1.6120  1.7927
 4465SOL     OW25027   2.025   4.173   9.514 -0.2262  0.4631  0.2050
 4465SOL    HW125028   1.954   4.229   9.481 -0.1422  0.1067 -0.5896
 4465SOL    HW225029   2.088   4.196   9.446  1.0202 -1.9773  0.5508
 4466SOL     OW25030   3.621   4.011  16.710  0.2533  0.3490  0.2049
 4466SOL    HW125031   3.594   3.941  16.650 -3.9302 -0.0711  2.5861
 4466SOL    HW225032   3.536   4.055  16.710  0.6764  1.1317  1.7761
 4467SOL     OW25033   0.384   2.365   8.428  0.1724  0.2010 -0.0011
 4467SOL    HW125034   0.363   2.277   8.397 -1.9452  0.5544  0.4167
 4467SOL    HW225035   0.411   2.404   8.345  0.3195  0.4687  0.1744
 4468SOL     OW25036   1.197   3.541   3.214 -0.0110 -0.7770  0.1571
 4468SOL    HW125037   1.189   3.553   3.119 -0.4092  1.5174  0.4854
 4468SOL    HW225038   1.125   3.481   3.236 -0.4750 -1.0327 -2.0841
 4469SOL     OW25039   1.698   4.451   3.782 -0.2096 -0.5068 -0.2431
 4469SOL    HW125040   1.632   4.502   3.736  0.8900  0.7637 -0.4041
 4469SOL    HW225041   1.720   4.511   3.853  0.5224 -0.8194 -0.2066
 4470SOL     OW25042   4.070   0.952   8.838  0.3789 -0.5425 -0.3407
 4470SOL    HW125043   4.013   0.910   8.903  2.4221  0.0702  1.8793
 4470SOL    HW225044   4.141   0.973   8.899 -0.7690  0.6331  0.5709
 4471SOL     OW25045   2.585   3.325   1.833  0.2361 -0.0638 -0.0186
 4471SOL    HW125046   2.509   3.275   1.865  0.2597  0.9938  1.6916
 4471SOL    HW225047   2.659   3.276   1.869  0.8497  2.5683  2.2773
 4472SOL     OW25048   1.473   1.239   7.995  0.2802  0.3822  0.4523
 4472SOL    HW125049   1.410   1.283   7.939  0.8036 -0.1613 -0.5813
 4472SOL    HW225050   1.547   1.218   7.937  1.2457  0.9585  1.4747
 4473SOL     OW25051   0.038   3.679   3.156 -0.4534  0.6294 -0.3053
 4473SOL    HW125052   0.032   3.723   3.240 -0.0933 -0.0114  0.0576
 4473SOL    HW225053   0.132   3.666   3.165 -0.4756 -1.1310 -2.4966
 4474SOL     OW25054   2.257   4.494   9.057  0.2131 -0.0221 -0.3225
 4474SOL    HW125055   2.180   4.464   9.008  0.2837 -2.3752  1.0087
 4474SOL    HW225056   2.280   4.575   9.012  0.2579 -1.7638 -3.5199
 4475SOL     OW25057   2.936   0.412   8.016  0.1365 -0.0147 -0.1396
 4475SOL    HW125058   2.906   0.322   8.017 -1.8673  0.6889  2.5239
 4475SOL    HW225059   2.866   0.462   8.058 -0.1019 -0.1988 -0.3218
 4476SOL     OW25060   0.491   3.700   2.669 -0.4002 -0.1291  0.3535
 4476SOL    HW125061   0.399   3.672   2.675 -0.8065  0.6480 -2.6552
 4476SOL    HW225062   0.474   3.772   2.609 -2.1392 -1.0351 -0.2481
 4477SOL     OW25063   1.968   3.210  12.806 -0.0511 -0.6636 -0.9593
 4477SOL    HW125064   1.877   3.185  12.820  0.5448 -2.7038 -0.7025
 4477SOL    HW225065   2.015   3.170  12.879 -0.6094 -0.8687 -0.7115
 4478SOL     OW25066   2.720   3.848   5.488 -0.0916 -0.4279 -0.1844
 4478SOL    HW125067   2.768   3.777   5.445  0.8597  1.3535 -2.0923
 4478SOL    HW225068   2.656   3.864   5.419 -0.0485  1.8295  0.2815
 4479SOL     OW25069   0.541   1.285   8.536  0.5246  0.2194  0.3194
 4479SOL    HW125070   0.587   1.363   8.504  0.8527  0.0280  0.3254
 4479SOL    HW225071   0.571   1.219   8.473 -1.9260  2.1369 -2.8764
 4480SOL     OW25072   4.370   1.178  13.973 -0.3932 -0.4319  0.0385
 4480SOL    HW125073   4.449   1.124  13.978  0.9111  1.7525  2.4407
 4480SOL    HW225074   4.390   1.234  13.899 -0.7322  0.8482  0.9243
 4481SOL     OW25075   3.134   1.409   2.825  0.6659 -0.3768  0.2423
 4481SOL    HW125076   3.149   1.323   2.864  0.3323 -0.0688  1.0372
 4481SOL    HW225077   3.162   1.413   2.733 -0.5612 -0.5175 -0.1420
 4482SOL     OW25078   1.597   1.733   4.512  0.2223  0.1281 -0.2160
 4482SOL    HW125079   1.563   1.822   4.499 -0.9620 -0.5256 -1.6038
 4482SOL    HW225080   1.557   1.704   4.594 -2.4833 -0.6342 -1.8160
 4483SOL     OW25081   4.505   4.590   8.575  0.2851  0.1979  0.0384
 4483SOL    HW125082   4.516   4.623   8.664 -0.6892 -0.1717  0.2906
 4483SOL    HW225083   4.421   4.626   8.548  0.9363  2.6084  1.2181
 4484SOL     OW25084   1.209   0.086  10.397  0.7084  0.1134 -0.2094
 4484SOL    HW125085   1.278   0.019  10.399  0.7176  0.1016 -0.7655
 4484SOL    HW225086   1.208   0.105  10.303 -2.8139 -0.2080 -0.2558
 4485SOL     OW25087   1.296   4.575  13.285 -0.2623  0.1811  0.6515
 4485SOL    HW125088   1.275   4.666  13.265 -2.6003 -0.1090  1.7294
 4485SOL    HW225089   1.360   4.584  13.355 -1.2035  0.1423  1.5226
 4486SOL     OW25090   1.292   4.418   3.839 -0.2668 -0.0937 -0.5695
 4486SOL    HW125091   1.353   4.356   3.800 -0.3934 -0.3303 -0.3946
 4486SOL    HW225092   1.264   4.462   3.759  0.0621 -0.0578 -0.6635
 4487SOL     OW25093   4.010   0.156   4.856 -0.2807 -0.0326 -0.3329
 4487SOL    HW125094   3.996   0.202   4.939 -0.2407  0.8181 -0.8021
 4487SOL    HW225095   3.934   0.097   4.857 -0.2521 -0.0762 -0.6662
 4488SOL     OW25096   2.196   3.371   1.964 -0.3581 -0.1210  0.0452
 4488SOL    HW125097   2.222   3.306   2.029  3.6737  1.1263 -0.3464
 4488SOL    HW225098   2.278   3.415   1.943 -0.2617 -0.4385 -0.2378
 4489SOL     OW25099   4.583   3.869  14.471  0.0106 -0.5645 -0.7247
 4489SOL    HW125100   4.546   3.782  14.457  0.5860 -1.0435  0.7785
 4489SOL    HW225101   4.634   3.857  14.551 -0.2257  0.3880 -0.4385
 4490SOL     OW25102   1.059   2.956  16.189 -0.0011 -0.3706  0.5294
 4490SOL    HW125103   1.089   2.867  16.167 -1.4531 -0.3236 -1.7188
 4490SOL    HW225104   1.119   3.016  16.145 -2.5600  1.6514 -0.2091
 4491SOL     OW25105   1.088   0.833   6.507 -0.3370  0.4040 -0.4407
 4491SOL    HW125106   1.089   0.739   6.491 -0.7983  0.5751 -1.4314
 4491SOL    HW225107   0.997   0.852   6.485 -0.6927 -0.7814 -0.0060
 4492SOL     OW25108   1.296   2.325   5.473 -0.2558 -0.0535 -0.0684
 4492SOL    HW125109   1.318   2.371   5.392 -1.5652  1.4238  0.4172
 4492SOL    HW225110   1.243   2.248   5.453 -0.3804  0.2018 -0.7316
 4493SOL     OW25111   4.519   2.804   7.341 -0.1853 -0.1314 -0.1871
 4493SOL    HW125112   4.595   2.793   7.283  0.8063  1.5533  0.8113
 4493SOL    HW225113   4.460   2.730   7.324 -0.5684 -0.2643  1.7223
 4494SOL     OW25114   0.431   3.735  17.359  0.0679 -0.0517 -0.1128
 4494SOL    HW125115   0.503   3.788  17.395  0.0947 -1.4723  1.9176
 4494SOL    HW225116   0.409   3.790  17.284  0.2831  1.1929  0.7149
 4495SOL     OW25117   0.742   1.545  11.533  0.5839 -0.4927 -0.7548
 4495SOL    HW125118   0.747   1.599  11.612  3.5224 -0.5682 -0.8696
 4495SOL    HW225119   0.782   1.609  11.474  0.5413  0.3957  0.1812
 4496SOL     OW25120   1.068   3.996  12.633  0.3144  0.3678 -0.1971
 4496SOL    HW125121   1.159   4.006  12.605  0.3402  0.6380 -0.0219
 4496SOL    HW225122   1.041   4.088  12.624 -2.2518 -0.3007  0.6760
 4497SOL     OW25123   0.223   1.636   4.420 -0.1247 -0.4418 -0.0887
 4497SOL    HW125124   0.184   1.689   4.490  0.4451 -1.1473  0.7647
 4497SOL    HW225125   0.157   1.652   4.352 -3.3403  0.2492  3.1416
 4498SOL     OW25126   2.130   1.036   2.335 -0.4832 -0.0062 -0.9089
 4498SOL    HW125127   2.176   1.058   2.254 -0.2957  1.5620 -0.3789
 4498SOL    HW225128   2.049   1.002   2.297 -1.9253 -0.0530  2.1729
 4499SOL     OW25129   2.407   3.491   8.961  0.0199  0.0293  0.7711
 4499SOL    HW125130   2.375   3.427   8.898  0.6422  0.5454 -0.0632
 4499SOL    HW225131   2.441   3.563   8.908 -0.0596  0.3132  1.1041
 4500SOL     OW25132   3.482   2.280   8.497  0.4351 -0.2489 -0.0883
 4500SOL    HW125133   3.482   2.326   8.413 -0.4761  1.0096  0.6003
 4500SOL    HW225134   3.394   2.244   8.505 -0.6563  2.0224 -1.7767
 4501SOL     OW25135   2.905   4.521  11.181  0.1469  0.6753 -0.8280
 4501SOL    HW125136   2.812   4.498  11.189  0.3031 -0.3005 -1.7426
 4501SOL    HW225137   2.901   4.611  11.214  1.4716  0.3701  0.1259
 4502SOL     OW25138   1.463   4.312   4.833  0.2025  0.6420 -0.3583
 4502SOL    HW125139   1.488   4.227   4.798 -1.3284  0.5227 -1.1560
 4502SOL    HW225140   1.522   4.311   4.909 -0.0636 -1.3779 -0.1824
 4503SOL     OW25141   4.493   0.481  14.457  0.0995  0.1400 -0.0690
 4503SOL    HW125142   4.415   0.426  14.448  1.3188 -1.4933 -0.5844
 4503SOL    HW225143   4.446   0.563  14.441  0.7226  0.1499 -1.7926
 4504SOL     OW25144   2.711   0.757   3.328  0.2516  1.0281  0.1263
 4504SOL    HW125145   2.697   0.693   3.397  2.3748 -0.7397 -1.0713
 4504SOL    HW225146   2.630   0.740   3.280  0.1137 -1.3614  1.1994
 4505SOL     OW25147   3.690   1.261   4.840  0.4239 -0.1555  0.1481
 4505SOL    HW125148   3.615   1.224   4.886  0.4018  1.1141  1.1192
 4505SOL    HW225149   3.735   1.321   4.900 -1.1837  1.0923  0.0841
 4506SOL     OW25150   4.237   3.202  13.441  0.0249  0.6679 -0.3300
 4506SOL    HW125151   4.230   3.202  13.345 -1.2491  0.4055 -0.2389
 4506SOL    HW225152   4.199   3.118  13.467 -1.4704  1.4287 -0.0800
 4507SOL     OW25153   2.266   4.022  11.876 -0.3522 -0.2541 -0.4802
 4507SOL    HW125154   2.219   3.989  11.953 -1.8565  2.2267 -0.3300
 4507SOL    HW225155   2.210   4.094  11.848  1.2277  0.6927 -1.1978
 4508SOL     OW25156   4.518   1.778  14.560 -0.3168  0.3140  0.1115
 4508SOL    HW125157   4.551   1.718  14.493 -1.4718 -1.3072  0.9981
 4508SOL    HW225158   4.430   1.803  14.532  0.5743  0.8381 -2.2166
 4509SOL     OW25159   2.357   1.686   6.344 -0.6827 -0.2478  0.1207
 4509SOL    HW125160   2.425   1.622   6.323 -0.5443 -0.1373  0.2296
 4509SOL    HW225161   2.288   1.622   6.360 -0.5940  0.1786  2.2395
 4510SOL     OW25162   1.679   3.454   9.121  0.0524  0.4888  0.4061
 4510SOL    HW125163   1.627   3.527   9.154 -1.5289  0.0035 -1.0422
 4510SOL    HW225164   1.619   3.418   9.056  0.0306 -1.8603  1.7377
 4511SOL     OW25165   1.953   3.885  12.934 -0.8202  0.2605 -1.0999
 4511SOL    HW125166   1.889   3.956  12.932 -0.8874  0.2489  0.9306
 4511SOL    HW225167   1.915   3.831  13.003  2.2355 -0.0465  0.3291
 4512SOL     OW25168   1.425   0.716   7.751 -0.1559  0.0125 -0.7425
 4512SOL    HW125169   1.521   0.717   7.742 -0.0481 -3.0009  0.1166
 4512SOL    HW225170   1.406   0.783   7.685  2.3539  1.2027 -0.2788
 4513SOL     OW25171   2.391   3.369   8.581 -0.3602  0.1048 -0.1050
 4513SOL    HW125172   2.375   3.317   8.660  0.9712  0.3390  0.3241
 4513SOL    HW225173   2.367   3.305   8.514 -0.3006 -0.2068  0.1719
 4514SOL     OW25174   1.004   2.814  10.746 -0.5396  0.4374 -0.3086
 4514SOL    HW125175   1.003   2.909  10.740  1.0397  0.5203  0.9837
 4514SOL    HW225176   0.961   2.806  10.831 -2.6977 -3.2083 -1.7342
 4515SOL     OW25177   0.472   3.021   5.159  0.8447  0.2846 -0.2607
 4515SOL    HW125178   0.458   3.108   5.198  1.0472  0.0841  0.2585
 4515SOL    HW225179   0.403   3.027   5.093 -0.1199  0.1058  0.7340
 4516SOL     OW25180   0.423   3.998   0.865  0.4104 -0.2676 -0.3669
 4516SOL    HW125181   0.466   3.920   0.831  1.5145 -0.6546  1.9433
 4516SOL    HW225182   0.490   4.049   0.911 -1.3311  0.9450  0.8255
 4517SOL     OW25183   4.416   4.683   2.007 -0.4304 -0.2040  0.5757
 4517SOL    HW125184   4.416   4.668   2.101 -2.9889 -0.2629  0.5535
 4517SOL    HW225185   4.494   0.005   2.000 -2.0932  1.7852 -2.0322
 4518SOL     OW25186   4.088   0.219   5.125  0.4309 -0.5651 -0.2009
 4518SOL    HW125187   4.024   0.169   5.175  0.9034 -0.8803  0.0890
 4518SOL    HW225188   4.156   0.153   5.110  0.5035 -0.4781 -0.2554
 4519SOL     OW25189   1.330   0.906   6.390  0.3120  0.1053 -0.5329
 4519SOL    HW125190   1.247   0.891   6.436  0.7292  0.6857  0.3901
 4519SOL    HW225191   1.371   0.976   6.439 -0.8361  0.3073  0.1348
 4520SOL     OW25192   0.458   1.750   2.741  0.5083 -0.5566  0.8059
 4520SOL    HW125193   0.418   1.822   2.691  2.1205 -0.7069 -0.6857
 4520SOL    HW225194   0.380   1.699   2.762 -0.0069  0.3858  1.1954
 4521SOL     OW25195   2.665   2.853  13.244  0.4964  0.2363  0.9455
 4521SOL    HW125196   2.699   2.779  13.294 -1.0649 -1.1264 -0.0120
 4521SOL    HW225197   2.655   2.920  13.311  1.5464  0.2092  1.1173
 4522SOL     OW25198   4.570   4.598   1.675  0.3235 -0.1977  0.1724
 4522SOL    HW125199   4.607   4.579   1.588 -0.8996 -2.6675  0.1749
 4522SOL    HW225200   4.564   4.693   1.667  1.3140 -0.1972 -0.5002
 4523SOL     OW25201   4.614   2.689  16.502 -0.4447  0.5676 -0.4020
 4523SOL    HW125202   4.608   2.598  16.531  0.8770  0.8841  0.8142
 4523SOL    HW225203   4.519   2.698  16.504 -0.6309 -1.8524  1.5311
 4524SOL     OW25204   2.880   3.982   6.258 -0.8331 -0.6263  0.9458
 4524SOL    HW125205   2.900   3.890   6.275 -0.2563 -0.6384  0.2019
 4524SOL    HW225206   2.956   4.017   6.304  0.4324  0.1226 -1.7539
 4525SOL     OW25207   1.691   0.076  10.173 -0.4358  0.1532  0.1353
 4525SOL    HW125208   1.603   0.054  10.205  0.3240  1.5869  3.1729
 4525SOL    HW225209   1.683   0.170  10.185  1.1528  0.1302  1.4589
 4526SOL     OW25210   2.160   2.389   1.919 -0.3631 -0.0012  0.3462
 4526SOL    HW125211   2.126   2.316   1.868 -0.4727  0.2277  0.0936
 4526SOL    HW225212   2.200   2.326   1.980  2.0756  1.0532 -0.1368
 4527SOL     OW25213   4.492   4.125   1.694 -0.4561  0.2475 -0.3040
 4527SOL    HW125214   4.551   4.195   1.667 -0.7702  1.4258  2.0747
 4527SOL    HW225215   4.547   4.055   1.730 -3.0117 -1.1580  0.8211
 4528SOL     OW25216   0.934   0.512   7.256  0.2705 -0.3372 -0.0688
 4528SOL    HW125217   0.946   0.603   7.231 -1.8986  0.1540  0.6814
 4528SOL    HW225218   0.913   0.471   7.172 -0.3892 -0.2178  0.0417
 4529SOL     OW25219   1.329   3.559   6.629 -0.1701 -0.4866  0.1067
 4529SOL    HW125220   1.381   3.483   6.603 -0.2289  0.1601 -1.9111
 4529SOL    HW225221   1.351   3.573   6.721  0.5264  0.4480 -0.1978
 4530SOL     OW25222   2.969   1.972   7.197 -0.5391 -0.6018  0.1313
 4530SOL    HW125223   2.986   2.027   7.274 -0.2042  1.8303 -1.7069
 4530SOL    HW225224   2.920   1.898   7.233  0.7059 -0.2399  2.5858
 4531SOL     OW25225   3.906   4.603   5.463  0.8181  0.1850 -0.1654
 4531SOL    HW125226   3.860   4.624   5.544  0.7621  0.9627 -0.4005
 4531SOL    HW225227   3.895   4.508   5.456  0.9333  0.2303 -0.9601
 4532SOL     OW25228   1.490   1.438  16.224  0.5551  0.7553  0.2804
 4532SOL    HW125229   1.475   1.527  16.256 -2.1202  0.6164 -0.6048
 4532SOL    HW225230   1.477   1.445  16.129 -2.3486  1.9349  0.7913
 4533SOL     OW25231   1.239   0.618   4.383  0.1091 -0.2857 -0.6096
 4533SOL    HW125232   1.312   0.679   4.390  0.3332 -0.4504 -1.4825
 4533SOL    HW225233   1.167   0.667   4.342  0.5040  0.3757 -0.5138
 4534SOL     OW25234   4.592   3.480   7.106  0.5912 -0.1773  0.0462
 4534SOL    HW125235   4.516   3.534   7.087  0.6056  0.3749  1.5598
 4534SOL    HW225236   4.637   3.541   7.165 -0.4877  1.2993 -0.6478
 4535SOL     OW25237   0.538   1.720   7.832  0.7932 -0.1248  0.6388
 4535SOL    HW125238   0.602   1.653   7.808  0.4241 -0.2704  0.0667
 4535SOL    HW225239   0.516   1.755   7.745  3.3669  0.8099  0.3709
 4536SOL     OW25240   3.899   3.854   7.419  0.2508 -0.0399  0.1976
 4536SOL    HW125241   3.839   3.912   7.371  1.5300 -0.0414 -1.3911
 4536SOL    HW225242   3.960   3.927   7.432 -0.1299  0.2492  0.3812
 4537SOL     OW25243   1.103   4.005  10.890  0.2433  0.4421  0.3828
 4537SOL    HW125244   1.089   3.938  10.956 -4.0914  0.9813  0.0378
 4537SOL    HW225245   1.092   3.950  10.812 -1.4303  2.4499 -0.8057
 4538SOL     OW25246   4.276   0.842   1.478  0.0381  0.0990  0.2554
 4538SOL    HW125247   4.272   0.821   1.385 -0.5906 -0.3998  0.3966
 4538SOL    HW225248   4.320   0.769   1.522  0.4416  1.3803  2.0028
 4539SOL     OW25249   3.616   4.558  14.559 -0.6161  0.2752 -0.1422
 4539SOL    HW125250   3.675   4.482  14.557 -0.8576  0.1024 -0.7345
 4539SOL    HW225251   3.661   4.622  14.504 -0.9539 -0.8446 -1.7199
 4540SOL     OW25252   2.624   3.430   4.262 -0.4584 -0.4338  0.1445
 4540SOL    HW125253   2.541   3.392   4.289  1.3629 -3.3269  1.6507
 4540SOL    HW225254   2.679   3.362   4.224  0.3239  0.9049 -1.1575
 4541SOL     OW25255   4.640   2.653   9.116  0.5917 -0.1257  0.1942
 4541SOL    HW125256   4.710   2.702   9.159  1.5300 -1.9982  0.8258
 4541SOL    HW225257   4.685   2.577   9.077 -1.5814 -1.4191  0.2317
 4542SOL     OW25258   0.920   4.539   2.969 -0.0390 -0.0916 -0.2573
 4542SOL    HW125259   0.836   4.503   2.998  0.7525 -0.0368  2.1752
 4542SOL    HW225260   0.918   4.503   2.881 -0.5612 -0.6890 -0.0038
 4543SOL     OW25261   2.326   3.237   8.807 -0.4329 -0.3873  0.1674
 4543SOL    HW125262   2.243   3.283   8.820 -0.8158 -1.1129  0.2798
 4543SOL    HW225263   2.316   3.154   8.853  0.5912 -0.8356 -0.4262
 4544SOL     OW25264   0.386   0.488  11.813  0.3068  0.5267  0.4113
 4544SOL    HW125265   0.293   0.510  11.817  0.3332  0.4025  1.7522
 4544SOL    HW225266   0.389   0.461  11.722  2.4513  2.1936 -0.0218
 4545SOL     OW25267   0.243   2.024   0.302  0.5281 -0.4206  0.2883
 4545SOL    HW125268   0.302   2.099   0.295  2.3983 -1.8528  0.6887
 4545SOL    HW225269   0.188   2.025   0.224 -0.7044  0.6699  1.1902
 4546SOL     OW25270   4.024   0.634  17.123 -0.0393 -0.1271  0.7393
 4546SOL    HW125271   3.951   0.695  17.122 -0.2745 -0.4000  1.5507
 4546SOL    HW225272   3.990   0.545  17.115  0.7602 -0.4023  0.3711
 4547SOL     OW25273   0.478   0.323   8.987 -0.3500  0.1785  0.3376
 4547SOL    HW125274   0.495   0.411   8.952  0.5351  0.1399  0.6619
 4547SOL    HW225275   0.413   0.340   9.054 -1.2492 -0.5277 -0.3590
 4548SOL     OW25276   0.586   1.944   8.328  0.1217  0.3851 -0.0165
 4548SOL    HW125277   0.509   1.888   8.333  0.8652 -0.5120  1.1992
 4548SOL    HW225278   0.550   2.022   8.284 -1.7569 -0.1142  0.6678
 4549SOL     OW25279   2.902   4.011  16.670  0.2243  0.6466  0.1189
 4549SOL    HW125280   2.928   4.030  16.580 -3.4989  0.4606 -1.0038
 4549SOL    HW225281   2.807   4.023  16.673 -0.2936 -3.2174 -0.8715
 4550SOL     OW25282   0.392   0.750  16.329  0.3794  0.5461  0.3248
 4550SOL    HW125283   0.321   0.721  16.272 -0.1976  0.4453  1.0881
 4550SOL    HW225284   0.355   0.834  16.355 -1.1000 -0.4309  1.3760
 4551SOL     OW25285   0.621   0.212   0.228 -1.1889 -0.1373 -0.3921
 4551SOL    HW125286   0.628   0.209   0.324 -1.3191 -0.6371 -0.3993
 4551SOL    HW225287   0.630   0.120   0.205  0.2511 -0.6033  2.0310
 4552SOL     OW25288   2.674   1.137   6.319  0.7763 -0.8830 -0.6906
 4552SOL    HW125289   2.606   1.083   6.277  0.8881 -0.8328 -0.9342
 4552SOL    HW225290   2.652   1.133   6.413 -1.2397  1.6760 -1.0648
 4553SOL     OW25291   0.417   1.223  16.494 -0.3266  0.0940 -0.4491
 4553SOL    HW125292   0.483   1.205  16.427  1.3839  1.4700  0.8863
 4553SOL    HW225293   0.435   1.152  16.555 -1.5696 -0.8995 -1.2455
 4554SOL     OW25294   1.844   2.212   3.384  0.0735  0.0697 -0.3646
 4554SOL    HW125295   1.876   2.129   3.422 -2.0132 -0.9161 -0.7754
 4554SOL    HW225296   1.750   2.201   3.398  0.3667  1.1421  2.4513
 4555SOL     OW25297   2.949   0.973   4.822 -0.5723  0.1774  0.0237
 4555SOL    HW125298   2.994   1.032   4.762 -1.5276  2.1727  1.2859
 4555SOL    HW225299   2.985   0.888   4.795 -0.1995  0.2122  0.3991
 4556SOL     OW25300   1.642   1.597   0.260  0.6863 -0.1173 -0.2781
 4556SOL    HW125301   1.558   1.552   0.273  1.6388 -1.4536  1.2356
 4556SOL    HW225302   1.676   1.535   0.196  0.1665 -1.3012  0.5995
 4557SOL     OW25303   0.152   4.067   7.741 -0.5440  0.6022 -0.1894
 4557SOL    HW125304   0.158   3.977   7.708  0.7074  0.2441  1.0118
 4557SOL    HW225305   0.234   4.073   7.789 -0.7472 -3.4528  0.6380
 4558SOL     OW25306   0.867   1.853   7.931 -0.2294 -0.4472  0.3416
 4558SOL    HW125307   0.917   1.816   8.004  2.7469  1.7053 -0.5898
 4558SOL    HW225308   0.860   1.780   7.870 -0.7306 -0.5171  0.4863
 4559SOL     OW25309   1.129   1.107  12.521  0.4679  0.1426  0.1274
 4559SOL    HW125310   1.154   1.092  12.430 -1.3275 -0.8041 -0.2281
 4559SOL    HW225311   1.038   1.136  12.509  0.4698 -0.0340 -0.3349
 4560SOL     OW25312   0.657   4.418   3.328 -0.2621  0.3858 -0.5598
 4560SOL    HW125313   0.695   4.446   3.411  1.4218  0.8120 -1.4701
 4560SOL    HW225314   0.565   4.420   3.357  0.4763  1.9278  1.6356
 4561SOL     OW25315   1.826   3.531  14.290 -0.6736 -0.3573  0.0655
 4561SOL    HW125316   1.891   3.490  14.233  0.3355  0.5912  0.5263
 4561SOL    HW225317   1.825   3.619  14.252 -2.4331 -0.6776 -0.6488
 4562SOL     OW25318   3.456   2.795  15.055  0.5539 -0.2023 -0.0058
 4562SOL    HW125319   3.530   2.846  15.022 -0.4935  0.1001 -1.8756
 4562SOL    HW225320   3.498   2.710  15.042 -2.1877 -1.1378 -2.6695
 4563SOL     OW25321   2.027   0.761   8.740 -0.1921  0.7909  0.2115
 4563SOL    HW125322   2.044   0.667   8.748 -1.3607  0.6308  0.8075
 4563SOL    HW225323   1.942   0.778   8.781  0.8480  3.4558  1.2031
 4564SOL     OW25324   3.948   0.835   3.916  0.1950 -0.5612 -0.1199
 4564SOL    HW125325   3.867   0.785   3.924 -0.5258  0.9186  1.7610
 4564SOL    HW225326   3.924   0.901   3.981 -1.9147 -0.1834 -1.2454
 4565SOL     OW25327   0.577   2.736  10.991 -0.3184 -0.0218  0.0714
 4565SOL    HW125328   0.605   2.645  10.984 -2.6758 -0.6830 -0.7813
 4565SOL    HW225329   0.511   2.743  11.060 -0.0609  0.1271  0.3012
 4566SOL     OW25330   1.399   3.986   7.888  0.0120  0.5667 -0.3756
 4566SOL    HW125331   1.401   3.941   7.803 -0.5643  1.1412 -0.6959
 4566SOL    HW225332   1.392   3.909   7.944 -2.4139  0.7300 -0.4254
 4567SOL     OW25333   2.445   3.730  11.665  0.6737  0.3892  0.4435
 4567SOL    HW125334   2.537   3.723  11.636  0.1419  0.2936 -1.2315
 4567SOL    HW225335   2.427   3.824  11.664 -3.9099 -0.5027 -0.6704
 4568SOL     OW25336   0.353   1.455  12.403 -0.2837 -0.3490  0.2454
 4568SOL    HW125337   0.382   1.423  12.317  1.6286  0.1655  0.7018
 4568SOL    HW225338   0.412   1.529  12.417  0.4739 -1.1293  1.2467
 4569SOL     OW25339   3.534   0.620   5.114 -0.0484 -0.1491 -0.3226
 4569SOL    HW125340   3.562   0.602   5.025 -0.1905 -0.3605 -0.3225
 4569SOL    HW225341   3.476   0.544   5.122 -0.6770  0.1567 -2.1015
 4570SOL     OW25342   2.388   1.349   8.593 -0.1625  0.4693  0.1704
 4570SOL    HW125343   2.306   1.338   8.641  0.9682 -0.7293  1.8057
 4570SOL    HW225344   2.401   1.443   8.610 -0.6789  0.3665  1.1221
 4571SOL     OW25345   4.143   4.593  14.151 -0.7621  0.1453 -0.3153
 4571SOL    HW125346   4.048   4.587  14.137 -0.6165  2.0236 -2.1607
 4571SOL    HW225347   4.165   4.592  14.058  1.1557 -0.0264  0.1475
 4572SOL     OW25348   0.731   3.059   9.231  0.0058  0.3986 -0.3167
 4572SOL    HW125349   0.750   3.083   9.140  1.3265  1.9830  0.3680
 4572SOL    HW225350   0.703   3.138   9.278 -2.9325 -1.1682  0.5399
 4573SOL     OW25351   4.023   3.032   0.311 -0.0137 -0.3654 -0.4463
 4573SOL    HW125352   3.979   2.994   0.387  0.5417  0.1342  0.1325
 4573SOL    HW225353   4.055   2.959   0.258  3.3768  0.8320 -0.0785
 4574SOL     OW25354   0.479   0.097   1.478  0.1488 -0.9182  0.2627
 4574SOL    HW125355   0.430   0.132   1.403  0.8982  0.9871  0.6420
 4574SOL    HW225356   0.496   0.180   1.524 -0.0965 -0.5100 -0.3761
 4575SOL     OW25357   1.416   2.448   4.224  0.0535 -0.6526 -0.1037
 4575SOL    HW125358   1.398   2.402   4.306  2.6763 -0.9307  0.3004
 4575SOL    HW225359   1.455   2.531   4.251 -0.4083 -0.1319 -1.0373
 4576SOL     OW25360   3.815   1.770   6.140 -0.4761  0.2977 -0.6011
 4576SOL    HW125361   3.744   1.766   6.204  0.3759  1.3932  0.4084
 4576SOL    HW225362   3.792   1.689   6.093 -2.4196  0.3043  0.3363
 4577SOL     OW25363   4.142   1.195   1.733 -0.5888 -0.5244  0.0230
 4577SOL    HW125364   4.067   1.193   1.791 -1.1120  0.8959 -0.6010
 4577SOL    HW225365   4.173   1.106   1.747  2.7905  0.1837 -2.8132
 4578SOL     OW25366   3.626   2.547   5.313  0.3001 -0.4168  0.5565
 4578SOL    HW125367   3.666   2.522   5.396 -0.1876 -2.2867  0.2164
 4578SOL    HW225368   3.635   2.464   5.266  1.3994 -0.2568  0.4768
 4579SOL     OW25369   0.218   2.255   4.796 -0.7358  0.3436 -0.5392
 4579SOL    HW125370   0.133   2.256   4.752 -1.3572  2.3806  0.7111
 4579SOL    HW225371   0.262   2.188   4.743  2.4916  1.0407  1.2450
 4580SOL     OW25372   1.971   3.857   0.800  0.3187 -0.0861  0.2114
 4580SOL    HW125373   1.943   3.927   0.858  3.2527 -0.0057  1.5132
 4580SOL    HW225374   2.048   3.821   0.845 -0.1311  0.8029  1.6837
 4581SOL     OW25375   0.313   4.652  12.157  0.1998 -0.1773 -0.2988
 4581SOL    HW125376   0.403   4.620  12.155 -1.1139 -3.8419 -0.2667
 4581SOL    HW225377   0.291   4.635  12.065 -1.5265  1.6695 -0.2196
 4582SOL     OW25378   4.051   3.312   8.724 -0.3388 -0.2101 -0.0532
 4582SOL    HW125379   4.034   3.397   8.683 -1.1600 -0.8735 -1.0844
 4582SOL    HW225380   4.084   3.260   8.651  1.6881 -0.4783  1.0537
 4583SOL     OW25381   4.078   1.206  16.942 -0.1733 -0.0888  0.4081
 4583SOL    HW125382   4.010   1.273  16.951 -1.2548 -0.9058 -1.6871
 4583SOL    HW225383   4.050   1.159  17.021  1.6698 -1.3718  0.2822
 4584SOL     OW25384   4.169   4.109  11.760 -0.2849  0.1439  0.7591
 4584SOL    HW125385   4.146   4.202  11.759  1.3979  0.5443 -1.8249
 4584SOL    HW225386   4.134   4.069  11.680 -0.3232 -1.8229  1.7655
 4585SOL     OW25387   4.263   2.717   7.188  0.3614 -0.1551  0.4033
 4585SOL    HW125388   4.282   2.634   7.233  1.3257 -0.1638 -0.0307
 4585SOL    HW225389   4.208   2.769   7.247  0.0896 -1.0404  0.9370
 4586SOL     OW25390   4.001   0.536   7.472 -0.1531  0.2443  0.2895
 4586SOL    HW125391   3.930   0.481   7.440  0.4907 -0.4328  0.0174
 4586SOL    HW225392   4.009   0.604   7.406  0.0212 -1.9546 -1.9610
 4587SOL     OW25393   4.490   0.078  14.613  0.5501 -0.4586  0.3444
 4587SOL    HW125394   4.537   0.068  14.530 -0.1770 -1.0994  0.0161
 4587SOL    HW225395   4.520   4.734  14.659 -0.5631 -0.3022  1.3315
 4588SOL     OW25396   0.205   2.527   3.623  0.2831  0.3430  0.2187
 4588SOL    HW125397   0.119   2.557   3.593 -0.1362 -0.2331  0.8477
 4588SOL    HW225398   0.243   2.507   3.537  2.4147  0.2437  1.1832
 4589SOL     OW25399   0.267   1.838  15.816  0.1246  0.1472  0.2472
 4589SOL    HW125400   0.197   1.834  15.880  0.2968 -1.2099  0.3460
 4589SOL    HW225401   0.274   1.748  15.786 -1.8782  0.1368 -0.2023
 4590SOL     OW25402   2.370   1.340  11.421  0.3710 -0.3862 -0.0592
 4590SOL    HW125403   2.328   1.313  11.503 -1.3310  0.4279 -0.6539
 4590SOL    HW225404   2.394   1.255  11.384 -0.7436 -0.3974 -0.7766
 4591SOL     OW25405   1.670   4.047   2.531 -0.1313  0.0282  0.0535
 4591SOL    HW125406   1.634   4.132   2.507 -0.3761  0.1606  0.8946
 4591SOL    HW225407   1.628   3.990   2.467 -2.1488  0.3384  1.0947
 4592SOL     OW25408   0.419   2.744   5.446  0.3562 -0.0371  0.5709
 4592SOL    HW125409   0.514   2.732   5.457  0.3791  0.2792  0.7236
 4592SOL    HW225410   0.405   2.819   5.504 -0.5050  1.3489 -1.4269
 4593SOL     OW25411   3.064   3.422   5.795 -0.6116 -0.2979  0.4003
 4593SOL    HW125412   3.122   3.495   5.770 -3.5346  0.9693 -2.8024
 4593SOL    HW225413   3.091   3.351   5.737 -0.6172  0.4840 -0.5561
 4594SOL     OW25414   0.705   2.141   0.452  0.2450  0.3276  0.4009
 4594SOL    HW125415   0.792   2.177   0.435  0.2296 -0.8957 -2.2432
 4594SOL    HW225416   0.730   2.086   0.526  0.2984  0.4405  0.4657
 4595SOL     OW25417   3.378   1.075   6.359 -0.0965 -0.8247  0.0258
 4595SOL    HW125418   3.433   1.036   6.427 -0.2001  1.1178  1.2184
 4595SOL    HW225419   3.352   1.158   6.398 -0.6436 -1.3748  0.8330
 4596SOL     OW25420   1.318   2.686   3.635 -0.6755  0.3520  0.2463
 4596SOL    HW125421   1.306   2.607   3.688  0.0247  0.6500  0.8485
 4596SOL    HW225422   1.227   2.708   3.618 -0.2532  1.3444 -0.7806
 4597SOL     OW25423   3.746   3.096   6.493 -0.1378 -0.5379  0.0828
 4597SOL    HW125424   3.676   3.038   6.466  0.2003  0.1949 -2.3572
 4597SOL    HW225425   3.813   3.041   6.534 -0.2039 -0.2401  0.5929
 4598SOL     OW25426   4.568   0.081   8.165  0.0485 -0.3277 -0.2524
 4598SOL    HW125427   4.626   0.019   8.209  1.1938  0.3821 -0.7645
 4598SOL    HW225428   4.631   0.147   8.135  3.1467 -2.8189  0.8640
 4599SOL     OW25429   1.690   1.181   7.842 -0.1265  0.0408 -0.2634
 4599SOL    HW125430   1.768   1.207   7.892  0.3638 -2.9820  0.5185
 4599SOL    HW225431   1.717   1.204   7.753 -1.0630 -0.8247 -0.7614
 4600SOL     OW25432   0.895   1.751   8.688 -0.0167 -0.4851 -0.4618
 4600SOL    HW125433   0.890   1.846   8.689 -2.2930 -0.5966 -0.4245
 4600SOL    HW225434   0.969   1.727   8.743 -1.5816 -0.4169  1.6988
 4601SOL     OW25435   2.320   3.912   7.204  0.2523  0.1272 -0.1452
 4601SOL    HW125436   2.331   3.863   7.285 -1.0882 -0.3279 -0.2324
 4601SOL    HW225437   2.384   3.875   7.144  1.8680  2.0349  0.4140
 4602SOL     OW25438   3.234   2.223   2.304 -0.5304 -0.0438  1.1335
 4602SOL    HW125439   3.193   2.308   2.321 -0.7359  0.2548 -0.8963
 4602SOL    HW225440   3.307   2.226   2.366  1.5451 -0.0008 -1.3404
 4603SOL     OW25441   4.652   3.956   4.960  0.7940  0.9883 -0.6398
 4603SOL    HW125442   4.629   4.046   4.936 -0.9654  1.0833  1.4095
 4603SOL    HW225443   4.717   3.948   4.891  3.3708  1.2212  1.7774
 4604SOL     OW25444   4.548   0.846   4.934  0.6871 -0.3463 -0.1314
 4604SOL    HW125445   4.624   0.833   4.878  0.9952 -1.6127  0.5711
 4604SOL    HW225446   4.493   0.897   4.875  0.4198 -0.8486 -0.3201
 4605SOL     OW25447   0.271   3.304   3.470 -0.4217  0.3363  0.0197
 4605SOL    HW125448   0.357   3.346   3.458 -0.6650  0.7806 -0.1707
 4605SOL    HW225449   0.232   3.341   3.549  2.4937  1.1757  1.0567
 4606SOL     OW25450   1.284   1.604   3.045  0.2584  0.6541  0.0289
 4606SOL    HW125451   1.244   1.626   2.961 -1.0603  0.9155  0.7282
 4606SOL    HW225452   1.230   1.535   3.083  0.0847 -0.0625 -1.5351
 4607SOL     OW25453   2.578   1.341   6.778 -0.3074 -0.4780 -0.1770
 4607SOL    HW125454   2.483   1.349   6.772 -0.3027 -1.0385 -0.9465
 4607SOL    HW225455   2.596   1.346   6.872  0.1360  0.5514 -0.3163
 4608SOL     OW25456   4.147   1.503  17.099 -0.2215 -0.1840  0.0206
 4608SOL    HW125457   4.081   1.511  17.030  0.5953  0.6257 -0.6641
 4608SOL    HW225458   4.193   1.587  17.092 -1.7112  0.9613  4.0020
 4609SOL     OW25459   1.595   1.241   9.622 -0.0445 -0.0039  0.4100
 4609SOL    HW125460   1.639   1.247   9.538  0.7887  0.2259  0.8619
 4609SOL    HW225461   1.660   1.197   9.677 -0.0880 -0.7278 -0.1149
 4610SOL     OW25462   2.809   0.731   0.440  0.0896  0.2089  0.4527
 4610SOL    HW125463   2.825   0.668   0.510 -2.0073 -1.7906 -0.8911
 4610SOL    HW225464   2.803   0.681   0.359  0.0507 -0.9028  1.1447
 4611SOL     OW25465   0.061   0.817  14.671  0.3059  0.2703 -0.2626
 4611SOL    HW125466   0.029   0.767  14.746 -0.4031  1.5371  0.2749
 4611SOL    HW225467   0.023   0.782  14.590  0.7740 -1.5561  0.2918
 4612SOL     OW25468   2.599   3.015   3.330 -0.2158 -0.2092  0.3037
 4612SOL    HW125469   2.546   3.078   3.379 -0.0815 -0.1176  0.3291
 4612SOL    HW225470   2.585   2.936   3.383 -0.1681 -0.0906  0.4939
 4613SOL     OW25471   4.116   0.793   5.696  0.2282  0.1515 -0.3249
 4613SOL    HW125472   4.105   0.871   5.641  1.3173 -0.1160 -0.9140
 4613SOL    HW225473   4.047   0.799   5.762  0.3767  0.3519 -0.1916
 4614SOL     OW25474   3.034   1.561   3.308  0.4993  0.0604  0.1546
 4614SOL    HW125475   3.033   1.554   3.212  1.9667 -2.5153  0.3489
 4614SOL    HW225476   3.094   1.490   3.330 -0.7472 -1.6837 -2.0571
 4615SOL     OW25477   0.679   3.210  16.049  0.2994  0.1311 -0.3295
 4615SOL    HW125478   0.760   3.251  16.018 -0.4907  3.2218  1.6819
 4615SOL    HW225479   0.617   3.283  16.056 -1.8982 -1.7153 -0.6227
 4616SOL     OW25480   0.356   3.211   6.642 -0.1269  0.1017  0.0818
 4616SOL    HW125481   0.307   3.247   6.716  0.6510  0.6241  0.3482
 4616SOL    HW225482   0.363   3.285   6.582 -2.1928 -0.5605 -0.9511
 4617SOL     OW25483   2.283   2.515  15.240  0.6913 -0.6106  0.1048
 4617SOL    HW125484   2.298   2.488  15.149 -1.6220 -0.1023 -0.4435
 4617SOL    HW225485   2.216   2.582  15.221 -0.0589 -1.5125 -0.4287
 4618SOL     OW25486   4.353   3.838   3.465 -0.2015  0.1783  0.3361
 4618SOL    HW125487   4.446   3.834   3.487  0.1995 -1.2371 -1.5803
 4618SOL    HW225488   4.362   3.864   3.373 -1.1837  0.1913  0.2422
 4619SOL     OW25489   2.118   2.256  16.129  0.1760 -0.2954 -0.1701
 4619SOL    HW125490   2.089   2.173  16.168 -1.4028  0.8439  1.0825
 4619SOL    HW225491   2.049   2.313  16.164 -0.3556 -1.9410  1.4621
 4620SOL     OW25492   4.446   3.053   6.559  0.0100  0.0829  0.2675
 4620SOL    HW125493   4.459   3.072   6.466 -0.7788  1.5253  0.4451
 4620SOL    HW225494   4.385   2.980   6.561  1.1955 -0.9238 -0.5531
 4621SOL     OW25495   3.022   1.325   4.841 -0.3285  0.1914 -0.4937
 4621SOL    HW125496   3.040   1.254   4.779 -0.3494  0.3015 -0.6276
 4621SOL    HW225497   2.932   1.300   4.862  0.4944 -1.6421  0.8770
 4622SOL     OW25498   4.411   1.273  13.605 -0.1311  0.0830 -1.1218
 4622SOL    HW125499   4.455   1.246  13.685 -1.6064  0.3680 -0.2152
 4622SOL    HW225500   4.319   1.264  13.630  0.6686 -0.2952  1.5828
 4623SOL     OW25501   4.654   3.574   2.553 -0.1275  0.3053 -0.5281
 4623SOL    HW125502   4.601   3.515   2.607  0.2020 -1.8712 -2.5479
 4623SOL    HW225503   4.730   3.520   2.531 -0.7814 -0.4895 -0.8364
 4624SOL     OW25504   1.253   3.512   7.191 -0.2985  0.0202  0.0461
 4624SOL    HW125505   1.165   3.537   7.218 -0.1346 -0.8852  1.3920
 4624SOL    HW225506   1.274   3.453   7.263  1.2838  1.5631  0.8553
 4625SOL     OW25507   2.080   1.798   2.853 -0.4081 -0.0740  0.8676
 4625SOL    HW125508   1.985   1.810   2.847 -0.3387  0.9008  1.8431
 4625SOL    HW225509   2.097   1.718   2.803 -2.3786 -0.0023  0.0590
 4626SOL     OW25510   0.496   4.318   6.949  0.2152  0.1287  0.2928
 4626SOL    HW125511   0.548   4.314   7.029 -1.9870  0.9411  1.7651
 4626SOL    HW225512   0.522   4.403   6.913 -2.0098  0.9125  0.5702
 4627SOL     OW25513   3.722   3.292   8.335 -0.1430 -0.4935  0.2867
 4627SOL    HW125514   3.701   3.258   8.422  1.1797  2.8434  1.9069
 4627SOL    HW225515   3.817   3.298   8.349 -0.3994 -0.0640  1.8736
 4628SOL     OW25516   1.816   2.914   9.214  0.0837  0.1749  0.1136
 4628SOL    HW125517   1.777   2.842   9.266 -0.2600  0.0260 -0.3528
 4628SOL    HW225518   1.864   2.970   9.275  3.7307 -2.7928 -0.0312
 4629SOL     OW25519   2.972   4.632   4.303  0.1421 -0.3076  0.4336
 4629SOL    HW125520   3.057   4.618   4.263  0.6705  0.6653  1.1956
 4629SOL    HW225521   2.927   4.547   4.297 -0.9184  0.0331  3.3858
 4630SOL     OW25522   1.686   0.747  14.298 -0.1507 -0.5762  0.0132
 4630SOL    HW125523   1.691   0.677  14.232 -0.0563 -0.6437  0.0924
 4630SOL    HW225524   1.713   0.694  14.373  2.0656  0.6345  0.0562
 4631SOL     OW25525   3.688   0.128   6.227 -0.4224 -0.0190  0.4365
 4631SOL    HW125526   3.628   0.122   6.301 -0.0762 -2.2872  0.5463
 4631SOL    HW225527   3.765   0.076   6.250 -0.4573 -0.1788  0.2036
 4632SOL     OW25528   3.890   1.694  12.244 -0.1116 -0.2579  0.0210
 4632SOL    HW125529   3.807   1.734  12.269 -0.9673 -1.5078 -0.8248
 4632SOL    HW225530   3.955   1.757  12.276  0.4727 -2.5436  3.3862
 4633SOL     OW25531   3.979   0.882   8.569 -0.2792  0.0838  0.1363
 4633SOL    HW125532   3.885   0.877   8.585 -0.4949  1.8788 -0.4942
 4633SOL    HW225533   4.014   0.932   8.642 -1.7807 -0.2327  1.0769
 4634SOL     OW25534   2.441   2.756   6.635  0.1263 -0.0973  0.2724
 4634SOL    HW125535   2.466   2.678   6.684  2.4505  1.7617  2.0553
 4634SOL    HW225536   2.499   2.761   6.560 -0.3327  1.5086  0.0168
 4635SOL     OW25537   0.421   1.386   3.686 -0.5992  0.2476  0.0326
 4635SOL    HW125538   0.378   1.414   3.605  0.3469  3.0499  0.4881
 4635SOL    HW225539   0.433   1.296   3.654 -0.5476  0.6991 -1.2290
 4636SOL     OW25540   4.650   4.512  13.046  0.3625 -0.0834 -0.1171
 4636SOL    HW125541   4.689   4.599  13.058 -2.3195  0.9321  1.1226
 4636SOL    HW225542   4.660   4.479  13.135 -1.0071 -2.5799 -0.8929
 4637SOL     OW25543   3.030   3.705   9.130 -0.3764  0.4331  0.1247
 4637SOL    HW125544   3.073   3.685   9.213  0.1819 -0.4911 -0.3919
 4637SOL    HW225545   3.107   3.723   9.076  0.4937 -0.2201  1.1334
 4638SOL     OW25546   4.491   0.859   1.713 -0.1359  0.1646 -0.0780
 4638SOL    HW125547   4.480   0.772   1.673  3.7283 -0.7859  0.9330
 4638SOL    HW225548   4.586   0.865   1.708 -0.2206  1.4914 -0.1018
 4639SOL     OW25549   4.402   3.345  12.009 -0.5533 -0.2826  0.4648
 4639SOL    HW125550   4.328   3.287  12.030 -0.7629 -0.4313 -0.7338
 4639SOL    HW225551   4.459   3.286  11.959  0.6497  1.3180 -0.0257
 4640SOL     OW25552   2.415   1.647   8.624 -0.1945 -0.4358  0.1600
 4640SOL    HW125553   2.426   1.635   8.718  1.3605 -0.4729 -0.0170
 4640SOL    HW225554   2.334   1.698   8.622 -0.5990 -1.0884 -0.3758
 4641SOL     OW25555   4.392   2.650  13.015  0.4082 -0.1030 -0.5300
 4641SOL    HW125556   4.458   2.690  13.071 -1.2775 -0.2799  1.5728
 4641SOL    HW225557   4.438   2.572  12.983  1.4531  0.2706  0.0526
 4642SOL     OW25558   2.801   0.098   5.684  0.2070  0.1776 -0.2409
 4642SOL    HW125559   2.802   0.185   5.723  1.9152  0.9070 -1.8887
 4642SOL    HW225560   2.722   0.110   5.631  0.8214 -0.3296 -1.2701
 4643SOL     OW25561   4.015   0.476   4.495 -0.2852  0.3695 -0.1014
 4643SOL    HW125562   4.063   0.422   4.558 -0.1508  1.0002  0.3352
 4643SOL    HW225563   4.065   0.457   4.415 -2.3925  1.3926 -1.6720
 4644SOL     OW25564   0.806   0.788   8.655  0.5781  0.3381 -0.7931
 4644SOL    HW125565   0.716   0.803   8.625  0.6533  0.8326 -0.7681
 4644SOL    HW225566   0.838   0.873   8.684  2.6432 -0.7391  0.0420
 4645SOL     OW25567   2.438   0.098   9.060  0.3752 -0.4483  0.0638
 4645SOL    HW125568   2.378   0.060   8.996  0.8585 -0.9092 -0.1105
 4645SOL    HW225569   2.381   0.091   9.137  1.0920  1.1220  0.7490
 4646SOL     OW25570   2.026   1.822   6.936 -0.7918 -0.0080  0.2048
 4646SOL    HW125571   1.975   1.742   6.925  0.2547 -0.5487 -0.7370
 4646SOL    HW225572   2.064   1.820   6.849  0.5980 -0.9042  0.8281
 4647SOL     OW25573   3.613   3.675   8.642  0.5770  0.1656  0.0410
 4647SOL    HW125574   3.612   3.765   8.608 -2.2249  0.5279  1.0525
 4647SOL    HW225575   3.693   3.674   8.694  0.2029 -0.4491  0.6012
 4648SOL     OW25576   0.592   4.209   9.397 -0.3745 -0.1359 -0.2106
 4648SOL    HW125577   0.611   4.256   9.316 -0.4422  0.2995  0.0227
 4648SOL    HW225578   0.647   4.259   9.458  0.2491  1.6263 -2.1889
 4649SOL     OW25579   4.522   0.952   7.193 -0.4728  0.3265  0.4644
 4649SOL    HW125580   4.563   0.929   7.109  0.7277  0.8349  0.9054
 4649SOL    HW225581   4.436   0.910   7.188 -0.6669  0.8369 -0.4542
 4650SOL     OW25582   1.359   1.393   0.559  0.3962  0.0829  0.3825
 4650SOL    HW125583   1.359   1.486   0.535  0.7690 -0.4286 -1.5332
 4650SOL    HW225584   1.349   1.361   0.470  1.4697 -0.5420  0.4828
 4651SOL     OW25585   1.659   3.164   5.515  0.3988  0.1576  0.6526
 4651SOL    HW125586   1.635   3.087   5.566  0.8553  0.0465  0.6983
 4651SOL    HW225587   1.755   3.159   5.508  0.4290  0.1743  1.0678
 4652SOL     OW25588   2.146   1.697   8.129  0.2710 -0.0345  0.2573
 4652SOL    HW125589   2.097   1.664   8.053  1.0710 -0.1464 -0.2076
 4652SOL    HW225590   2.130   1.791   8.119  2.4210  0.2762 -0.2453
 4653SOL     OW25591   3.900   2.638   6.708  0.0956 -0.3603  0.7278
 4653SOL    HW125592   3.951   2.713   6.737 -0.6849  0.2474  0.5327
 4653SOL    HW225593   3.919   2.632   6.614  1.4030 -1.5898  1.0549
 4654SOL     OW25594   4.128   4.631  13.872  0.1536  0.0826  0.0107
 4654SOL    HW125595   4.138   4.589  13.787  0.4834 -0.4375  0.3027
 4654SOL    HW225596   4.109   4.723  13.853  2.6041  0.1542 -2.0393
 4655SOL     OW25597   3.565   1.856   5.702  0.0098  0.5829  0.5323
 4655SOL    HW125598   3.527   1.771   5.726  1.3574 -0.5887 -1.5518
 4655SOL    HW225599   3.544   1.899   5.785 -0.2519  1.5847 -0.0510
 4656SOL     OW25600   0.967   2.349   9.765 -0.3042 -0.3824  0.2132
 4656SOL    HW125601   0.974   2.258   9.735 -1.0535 -0.4393  0.2186
 4656SOL    HW225602   0.927   2.339   9.851 -2.3576 -0.8446 -0.7905
 4657SOL     OW25603   4.249   1.314   7.440  0.3274  1.1957  0.4547
 4657SOL    HW125604   4.218   1.401   7.464  0.8362  1.9094 -1.4807
 4657SOL    HW225605   4.279   1.323   7.350  3.9891  0.3746  1.5706
 4658SOL     OW25606   2.600   1.832   8.230 -0.1179 -0.6699  0.1377
 4658SOL    HW125607   2.534   1.841   8.298 -0.1917  1.6705 -0.2617
 4658SOL    HW225608   2.548   1.842   8.151 -0.2441 -1.3921  0.1263
 4659SOL     OW25609   1.154   1.748   4.165 -0.3476  0.2708  0.0797
 4659SOL    HW125610   1.244   1.755   4.196 -0.5417 -0.9081  0.8938
 4659SOL    HW225611   1.103   1.765   4.244 -1.6971 -3.3871  0.0113
 4660SOL     OW25612   3.978   0.443   6.747 -0.1274  0.0565 -0.0489
 4660SOL    HW125613   4.005   0.396   6.826  1.8503  0.5738 -0.4230
 4660SOL    HW225614   4.046   0.421   6.684 -1.2986 -1.2707 -0.8342
 4661SOL     OW25615   3.784   2.884   2.373 -0.2059  0.0639 -0.1498
 4661SOL    HW125616   3.843   2.935   2.428 -2.5823  0.6412  1.8549
 4661SOL    HW225617   3.697   2.907   2.405  0.7590 -0.3130  2.7384
 4662SOL     OW25618   4.036   1.764   3.072 -0.4621 -0.0307  0.5215
 4662SOL    HW125619   4.050   1.809   3.155 -2.4854 -0.3521  1.0362
 4662SOL    HW225620   4.094   1.818   3.018  1.8634 -2.4651  0.5777
 4663SOL     OW25621   0.113   1.140   6.564 -0.4952  0.0278 -0.2823
 4663SOL    HW125622   0.118   1.232   6.538  0.0532  0.2049  0.4396
 4663SOL    HW225623   0.173   1.107   6.497 -0.0947  0.7946 -0.3007
 4664SOL     OW25624   3.688   3.787   1.745 -0.4215 -0.8792  0.5252
 4664SOL    HW125625   3.742   3.850   1.793  1.6161 -2.7757  0.6820
 4664SOL    HW225626   3.609   3.841   1.740  0.1191 -0.1152  0.1981
 4665SOL     OW25627   3.478   0.251   3.637  0.2233 -0.3325 -0.4667
 4665SOL    HW125628   3.444   0.269   3.725 -0.5260 -1.4313 -0.5392
 4665SOL    HW225629   3.571   0.245   3.660  0.1319  1.6845  0.5169
 4666SOL     OW25630   2.569   4.260   7.565  0.2074 -0.1823 -0.1545
 4666SOL    HW125631   2.536   4.350   7.563  0.8822  0.0573 -0.4453
 4666SOL    HW225632   2.577   4.254   7.470  0.1534 -0.6745 -0.1280
 4667SOL     OW25633   4.454   1.537   0.641  0.1077 -0.3869 -0.0066
 4667SOL    HW125634   4.524   1.473   0.631  0.6853  0.1131  0.8035
 4667SOL    HW225635   4.404   1.509   0.565 -0.6989  2.0543 -0.3765
 4668SOL     OW25636   1.574   2.343  14.360 -0.1023 -0.3294  0.4741
 4668SOL    HW125637   1.487   2.317  14.392 -1.0701  1.5084 -0.6834
 4668SOL    HW225638   1.595   2.252  14.342 -0.7457 -0.2413 -0.7088
 4669SOL     OW25639   1.281   2.066   5.637  0.2548  0.5643 -0.4417
 4669SOL    HW125640   1.335   2.048   5.714  0.5424  0.6087 -0.6337
 4669SOL    HW225641   1.199   2.055   5.685  1.5900  1.0178  1.9978
 4670SOL     OW25642   0.757   2.385   2.766 -0.2461  0.0289 -0.2997
 4670SOL    HW125643   0.796   2.457   2.716 -1.5117  0.8373 -0.1137
 4670SOL    HW225644   0.791   2.306   2.726  0.5586  0.0897  0.2550
 4671SOL     OW25645   4.498   0.325  16.366  0.3675  0.0243  0.3258
 4671SOL    HW125646   4.499   0.401  16.426 -0.1669  0.7170 -0.5450
 4671SOL    HW225647   4.446   0.362  16.295 -0.8307 -1.3729  0.4694
 4672SOL     OW25648   0.243   3.805   2.479 -0.2871 -0.5018 -0.5102
 4672SOL    HW125649   0.310   3.873   2.485 -0.5811 -0.2810  0.2686
 4672SOL    HW225650   0.251   3.776   2.388 -2.1360 -1.4821 -0.3680
 4673SOL     OW25651   3.510   3.009   6.367  0.1107 -0.0975  0.3518
 4673SOL    HW125652   3.432   2.955   6.378  1.6363 -2.6667 -1.5892
 4673SOL    HW225653   3.486   3.071   6.297 -0.2112 -0.0548  0.5004
 4674SOL     OW25654   3.342   0.882  11.870  0.5284  0.1853 -0.0208
 4674SOL    HW125655   3.320   0.970  11.840 -0.4716  0.2807  1.0002
 4674SOL    HW225656   3.373   0.887  11.961  1.9062 -2.7617 -0.3093
 4675SOL     OW25657   1.633   1.584   3.515  0.0777  0.1324 -0.4382
 4675SOL    HW125658   1.656   1.659   3.460  0.1115  0.9108  0.6388
 4675SOL    HW225659   1.551   1.559   3.472 -0.5266 -0.0225  0.7903
 4676SOL     OW25660   3.685   4.057   5.537 -0.0622  0.3180  1.0054
 4676SOL    HW125661   3.622   4.022   5.475 -0.6320 -0.3977  1.9774
 4676SOL    HW225662   3.626   4.124   5.574 -0.9826  0.7462 -1.2310
 4677SOL     OW25663   4.693   1.859   5.928 -1.1232 -0.2013 -0.5278
 4677SOL    HW125664   4.668   1.919   5.857 -0.1742  2.1813  1.1794
 4677SOL    HW225665   0.028   1.912   5.966 -1.5900  1.1464 -1.5615
 4678SOL     OW25666   1.957   3.080   1.983  0.1330 -0.4360  0.0033
 4678SOL    HW125667   1.976   3.095   2.076 -1.6079 -3.4315  0.8404
 4678SOL    HW225668   1.862   3.097   1.984  0.3736  0.8562  1.0367
 4679SOL     OW25669   1.636   3.021   6.776  0.0954 -0.5246 -0.6075
 4679SOL    HW125670   1.593   3.015   6.691  2.0398  2.6618 -1.8297
 4679SOL    HW225671   1.568   3.068   6.824 -0.1977 -1.2784 -0.2850
 4680SOL     OW25672   0.902   1.888   8.379 -0.3928 -0.0210 -0.4336
 4680SOL    HW125673   0.949   1.966   8.407  0.0250 -1.0685  1.7579
 4680SOL    HW225674   0.820   1.925   8.345 -0.3923  1.0413  0.7356
 4681SOL     OW25675   1.436   1.004  13.736 -0.3968 -0.1475 -0.2343
 4681SOL    HW125676   1.371   0.995  13.805 -0.2180  1.7433  0.1748
 4681SOL    HW225677   1.402   0.950  13.664 -0.7459  2.1890 -1.8054
 4682SOL     OW25678   4.376   2.102   2.753  0.4315  0.6715  0.0777
 4682SOL    HW125679   4.432   2.180   2.752 -0.3011  1.1923 -1.0667
 4682SOL    HW225680   4.305   2.126   2.812 -0.0990 -0.8137  0.0401
 4683SOL     OW25681   4.705   0.288   3.361 -0.0478  0.2772  0.2936
 4683SOL    HW125682   4.611   0.274   3.354  0.3624 -1.8731 -1.0164
 4683SOL    HW225683   4.715   0.216   3.424 -0.0780 -0.3632 -0.4415
 4684SOL     OW25684   2.172   1.095   4.471 -0.4467 -0.4430  0.2498
 4684SOL    HW125685   2.119   1.049   4.406  0.1315  0.8019 -1.0988
 4684SOL    HW225686   2.159   1.036   4.545  1.2455 -2.6856 -1.2257
 4685SOL     OW25687   3.393   0.527  15.326 -0.2123  0.2024  0.0090
 4685SOL    HW125688   3.416   0.564  15.411  0.0619 -1.4580  0.6635
 4685SOL    HW225689   3.481   0.492  15.307 -0.1944  0.0116  0.4480
 4686SOL     OW25690   1.655   3.067   9.706 -0.6321 -0.1528 -0.0594
 4686SOL    HW125691   1.641   2.973   9.721 -1.2182 -0.0246  0.1875
 4686SOL    HW225692   1.734   3.073   9.651  0.8316 -0.2130  2.0137
 4687SOL     OW25693   2.335   4.248   2.482  0.4865  0.4833 -0.4182
 4687SOL    HW125694   2.426   4.266   2.506  0.5980  0.5674 -0.9002
 4687SOL    HW225695   2.295   4.329   2.513 -1.4710 -0.5776 -0.1730
 4688SOL     OW25696   0.791   2.118   5.883  0.5627 -0.2880  0.0443
 4688SOL    HW125697   0.797   2.051   5.950  1.2660  0.6286  0.8943
 4688SOL    HW225698   0.749   2.066   5.814  3.2890 -0.9163 -1.1628
 4689SOL     OW25699   4.687   0.595  15.115  0.4878 -0.2231 -0.3942
 4689SOL    HW125700   4.632   0.526  15.076  0.4154 -0.5245  0.2400
 4689SOL    HW225701   4.679   0.577  15.209 -0.2066 -2.0459 -0.7923
 4690SOL     OW25702   0.577   1.449   9.332 -0.8198  0.1247  0.2391
 4690SOL    HW125703   0.614   1.402   9.258  0.3784 -0.8354  1.4557
 4690SOL    HW225704   0.483   1.449   9.312 -0.5794  1.7315 -0.8691
 4691SOL     OW25705   3.372   3.264  15.043 -0.7655  1.1303 -0.3943
 4691SOL    HW125706   3.437   3.273  15.113 -1.6050  0.6301  0.4578
 4691SOL    HW225707   3.300   3.318  15.075  0.3307  1.1188  2.1419
 4692SOL     OW25708   0.604   1.736  15.881 -0.6263  0.5683  0.1341
 4692SOL    HW125709   0.659   1.735  15.959 -1.7974 -2.5219  0.8919
 4692SOL    HW225710   0.515   1.730  15.916  0.1396  1.6871  2.2644
 4693SOL     OW25711   2.271   0.043   9.268  0.5978  0.2176  0.2315
 4693SOL    HW125712   2.325   4.701   9.288 -0.9951 -0.8136  0.5830
 4693SOL    HW225713   2.196   0.012   9.218  1.3626 -0.9741 -0.1579
 4694SOL     OW25714   1.207   2.145   8.925  0.4335  0.6314  0.9820
 4694SOL    HW125715   1.153   2.224   8.933  3.0364  2.6784 -1.2864
 4694SOL    HW225716   1.240   2.154   8.835 -1.0499 -1.7332  0.1964
 4695SOL     OW25717   2.782   3.492  15.766 -0.4386  0.5805  0.3469
 4695SOL    HW125718   2.782   3.588  15.763 -0.5326  0.4949 -2.2402
 4695SOL    HW225719   2.813   3.468  15.853  1.4379  0.1901 -0.4350
 4696SOL     OW25720   0.126   4.255   8.215 -0.5273 -0.1842 -0.2518
 4696SOL    HW125721   0.133   4.175   8.162  1.4644 -0.8812  1.0488
 4696SOL    HW225722   0.215   4.272   8.246 -1.3403 -0.8725  2.4980
 4697SOL     OW25723   3.833   0.552   7.789 -0.5526 -0.0031 -0.4922
 4697SOL    HW125724   3.882   0.525   7.711 -0.4499 -0.5194 -0.2472
 4697SOL    HW225725   3.851   0.643   7.812  1.7495 -0.7061  0.5485
 4698SOL     OW25726   3.772   0.408   3.937 -0.4023  0.3327 -0.3620
 4698SOL    HW125727   3.741   0.360   4.014  0.4430  0.8701  0.3293
 4698SOL    HW225728   3.782   0.337   3.874  1.2407 -0.9520  1.3552
 4699SOL     OW25729   2.962   0.551   4.815  0.4531  0.4199 -0.3506
 4699SOL    HW125730   2.906   0.530   4.740 -1.6857 -0.1068  1.3703
 4699SOL    HW225731   2.899   0.572   4.885 -0.7591 -1.5621 -0.8431
 4700SOL     OW25732   1.314   0.367   0.031 -0.5380  0.0681 -0.3146
 4700SOL    HW125733   1.240   0.381   0.089  1.5095  1.6053  1.9041
 4700SOL    HW225734   1.330   0.272   0.033 -0.9882  0.0325  1.5397
 4701SOL     OW25735   3.940   4.326   1.652 -0.4265  0.1822 -0.0611
 4701SOL    HW125736   3.967   4.317   1.560 -0.8822 -3.9049  0.1987
 4701SOL    HW225737   3.928   4.233   1.672  4.0812 -0.0969  1.2538
 4702SOL     OW25738   0.935   3.027  10.238 -0.0603  0.3030  0.6278
 4702SOL    HW125739   0.996   2.977  10.184  0.0576  0.5205  0.5568
 4702SOL    HW225740   0.851   2.986  10.218  0.1677  0.7666 -1.3078
 4703SOL     OW25741   2.014   2.261   4.243 -0.1433 -0.1188  0.9464
 4703SOL    HW125742   2.083   2.196   4.247 -0.4330 -0.3447  2.1899
 4703SOL    HW225743   2.059   2.345   4.254 -0.6308  0.5635 -2.1716
 4704SOL     OW25744   2.138   1.764  10.008  0.4272 -0.7063 -0.2686
 4704SOL    HW125745   2.112   1.680  10.046 -2.4208  0.9949  1.5326
 4704SOL    HW225746   2.224   1.742   9.974 -0.0648 -0.2702 -1.8072
 4705SOL     OW25747   4.317   2.444   2.683 -0.0457  0.5641  0.1249
 4705SOL    HW125748   4.279   2.421   2.599 -1.2123  0.8538  0.5731
 4705SOL    HW225749   4.312   2.538   2.666 -0.6484  0.4901 -0.1210
 4706SOL     OW25750   0.296   2.167   6.342  0.1033 -0.1309 -0.0918
 4706SOL    HW125751   0.389   2.156   6.322  0.1066  0.9197 -0.6453
 4706SOL    HW225752   0.252   2.084   6.326 -0.1971 -0.3035  1.6626
 4707SOL     OW25753   2.222   0.105   8.667 -0.2331 -0.5275  0.0539
 4707SOL    HW125754   2.214   0.029   8.608 -0.0105 -0.6914  0.2353
 4707SOL    HW225755   2.134   0.141   8.662 -0.1846 -0.5071 -0.6658
 4708SOL     OW25756   1.051   3.894  10.636  0.3931 -0.1327  0.2927
 4708SOL    HW125757   1.137   3.923  10.606 -0.1137 -0.6963 -1.7119
 4708SOL    HW225758   1.073   3.801  10.647  1.6174  0.0061 -1.0087
 4709SOL     OW25759   3.162   1.742   4.335  0.1438 -0.0806 -0.1038
 4709SOL    HW125760   3.253   1.760   4.315  0.1224 -1.3297 -1.2447
 4709SOL    HW225761   3.145   1.671   4.273 -0.3573  0.4780 -0.6074
 4710SOL     OW25762   1.948   0.182   6.301  0.0288 -0.3256  0.2970
 4710SOL    HW125763   1.883   0.253   6.299 -0.5085 -0.8082  0.5024
 4710SOL    HW225764   2.008   0.210   6.370 -0.9485  0.7552  0.7236
 4711SOL     OW25765   0.328   0.796  16.900  0.2221  0.5601  0.1290
 4711SOL    HW125766   0.388   0.722  16.907 -0.4221 -0.1723 -2.1452
 4711SOL    HW225767   0.386   0.860  16.859 -0.0190  0.8110  0.1824
 4712SOL     OW25768   1.612   4.437   4.519 -0.2862  0.1822 -0.0708
 4712SOL    HW125769   1.555   4.507   4.551 -0.1576 -0.2515  1.1180
 4712SOL    HW225770   1.545   4.399   4.463 -1.5269  2.0016  0.1831
 4713SOL     OW25771   3.724   2.946   5.923 -0.2680 -0.2659 -0.3317
 4713SOL    HW125772   3.773   2.985   5.851  2.1112 -2.0725  0.3067
 4713SOL    HW225773   3.708   2.861   5.883 -0.2010 -0.7255  0.6190
 4714SOL     OW25774   3.415   0.098   5.858  0.2201 -0.5951 -0.5634
 4714SOL    HW125775   3.443   0.038   5.927 -0.4220  0.5969  0.7366
 4714SOL    HW225776   3.362   0.153   5.916 -0.2657 -1.5568 -0.0904
 4715SOL     OW25777   4.684   0.708  10.117  0.2718  0.1271  0.2632
 4715SOL    HW125778   0.008   0.783  10.116  2.6369 -1.7042  1.1225
 4715SOL    HW225779   0.007   0.653  10.170 -3.5775 -2.6841  1.5902
 4716SOL     OW25780   3.464   0.038   6.327  0.9487 -0.3114  0.2435
 4716SOL    HW125781   3.386   4.718   6.315  1.0822 -0.4756  0.1225
 4716SOL    HW225782   3.426   0.125   6.320 -1.4549 -1.4810 -1.2004
 4717SOL     OW25783   0.892   4.108  15.367  0.2547 -0.4400 -0.0150
 4717SOL    HW125784   0.892   4.174  15.298  1.2058 -0.0984  0.3091
 4717SOL    HW225785   0.825   4.145  15.425 -0.7091 -0.4094 -1.1434
 4718SOL     OW25786   2.208   3.013   1.844  0.0457  0.7242 -0.0577
 4718SOL    HW125787   2.199   3.074   1.770  1.1808  0.8033 -0.1360
 4718SOL    HW225788   2.125   3.012   1.892 -0.8126 -0.0307 -1.5408
 4719SOL     OW25789   0.014   4.019  12.201  0.2444  0.3934 -0.9952
 4719SOL    HW125790   0.045   3.956  12.136 -0.8690  0.7482 -1.8590
 4719SOL    HW225791   4.665   4.047  12.164 -1.2600 -1.5057  1.0323
 4720SOL     OW25792   2.272   3.293   7.326 -0.1811  0.0578 -0.3642
 4720SOL    HW125793   2.294   3.368   7.382 -3.8213  0.3281  0.6878
 4720SOL    HW225794   2.321   3.226   7.373 -1.9998 -0.0973  1.3179
 4721SOL     OW25795   0.154   1.146   8.084  0.3582 -0.5547 -0.4420
 4721SOL    HW125796   0.242   1.145   8.120  1.5336 -2.3707 -3.3446
 4721SOL    HW225797   0.163   1.060   8.043  1.3793  0.0792 -1.5562
 4722SOL     OW25798   4.308   4.183   5.560  0.8382  0.3004  0.3117
 4722SOL    HW125799   4.230   4.179   5.505  0.2397  0.1219  1.1760
 4722SOL    HW225800   4.327   4.096   5.596 -1.0904 -0.5719 -0.7755
 4723SOL     OW25801   0.837   0.720  12.410  0.0261 -0.7911 -0.2859
 4723SOL    HW125802   0.818   0.716  12.503 -0.5404  1.2358 -0.3095
 4723SOL    HW225803   0.808   0.807  12.382  2.0509 -0.3706 -1.1449
 4724SOL     OW25804   1.767   0.519   7.938  0.4661 -0.0296  0.5515
 4724SOL    HW125805   1.843   0.462   7.931  0.2136 -0.2379 -0.4037
 4724SOL    HW225806   1.711   0.489   7.866  1.2953  2.6916 -1.2242
 4725SOL     OW25807   2.996   4.628   4.638  0.1784  0.2581 -0.4066
 4725SOL    HW125808   2.916   4.676   4.616  0.5083  0.8016 -0.4237
 4725SOL    HW225809   3.020   4.598   4.551  0.3247  2.2787 -1.0743
 4726SOL     OW25810   4.564   3.944   5.882 -0.4937 -0.0124 -0.9043
 4726SOL    HW125811   4.644   3.891   5.891 -1.4337 -0.9578  1.7908
 4726SOL    HW225812   4.519   3.906   5.957  3.0451 -1.2044  0.6344
 4727SOL     OW25813   4.047   2.007   4.046 -0.0714  0.0106  0.4045
 4727SOL    HW125814   4.003   2.081   4.089  1.7969  1.5347 -0.3120
 4727SOL    HW225815   4.011   1.927   4.084  1.4312 -1.5871 -1.6064
 4728SOL     OW25816   2.085   4.395   4.120 -0.1225  0.2840  0.7531
 4728SOL    HW125817   2.175   4.412   4.146 -0.1985 -0.0009  1.2104
 4728SOL    HW225818   2.081   4.437   4.034  0.2729  1.0006  1.0913
 4729SOL     OW25819   0.351   3.132   5.827 -0.5876 -0.1039  0.2589
 4729SOL    HW125820   0.413   3.069   5.864  0.5994 -0.0082 -1.5783
 4729SOL    HW225821   0.322   3.176   5.907  3.8923  0.5615  1.4925
 4730SOL     OW25822   1.120   2.529   6.507  0.1904  0.1482 -0.0851
 4730SOL    HW125823   1.071   2.469   6.563  2.0661 -1.8880 -0.6501
 4730SOL    HW225824   1.091   2.611   6.548 -0.1877 -1.4136  2.7834
 4731SOL     OW25825   1.057   1.010   0.860 -0.4540  0.0007 -0.0641
 4731SOL    HW125826   1.025   1.054   0.781  0.7547  1.6058  0.3400
 4731SOL    HW225827   1.105   0.938   0.818 -2.3872 -1.6879  0.5911
 4732SOL     OW25828   4.147   1.062   5.614  0.6062 -0.3282  0.4019
 4732SOL    HW125829   4.164   1.109   5.532 -3.1577  0.8175  0.2880
 4732SOL    HW225830   4.226   1.008   5.622 -1.2958 -2.5879  3.8085
 4733SOL     OW25831   2.115   4.369  12.664  0.3060  0.0358  0.0436
 4733SOL    HW125832   2.100   4.462  12.677 -0.1504 -0.0339  0.0155
 4733SOL    HW225833   2.210   4.369  12.666  0.3062 -0.5002 -0.0024
 4734SOL     OW25834   0.235   1.361   3.493  0.0807 -0.6371 -0.2382
 4734SOL    HW125835   0.193   1.441   3.522 -0.5354 -0.1024 -2.5620
 4734SOL    HW225836   0.167   1.294   3.499  0.2916 -1.0918 -2.8211
 4735SOL     OW25837   2.150   4.243  16.376 -0.3187  0.3242  1.0724
 4735SOL    HW125838   2.086   4.193  16.326 -0.3648 -0.3165  1.7883
 4735SOL    HW225839   2.107   4.245  16.461 -0.1807  0.6425  1.1366
 4736SOL     OW25840   4.086   2.361   6.720  0.2285  0.1994 -0.0204
 4736SOL    HW125841   4.037   2.431   6.763 -0.0302  1.3354 -2.1859
 4736SOL    HW225842   4.166   2.367   6.772 -0.2348 -1.5151  0.9239
 4737SOL     OW25843   3.706   0.583   2.521 -0.7650 -0.5098 -0.5314
 4737SOL    HW125844   3.634   0.579   2.459 -0.9014 -0.8323 -0.3507
 4737SOL    HW225845   3.737   0.493   2.516  0.3653 -0.1524 -0.0104
 4738SOL     OW25846   2.448   0.365  16.328 -0.0533  0.2654 -0.5210
 4738SOL    HW125847   2.524   0.361  16.386  1.7764  1.0602 -2.8299
 4738SOL    HW225848   2.462   0.452  16.291  0.9466  0.6682  0.8178
 4739SOL     OW25849   0.969   0.951   0.481  0.0030  0.1455 -0.5111
 4739SOL    HW125850   0.878   0.978   0.474  0.1328  0.7285  0.0959
 4739SOL    HW225851   0.976   0.915   0.570 -1.7457  1.6896  0.2411
 4740SOL     OW25852   1.587   0.353   6.842 -0.8773 -0.1480 -0.5129
 4740SOL    HW125853   1.586   0.302   6.761  0.9426  0.5275 -0.9682
 4740SOL    HW225854   1.638   0.428   6.812 -0.2464  0.8388  3.0111
 4741SOL     OW25855   2.011   0.381   7.892 -0.6018 -0.0189  1.2896
 4741SOL    HW125856   2.044   0.293   7.878 -2.9095 -0.8938  1.3343
 4741SOL    HW225857   2.083   0.414   7.945 -1.0492  0.3524  1.6749
 4742SOL     OW25858   3.197   1.778   7.808 -0.2651 -0.1131 -0.3060
 4742SOL    HW125859   3.182   1.747   7.897  3.1218  3.0771  1.4309
 4742SOL    HW225860   3.207   1.696   7.760  1.2749 -1.1228  1.7568
 4743SOL     OW25861   3.586   0.985  13.167  0.0777 -0.1452 -0.4353
 4743SOL    HW125862   3.564   0.966  13.258  1.0964  2.1923  0.2926
 4743SOL    HW225863   3.660   0.925  13.162  0.1528  0.0738 -1.9654
 4744SOL     OW25864   0.219   2.130  16.108 -0.3136  0.4556  0.0696
 4744SOL    HW125865   0.185   2.059  16.163  0.9443 -0.3939 -0.2694
 4744SOL    HW225866   0.174   2.107  16.027 -2.7374  0.7816  1.2999
 4745SOL     OW25867   2.606   2.925   4.314  0.0033 -0.4386  0.1975
 4745SOL    HW125868   2.625   3.018   4.300  0.4524 -0.4762  0.5783
 4745SOL    HW225869   2.694   2.892   4.327  0.6078  0.7282 -0.9217
 4746SOL     OW25870   4.081   0.842   2.466  0.0206 -0.3207  0.4505
 4746SOL    HW125871   4.025   0.776   2.424 -1.2556  0.4462  0.9298
 4746SOL    HW225872   4.118   0.795   2.540 -0.6131  0.0423  1.0001
 4747SOL     OW25873   1.754   4.703   6.435  0.2399 -0.2041  0.2760
 4747SOL    HW125874   1.819   4.717   6.504 -1.0405 -0.2537  1.4806
 4747SOL    HW225875   1.793   4.727   6.351 -1.0015  0.8525  0.0075
 4748SOL     OW25876   1.289   3.354   4.238  0.0224 -0.3706  0.6334
 4748SOL    HW125877   1.232   3.417   4.195 -0.6235 -0.9857  0.5978
 4748SOL    HW225878   1.223   3.290   4.263 -0.6540 -0.9032 -2.5179
 4749SOL     OW25879   0.346   3.981  11.077  0.0361  0.3056  0.4372
 4749SOL    HW125880   0.345   3.989  10.981 -5.1550  2.5534  0.7145
 4749SOL    HW225881   0.409   4.049  11.102 -0.4110  1.3253 -1.2312
 4750SOL     OW25882   3.656   2.349   3.986 -0.1562 -0.2873 -0.0450
 4750SOL    HW125883   3.652   2.290   4.061  4.6549  0.6783  0.9566
 4750SOL    HW225884   3.576   2.319   3.942 -0.0677  0.5427 -0.7768
 4751SOL     OW25885   3.451   3.784   4.319  0.5648 -0.2133 -0.5303
 4751SOL    HW125886   3.517   3.756   4.383  1.0046  0.6241 -0.6268
 4751SOL    HW225887   3.375   3.755   4.369  0.6700 -0.5975 -0.5936
 4752SOL     OW25888   0.856   0.606   8.402 -0.3374  0.5512 -0.3240
 4752SOL    HW125889   0.952   0.608   8.401 -0.2949 -1.2389  0.9398
 4752SOL    HW225890   0.826   0.552   8.475 -1.4925 -0.5378 -1.5984
 4753SOL     OW25891   2.315   0.601   2.197 -0.2911 -0.0800 -0.4817
 4753SOL    HW125892   2.333   0.519   2.244 -0.7363 -0.1453 -0.4196
 4753SOL    HW225893   2.230   0.618   2.238  0.4969  0.1047  1.0922
 4754SOL     OW25894   2.085   3.044   8.648 -0.1658  0.4902 -0.3925
 4754SOL    HW125895   2.113   3.130   8.679 -0.4683  0.5236 -0.2113
 4754SOL    HW225896   1.997   3.032   8.684 -0.1818  2.4557  0.1846
 4755SOL     OW25897   1.613   4.041   8.715  0.0335  0.3658  0.0624
 4755SOL    HW125898   1.591   4.094   8.638 -1.7241  1.0800  1.0619
 4755SOL    HW225899   1.706   4.060   8.725 -0.3555  1.0450  2.4144
 4756SOL     OW25900   0.741   4.665   6.748  0.1266 -0.1550 -0.4317
 4756SOL    HW125901   0.737   4.710   6.832  0.1667  2.8363 -2.0229
 4756SOL    HW225902   0.783   4.585   6.781  0.4567  0.2282  0.0727
 4757SOL     OW25903   4.531   3.568   0.733 -0.0286 -0.1872  0.1353
 4757SOL    HW125904   4.486   3.484   0.748 -2.3197  1.5326  2.9001
 4757SOL    HW225905   4.565   3.584   0.821  1.7254  0.9865 -0.7598
 4758SOL     OW25906   3.606   2.315   1.596 -0.0179 -0.1739  0.0455
 4758SOL    HW125907   3.567   2.312   1.683 -0.8363 -3.4462 -0.4575
 4758SOL    HW225908   3.593   2.225   1.567  1.3368  0.1114 -1.4472
 4759SOL     OW25909   1.406   4.411   6.680  0.4253 -0.3912  0.0908
 4759SOL    HW125910   1.478   4.352   6.659  0.4463  0.1741 -1.4054
 4759SOL    HW225911   1.442   4.471   6.746  2.7564  0.1332 -1.6343
 4760SOL     OW25912   3.497   4.249   8.396 -0.0629 -0.6893  0.2364
 4760SOL    HW125913   3.510   4.306   8.321  0.2054 -2.8877 -1.3926
 4760SOL    HW225914   3.571   4.269   8.453 -0.3689  0.9825  0.0512
 4761SOL     OW25915   3.524   3.942   5.376 -0.3916 -0.0025 -0.0591
 4761SOL    HW125916   3.515   3.908   5.287 -0.7521  0.8317 -0.3478
 4761SOL    HW225917   3.434   3.938   5.409 -0.2698  0.2718  0.3006
 4762SOL     OW25918   0.013   1.926   1.110  0.0170 -0.2699  0.1632
 4762SOL    HW125919   0.020   1.906   1.204 -0.0962  3.8286  1.0483
 4762SOL    HW225920   4.653   1.936   1.104 -0.1123 -0.9298  1.0226
 4763SOL     OW25921   1.162   2.139   6.085 -0.4904  0.2435  0.0922
 4763SOL    HW125922   1.139   2.064   6.030 -1.8077  1.4066 -0.9279
 4763SOL    HW225923   1.079   2.159   6.129 -0.8248 -0.0350 -0.4075
 4764SOL     OW25924   3.681   4.532   3.613  0.3175 -0.4190  0.0653
 4764SOL    HW125925   3.711   4.464   3.553 -0.1401 -1.2166  0.7521
 4764SOL    HW225926   3.640   4.601   3.561 -0.6878 -1.7938 -0.9620
 4765SOL     OW25927   2.631   1.587  16.706 -0.4259 -0.2544 -0.6109
 4765SOL    HW125928   2.662   1.648  16.773  0.1266 -1.3962  0.1469
 4765SOL    HW225929   2.681   1.614  16.629  0.5571  0.9234  0.4384
 4766SOL     OW25930   4.063   4.479   7.665  0.1295  0.6258 -0.2188
 4766SOL    HW125931   4.051   4.392   7.701  0.4778 -0.1612 -2.0229
 4766SOL    HW225932   3.970   4.499   7.655 -0.1620 -0.2198  0.8444
 4767SOL     OW25933   0.675   0.815   2.805 -0.0547 -0.1289 -0.2062
 4767SOL    HW125934   0.695   0.867   2.883  0.3917 -1.6212  0.6617
 4767SOL    HW225935   0.582   0.792   2.804  0.0103 -0.1602 -4.0273
 4768SOL     OW25936   2.400   2.103   6.661  0.2008  0.5338  0.0110
 4768SOL    HW125937   2.379   2.164   6.591 -0.2017  0.0935 -0.2551
 4768SOL    HW225938   2.388   2.157   6.739 -2.7912 -1.5003  0.9701
 4769SOL     OW25939   3.788   3.414   3.825  0.6121  0.0161 -0.2437
 4769SOL    HW125940   3.715   3.451   3.775 -0.2247 -1.1969  0.0740
 4769SOL    HW225941   3.736   3.375   3.895  1.5197 -0.8347 -0.0530
 4770SOL     OW25942   1.399   2.594  14.517  0.5328  0.1603 -0.4281
 4770SOL    HW125943   1.462   2.602  14.445 -0.9453  0.0232 -1.7479
 4770SOL    HW225944   1.377   2.504  14.496 -0.2662  0.0824  0.7759
 4771SOL     OW25945   2.526   3.824  10.232 -0.2617  0.1894 -0.0203
 4771SOL    HW125946   2.531   3.907  10.280 -1.8943  1.7850 -2.6052
 4771SOL    HW225947   2.432   3.810  10.226 -0.4289  0.1055  2.6962
 4772SOL     OW25948   3.797   3.987  15.998  0.0584 -0.1591 -0.1607
 4772SOL    HW125949   3.889   3.959  15.994  0.6133  1.5460  0.9522
 4772SOL    HW225950   3.778   4.029  15.914 -0.0850 -2.8779 -1.4996
 4773SOL     OW25951   2.575   4.587  14.297 -0.2217  0.1166  0.0209
 4773SOL    HW125952   2.508   4.594  14.229  1.3744  3.8062 -1.1669
 4773SOL    HW225953   2.533   4.518  14.348 -2.0448  1.4455  0.3200
 4774SOL     OW25954   3.447   2.490   6.356 -0.4400 -0.1111  0.4876
 4774SOL    HW125955   3.533   2.465   6.322 -0.3046  1.2194 -0.1588
 4774SOL    HW225956   3.394   2.441   6.294 -0.5261 -1.8391  1.9152
 4775SOL     OW25957   4.271   3.371  11.706 -0.5497 -0.6545 -0.6359
 4775SOL    HW125958   4.255   3.300  11.768  0.7714  0.0064  0.4739
 4775SOL    HW225959   4.235   3.338  11.624  0.3355  0.1627 -1.3508
 4776SOL     OW25960   2.118   0.371   9.681 -0.6532 -0.6924 -0.5591
 4776SOL    HW125961   2.057   0.347   9.611 -1.0617  1.8794 -1.0925
 4776SOL    HW225962   2.155   0.455   9.656  2.6673 -1.3763  2.0805
 4777SOL     OW25963   1.993   0.454   1.414  0.6703  0.3233 -1.0750
 4777SOL    HW125964   1.952   0.534   1.446  0.1971 -0.1192 -0.5766
 4777SOL    HW225965   2.079   0.488   1.390  0.7797  0.6203 -0.2502
 4778SOL     OW25966   4.192   1.439   5.481  0.2129 -0.3440  0.4269
 4778SOL    HW125967   4.188   1.349   5.446 -0.9910  0.6168 -1.9427
 4778SOL    HW225968   4.191   1.426   5.575 -1.6623  1.3872  0.6462
 4779SOL     OW25969   0.396   4.613   7.732  0.4003 -0.0782 -0.4571
 4779SOL    HW125970   0.328   4.671   7.766 -1.1857 -1.9259 -0.4673
 4779SOL    HW225971   0.376   4.534   7.783 -1.8648  2.8021  3.0957
 4780SOL     OW25972   2.372   1.079  11.985 -0.6034  0.5180  0.1472
 4780SOL    HW125973   2.461   1.114  11.990 -0.4813  0.0075  1.4010
 4780SOL    HW225974   2.384   0.997  11.938  2.0329  0.5013  0.8470
 4781SOL     OW25975   0.891   3.319   7.132 -0.2078  0.1268  0.8807
 4781SOL    HW125976   0.958   3.321   7.063 -1.5456  0.6368 -0.4016
 4781SOL    HW225977   0.922   3.394   7.183 -0.5437  0.2767  0.8583
 4782SOL     OW25978   1.596   1.088   0.679 -0.1705 -0.5204  0.1077
 4782SOL    HW125979   1.606   1.159   0.615 -3.1283 -0.7264 -0.5610
 4782SOL    HW225980   1.677   1.036   0.671  0.0729  0.1042 -1.6248
 4783SOL     OW25981   1.179   1.638   5.957  0.2608 -0.1670  0.0777
 4783SOL    HW125982   1.184   1.610   6.048 -0.3179  1.9733  0.7765
 4783SOL    HW225983   1.267   1.623   5.923  0.8469  0.9503  1.0720
 4784SOL     OW25984   0.237   0.240   7.788 -0.3413  0.0482  0.2612
 4784SOL    HW125985   0.203   0.156   7.818 -1.5632  0.6214  0.5055
 4784SOL    HW225986   0.152   0.279   7.765  0.2533  1.2151  0.0286
 4785SOL     OW25987   0.344   0.452  12.227 -0.1304  0.0265  0.1993
 4785SOL    HW125988   0.273   0.484  12.171 -0.2162 -0.4151  0.0585
 4785SOL    HW225989   0.336   0.357  12.220  1.3548  0.0232 -1.4611
 4786SOL     OW25990   3.344   2.154   2.061  0.2787 -0.4379 -0.1229
 4786SOL    HW125991   3.283   2.093   2.021  2.5524 -4.2802  2.2333
 4786SOL    HW225992   3.300   2.186   2.140  1.6766  1.7580 -0.2182
 4787SOL     OW25993   3.410   2.685   2.745  0.1411 -0.5676 -0.2317
 4787SOL    HW125994   3.493   2.733   2.743 -0.8301  1.0910 -0.0681
 4787SOL    HW225995   3.351   2.749   2.706 -0.2314 -0.9082 -0.2274
 4788SOL     OW25996   3.482   1.619   2.606 -0.1201  0.2360  0.4611
 4788SOL    HW125997   3.534   1.686   2.652 -0.8962 -0.7866  2.7912
 4788SOL    HW225998   3.536   1.621   2.527 -2.3009 -0.8030 -1.0713
 4789SOL     OW25999   0.114   2.391  16.479  0.0091 -0.0398  0.1667
 4789SOL    HW126000   0.083   2.479  16.501 -3.7961 -1.2881 -0.2668
 4789SOL    HW226001   0.081   2.383  16.390  0.2867  0.9377 -0.0238
 4790SOL     OW26002   3.581   0.575   5.505 -0.3057 -0.6177  0.0002
 4790SOL    HW126003   3.625   0.495   5.535  0.6592  0.5301  1.6458
 4790SOL    HW226004   3.648   0.623   5.457  2.5947 -3.9987  0.6972
 4791SOL     OW26005   2.236   4.490  15.376  0.1012 -0.6412 -0.4453
 4791SOL    HW126006   2.244   4.407  15.422  0.7089 -0.3379 -0.0004
 4791SOL    HW226007   2.147   4.511  15.404 -0.8255 -3.1880 -1.5236
 4792SOL     OW26008   3.222   2.971   6.499  0.2635  0.1448 -0.4227
 4792SOL    HW126009   3.247   2.880   6.481  1.2683  0.5054 -0.8218
 4792SOL    HW226010   3.195   3.003   6.413  0.2148  1.3905  0.0520
 4793SOL     OW26011   1.600   0.764   6.879 -0.8444 -0.2141 -0.7692
 4793SOL    HW126012   1.532   0.715   6.927 -0.3872 -2.9399 -2.9414
 4793SOL    HW226013   1.679   0.718   6.906  0.4141  2.3084 -0.1459
 4794SOL     OW26014   0.825   2.749   6.774  0.1023  0.4424  0.1585
 4794SOL    HW126015   0.864   2.738   6.687 -1.2232  3.5399 -0.8304
 4794SOL    HW226016   0.786   2.663   6.788  4.0290 -1.4686 -0.5709
 4795SOL     OW26017   3.780   2.633   2.273 -0.1770  0.5905 -0.0058
 4795SOL    HW126018   3.771   2.728   2.282  1.0248  0.8155 -1.0900
 4795SOL    HW226019   3.839   2.624   2.348 -0.5768  0.9723  0.3549
 4796SOL     OW26020   4.388   1.471   3.042 -0.0381  0.6119 -0.1242
 4796SOL    HW126021   4.320   1.516   2.993 -2.0857 -1.1100  1.1194
 4796SOL    HW226022   4.398   1.388   2.994  0.4126  0.6576 -0.1076
 4797SOL     OW26023   1.461   3.439   7.928  0.1059 -0.2888  0.6222
 4797SOL    HW126024   1.406   3.438   7.850  2.0095 -1.3916 -0.7195
 4797SOL    HW226025   1.510   3.357   7.914  0.8157 -0.2753  3.0320
 4798SOL     OW26026   0.332   1.729  14.081 -0.1328  0.2846  0.0793
 4798SOL    HW126027   0.364   1.736  13.991 -0.8269  1.0653 -0.1161
 4798SOL    HW226028   0.400   1.769  14.135  0.2600 -0.0142 -0.1975
 4799SOL     OW26029   2.306   3.428  12.313 -0.3242  0.0361 -0.1827
 4799SOL    HW126030   2.214   3.445  12.333  0.6000  2.9798  1.6778
 4799SOL    HW226031   2.347   3.468  12.390 -0.0725  0.5944 -0.6036
 4800SOL     OW26032   1.570   3.006  13.663 -0.8748  0.1146  0.2375
 4800SOL    HW126033   1.591   3.007  13.570 -0.9270  0.3541  0.2288
 4800SOL    HW226034   1.477   3.022  13.671 -1.1986 -0.7675 -1.6652
 4801SOL     OW26035   3.241   1.347   5.037 -0.1308 -0.3424  0.0522
 4801SOL    HW126036   3.156   1.313   5.008  0.3034 -2.0782  0.7661
 4801SOL    HW226037   3.241   1.348   5.132 -0.7132  0.3388  0.0416
 4802SOL     OW26038   3.782   3.651   4.929 -0.4027 -0.5091  0.2761
 4802SOL    HW126039   3.769   3.621   4.839 -0.8112 -1.3982  0.6390
 4802SOL    HW226040   3.756   3.574   4.979  0.4555 -1.1424 -0.2408
 4803SOL     OW26041   0.472   4.417   1.411 -0.0708 -0.0504  0.3263
 4803SOL    HW126042   0.547   4.408   1.471  0.8065  1.6562 -0.5402
 4803SOL    HW226043   0.511   4.362   1.343  1.6953  0.6387  0.7737
 4804SOL     OW26044   0.580   2.968   9.649  0.1347  0.7370 -0.0763
 4804SOL    HW126045   0.513   3.037   9.647  0.8720  1.5362  2.3756
 4804SOL    HW226046   0.533   2.889   9.673 -1.1426  0.9221 -2.0484
 4805SOL     OW26047   1.048   0.689   2.540 -0.4414 -0.5197  0.0503
 4805SOL    HW126048   1.011   0.762   2.589  0.2674 -1.2330  1.6488
 4805SOL    HW226049   1.099   0.743   2.480 -0.2111  0.6744  1.3262
 4806SOL     OW26050   0.182   2.990   8.869  0.3462 -0.1385  0.6314
 4806SOL    HW126051   0.176   3.046   8.791 -1.9337 -1.6025 -0.2632
 4806SOL    HW226052   0.150   3.050   8.936  1.2878  0.0104  0.9479
 4807SOL     OW26053   2.352   1.923   7.822  0.1393 -0.3938 -0.4330
 4807SOL    HW126054   2.365   1.889   7.910 -1.8939  0.3128  0.1325
 4807SOL    HW226055   2.374   2.015   7.839  0.5389 -0.4189 -0.8074
 4808SOL     OW26056   3.923   3.969   9.882  0.7175 -0.8576 -0.9085
 4808SOL    HW126057   3.899   3.879   9.904  2.6952 -1.7999 -2.6914
 4808SOL    HW226058   3.930   3.996   9.974  1.1386  1.2667 -1.5624
 4809SOL     OW26059   1.579   1.084   5.337 -0.3329 -0.3932 -0.5782
 4809SOL    HW126060   1.638   1.011   5.319 -1.7296 -1.4909 -0.7653
 4809SOL    HW226061   1.492   1.044   5.330 -0.6471  0.5193 -2.0101
 4810SOL     OW26062   3.632   1.127   5.243  0.0563  0.1051 -1.0114
 4810SOL    HW126063   3.710   1.081   5.276 -0.0578  0.2223 -0.5738
 4810SOL    HW226064   3.572   1.068   5.289 -0.2689  1.9525  0.9447
 4811SOL     OW26065   0.534   0.139  11.987 -0.8693  0.1527  0.3239
 4811SOL    HW126066   0.601   0.187  11.938 -0.5889  0.4598  1.0039
 4811SOL    HW226067   0.459   0.178  11.943 -0.7022 -1.2184 -1.1654
 4812SOL     OW26068   3.734   1.936   2.338 -0.2640 -0.2279 -0.5311
 4812SOL    HW126069   3.731   1.999   2.266  1.8435 -1.5440 -1.8085
 4812SOL    HW226070   3.666   1.968   2.396 -0.8568  0.5409 -1.6537
 4813SOL     OW26071   4.616   3.277  15.213  0.0725 -0.2026 -0.6940
 4813SOL    HW126072   4.527   3.254  15.185  0.0429 -1.4800  0.4597
 4813SOL    HW226073   4.635   3.358  15.167 -0.8789  0.5544  0.2354
 4814SOL     OW26074   2.828   1.785   6.085  0.0782  0.2228  0.7654
 4814SOL    HW126075   2.763   1.830   6.138 -2.8613 -1.7500 -1.0818
 4814SOL    HW226076   2.821   1.693   6.113  0.5566 -0.9111 -2.8051
 4815SOL     OW26077   3.427   1.626   4.305  0.1187 -0.3907 -0.5988
 4815SOL    HW126078   3.438   1.603   4.397 -3.0280  0.8479  0.0668
 4815SOL    HW226079   3.433   1.537   4.270  0.4714  0.3797 -2.4613
 4816SOL     OW26080   3.597   4.155   1.896 -1.2275 -0.4307 -0.3108
 4816SOL    HW126081   3.618   4.115   1.811 -0.5701  0.1935 -0.4403
 4816SOL    HW226082   3.670   4.216   1.903 -1.5667  0.0138 -0.7138
 4817SOL     OW26083   2.732   4.351   6.929 -0.4914 -0.5114 -0.5039
 4817SOL    HW126084   2.666   4.420   6.932  0.4096  0.3143  0.1818
 4817SOL    HW226085   2.786   4.380   6.855 -0.3735  0.7952  0.1098
 4818SOL     OW26086   2.378   1.028   6.917  0.4189 -0.4501 -0.5788
 4818SOL    HW126087   2.365   1.118   6.946  1.5868 -0.1951 -0.8378
 4818SOL    HW226088   2.304   1.025   6.856  1.6299 -1.0679 -2.0082
 4819SOL     OW26089   4.273   0.911  17.292  0.1410 -0.0537  0.7780
 4819SOL    HW126090   4.300   0.906  17.384  2.3531  0.2658  0.1504
 4819SOL    HW226091   4.320   0.838  17.251 -0.3323 -0.0212  0.1799
 4820SOL     OW26092   3.322   2.222   7.821  0.3317  0.0742 -0.0018
 4820SOL    HW126093   3.338   2.316   7.820 -1.1119  0.3159  1.4144
 4820SOL    HW226094   3.256   2.216   7.752  0.9164 -0.2431 -0.5354
 4821SOL     OW26095   2.846   0.497   6.035 -0.1057  0.0940  0.0066
 4821SOL    HW126096   2.763   0.545   6.025  0.4514  1.1794  0.6499
 4821SOL    HW226097   2.883   0.513   5.948  0.4362  2.4228  0.6487
 4822SOL     OW26098   1.623   0.824   8.551  0.1092 -0.4118 -0.6242
 4822SOL    HW126099   1.548   0.765   8.543  0.1204 -0.0833 -3.0905
 4822SOL    HW226100   1.648   0.804   8.641 -1.8839 -4.6099 -1.0039
 4823SOL     OW26101   3.758   2.592   3.932 -0.1956  0.3956 -0.2342
 4823SOL    HW126102   3.786   2.652   4.001  0.5465  0.7974 -0.8904
 4823SOL    HW226103   3.722   2.521   3.986 -1.7334  0.1126 -1.6322
 4824SOL     OW26104   4.637   2.271   5.520 -0.7719  0.2602 -0.4488
 4824SOL    HW126105   4.681   2.187   5.506 -0.4356  0.3243  0.2233
 4824SOL    HW226106   4.700   2.307   5.583  1.4785 -3.1945 -0.6850
 4825SOL     OW26107   0.835   0.120  10.619 -0.3081  0.3706 -0.0790
 4825SOL    HW126108   0.849   0.207  10.655 -1.3778  0.8753 -0.8880
 4825SOL    HW226109   0.834   0.070  10.700 -2.2060  0.7421  0.1272
 4826SOL     OW26110   1.348   3.810   2.828 -0.2735  0.1399 -0.2596
 4826SOL    HW126111   1.428   3.803   2.880 -1.3849  0.8274  1.5376
 4826SOL    HW226112   1.375   3.882   2.770  0.6611  0.5868  0.7437
 4827SOL     OW26113   4.717   4.552  16.189 -0.2714  0.5353  0.1183
 4827SOL    HW126114   4.716   4.617  16.119 -0.9719  1.0908  0.6451
 4827SOL    HW226115   0.048   4.594  16.244 -1.3346 -0.9729  2.5259
 4828SOL     OW26116   3.613   3.343   5.039  0.7287  0.1142 -0.2809
 4828SOL    HW126117   3.606   3.252   5.068  0.7147  0.3956  0.5737
 4828SOL    HW226118   3.633   3.326   4.947  0.4538  2.2545 -0.7310
 4829SOL     OW26119   1.069   2.272   8.211 -0.2229 -0.0611  0.1710
 4829SOL    HW126120   1.097   2.244   8.298  0.5323 -1.1274 -0.4024
 4829SOL    HW226121   1.089   2.364   8.228  2.6014  0.1694 -4.1270
 4830SOL     OW26122   3.221   0.892  14.482  0.4462 -0.1856 -0.0364
 4830SOL    HW126123   3.129   0.915  14.486  0.9469  1.6790  0.7331
 4830SOL    HW226124   3.223   0.835  14.559 -2.8293  1.2959  1.1194
 4831SOL     OW26125   2.206   1.923   4.003 -0.3312 -0.3805  0.3417
 4831SOL    HW126126   2.118   1.932   3.965 -0.1141 -0.5110 -0.1962
 4831SOL    HW226127   2.204   1.837   4.046 -1.4340 -0.1360  0.7663
 4832SOL     OW26128   0.648   0.892  16.160  0.3017  0.1636  0.4913
 4832SOL    HW126129   0.559   0.865  16.179  0.7524 -1.1556  0.7911
 4832SOL    HW226130   0.653   0.907  16.065  1.6934  0.3038  0.5753
 4833SOL     OW26131   1.884   0.557   1.757  0.2789 -0.0515 -0.3030
 4833SOL    HW126132   1.913   0.606   1.834 -1.1861  1.6351 -0.8241
 4833SOL    HW226133   1.890   0.616   1.682  0.0627  1.1377  0.6124
 4834SOL     OW26134   1.748   2.561   7.416  0.3569 -0.1507  0.5094
 4834SOL    HW126135   1.711   2.576   7.329  1.5411 -0.5204 -0.0552
 4834SOL    HW226136   1.782   2.472   7.410 -2.3568 -0.9301 -3.2068
 4835SOL     OW26137   0.481   0.273   2.416  0.0131  0.2707  0.9541
 4835SOL    HW126138   0.450   0.359   2.387 -0.9318 -0.2835  0.2892
 4835SOL    HW226139   0.432   0.206   2.368  0.3553  1.5044 -1.0958
 4836SOL     OW26140   1.203   2.713   4.612 -0.0601  0.0067 -0.0275
 4836SOL    HW126141   1.128   2.772   4.608 -1.3547 -1.5526  1.1340
 4836SOL    HW226142   1.272   2.752   4.557 -0.0068  1.6930  1.2442
 4837SOL     OW26143   1.657   2.546   9.854 -0.0085 -0.2369  0.0713
 4837SOL    HW126144   1.578   2.579   9.898 -1.7965 -1.0242 -2.5694
 4837SOL    HW226145   1.653   2.454   9.881  1.1749 -0.2169  0.3179
 4838SOL     OW26146   4.729   3.125   5.391 -0.0890  0.0169 -0.4222
 4838SOL    HW126147   0.050   3.179   5.336  2.7826 -2.1549  0.3381
 4838SOL    HW226148   4.653   3.181   5.406 -0.0026  0.3259 -1.1377
 4839SOL     OW26149   4.508   2.401  11.518 -0.3174  0.5483  0.0169
 4839SOL    HW126150   4.601   2.391  11.538 -0.4950 -0.0750  0.5231
 4839SOL    HW226151   4.481   2.325  11.466  0.0386  1.9880 -2.2809
 4840SOL     OW26152   2.915   2.365   4.296  0.1993  0.0189 -0.0415
 4840SOL    HW126153   2.840   2.307   4.302 -0.3651  0.6557 -0.8741
 4840SOL    HW226154   2.970   2.318   4.359  1.5510  1.0792 -0.4082
 4841SOL     OW26155   3.435   0.370   8.393 -0.7837 -0.6106  0.1321
 4841SOL    HW126156   3.417   0.458   8.427  0.2957 -1.2546  2.3361
 4841SOL    HW226157   3.528   0.377   8.370 -1.1623  1.2638 -0.8577
 4842SOL     OW26158   2.197   1.990   3.583 -0.2177  0.2085 -0.4074
 4842SOL    HW126159   2.280   1.943   3.581  0.3752  1.2581 -0.7244
 4842SOL    HW226160   2.197   2.028   3.672 -0.0380  1.1434 -0.8030
 4843SOL     OW26161   3.377   4.363   7.282 -0.8038  0.1458 -0.0827
 4843SOL    HW126162   3.293   4.367   7.327 -0.9238 -2.4280 -0.0413
 4843SOL    HW226163   3.396   4.275   7.314  1.2314  1.1924  1.5453
 4844SOL     OW26164   2.007   1.333   8.251  0.2547  0.2286 -0.0378
 4844SOL    HW126165   1.956   1.413   8.238  0.8242  0.6217  0.1362
 4844SOL    HW226166   1.970   1.304   8.334 -1.1590  0.7500 -0.4810
 4845SOL     OW26167   4.648   4.653   9.345  0.0433 -0.1975  0.2371
 4845SOL    HW126168   0.003   4.626   9.324 -0.1039  0.2250 -0.9012
 4845SOL    HW226169   4.656   4.684   9.435  0.8185 -0.5820  0.3045
 4846SOL     OW26170   4.720   0.050   6.922  0.0822  0.0126 -0.7259
 4846SOL    HW126171   0.017   0.122   6.867  0.7726 -0.1761 -0.5795
 4846SOL    HW226172   4.652   0.015   6.864 -0.4755  2.3963 -1.5114
 4847SOL     OW26173   4.135   2.622   3.492 -0.3251 -0.8061 -0.2138
 4847SOL    HW126174   4.123   2.621   3.587 -0.2802 -0.2097 -0.2057
 4847SOL    HW226175   4.174   2.535   3.482 -0.9092 -1.3029  1.7169
 4848SOL     OW26176   3.733   3.976   4.558  0.9591  0.5267 -0.5096
 4848SOL    HW126177   3.748   3.956   4.651  1.6384  0.0019 -0.7270
 4848SOL    HW226178   3.639   3.989   4.560  0.9135  0.2750 -1.1887
 4849SOL     OW26179   3.082   2.496   9.101 -0.5722  0.4397 -0.2032
 4849SOL    HW126180   3.019   2.567   9.112 -0.1193  0.7576  0.3093
 4849SOL    HW226181   3.163   2.537   9.131 -2.0718  3.3366 -0.0665
 4850SOL     OW26182   4.137   3.739  10.266 -0.8588  0.2171 -0.1638
 4850SOL    HW126183   4.215   3.709  10.219 -1.0820 -2.1174  0.9590
 4850SOL    HW226184   4.096   3.653  10.273 -1.5218  0.3869 -1.7220
 4851SOL     OW26185   3.179   1.913   2.083  0.2220  0.6563  0.2797
 4851SOL    HW126186   3.159   1.928   1.990 -0.3697 -1.6784  0.0156
 4851SOL    HW226187   3.130   1.832   2.098 -1.6566  1.8466  0.6314
 4852SOL     OW26188   1.002   2.485  10.259  0.1583  0.4478  0.9511
 4852SOL    HW126189   1.011   2.572  10.298  0.4344  0.4566  0.8691
 4852SOL    HW226190   0.977   2.435  10.337 -1.4407 -0.2070  0.0201
 4853SOL     OW26191   0.339   4.006   4.482 -0.0504  0.3376 -0.1437
 4853SOL    HW126192   0.247   3.983   4.498  0.7315 -1.2804  2.0962
 4853SOL    HW226193   0.344   4.065   4.558  1.2545 -0.3038  0.2692
 4854SOL     OW26194   0.521   3.695   5.942 -0.1221 -0.2539 -0.1460
 4854SOL    HW126195   0.587   3.662   5.882  0.6973  0.4183  0.3790
 4854SOL    HW226196   0.487   3.768   5.890  1.0474  0.6392  0.3355
 4855SOL     OW26197   2.014   0.500   5.174  0.2082  0.6285 -0.2173
 4855SOL    HW126198   1.952   0.460   5.113  2.9777  1.8963 -3.9021
 4855SOL    HW226199   2.020   0.431   5.240 -1.2327 -0.6995 -1.4735
 4856SOL     OW26200   0.725   2.901   0.078  0.7596  0.2809  0.3980
 4856SOL    HW126201   0.719   2.995   0.061  0.1745 -0.1753 -1.9856
 4856SOL    HW226202   0.817   2.878   0.077  0.7277  0.1205  1.4599
 4857SOL     OW26203   0.168   1.865   1.448  0.2112 -0.0400 -0.0342
 4857SOL    HW126204   0.258   1.893   1.466 -0.1980  0.3802  1.4067
 4857SOL    HW226205   0.121   1.948   1.460 -0.1102 -0.1896 -0.2825
 4858SOL     OW26206   1.396   0.890   7.212  0.4901 -0.3587 -0.5802
 4858SOL    HW126207   1.463   0.959   7.209 -1.4163  1.5202  0.5029
 4858SOL    HW226208   1.323   0.929   7.164  0.0930 -0.0219  0.3092
 4859SOL     OW26209   3.195   0.032  16.853  0.5234 -0.2104  0.2695
 4859SOL    HW126210   3.228   0.036  16.943 -0.4157  2.2793  0.4876
 4859SOL    HW226211   3.182   0.121  16.821 -1.7283 -0.4255  0.5583
 4860SOL     OW26212   1.081   3.745   7.660  0.1332  0.0653 -0.3397
 4860SOL    HW126213   1.092   3.784   7.746 -1.4812 -2.2613  0.9159
 4860SOL    HW226214   1.066   3.654   7.684 -1.5936  0.2262 -0.7906
 4861SOL     OW26215   1.076   0.887   5.222 -0.1396 -0.7203  0.0598
 4861SOL    HW126216   1.121   0.943   5.159 -1.3805  0.9820  0.6872
 4861SOL    HW226217   0.985   0.911   5.204  0.1204 -1.1840 -1.8746
 4862SOL     OW26218   4.576   3.639   9.607  0.1232  0.3826 -0.0081
 4862SOL    HW126219   4.577   3.709   9.673  3.5292  0.3152 -0.0139
 4862SOL    HW226220   4.537   3.574   9.666  0.0051  2.2137  1.9566
 4863SOL     OW26221   1.150   3.139   4.394  0.3688 -0.7490 -0.1127
 4863SOL    HW126222   1.146   3.044   4.386 -0.9386 -0.6065 -1.1028
 4863SOL    HW226223   1.056   3.156   4.388  0.6208  0.8778  0.6593
 4864SOL     OW26224   3.883   2.511   7.311 -0.6147  0.2831  0.2233
 4864SOL    HW126225   3.896   2.479   7.222 -0.6812  0.8878 -0.0079
 4864SOL    HW226226   3.814   2.451   7.338  1.2557 -0.6850  2.8829
 4865SOL     OW26227   0.393   0.854  12.909  0.2638 -0.2688  0.0300
 4865SOL    HW126228   0.448   0.888  12.838 -0.9063 -0.4516 -0.9721
 4865SOL    HW226229   0.355   0.775  12.871  0.1740 -0.1911 -0.0421
 4866SOL     OW26230   0.008   3.716  10.836 -0.3819 -0.0275 -0.2968
 4866SOL    HW126231   4.658   3.714  10.882 -0.7498  2.9129 -0.8269
 4866SOL    HW226232   0.040   3.630  10.862 -0.4178  0.1017  0.1855
 4867SOL     OW26233   4.452   2.528   7.316 -0.1177  0.0925 -0.5820
 4867SOL    HW126234   4.497   2.470   7.377  0.5240  1.1522 -0.0639
 4867SOL    HW226235   4.497   2.507   7.233  1.0054 -1.0378  0.3199
 4868SOL     OW26236   0.314   3.325   7.734 -0.1160  0.1930  0.4626
 4868SOL    HW126237   0.264   3.250   7.703  1.1451  0.6613 -2.7906
 4868SOL    HW226238   0.298   3.390   7.665 -1.1494 -0.9808 -0.3997
 4869SOL     OW26239   0.361   4.532   1.901 -0.2779 -0.0076  0.1247
 4869SOL    HW126240   0.382   4.597   1.834 -2.1287 -3.1331 -3.5252
 4869SOL    HW226241   0.266   4.540   1.892 -0.3264  0.0966  0.7044
 4870SOL     OW26242   0.684   2.553   2.445 -0.0506  0.1026 -0.0130
 4870SOL    HW126243   0.637   2.471   2.431 -1.0333  0.5475  0.7234
 4870SOL    HW226244   0.767   2.530   2.404 -0.3434  0.2633 -0.6958
 4871SOL     OW26245   4.093   3.281  16.755 -0.2721 -0.3786 -0.1589
 4871SOL    HW126246   4.048   3.337  16.692 -1.3828 -0.2567  0.7278
 4871SOL    HW226247   4.057   3.314  16.838  1.6108  0.9351  0.1365
 4872SOL     OW26248   4.102   3.307   5.708 -0.2078 -0.2451 -0.0918
 4872SOL    HW126249   4.144   3.221   5.702  2.0000  0.7476  0.9895
 4872SOL    HW226250   4.097   3.319   5.803  2.1244 -1.5260  0.1943
 4873SOL     OW26251   2.069   1.953  10.997 -0.3593 -0.1484  0.1912
 4873SOL    HW126252   2.068   1.921  10.907  2.6420  0.6164 -0.1254
 4873SOL    HW226253   2.132   1.892  11.034 -0.5295 -0.9816 -0.9137
 4874SOL     OW26254   0.822   2.105   2.700 -0.0465  0.0166  0.4313
 4874SOL    HW126255   0.740   2.105   2.748 -0.1246 -0.2216  0.2940
 4874SOL    HW226256   0.883   2.077   2.769 -2.1426  0.4263  2.4326
 4875SOL     OW26257   4.532   2.813  14.344  0.0346 -0.3252  0.3725
 4875SOL    HW126258   4.580   2.765  14.412  0.6930 -1.7937 -1.1511
 4875SOL    HW226259   4.442   2.787  14.364  0.5890 -2.7732 -0.3448
 4876SOL     OW26260   0.449   2.054   5.216  0.1069 -0.3830 -0.4857
 4876SOL    HW126261   0.517   2.114   5.247  0.2796 -1.3004  0.9147
 4876SOL    HW226262   0.420   2.125   5.159 -2.0353 -0.1141  0.9396
 4877SOL     OW26263   3.378   2.379   5.886 -0.3807  0.3693  0.2928
 4877SOL    HW126264   3.364   2.381   5.980  0.7635  2.6147  0.3980
 4877SOL    HW226265   3.447   2.312   5.878 -0.7163  0.2626 -1.6942
 4878SOL     OW26266   2.872   4.189   5.238 -1.2609  0.3016 -0.0290
 4878SOL    HW126267   2.802   4.182   5.303  1.0374 -1.0886  2.2825
 4878SOL    HW226268   2.839   4.155   5.155  2.3291 -0.3726 -1.1675
 4879SOL     OW26269   3.277   0.798   6.617  0.0473 -0.2551 -0.2866
 4879SOL    HW126270   3.358   0.843   6.641 -1.9267  3.2727 -0.2286
 4879SOL    HW226271   3.306   0.762   6.533  2.4081  0.7561  0.0987
 4880SOL     OW26272   4.317   0.098  14.005  0.4769  0.4628  0.0504
 4880SOL    HW126273   4.231   0.129  13.977  1.5137  0.2097 -3.4054
 4880SOL    HW226274   4.336   0.046  13.927  1.9614  2.9515 -1.2623
 4881SOL     OW26275   0.600   0.206   2.640 -0.3323  0.0392  0.5687
 4881SOL    HW126276   0.571   0.253   2.562  0.8758 -0.6977 -0.3164
 4881SOL    HW226277   0.518   0.167   2.671  0.1438 -1.8037 -0.5364
 4882SOL     OW26278   2.083   1.963  10.704 -0.0632  0.2833  0.3187
 4882SOL    HW126279   2.177   1.950  10.712 -0.1231 -0.6246 -0.4763
 4882SOL    HW226280   2.081   2.014  10.623  0.1377 -1.1948 -0.6106
 4883SOL     OW26281   3.270   2.220   3.312 -1.2269  0.3751  1.0851
 4883SOL    HW126282   3.339   2.227   3.378 -1.6359  2.5445  1.2817
 4883SOL    HW226283   3.221   2.147   3.350  1.1696 -1.9590 -0.2447
 4884SOL     OW26284   2.296   2.469   0.340  0.6346 -0.3256 -0.0375
 4884SOL    HW126285   2.332   2.469   0.429  2.3842  1.9454 -0.7356
 4884SOL    HW226286   2.292   2.377   0.315  1.8250 -0.8413  1.7075
 4885SOL     OW26287   4.244   0.593   7.582 -0.0420 -0.6435  0.1453
 4885SOL    HW126288   4.316   0.579   7.520 -1.0514 -1.7343 -0.7887
 4885SOL    HW226289   4.168   0.572   7.528 -0.2348 -1.1100  0.5954
 4886SOL     OW26290   4.347   1.169  10.109  0.3061 -0.6002 -0.6656
 4886SOL    HW126291   4.423   1.131  10.154  0.0585  1.4441  1.4556
 4886SOL    HW226292   4.342   1.117  10.029  1.9394 -1.7979  0.0050
 4887SOL     OW26293   0.818   3.718   7.881  0.1711  0.8926 -0.4141
 4887SOL    HW126294   0.724   3.734   7.878  0.6990  3.5531 -3.1634
 4887SOL    HW226295   0.822   3.630   7.844 -0.8689  0.5121  0.3607
 4888SOL     OW26296   0.595   2.400  13.653 -0.3902  0.5127 -0.2802
 4888SOL    HW126297   0.570   2.382  13.743 -0.5989 -2.0353 -0.8479
 4888SOL    HW226298   0.688   2.419  13.658 -0.2746 -0.1628  0.0244
 4889SOL     OW26299   0.435   2.453  13.438  0.1477 -0.1661  0.3318
 4889SOL    HW126300   0.495   2.403  13.493 -0.3994  0.8887  1.8763
 4889SOL    HW226301   0.459   2.544  13.459  0.3187  0.3627 -2.1199
 4890SOL     OW26302   1.438   0.124  17.397 -1.2895 -0.0740 -0.1885
 4890SOL    HW126303   1.459   0.201  17.449 -2.8525  1.0353 -1.1928
 4890SOL    HW226304   1.428   0.179  17.319 -1.4611  0.0226 -0.0994
 4891SOL     OW26305   2.046   0.134  16.780  0.0859  0.4954 -0.8641
 4891SOL    HW126306   2.080   0.117  16.693  0.7370 -2.2900 -0.0650
 4891SOL    HW226307   2.125   0.150  16.832  0.7893  3.2798 -2.7567
 4892SOL     OW26308   1.300   4.147  14.511  0.5388 -0.0369  0.1309
 4892SOL    HW126309   1.225   4.125  14.567 -0.8262  0.2635 -1.5663
 4892SOL    HW226310   1.255   4.210  14.455  0.4022 -0.3026 -0.0586
 4893SOL     OW26311   3.740   0.034  15.806  0.3974  0.6181 -0.4163
 4893SOL    HW126312   3.806   0.010  15.740  1.3244  1.2404  0.2846
 4893SOL    HW226313   3.673   0.065  15.745  0.0275  3.5395  1.5017
 4894SOL     OW26314   1.946   0.302   7.373  0.5221  0.3267  0.4982
 4894SOL    HW126315   1.900   0.260   7.446 -2.0298  0.9113 -0.7476
 4894SOL    HW226316   1.882   0.268   7.309  0.4585  0.1742  0.6428
 4895SOL     OW26317   0.552   0.703   8.090 -0.1535  0.1480  0.2390
 4895SOL    HW126318   0.543   0.654   8.171 -1.4921  0.1422  0.0762
 4895SOL    HW226319   0.630   0.665   8.049 -1.0825 -2.2354  0.6966
 4896SOL     OW26320   0.368   1.905   3.476 -0.0419  0.0757  0.3431
 4896SOL    HW126321   0.324   1.836   3.426 -0.6764  3.4412 -3.6816
 4896SOL    HW226322   0.396   1.954   3.399  3.2402 -0.6207  1.0904
 4897SOL     OW26323   1.411   0.671   0.816  0.0394  0.0291 -0.7502
 4897SOL    HW126324   1.430   0.679   0.910 -0.7134 -1.3174 -0.4871
 4897SOL    HW226325   1.489   0.639   0.772  0.0022 -1.7032  0.4275
 4898SOL     OW26326   3.986   2.572   2.435  0.0858 -0.3308 -0.2246
 4898SOL    HW126327   4.032   2.652   2.463 -0.9192  0.2234 -0.1608
 4898SOL    HW226328   4.054   2.505   2.437  1.3835  1.0174  0.8823
 4899SOL     OW26329   3.304   0.800   1.249 -0.5407  0.6904 -0.2445
 4899SOL    HW126330   3.337   0.889   1.260  1.1278  0.1032 -0.5801
 4899SOL    HW226331   3.378   0.754   1.289 -0.3561 -0.4549 -1.9053
 4900SOL     OW26332   3.186   3.166   4.679  0.3653  0.2981 -0.0530
 4900SOL    HW126333   3.187   3.071   4.683 -0.1899  0.3662  1.6664
 4900SOL    HW226334   3.271   3.191   4.715  1.3934  1.9466 -3.6098
 4901SOL     OW26335   4.309   1.991   6.157  0.4767  0.2466  0.5352
 4901SOL    HW126336   4.215   1.985   6.144  0.9542 -0.9979 -2.3250
 4901SOL    HW226337   4.328   1.908   6.112 -1.0200  1.5261 -2.4671
 4902SOL     OW26338   1.915   3.678   6.459 -0.0621 -0.2275 -0.1758
 4902SOL    HW126339   1.847   3.667   6.525 -1.1584 -2.6014 -1.7239
 4902SOL    HW226340   1.891   3.609   6.398 -1.8438  0.9030 -0.7311
 4903SOL     OW26341   1.101   2.797   7.302  0.2485  0.0175 -0.1539
 4903SOL    HW126342   1.112   2.712   7.344  0.0290  0.3652  0.6106
 4903SOL    HW226343   1.007   2.815   7.305  0.3463  0.8105 -1.9102
 4904SOL     OW26344   1.924   1.306  15.787 -0.5169 -0.2510  0.1718
 4904SOL    HW126345   1.866   1.285  15.859 -1.8064 -1.8219 -1.3350
 4904SOL    HW226346   2.012   1.275  15.810  0.6536  2.8549 -0.1475
 4905SOL     OW26347   0.518   0.818   4.580  0.8297  0.6832  0.2880
 4905SOL    HW126348   0.441   0.858   4.621 -0.1203 -0.1552 -0.6791
 4905SOL    HW226349   0.527   0.872   4.502 -0.8773  2.1889  1.1263
 4906SOL     OW26350   3.988   3.687  17.546 -0.3637 -0.1359  0.3011
 4906SOL    HW126351   3.934   3.714  17.620  0.7499 -1.2042  1.4954
 4906SOL    HW226352   3.976   3.756  17.481 -0.2143 -0.6190 -0.2406
 4907SOL     OW26353   2.620   4.241  14.492 -0.1035 -0.1319 -0.1129
 4907SOL    HW126354   2.680   4.305  14.529 -0.5601  1.2404 -1.7679
 4907SOL    HW226355   2.532   4.278  14.506  0.4757  1.2766 -0.2057
 4908SOL     OW26356   0.262   0.675   4.381 -0.0450 -0.2826  0.1946
 4908SOL    HW126357   0.342   0.710   4.342 -0.9748 -0.8643 -2.2267
 4908SOL    HW226358   0.304   0.622   4.449  0.6496  1.0027  0.7677
 4909SOL     OW26359   2.384   1.299   2.622  0.0552  0.0753  0.0210
 4909SOL    HW126360   2.342   1.313   2.707 -1.0858 -0.9351 -0.3832
 4909SOL    HW226361   2.399   1.205   2.620  1.5646  0.3034 -0.1526
 4910SOL     OW26362   3.846   2.100   4.236 -0.1743  0.2383 -0.2637
 4910SOL    HW126363   3.834   2.011   4.268  1.1383 -0.3456 -1.3571
 4910SOL    HW226364   3.754   2.122   4.225 -0.4576 -1.0771 -0.5144
 4911SOL     OW26365   0.186   4.719   7.256  0.2313 -0.4372  0.2050
 4911SOL    HW126366   0.245   0.059   7.242  0.9336 -0.9485  0.4769
 4911SOL    HW226367   0.187   4.726   7.351  1.9469 -0.3044  0.1803
 4912SOL     OW26368   4.263   4.670   7.362  0.3615 -0.3780 -0.2462
 4912SOL    HW126369   4.196   4.725   7.403 -0.0934 -0.6415 -0.6261
 4912SOL    HW226370   4.214   4.612   7.304 -1.2713  1.5149 -0.7707
 4913SOL     OW26371   0.280   3.282   4.198  0.2448 -0.1052  0.0431
 4913SOL    HW126372   0.239   3.332   4.269 -0.0546  0.5449 -0.5909
 4913SOL    HW226373   0.225   3.304   4.124 -1.5565 -1.9867  0.8262
 4914SOL     OW26374   2.998   1.532   3.040  0.3792 -0.2377 -0.3999
 4914SOL    HW126375   3.053   1.474   2.986  1.1721 -0.7281  0.9375
 4914SOL    HW226376   2.986   1.602   2.976  2.7198  1.0773  0.6256
 4915SOL     OW26377   1.098   2.443  10.685  0.2912 -0.5983 -0.3367
 4915SOL    HW126378   1.192   2.458  10.676  0.4550 -2.0242 -0.9198
 4915SOL    HW226379   1.088   2.348  10.676 -1.4507 -0.5385  0.7711
 4916SOL     OW26380   0.051   1.964   7.459 -0.0937  0.3229 -0.8085
 4916SOL    HW126381   0.038   1.996   7.370  1.9817  0.4638 -1.0778
 4916SOL    HW226382   4.700   1.934   7.489 -0.5497  3.8139  1.3517
 4917SOL     OW26383   2.941   2.003  17.436  0.2015 -0.5856  0.1587
 4917SOL    HW126384   2.870   2.065  17.452  1.4428  1.0389 -0.6620
 4917SOL    HW226385   2.984   1.998  17.522  1.3541 -1.8497 -0.4970
 4918SOL     OW26386   2.809   1.243   7.716 -0.3738  0.2273 -0.0407
 4918SOL    HW126387   2.849   1.159   7.696  0.7583  1.0715 -1.3214
 4918SOL    HW226388   2.790   1.232   7.809 -2.7741  0.3489 -0.4994
 4919SOL     OW26389   4.334   0.309  17.322 -0.3389 -0.1206 -0.3783
 4919SOL    HW126390   4.317   0.368  17.248 -1.5114  0.5283  0.4135
 4919SOL    HW226391   4.359   0.368  17.393  2.3834 -0.7733 -0.7837
 4920SOL     OW26392   0.980   1.850  14.382 -0.5943  0.7273  0.5888
 4920SOL    HW126393   0.953   1.772  14.431 -1.2619  0.4878 -0.1570
 4920SOL    HW226394   0.952   1.922  14.438  0.3125  3.1523 -2.0848
 4921SOL     OW26395   1.449   0.903   3.949 -0.3410  0.1507  0.4410
 4921SOL    HW126396   1.435   0.810   3.969  1.5321  0.2677  2.3804
 4921SOL    HW226397   1.360   0.936   3.946 -0.1802  0.5848  0.4632
 4922SOL     OW26398   4.523   2.879   8.961 -0.3332  0.1391 -0.0355
 4922SOL    HW126399   4.499   2.842   8.876 -2.0155  1.0227  0.0527
 4922SOL    HW226400   4.548   2.798   9.005 -0.8191 -1.4598 -2.6796
 4923SOL     OW26401   4.240   3.407  14.482 -0.2325  1.1520  0.3056
 4923SOL    HW126402   4.271   3.325  14.443 -2.4138 -0.6472  2.3077
 4923SOL    HW226403   4.170   3.427  14.419 -0.5089 -1.1145 -0.1246
 4924SOL     OW26404   2.787   3.412  14.379  0.0388 -0.2718  0.2067
 4924SOL    HW126405   2.820   3.326  14.406  0.1266 -0.1031  0.6326
 4924SOL    HW226406   2.865   3.465  14.360  1.2711 -1.5844  1.5598
 4925SOL     OW26407   3.232   4.504  10.503  0.0950 -0.0983 -0.0924
 4925SOL    HW126408   3.195   4.565  10.567 -0.1570 -0.7178  0.3514
 4925SOL    HW226409   3.325   4.524  10.512  0.0514 -0.3542  0.8746
 4926SOL     OW26410   3.446   0.098   8.369 -0.7426  0.7648  0.3571
 4926SOL    HW126411   3.441   0.193   8.366  1.1788  0.8657  0.2425
 4926SOL    HW226412   3.534   0.075   8.401 -1.3804 -2.9819 -0.6016
 4927SOL     OW26413   2.835   0.240   6.786  0.2268  0.0583  0.8325
 4927SOL    HW126414   2.910   0.297   6.801  0.5402 -1.2929  4.1936
 4927SOL    HW226415   2.815   0.211   6.874 -3.1480  0.4178  0.1937
 4928SOL     OW26416   4.444   1.766   3.866 -0.2188  0.1282  0.4222
 4928SOL    HW126417   4.410   1.833   3.925 -0.6103 -0.2793  0.6563
 4928SOL    HW226418   4.514   1.809   3.817  0.4520 -0.5873  0.7589
 4929SOL     OW26419   1.931   2.569   1.843 -0.4534 -0.0282  0.6727
 4929SOL    HW126420   1.938   2.651   1.892 -1.6217 -0.6631  1.8996
 4929SOL    HW226421   2.010   2.528   1.878 -0.2907  1.4072  1.9719
 4930SOL     OW26422   4.080   1.397   4.300  0.5017  0.1577  0.3067
 4930SOL    HW126423   4.096   1.406   4.394  1.8653  1.2823 -0.0387
 4930SOL    HW226424   4.009   1.461   4.293  1.6006  1.3723  0.3453
 4931SOL     OW26425   2.480   3.319  12.143 -0.0759  0.0570  0.2848
 4931SOL    HW126426   2.420   3.355  12.208 -2.8173 -1.7287 -1.2796
 4931SOL    HW226427   2.426   3.326  12.065 -0.2932 -0.5625  0.3735
 4932SOL     OW26428   4.117   1.342   5.977 -0.2223  0.2527  0.2403
 4932SOL    HW126429   4.179   1.387   6.034  2.5047  0.6699 -3.0928
 4932SOL    HW226430   4.037   1.328   6.028 -0.6249  0.4369 -0.3444
 4933SOL     OW26431   3.680   0.432   9.480 -0.1455 -0.0211  0.0655
 4933SOL    HW126432   3.608   0.410   9.421 -0.6695  0.4084  0.5434
 4933SOL    HW226433   3.722   0.510   9.443 -0.4972  2.0833  4.1027
 4934SOL     OW26434   1.495   2.337   6.035 -0.0258  0.1200  0.1665
 4934SOL    HW126435   1.485   2.280   6.112  1.9740 -0.4336  0.0122
 4934SOL    HW226436   1.500   2.272   5.965  1.4905 -1.3443  1.6236
 4935SOL     OW26437   0.705   3.175  13.305  0.1279  0.3741  0.3509
 4935SOL    HW126438   0.708   3.089  13.262  0.1657  0.2967  0.5084
 4935SOL    HW226439   0.610   3.186  13.315  0.2580  2.8777 -1.2370
 4936SOL     OW26440   0.093   3.725   4.746  0.1721 -0.0595 -0.3552
 4936SOL    HW126441   0.090   3.820   4.754 -2.7046 -0.3687  2.4465
 4936SOL    HW226442   0.159   3.701   4.812 -1.6497 -0.5436  1.2937
 4937SOL     OW26443   0.009   1.566  16.913 -0.3382  0.1256  0.3852
 4937SOL    HW126444   0.074   1.497  16.905 -2.8385 -1.7105 -4.6001
 4937SOL    HW226445   4.662   1.516  16.909 -0.6047  0.6710 -1.4493
 4938SOL     OW26446   3.367   1.971   7.736  0.0274  0.0140 -0.6430
 4938SOL    HW126447   3.307   1.909   7.778 -1.0641  2.8990  2.0822
 4938SOL    HW226448   3.358   2.048   7.792 -3.3504  1.0674 -2.6291
 4939SOL     OW26449   3.188   3.012   9.261 -0.0145 -0.0309 -0.3871
 4939SOL    HW126450   3.098   2.998   9.232 -0.1540 -0.2512  0.1426
 4939SOL    HW226451   3.172   3.092   9.310 -0.1626 -0.2898 -0.0059
 4940SOL     OW26452   0.563   3.665  10.927  0.7946 -0.0259  0.1410
 4940SOL    HW126453   0.545   3.571  10.926  2.9062 -0.4259 -2.5637
 4940SOL    HW226454   0.485   3.705  10.889  0.0636  1.1139  2.8443
 4941SOL     OW26455   2.266   3.784   8.767 -0.4987  0.0441 -0.4472
 4941SOL    HW126456   2.339   3.833   8.730  0.7672  0.6849  2.8207
 4941SOL    HW226457   2.239   3.837   8.842 -1.5214  1.9565 -2.1719
 4942SOL     OW26458   4.430   2.470   8.403  0.4219 -0.1982 -0.2901
 4942SOL    HW126459   4.453   2.506   8.317  2.0191 -2.4344 -0.7892
 4942SOL    HW226460   4.348   2.430   8.376 -0.6496  2.1815 -0.5938
 4943SOL     OW26461   2.958   4.433  12.459 -0.0597 -0.0048  0.1037
 4943SOL    HW126462   2.885   4.494  12.454 -1.1460 -1.1693  2.1223
 4943SOL    HW226463   3.007   4.458  12.380 -1.6686 -2.0038 -1.5265
 4944SOL     OW26464   0.716   1.029   1.981 -0.6628  0.0301 -0.3172
 4944SOL    HW126465   0.692   0.950   1.933 -0.9000 -0.4123  0.5392
 4944SOL    HW226466   0.676   1.100   1.929  0.8428 -0.0743 -1.6101
 4945SOL     OW26467   3.567   1.680   7.276  0.9979 -0.0302 -0.6801
 4945SOL    HW126468   3.486   1.681   7.224  1.2187 -0.4335 -1.0338
 4945SOL    HW226469   3.586   1.771   7.256 -0.9300  1.0313  2.3375
 4946SOL     OW26470   3.131   1.737   2.384 -0.6767  0.2884  0.4990
 4946SOL    HW126471   3.118   1.681   2.460  0.9995 -3.1864 -1.7645
 4946SOL    HW226472   3.053   1.792   2.388 -1.3310 -0.5719 -0.1783
 4947SOL     OW26473   2.054   1.418   8.544 -0.1791 -0.1533 -0.6186
 4947SOL    HW126474   2.087   1.329   8.559 -0.7370 -0.3699 -0.6505
 4947SOL    HW226475   2.114   1.462   8.485 -0.2962  0.8192 -0.0188
 4948SOL     OW26476   2.720   1.392  15.320  0.4640  0.2281  0.3264
 4948SOL    HW126477   2.736   1.300  15.299  0.1831  0.4716 -0.9662
 4948SOL    HW226478   2.703   1.433  15.235  0.7223  0.7685  0.5333
 4949SOL     OW26479   3.202   3.751  10.838 -0.4958  0.4262 -0.3285
 4949SOL    HW126480   3.235   3.794  10.917 -0.2821 -0.7981  0.2517
 4949SOL    HW226481   3.114   3.728  10.868  0.0086  0.7920  1.4292
 4950SOL     OW26482   3.104   2.500   0.950 -0.4585 -0.3268  0.0294
 4950SOL    HW126483   3.034   2.488   1.014  1.9874 -1.4705  2.5108
 4950SOL    HW226484   3.168   2.437   0.983  0.5349  0.2681 -0.7792
 4951SOL     OW26485   4.102   0.681   9.874  0.5763  0.1046  0.1261
 4951SOL    HW126486   4.066   0.700   9.960 -1.1381  1.8342 -0.9693
 4951SOL    HW226487   4.136   0.594   9.892  2.2181  0.8765  0.7203
 4952SOL     OW26488   2.288   0.599   7.700  0.1831 -0.4315 -0.2255
 4952SOL    HW126489   2.248   0.563   7.779 -1.1340 -2.0453 -1.6364
 4952SOL    HW226490   2.205   0.638   7.672 -0.7081 -0.5396  2.2922
 4953SOL     OW26491   2.823   3.838   5.887  0.0919 -0.0597 -0.4704
 4953SOL    HW126492   2.775   3.838   5.804  0.9450 -2.4092 -0.9578
 4953SOL    HW226493   2.798   3.754   5.926 -0.7823  1.2717  1.8297
 4954SOL     OW26494   4.035   3.508   5.172  0.3554 -0.0115 -0.1111
 4954SOL    HW126495   3.945   3.529   5.194 -0.2014 -3.7847  1.3148
 4954SOL    HW226496   4.021   3.428   5.121  0.2989 -0.0022 -0.1104
 4955SOL     OW26497   3.052   4.026   9.275 -0.0703  0.3090  0.1160
 4955SOL    HW126498   3.087   3.949   9.231  0.8248  0.3360  0.7857
 4955SOL    HW226499   3.075   4.097   9.214 -2.5782  1.9405  1.0321
 4956SOL     OW26500   1.708   3.634  10.349 -0.2759 -0.3877  0.0978
 4956SOL    HW126501   1.741   3.547  10.370 -2.5962 -1.4626 -0.7422
 4956SOL    HW226502   1.644   3.615  10.280  0.5613 -0.3589 -0.6815
 4957SOL     OW26503   3.842   4.657   2.828 -0.5459 -0.2062  0.5429
 4957SOL    HW126504   3.844   4.683   2.920 -1.3109 -0.4655  0.6376
 4957SOL    HW226505   3.922   4.606   2.842  0.1343  1.3615  2.3713
 4958SOL     OW26506   4.373   2.578   6.504  0.5385 -0.5673  0.7276
 4958SOL    HW126507   4.432   2.502   6.509  1.5805  0.1921  0.0319
 4958SOL    HW226508   4.422   2.630   6.568 -0.9776  0.8579  0.7026
 4959SOL     OW26509   3.131   3.706   5.205  0.1443  0.0353 -0.2148
 4959SOL    HW126510   3.115   3.797   5.229 -0.0969 -0.5065  1.6974
 4959SOL    HW226511   3.142   3.664   5.290  0.1113  0.4726  0.0031
 4960SOL     OW26512   0.908   1.680  11.323  0.9170  0.3533  0.2112
 4960SOL    HW126513   0.937   1.754  11.377  0.4867  0.7253 -0.0708
 4960SOL    HW226514   0.881   1.722  11.242 -1.1989 -2.4760 -0.5612
 4961SOL     OW26515   0.521   1.285   2.777  0.0046 -0.1004 -0.0476
 4961SOL    HW126516   0.532   1.241   2.861  2.4529  0.6256  0.0338
 4961SOL    HW226517   0.431   1.318   2.780  0.3615  0.8103  0.7171
 4962SOL     OW26518   0.585   2.405   0.142 -0.2205  0.2743  0.4875
 4962SOL    HW126519   0.634   2.441   0.068  0.7269  2.4851  2.2012
 4962SOL    HW226520   0.614   2.469   0.207 -0.6810 -0.0499  1.0117
 4963SOL     OW26521   1.683   3.358  11.766 -0.5171 -0.0583 -0.4522
 4963SOL    HW126522   1.653   3.423  11.829 -0.2010  1.8414 -2.2148
 4963SOL    HW226523   1.605   3.303  11.763 -0.5469 -0.1068  1.8567
 4964SOL     OW26524   3.083   4.151   4.240 -0.3413 -0.1933  0.0951
 4964SOL    HW126525   3.172   4.125   4.264 -0.1220 -0.0396 -0.5335
 4964SOL    HW226526   3.048   4.197   4.316 -1.3342  2.5654 -2.0283
 4965SOL     OW26527   0.191   0.282  11.560  0.2351 -0.0053 -0.0601
 4965SOL    HW126528   0.120   0.244  11.508  1.4718  0.3288 -2.0114
 4965SOL    HW226529   0.207   0.369  11.522  0.4480  1.5342  3.5655
 4966SOL     OW26530   2.400   3.038  15.821 -0.1379 -0.1771  0.1848
 4966SOL    HW126531   2.484   3.083  15.831 -0.4016  0.9473 -2.6195
 4966SOL    HW226532   2.379   3.048  15.728  0.6071 -0.2060  0.0115
 4967SOL     OW26533   1.656   2.845   0.945 -0.1725 -1.0056  0.0758
 4967SOL    HW126534   1.600   2.922   0.949  1.2441  0.0643 -0.5443
 4967SOL    HW226535   1.663   2.833   0.850 -2.5714 -1.8903  0.0239
 4968SOL     OW26536   0.170   1.969   5.258 -0.1499 -0.3259 -0.5415
 4968SOL    HW126537   0.109   1.997   5.190 -0.0061 -1.2566 -1.0387
 4968SOL    HW226538   0.237   2.028   5.224  1.3891 -1.7372  0.0885
 4969SOL     OW26539   0.966   0.227   6.663 -0.8402  0.1669 -0.2800
 4969SOL    HW126540   1.025   0.215   6.589 -1.2472  0.9595 -0.7232
 4969SOL    HW226541   0.884   0.242   6.618 -1.5926 -0.2580  0.9423
 4970SOL     OW26542   0.125   1.331   4.661  0.0820 -0.0881 -0.2464
 4970SOL    HW126543   0.072   1.408   4.681  0.1277 -0.3465  0.9126
 4970SOL    HW226544   0.149   1.310   4.752  0.9235 -2.5357 -1.0228
 4971SOL     OW26545   3.131   0.285  16.992 -0.0231  0.0588 -0.0797
 4971SOL    HW126546   3.171   0.228  17.057 -0.4501  1.5230  1.4567
 4971SOL    HW226547   3.068   0.341  17.037  0.8398 -0.8140  2.1977
 4972SOL     OW26548   2.585   0.941   0.550 -0.0108 -0.2191 -0.2189
 4972SOL    HW126549   2.583   0.947   0.455 -0.1633 -0.1164 -0.2088
 4972SOL    HW226550   2.592   0.846   0.563  0.1129 -0.3128 -0.9759
 4973SOL     OW26551   2.516   0.830   5.424  0.4850  0.3845 -0.2759
 4973SOL    HW126552   2.462   0.869   5.355 -0.0804 -0.3236 -0.2339
 4973SOL    HW226553   2.604   0.849   5.391  1.2567  0.7258  1.9968
 4974SOL     OW26554   4.546   0.163  17.683 -0.1028 -0.1244  0.2479
 4974SOL    HW126555   4.496   0.132  17.607 -0.4113 -3.1735  1.6641
 4974SOL    HW226556   4.627   0.158  17.633 -0.1013 -2.0154  0.4279
 4975SOL     OW26557   2.113   1.020   3.765  0.4185 -0.1730  0.3194
 4975SOL    HW126558   2.156   0.961   3.703  1.5962  0.2754  0.7114
 4975SOL    HW226559   2.049   1.060   3.706  2.1356  0.3498 -1.1908
 4976SOL     OW26560   0.879   2.111   1.805 -0.2217 -0.0886 -0.3593
 4976SOL    HW126561   0.949   2.059   1.845 -0.4711 -1.2844 -1.4541
 4976SOL    HW226562   0.809   2.072   1.859 -0.4054  1.8457  0.7917
 4977SOL     OW26563   3.162   1.138   6.796  0.0303  0.3260  0.2612
 4977SOL    HW126564   3.116   1.179   6.870  0.8819  0.3249  0.7871
 4977SOL    HW226565   3.098   1.068   6.784 -1.0523  1.0570  1.7262
 4978SOL     OW26566   4.684   1.044   1.472  0.3295  0.0124  0.0456
 4978SOL    HW126567   4.652   1.121   1.520 -0.5198 -0.9972  1.0994
 4978SOL    HW226568   4.604   1.023   1.425  0.8224  2.2100 -1.7663
 4979SOL     OW26569   3.858   1.589   2.750 -0.0973 -0.2008 -0.4669
 4979SOL    HW126570   3.864   1.530   2.675 -1.9246 -2.3702  1.1342
 4979SOL    HW226571   3.763   1.603   2.749 -0.1134 -0.3024 -0.3900
 4980SOL     OW26572   0.519   3.141   8.844  0.6930 -0.3409  0.1413
 4980SOL    HW126573   0.446   3.085   8.871  0.6516  0.3127  1.3673
 4980SOL    HW226574   0.571   3.147   8.925 -0.6445  0.0686  0.9659
 4981SOL     OW26575   1.511   4.268  12.394  0.1817  0.1352 -0.0475
 4981SOL    HW126576   1.559   4.320  12.459 -0.4838 -0.1976  0.7223
 4981SOL    HW226577   1.497   4.330  12.323  0.4685  0.8339  0.5042
 4982SOL     OW26578   3.924   1.780   1.522  0.0948  0.1225 -0.4701
 4982SOL    HW126579   3.833   1.752   1.527 -0.1305  0.8364 -0.5274
 4982SOL    HW226580   3.910   1.869   1.489  0.7987  1.4564  2.8771
 4983SOL     OW26581   3.118   1.249   7.035 -0.1580  0.5920  0.3839
 4983SOL    HW126582   3.093   1.223   7.124  0.8164  2.7574  1.2795
 4983SOL    HW226583   3.214   1.249   7.034 -0.1844 -1.9370 -1.4841
 4984SOL     OW26584   0.048   1.813  15.981  0.5822  0.1394 -0.0196
 4984SOL    HW126585   4.714   1.771  15.928 -2.2454  0.4024  3.4173
 4984SOL    HW226586   0.002   1.848  16.057 -1.4928 -0.1726 -1.1234
 4985SOL     OW26587   4.658   1.146   4.864 -0.2507 -0.2396  0.1725
 4985SOL    HW126588   0.018   1.154   4.879  0.0059  1.4682 -2.3706
 4985SOL    HW226589   4.650   1.121   4.772 -1.0013 -0.5154  0.3086
 4986SOL     OW26590   2.746   3.891   9.749 -0.2434 -0.2437  0.2758
 4986SOL    HW126591   2.708   3.899   9.837 -2.3739 -0.3433 -0.6559
 4986SOL    HW226592   2.686   3.828   9.710 -2.7829  2.0393  0.5270
 4987SOL     OW26593   0.947   0.094   4.128  0.5007  0.3493 -0.0563
 4987SOL    HW126594   0.923   0.180   4.161  1.4281  0.0347  1.4408
 4987SOL    HW226595   0.931   0.038   4.204  0.4502 -0.6679 -0.8086
 4988SOL     OW26596   4.661   4.122  13.286 -0.6920 -0.0807 -0.1528
 4988SOL    HW126597   4.582   4.171  13.308 -0.3577 -0.2698  1.4858
 4988SOL    HW226598   4.734   4.174  13.320  0.0335  0.5992 -2.7298
 4989SOL     OW26599   1.337   2.338   4.756  0.0684  0.9645 -0.2757
 4989SOL    HW126600   1.346   2.242   4.761 -1.1231  0.7249 -2.6862
 4989SOL    HW226601   1.366   2.359   4.845  2.2327 -0.2142 -0.6828
 4990SOL     OW26602   4.257   0.809   2.781 -0.0608 -0.7031 -0.0387
 4990SOL    HW126603   4.218   0.724   2.805 -0.8574  0.1420  1.6608
 4990SOL    HW226604   4.205   0.868   2.836  1.1753  0.8743 -0.6045
 4991SOL     OW26605   4.733   4.233   2.494 -0.1657 -0.0842 -0.2401
 4991SOL    HW126606   0.002   4.310   2.437 -0.7285  0.1061 -0.0155
 4991SOL    HW226607   0.081   4.237   2.542  0.5289 -1.9763 -1.2675
 4992SOL     OW26608   0.092   0.551   9.488 -0.1014 -0.0155 -0.2398
 4992SOL    HW126609   0.185   0.526   9.484  0.2028  0.9533  0.8728
 4992SOL    HW226610   0.103   0.645   9.501  1.5578  0.1626 -2.9118
 4993SOL     OW26611   3.215   0.806   7.370 -0.2942  0.4032  0.1928
 4993SOL    HW126612   3.279   0.775   7.306 -1.1570 -1.3826  0.2064
 4993SOL    HW226613   3.228   0.765   7.456  1.4629 -0.5259 -0.5163
 4994SOL     OW26614   2.549   4.158   1.235  0.6551 -0.0795 -0.4669
 4994SOL    HW126615   2.580   4.222   1.298 -0.9836  0.2631 -0.0116
 4994SOL    HW226616   2.629   4.106   1.228  0.8993  0.4359 -1.5853
 4995SOL     OW26617   2.521   1.291  16.110 -0.7065 -0.0805 -0.6233
 4995SOL    HW126618   2.474   1.353  16.054 -0.0715 -0.0807 -1.1516
 4995SOL    HW226619   2.591   1.354  16.125 -1.7344  0.2091  3.0114
 4996SOL     OW26620   4.292   2.406  10.850  1.0340 -0.0391  0.5274
 4996SOL    HW126621   4.203   2.441  10.837  1.9121  1.5724 -1.2883
 4996SOL    HW226622   4.335   2.487  10.876  1.6137 -0.2732  0.2914
 4997SOL     OW26623   1.144   4.255   3.268  1.0101  0.2067 -0.4587
 4997SOL    HW126624   1.159   4.348   3.283 -2.1407  0.9121 -1.5358
 4997SOL    HW226625   1.099   4.256   3.183 -0.8061  0.9949  0.5060
 4998SOL     OW26626   3.010   3.559   5.018  0.3766  0.1056  0.4410
 4998SOL    HW126627   3.066   3.617   5.069  1.3254 -0.2207 -0.2142
 4998SOL    HW226628   2.927   3.540   5.062  0.9730 -0.4434  1.3226
 4999SOL     OW26629   4.485   0.124   4.958 -0.0969  0.0569  0.2496
 4999SOL    HW126630   4.565   0.087   4.919 -0.8336 -0.3812 -0.8651
 4999SOL    HW226631   4.522   0.204   4.995  3.1013 -1.8196  1.1929
 5000SOL     OW26632   1.316   4.095   5.340 -0.4789 -0.4956 -0.1560
 5000SOL    HW126633   1.287   4.186   5.331 -0.1653 -0.2978  0.8307
 5000SOL    HW226634   1.273   4.059   5.263  2.4681  0.1332 -2.1082
 5001SOL     OW26635   2.955   0.431   8.776 -0.1604 -0.1569 -0.3101
 5001SOL    HW126636   2.961   0.490   8.851  0.3265  0.5501 -0.9048
 5001SOL    HW226637   3.038   0.385   8.766 -1.0233 -2.1148  1.5218
 5002SOL     OW26638   0.316   2.243   5.472 -0.1371 -0.2953  0.2683
 5002SOL    HW126639   0.411   2.254   5.477  0.1568 -2.9986  0.7957
 5002SOL    HW226640   0.297   2.268   5.381  3.4655  0.9413 -0.1400
 5003SOL     OW26641   1.825   4.327   9.426 -0.1231 -0.4196  0.0107
 5003SOL    HW126642   1.742   4.280   9.423  0.5181 -1.5749  0.0607
 5003SOL    HW226643   1.815   4.385   9.351 -1.5423 -1.6172 -0.7241
 5004SOL     OW26644   2.115   1.482  14.146 -0.0950  0.4263  0.1746
 5004SOL    HW126645   2.020   1.473  14.160 -0.4001  2.1569 -0.6787
 5004SOL    HW226646   2.108   1.508  14.054 -0.5672  0.4694  0.2229
 5005SOL     OW26647   3.392   2.022  10.205 -0.3676 -0.2452  0.0323
 5005SOL    HW126648   3.296   2.022  10.197 -0.4238  2.0417  0.6896
 5005SOL    HW226649   3.415   1.952  10.266 -0.8771  0.1476  0.6753
 5006SOL     OW26650   0.044   3.175  15.937  0.3657 -0.6823  0.2769
 5006SOL    HW126651   0.137   3.179  15.913  0.1800 -1.3816 -0.5926
 5006SOL    HW226652   0.011   3.262  15.913  0.5904 -0.7924 -0.4414
 5007SOL     OW26653   2.366   2.213  12.670  0.2450 -0.2373 -1.3618
 5007SOL    HW126654   2.326   2.143  12.618 -2.4286 -1.0942  1.8666
 5007SOL    HW226655   2.393   2.276  12.603  0.6215  1.4147  0.3621
 5008SOL     OW26656   4.443   2.243   7.009  0.3480 -0.0699  0.5902
 5008SOL    HW126657   4.422   2.280   6.923  0.3342  2.3975  1.6422
 5008SOL    HW226658   4.499   2.310   7.047  2.9217 -0.9036 -1.6885
 5009SOL     OW26659   2.056   1.217  17.055  0.3560  0.2491  0.6138
 5009SOL    HW126660   2.125   1.276  17.024 -0.5969  0.3159 -1.4271
 5009SOL    HW226661   1.988   1.285  17.055  0.0873 -0.0065 -0.3868
 5010SOL     OW26662   3.354   1.106   7.398  0.3190  0.0639 -0.4227
 5010SOL    HW126663   3.428   1.066   7.352 -0.7522 -1.5290 -0.7635
 5010SOL    HW226664   3.317   1.021   7.425 -0.5828  0.7838  0.6083
 5011SOL     OW26665   2.749   1.106  14.909 -0.1423  0.2178 -0.2079
 5011SOL    HW126666   2.695   1.029  14.890  1.2619 -0.7371 -0.3245
 5011SOL    HW226667   2.804   1.068  14.977  1.2756  0.8645 -0.9904
 5012SOL     OW26668   2.771   4.699  10.883  0.1429  0.1356  0.4223
 5012SOL    HW126669   2.718   4.639  10.935 -1.2636  2.8231  2.0677
 5012SOL    HW226670   2.777   0.042  10.938  0.6498  0.8903 -0.6875
 5013SOL     OW26671   1.750   2.191   4.279  0.0431 -0.1509 -0.0271
 5013SOL    HW126672   1.843   2.210   4.268 -0.1701  0.2935 -1.0192
 5013SOL    HW226673   1.753   2.245   4.359  0.6588 -1.3295  0.7435
 5014SOL     OW26674   0.482   2.985   6.064 -0.1081 -0.0566  0.1044
 5014SOL    HW126675   0.396   2.947   6.081 -0.0674  0.1019  0.6544
 5014SOL    HW226676   0.479   3.061   6.123 -1.3071  0.7569 -0.9881
 5015SOL     OW26677   0.712   2.570   2.992 -0.7673  0.9746  0.0143
 5015SOL    HW126678   0.618   2.565   2.977 -0.7182 -0.8212  0.2364
 5015SOL    HW226679   0.747   2.508   2.926 -0.0416  1.3361  0.0577
 5016SOL     OW26680   4.472   1.901   7.926 -0.1499 -0.0495  0.2934
 5016SOL    HW126681   4.420   1.823   7.909  0.7573 -0.7049  0.5423
 5016SOL    HW226682   4.412   1.969   7.894  0.8348  0.7124  0.0720
 5017SOL     OW26683   1.176   4.592  13.018  0.1857  0.3728  0.5271
 5017SOL    HW126684   1.233   4.515  13.013  0.5338  0.6557  0.2359
 5017SOL    HW226685   1.227   4.642  13.082 -0.6708 -1.1540  2.4405
 5018SOL     OW26686   0.468   1.961   9.022 -0.0478 -0.0190  0.0082
 5018SOL    HW126687   0.527   1.919   9.085  0.8357 -1.9293 -2.0868
 5018SOL    HW226688   0.418   1.881   9.008 -1.6810  1.0595 -0.3536
 5019SOL     OW26689   3.012   2.005   6.461  0.4662  0.3657  0.0303
 5019SOL    HW126690   2.974   2.085   6.497  2.1168  1.3736 -0.4362
 5019SOL    HW226691   3.015   1.956   6.543  0.3121 -1.3037 -0.9570
 5020SOL     OW26692   3.124   4.675  10.671 -0.0448  0.4386  0.2731
 5020SOL    HW126693   3.061   0.011  10.662  0.2772  0.6275 -0.4449
 5020SOL    HW226694   3.138   4.665  10.765 -0.4458 -1.0354  0.1832
 5021SOL     OW26695   0.148   2.161   1.746  0.6432  0.3545 -0.0615
 5021SOL    HW126696   0.236   2.125   1.731  0.1663 -0.7583 -0.1736
 5021SOL    HW226697   0.090   2.140   1.673 -0.8359  1.6899  0.7417
 5022SOL     OW26698   2.629   1.329  14.850 -0.5766 -0.4608 -1.1590
 5022SOL    HW126699   2.680   1.381  14.787 -2.5545  2.4449 -0.3940
 5022SOL    HW226700   2.682   1.251  14.857 -0.4268 -0.1920  0.5603
 5023SOL     OW26701   3.708   3.664   3.370  0.0567 -0.2310  0.4871
 5023SOL    HW126702   3.614   3.652   3.360  0.3543 -0.9094 -1.5516
 5023SOL    HW226703   3.738   3.586   3.416  0.8681  0.3970  1.0277
 5024SOL     OW26704   1.883   2.152   5.338 -0.3502 -0.2358 -0.2566
 5024SOL    HW126705   1.878   2.137   5.244 -1.4882  1.3824 -0.4530
 5024SOL    HW226706   1.853   2.065   5.364  2.4174 -1.0015  0.3476
 5025SOL     OW26707   0.180   0.078   3.071  0.0732  0.0295  0.4479
 5025SOL    HW126708   0.212   0.041   3.153  0.2719 -2.4330 -0.7360
 5025SOL    HW226709   0.133   0.158   3.096 -0.6031  0.0156 -0.7781
 5026SOL     OW26710   0.332   0.679   7.889 -0.1987 -0.2882  0.4474
 5026SOL    HW126711   0.387   0.669   7.967  0.7831  0.3575 -0.1592
 5026SOL    HW226712   0.394   0.662   7.818  0.3193 -1.8214  1.2442
 5027SOL     OW26713   1.184   0.823   0.719  0.5605  0.4680 -0.2297
 5027SOL    HW126714   1.251   0.877   0.679  0.5457  0.8634  0.2868
 5027SOL    HW226715   1.240   0.747   0.736 -0.8564 -0.2640  1.1962
 5028SOL     OW26716   2.171   0.996   6.750 -0.6265  0.0792 -0.0243
 5028SOL    HW126717   2.234   1.004   6.679 -0.7834 -1.7527 -0.3514
 5028SOL    HW226718   2.092   1.022   6.701  0.5328  0.7073 -1.5627
 5029SOL     OW26719   1.537   0.393  16.328 -0.1348  0.3920  0.1969
 5029SOL    HW126720   1.543   0.429  16.240  2.0237 -1.5427 -0.4478
 5029SOL    HW226721   1.628   0.368  16.344 -0.1419  0.7839  0.8492
 5030SOL     OW26722   3.612   0.445  16.420 -0.8313 -0.0938  0.4738
 5030SOL    HW126723   3.653   0.391  16.353 -2.1683  0.6791 -0.9539
 5030SOL    HW226724   3.563   0.373  16.459  0.8901 -0.4935  1.9289
 5031SOL     OW26725   3.032   2.917   0.988  0.2344  0.3577  0.2985
 5031SOL    HW126726   2.958   2.861   0.964 -0.6798  0.5420  2.7453
 5031SOL    HW226727   2.986   2.955   1.063 -0.6184 -2.3018  1.1064
 5032SOL     OW26728   1.289   4.372   5.234 -0.3568 -0.0525  0.4827
 5032SOL    HW126729   1.203   4.343   5.266 -0.7074 -0.6578 -1.0134
 5032SOL    HW226730   1.295   4.337   5.145  0.7131 -0.7312  0.8239
 5033SOL     OW26731   3.936   0.867   6.202  0.8484  0.1579 -0.3585
 5033SOL    HW126732   3.937   0.856   6.107 -1.0833 -2.0306 -0.1390
 5033SOL    HW226733   3.960   0.959   6.214 -1.2982  0.5351  0.9833
 5034SOL     OW26734   2.472   0.737   7.847 -0.3479  0.3220  0.3664
 5034SOL    HW126735   2.450   0.732   7.940  0.9322  0.3493  0.6617
 5034SOL    HW226736   2.398   0.695   7.802  1.5157 -0.2054 -2.1918
 5035SOL     OW26737   4.105   3.053   7.009  0.0718  0.1004  0.5839
 5035SOL    HW126738   4.188   3.052   7.055  0.7253 -0.4797 -0.6072
 5035SOL    HW226739   4.040   3.071   7.077 -0.0303  0.2554  0.4482
 5036SOL     OW26740   1.628   2.491   8.058  0.4007  0.3252 -0.5863
 5036SOL    HW126741   1.645   2.512   7.966 -0.1250  0.4850 -0.6460
 5036SOL    HW226742   1.550   2.543   8.077  0.4144 -0.0508  0.5205
 5037SOL     OW26743   0.439   4.340  16.837 -0.5818  0.3283  0.6987
 5037SOL    HW126744   0.450   4.417  16.893  0.4498  0.9118 -0.3184
 5037SOL    HW226745   0.383   4.285  16.893 -1.2800  2.2944  1.9221
 5038SOL     OW26746   4.618   3.950  11.818  0.0204  0.1719 -0.3610
 5038SOL    HW126747   4.710   3.976  11.811  0.1807 -0.2158  0.2743
 5038SOL    HW226748   4.592   4.013  11.886  1.0638 -0.5001  0.6526
 5039SOL     OW26749   0.540   4.567   8.413  0.3804 -0.0834  0.1914
 5039SOL    HW126750   0.563   4.499   8.476 -2.1813 -1.7715 -0.7025
 5039SOL    HW226751   0.460   4.595   8.458  1.1781  1.1438  0.8339
 5040SOL     OW26752   3.143   0.332  16.647 -0.0735  0.2127 -0.1789
 5040SOL    HW126753   3.056   0.368  16.631 -0.2354 -0.2638 -0.3897
 5040SOL    HW226754   3.142   0.331  16.742 -2.8619 -1.3741 -0.2108
 5041SOL     OW26755   0.022   1.660   6.743  0.2221  0.4227  1.1831
 5041SOL    HW126756   4.732   1.582   6.792 -2.4780 -0.1233 -1.0145
 5041SOL    HW226757   0.116   1.651   6.730  0.0661  1.2422 -0.5236
 5042SOL     OW26758   0.170   0.289   0.571 -0.7463 -0.1066  0.7655
 5042SOL    HW126759   0.129   0.255   0.651 -2.3830  0.5300  0.1770
 5042SOL    HW226760   0.120   0.233   0.512  0.3607 -1.9616  1.5869
 5043SOL     OW26761   2.189   0.143   7.271  0.2233 -0.6708  0.4215
 5043SOL    HW126762   2.253   0.191   7.219  1.0861  0.0200  2.1216
 5043SOL    HW226763   2.127   0.216   7.268  0.0250 -0.8465  0.2605
 5044SOL     OW26764   4.146   1.764   8.017 -0.3914  0.4662 -0.1366
 5044SOL    HW126765   4.187   1.845   8.048 -1.2080  0.7678  0.1569
 5044SOL    HW226766   4.221   1.707   8.002  1.3325  2.2101  1.9514
 5045SOL     OW26767   1.926   0.044  10.689  0.3559 -0.0761  0.7006
 5045SOL    HW126768   1.894   0.094  10.613  0.0612 -0.1041  0.8065
 5045SOL    HW226769   1.974   0.113  10.734  0.5540  0.8217 -0.8678
 5046SOL     OW26770   0.296   2.127   8.738  0.2973 -0.5575 -0.0831
 5046SOL    HW126771   0.373   2.092   8.693 -1.5246 -2.8851 -1.3630
 5046SOL    HW226772   0.326   2.117   8.828  3.3634 -2.0585 -1.3036
 5047SOL     OW26773   1.217   0.430   0.818 -0.1433  0.5615 -0.0300
 5047SOL    HW126774   1.284   0.494   0.793  0.9350 -0.7572 -0.5190
 5047SOL    HW226775   1.195   0.396   0.731  0.8301  0.7059 -0.3291
 5048SOL     OW26776   1.972   4.679   6.616 -0.0162 -0.6980  0.1195
 5048SOL    HW126777   1.951   4.585   6.625 -1.9961  0.0394  3.2172
 5048SOL    HW226778   2.038   4.681   6.685  1.5119  0.9039 -1.4036
 5049SOL     OW26779   3.976   4.280  17.288  0.1355 -0.2398  0.3710
 5049SOL    HW126780   3.939   4.342  17.225  0.1205 -0.2218  0.3976
 5049SOL    HW226781   3.951   4.198  17.247 -1.4186  0.6098 -0.3892
 5050SOL     OW26782   2.218   2.862   6.324 -0.1996  0.0649 -0.1083
 5050SOL    HW126783   2.244   2.771   6.314 -1.5917 -0.1996 -1.3799
 5050SOL    HW226784   2.191   2.857   6.415 -1.6901  0.9441 -0.4984
 5051SOL     OW26785   3.128   1.148  10.092 -0.0258 -0.2413 -0.0380
 5051SOL    HW126786   3.088   1.185  10.171 -0.0911  2.7077 -1.4433
 5051SOL    HW226787   3.126   1.223  10.032 -0.1399 -2.0216 -2.2511
 5052SOL     OW26788   0.911   0.165   0.836  0.5629  0.0254 -0.4826
 5052SOL    HW126789   0.943   0.244   0.879 -1.5874  0.2582  0.6833
 5052SOL    HW226790   0.978   0.108   0.874 -0.7176 -1.3846 -0.3403
 5053SOL     OW26791   0.307   3.760   4.941  0.0644  0.1017  0.3461
 5053SOL    HW126792   0.290   3.836   4.998  1.2901  0.7991 -0.2104
 5053SOL    HW226793   0.400   3.779   4.929 -0.0400  0.0360 -0.5781
 5054SOL     OW26794   2.137   2.480   4.389  0.4964 -0.3672  0.2380
 5054SOL    HW126795   2.140   2.523   4.474  0.6092  0.8806 -0.4007
 5054SOL    HW226796   2.138   2.562   4.340  0.2974 -0.9698 -0.7813
 5055SOL     OW26797   1.469   2.559  14.225 -0.3144  0.2251  0.1470
 5055SOL    HW126798   1.548   2.593  14.183  0.0966 -0.0937  0.6811
 5055SOL    HW226799   1.505   2.480  14.265 -1.7450  0.3515  1.6990
 5056SOL     OW26800   1.305   1.948   9.083 -0.1784  0.0247 -0.0130
 5056SOL    HW126801   1.263   2.008   9.021 -0.5806 -0.1546  0.0804
 5056SOL    HW226802   1.397   1.965   9.066 -0.0646 -0.0110  0.5550
 5057SOL     OW26803   0.372   4.228   5.235 -0.1263  0.0288 -0.0639
 5057SOL    HW126804   0.401   4.220   5.326 -2.3557 -0.8411  0.5563
 5057SOL    HW226805   0.280   4.239   5.257 -0.2029 -1.6565  0.3951
 5058SOL     OW26806   0.345   1.810   7.288  0.0878  0.3270 -0.4992
 5058SOL    HW126807   0.379   1.759   7.214  0.2969  2.4933 -1.8624
 5058SOL    HW226808   0.269   1.757   7.313  0.2550  2.0550  3.6891
 5059SOL     OW26809   1.244   0.582  13.403 -0.0140 -0.1033  0.3442
 5059SOL    HW126810   1.263   0.577  13.309 -0.6449 -1.9878  0.3176
 5059SOL    HW226811   1.233   0.676  13.421  0.1483 -0.0660  0.2496
 5060SOL     OW26812   2.441   4.402   9.364  0.3017  0.1742 -0.4632
 5060SOL    HW126813   2.453   4.424   9.272  2.6240  0.7198 -0.0312
 5060SOL    HW226814   2.523   4.364   9.395 -0.6661 -1.0294  0.6482
 5061SOL     OW26815   2.812   1.308   5.907  0.6808  0.0816 -0.4904
 5061SOL    HW126816   2.885   1.308   5.968 -0.3283 -2.2910  0.7287
 5061SOL    HW226817   2.828   1.235   5.847 -0.4594  1.4363 -2.4294
 5062SOL     OW26818   2.581   0.348   9.087  0.2214 -0.0192 -0.3463
 5062SOL    HW126819   2.530   0.324   9.165 -0.1446 -0.2130 -0.6469
 5062SOL    HW226820   2.533   0.296   9.023  1.7159 -0.4646 -1.1022
 5063SOL     OW26821   2.043   3.736   1.524 -0.1038  0.3981 -0.1710
 5063SOL    HW126822   2.055   3.649   1.562 -1.2303 -0.4143 -1.6748
 5063SOL    HW226823   2.045   3.705   1.434 -2.2134  1.2011 -0.5037
 5064SOL     OW26824   4.257   1.755   1.922 -0.0317 -0.5043 -0.0228
 5064SOL    HW126825   4.336   1.726   1.877 -0.6799  0.9302 -2.0520
 5064SOL    HW226826   4.207   1.775   1.843 -2.2895 -1.0794  1.2531
 5065SOL     OW26827   0.169   1.976   5.725 -0.2515 -0.3277  0.1974
 5065SOL    HW126828   0.100   2.012   5.668  0.4642  0.0362 -0.4387
 5065SOL    HW226829   0.238   1.950   5.664 -0.0183 -1.0783  0.7722
 5066SOL     OW26830   0.069   4.401   6.625 -0.3971 -0.2290  0.2243
 5066SOL    HW126831   0.062   4.383   6.532 -0.0322  0.2782  0.0975
 5066SOL    HW226832   0.153   4.366   6.654 -0.0912 -0.7215 -1.2777
 5067SOL     OW26833   3.763   3.676   6.118  0.2031  0.1063  0.7811
 5067SOL    HW126834   3.815   3.651   6.042 -1.6564 -0.7239 -0.2221
 5067SOL    HW226835   3.797   3.613   6.181 -0.9229 -0.9228  0.3619
 5068SOL     OW26836   1.152   4.111   6.344 -0.2905  0.4020  0.5008
 5068SOL    HW126837   1.245   4.125   6.329  0.0392 -1.7054  0.5559
 5068SOL    HW226838   1.131   4.099   6.252 -1.4554 -1.5234  1.0098
 5069SOL     OW26839   3.929   0.943  17.702 -0.0089  0.0167  0.2423
 5069SOL    HW126840   4.022   0.920  17.706 -0.4361 -1.8871 -0.6891
 5069SOL    HW226841   3.884   0.893   0.032 -1.3801 -0.4480 -1.0115
 5070SOL     OW26842   3.402   1.038   1.235  0.3954  0.3181  0.3998
 5070SOL    HW126843   3.488   1.039   1.194 -0.9602  0.2780 -2.4185
 5070SOL    HW226844   3.405   1.098   1.310 -0.0541 -1.6676  2.0216
 5071SOL     OW26845   1.971   4.254   5.305  0.0588  0.0547 -0.6960
 5071SOL    HW126846   2.031   4.321   5.273  0.9375 -0.2025  0.4012
 5071SOL    HW226847   1.980   4.264   5.400  0.3722  0.8686 -0.8136
 5072SOL     OW26848   1.216   2.097  14.385 -0.5702 -0.1845  0.0334
 5072SOL    HW126849   1.245   2.049  14.463 -1.6090  0.3222  0.7327
 5072SOL    HW226850   1.199   2.017  14.335 -0.4707  0.9568 -1.8375
 5073SOL     OW26851   0.286   0.539  14.121 -0.7645  0.2565  0.1259
 5073SOL    HW126852   0.287   0.631  14.095 -0.7287 -0.0471 -0.9626
 5073SOL    HW226853   0.226   0.553  14.194 -1.5242 -1.0573 -0.2537
 5074SOL     OW26854   3.527   3.084   3.700 -0.1100 -0.5124  0.1779
 5074SOL    HW126855   3.506   3.105   3.609 -1.0111 -2.1982 -0.0039
 5074SOL    HW226856   3.621   3.102   3.699 -0.1990 -0.1295 -1.0688
 5075SOL     OW26857   0.881   2.001  14.626  0.7318 -0.3192 -0.2236
 5075SOL    HW126858   0.831   2.082  14.625  1.6897  0.2775  0.8255
 5075SOL    HW226859   0.874   1.977  14.719 -0.4090  0.6784 -0.0582
 5076SOL     OW26860   4.380   3.466   6.750  0.4740  0.2586  0.8209
 5076SOL    HW126861   4.316   3.529   6.719  0.3291 -0.9881 -1.4286
 5076SOL    HW226862   4.328   3.414   6.811 -0.6815  0.0485 -0.3478
 5077SOL     OW26863   3.994   2.435   9.952  0.4680 -0.2194  0.3818
 5077SOL    HW126864   3.904   2.422   9.924  0.4431  0.9421 -0.0699
 5077SOL    HW226865   3.998   2.530   9.956  1.4441 -0.2499  0.1951
 5078SOL     OW26866   1.125   2.681  16.072  0.3098  0.0935  0.1171
 5078SOL    HW126867   1.040   2.709  16.038 -0.2431 -1.1635  0.4952
 5078SOL    HW226868   1.117   2.587  16.061  1.5589 -0.0519  0.4584
 5079SOL     OW26869   3.221   2.363   1.728  0.3655  0.5723 -0.1167
 5079SOL    HW126870   3.127   2.372   1.715  0.2644  0.4809  0.5464
 5079SOL    HW226871   3.245   2.432   1.790  1.5991  0.6098 -0.6330
 5080SOL     OW26872   4.593   3.024   1.682  0.9293  0.7049 -0.1767
 5080SOL    HW126873   4.521   3.026   1.619 -0.3615 -0.2308  1.2728
 5080SOL    HW226874   4.558   2.965   1.748  1.3794  1.7561  1.0041
 5081SOL     OW26875   2.274   4.461   2.009  0.1822 -0.1116  0.1887
 5081SOL    HW126876   2.224   4.468   2.090 -1.8333  3.0772 -1.3560
 5081SOL    HW226877   2.289   4.367   2.012 -0.4579 -0.1857  1.0697
 5082SOL     OW26878   0.351   2.749   6.717 -0.5418 -0.8219  0.0846
 5082SOL    HW126879   0.402   2.759   6.638  1.9949  0.5180  1.9086
 5082SOL    HW226880   0.394   2.807   6.780  0.9310  0.3947 -2.0705
 5083SOL     OW26881   4.287   2.035   1.609  0.2306  0.2698 -0.6627
 5083SOL    HW126882   4.261   2.093   1.681  2.1795  1.3784 -0.8576
 5083SOL    HW226883   4.208   2.039   1.555  1.0243 -0.3247 -1.8477
 5084SOL     OW26884   1.403   4.465   1.858 -0.2099  0.3351 -0.2506
 5084SOL    HW126885   1.440   4.395   1.804  0.6490 -0.5256  1.4404
 5084SOL    HW226886   1.480   4.499   1.904  0.6302 -0.3283 -1.1651
 5085SOL     OW26887   0.600   3.118  13.578 -0.0182  0.2709  0.0268
 5085SOL    HW126888   0.533   3.122  13.510 -1.0960 -0.5010  1.0535
 5085SOL    HW226889   0.552   3.139  13.658 -0.2344 -0.1683  0.0130
 5086SOL     OW26890   0.277   2.870   7.776 -0.1723  0.0367 -0.2518
 5086SOL    HW126891   0.362   2.835   7.749 -0.6710 -0.9464 -0.5734
 5086SOL    HW226892   0.290   2.879   7.870 -1.1222 -1.1309 -0.0098
 5087SOL     OW26893   1.153   2.392  15.340 -0.0001 -0.0576 -0.2458
 5087SOL    HW126894   1.168   2.486  15.353  0.2142  0.0199 -1.0702
 5087SOL    HW226895   1.075   2.393  15.285 -1.1390 -2.1617  1.3624
 5088SOL     OW26896   2.677   0.131   6.264  0.3089 -0.3916 -0.0512
 5088SOL    HW126897   2.742   0.182   6.217  0.6216 -0.7665 -0.0269
 5088SOL    HW226898   2.666   0.180   6.346  1.1471 -0.5801  0.1736
 5089SOL     OW26899   3.420   0.443   7.669 -0.6523 -0.5054  0.0377
 5089SOL    HW126900   3.353   0.375   7.666  0.9938 -2.2392  2.4375
 5089SOL    HW226901   3.351   0.509   7.672  0.4928  0.6510  1.1705
 5090SOL     OW26902   3.857   1.645   7.970  0.0477  0.2340 -0.5546
 5090SOL    HW126903   3.941   1.689   7.982  1.1554 -1.9525 -0.3250
 5090SOL    HW226904   3.801   1.680   8.040 -1.1426  1.0636 -1.9135
 5091SOL     OW26905   1.470   4.247   7.819 -0.2285 -0.1899  0.5432
 5091SOL    HW126906   1.381   4.279   7.802 -0.3295 -0.6358  0.2409
 5091SOL    HW226907   1.451   4.155   7.837 -0.9783 -0.3701 -1.1389
 5092SOL     OW26908   3.886   1.850   0.295  0.1785  0.5150 -0.2210
 5092SOL    HW126909   3.803   1.859   0.343 -0.4097 -1.4989 -0.8699
 5092SOL    HW226910   3.853   1.853   0.205  1.3211  0.9267 -0.6178
 5093SOL     OW26911   2.245   1.851   6.710 -0.7621  0.6374  0.1320
 5093SOL    HW126912   2.300   1.927   6.688 -0.2288 -0.4440 -2.3438
 5093SOL    HW226913   2.165   1.859   6.658  0.4625  1.2818 -1.6881
 5094SOL     OW26914   1.760   2.909   5.631 -0.4687 -0.0063  0.4019
 5094SOL    HW126915   1.840   2.934   5.584  0.7279 -0.4562  2.1766
 5094SOL    HW226916   1.733   2.829   5.587  1.1730  0.0800 -0.7816
 5095SOL     OW26917   3.651   0.530  15.277  0.0201  0.5276 -0.0478
 5095SOL    HW126918   3.701   0.515  15.357  1.9781  0.4111 -1.2719
 5095SOL    HW226919   3.704   0.482  15.213  0.0177  1.2453 -0.5873
 5096SOL     OW26920   3.807   0.051   8.115  0.2701 -0.3396  0.0796
 5096SOL    HW126921   3.866   0.098   8.055 -2.0684  2.3480 -0.1300
 5096SOL    HW226922   3.720   0.070   8.080  0.9583  1.1751 -0.8401
 5097SOL     OW26923   1.627   2.230   6.998  0.1153  0.0151 -0.7547
 5097SOL    HW126924   1.666   2.317   6.996  1.2833 -0.4476  1.8164
 5097SOL    HW226925   1.550   2.241   6.942 -0.0690  0.5049 -0.4023
 5098SOL     OW26926   4.212   0.932   6.057  0.4638 -0.3000 -0.6390
 5098SOL    HW126927   4.246   0.949   5.969  0.0075  1.9335 -0.3971
 5098SOL    HW226928   4.204   0.837   6.062  1.3446 -0.4087 -1.1809
 5099SOL     OW26929   2.810   2.247   5.778 -0.3428  0.3099 -0.4438
 5099SOL    HW126930   2.765   2.323   5.815  0.7466 -0.1154  1.7020
 5099SOL    HW226931   2.778   2.174   5.831  2.1468  0.4985  1.3011
 5100SOL     OW26932   0.980   4.568   1.988 -0.2803 -0.0543  0.7356
 5100SOL    HW126933   0.992   4.491   2.043 -0.7797 -0.1917  0.6504
 5100SOL    HW226934   0.987   4.545   1.896 -0.3633  2.4199  0.1239
 5101SOL     OW26935   0.286   1.066  14.910 -0.0105 -0.2495  0.3887
 5101SOL    HW126936   0.220   1.075  14.841  0.4832 -1.0338 -0.1860
 5101SOL    HW226937   0.233   1.069  14.990  0.8455  0.9993  0.8998
 5102SOL     OW26938   1.661   1.248   2.304 -0.0997 -0.2227  1.2472
 5102SOL    HW126939   1.707   1.177   2.348  1.8077 -0.0902 -0.5214
 5102SOL    HW226940   1.683   1.316   2.368 -0.5907 -0.3599  1.5679
 5103SOL     OW26941   0.497   1.354   3.941  0.0395 -0.6306 -0.0439
 5103SOL    HW126942   0.464   1.358   3.851 -2.2037  2.8030  0.9491
 5103SOL    HW226943   0.446   1.278   3.969  0.1107  0.0129  1.7865
 5104SOL     OW26944   3.771   1.986   3.262 -0.2300 -0.5240  0.8440
 5104SOL    HW126945   3.725   1.910   3.228  1.6223 -1.7287  1.0216
 5104SOL    HW226946   3.851   1.948   3.301 -0.4843 -1.4064  0.5087
 5105SOL     OW26947   2.707   0.638  12.240  0.5036  0.1687 -0.6007
 5105SOL    HW126948   2.676   0.717  12.194 -1.9189 -0.6470 -0.3539
 5105SOL    HW226949   2.679   0.583  12.167  1.1289 -1.7344  0.5882
 5106SOL     OW26950   1.557   3.496  10.180 -0.3299  0.4629 -0.4702
 5106SOL    HW126951   1.488   3.436  10.209 -0.6158  0.6265 -0.8087
 5106SOL    HW226952   1.513   3.564  10.130 -0.9124 -0.7077 -1.5362
 5107SOL     OW26953   0.128   1.332  16.919  0.1254 -0.0191  0.0580
 5107SOL    HW126954   0.186   1.288  16.857  0.3752 -0.2514  0.4577
 5107SOL    HW226955   0.136   1.277  16.997 -2.0546 -1.2553 -0.5768
 5108SOL     OW26956   2.364   3.501   2.488 -0.3883  0.1028 -0.2790
 5108SOL    HW126957   2.312   3.556   2.546 -1.6584 -0.4927 -0.8494
 5108SOL    HW226958   2.392   3.572   2.429  0.1732  0.8689  0.9161
 5109SOL     OW26959   3.517   2.893   2.447  0.1114 -0.3073  0.2389
 5109SOL    HW126960   3.457   2.929   2.512 -0.8180 -2.7808  0.7376
 5109SOL    HW226961   3.456   2.851   2.387 -1.5837  0.6862  1.2676
 5110SOL     OW26962   3.444   3.824   4.709 -0.3002 -0.2109 -0.0799
 5110SOL    HW126963   3.376   3.775   4.756 -0.3669 -1.1429 -1.1485
 5110SOL    HW226964   3.457   3.761   4.638 -1.0339  0.4427 -0.7856
 5111SOL     OW26965   1.668   3.921   5.351  0.2140 -0.2044 -1.0099
 5111SOL    HW126966   1.687   3.982   5.422 -0.7476  1.3967 -2.1138
 5111SOL    HW226967   1.717   3.844   5.377  1.6134  0.6781 -1.0344
 5112SOL     OW26968   4.259   3.402   2.758  0.6813  0.1774 -1.0922
 5112SOL    HW126969   4.351   3.383   2.775  0.7619  0.8183 -0.8191
 5112SOL    HW226970   4.212   3.319   2.759  2.4140 -0.8145 -2.6222
 5113SOL     OW26971   1.105   0.590  15.752  0.2304  0.2973 -0.4500
 5113SOL    HW126972   1.029   0.589  15.693  0.3404 -1.2892 -0.5669
 5113SOL    HW226973   1.087   0.676  15.789  1.6869 -0.0979  1.1479
 5114SOL     OW26974   3.650   1.740   4.025 -0.2160  0.5292  0.0265
 5114SOL    HW126975   3.600   1.821   4.014 -2.6992 -1.2105 -1.2001
 5114SOL    HW226976   3.710   1.771   4.094 -0.8444  1.0265  0.3510
 5115SOL     OW26977   3.183   0.068   7.290 -0.1424 -0.0993  0.1839
 5115SOL    HW126978   3.237   0.147   7.281 -0.9948  0.2478 -1.8664
 5115SOL    HW226979   3.242   0.027   7.353 -0.7863  0.2646  1.0194
 5116SOL     OW26980   0.738   1.302   3.505  0.1958  0.0817 -0.8579
 5116SOL    HW126981   0.698   1.370   3.452 -1.1353  0.1251  0.1957
 5116SOL    HW226982   0.807   1.268   3.448  0.9537 -0.7327  0.5364
 5117SOL     OW26983   2.845   1.042   9.944 -0.2664  0.0327  0.7997
 5117SOL    HW126984   2.788   1.114   9.916  0.4413  0.6053  0.8326
 5117SOL    HW226985   2.851   1.052  10.039  1.1855  3.2846  0.3555
 5118SOL     OW26986   0.049   2.650   0.383  0.0286 -0.6239 -0.4909
 5118SOL    HW126987   0.077   2.598   0.308  0.4249 -1.8867  0.5381
 5118SOL    HW226988   0.132   2.666   0.428  0.1264 -0.4640 -0.7278
 5119SOL     OW26989   0.738   0.350   6.558  0.0215  0.1784 -0.4950
 5119SOL    HW126990   0.692   0.409   6.618  0.2317  0.3868 -0.5392
 5119SOL    HW226991   0.664   0.306   6.517 -1.0798  0.4662  1.1736
 5120SOL     OW26992   1.909   3.406   6.333  0.6066 -0.0276  0.2892
 5120SOL    HW126993   1.850   3.335   6.308 -1.8668  1.8116  1.0079
 5120SOL    HW226994   1.963   3.357   6.396  0.6291  2.1675  1.9648
 5121SOL     OW26995   1.821   4.290   4.662 -0.1419  0.3300  0.4657
 5121SOL    HW126996   1.800   4.281   4.755 -2.6003  1.3508  0.0263
 5121SOL    HW226997   1.746   4.340   4.628 -0.0364  1.7412  2.3109
 5122SOL     OW26998   1.312   1.250  11.396  0.5675  0.0530 -0.2693
 5122SOL    HW126999   1.303   1.290  11.482  0.7857 -2.0885  0.7670
 5122SOL    HW227000   1.282   1.160  11.408 -1.4110  0.6721 -0.5677
 5123SOL     OW27001   1.192   4.025   4.619 -0.1666 -0.7749  0.0133
 5123SOL    HW127002   1.115   3.986   4.578 -0.1460 -0.9730  0.1638
 5123SOL    HW227003   1.271   4.004   4.568  1.1196  0.5951  1.4245
 5124SOL     OW27004   0.130   1.580  14.340 -0.4999  0.8735  0.8757
 5124SOL    HW127005   0.200   1.589  14.405  1.7004 -0.5401 -1.2816
 5124SOL    HW227006   0.163   1.634  14.269 -2.3990  0.0250 -0.6419
 5125SOL     OW27007   0.808   0.688  14.913 -0.7530  0.1347  0.0008
 5125SOL    HW127008   0.829   0.743  14.988 -0.5238 -0.8474  0.6547
 5125SOL    HW227009   0.715   0.708  14.921 -0.7678 -1.0126  2.5404
 5126SOL     OW27010   1.215   1.056   5.076  0.2085  0.3393 -0.3145
 5126SOL    HW127011   1.206   1.066   4.981 -0.3067  0.3702 -0.2621
 5126SOL    HW227012   1.309   1.038   5.087 -0.2714 -1.1914  1.3417
 5127SOL     OW27013   4.115   2.400  17.633 -1.1136 -0.1779 -0.1989
 5127SOL    HW127014   4.118   2.353  17.550  1.7650  1.5546 -1.0610
 5127SOL    HW227015   4.207   2.385  17.656 -1.2045  0.7891  0.7995
 5128SOL     OW27016   0.923   0.177  10.362  0.5636  0.4900  0.6336
 5128SOL    HW127017   0.867   0.146  10.433 -3.3036  1.5105 -1.9694
 5128SOL    HW227018   0.999   0.119  10.365  1.3708  1.4650 -1.1378
 5129SOL     OW27019   4.667   4.009   6.786  0.1453 -0.0204  0.1944
 5129SOL    HW127020   4.606   4.019   6.713  0.4220  0.3707  0.0151
 5129SOL    HW227021   0.000   3.969   6.731 -0.3407 -0.5465 -0.0208
 5130SOL     OW27022   0.929   3.454   5.696  0.1646 -0.3912  0.4988
 5130SOL    HW127023   0.928   3.359   5.708 -0.2448 -0.5107 -0.5105
 5130SOL    HW227024   0.990   3.482   5.765  1.3422  0.4872 -0.9047
 5131SOL     OW27025   3.058   3.982   2.466  0.6731  0.6779  0.0290
 5131SOL    HW127026   3.150   4.009   2.465  0.8615  0.0477  0.5207
 5131SOL    HW227027   3.042   3.962   2.374 -3.3733  0.9327  0.7058
 5132SOL     OW27028   0.492   2.313   2.423  0.3505  0.5146  0.2944
 5132SOL    HW127029   0.398   2.295   2.425 -0.1382  2.9911 -0.9784
 5132SOL    HW227030   0.513   2.296   2.515 -1.3633  1.9795  0.9498
 5133SOL     OW27031   2.114   2.341   7.889 -0.0503 -0.2513  1.0503
 5133SOL    HW127032   2.022   2.333   7.863  0.1350  0.2539  0.2222
 5133SOL    HW227033   2.163   2.381   7.817 -0.7007 -0.3043  0.5729
 5134SOL     OW27034   0.495   3.834   8.983  0.0712 -0.1661  0.0451
 5134SOL    HW127035   0.401   3.819   8.972  0.2963 -2.6595  1.4909
 5134SOL    HW227036   0.511   3.916   8.937 -1.8629 -0.4136 -1.0739
 5135SOL     OW27037   2.814   2.991   6.563  0.1267 -0.3972 -0.1150
 5135SOL    HW127038   2.750   3.062   6.571  0.0609 -0.3866 -0.7774
 5135SOL    HW227039   2.796   2.940   6.642  0.2433 -1.5559 -0.8460
 5136SOL     OW27040   2.292   3.133  15.591 -0.0807  0.3276 -0.1238
 5136SOL    HW127041   2.202   3.103  15.581 -0.2661 -0.6106  4.1193
 5136SOL    HW227042   2.278   3.228  15.592 -1.2185  0.1549  0.4877
 5137SOL     OW27043   1.388   0.790  13.598 -0.6020  0.3006  0.3679
 5137SOL    HW127044   1.418   0.847  13.527 -1.4253 -1.6247 -1.5139
 5137SOL    HW227045   1.454   0.720  13.602 -1.5756 -0.7125 -1.1915
 5138SOL     OW27046   2.061   0.730   8.469 -0.5983  0.1457 -0.3440
 5138SOL    HW127047   2.142   0.782   8.463 -0.0965 -0.7836 -1.6632
 5138SOL    HW227048   2.033   0.723   8.560 -1.3539  0.0610 -0.5848
 5139SOL     OW27049   2.975   4.345   3.773 -0.0906 -0.3394  0.0293
 5139SOL    HW127050   3.005   4.353   3.863 -1.5435 -0.0498  0.4921
 5139SOL    HW227051   2.883   4.372   3.779  0.0446  0.3287 -0.7983
 5140SOL     OW27052   0.014   0.676   4.578  0.5127  0.2949 -0.4240
 5140SOL    HW127053   0.081   0.608   4.570  0.7408  0.2920  1.4436
 5140SOL    HW227054   4.687   0.634   4.518  0.4526 -0.6523  0.2840
 5141SOL     OW27055   3.353   0.507   6.090  0.7672 -0.3499  0.4005
 5141SOL    HW127056   3.258   0.519   6.092  0.6914 -0.8096 -0.1456
 5141SOL    HW227057   3.384   0.593   6.116 -1.3141  0.7867 -0.9095
 5142SOL     OW27058   3.476   2.640   9.333  0.1306  0.0587  0.0418
 5142SOL    HW127059   3.390   2.679   9.318  0.6735  1.5284  0.7254
 5142SOL    HW227060   3.491   2.584   9.258 -0.6113 -0.6776  0.4465
 5143SOL     OW27061   2.656   4.312   2.905  0.3311  0.0677  0.4357
 5143SOL    HW127062   2.639   4.218   2.907  3.9313 -0.5832  0.3019
 5143SOL    HW227063   2.594   4.330   2.976  1.1782 -0.2561  1.2611
 5144SOL     OW27064   2.128   2.156   0.826  0.1492  0.6637 -0.1670
 5144SOL    HW127065   2.110   2.240   0.784  0.3046  0.4430 -0.6851
 5144SOL    HW227066   2.196   2.124   0.766  0.7553 -0.6837  1.2360
 5145SOL     OW27067   4.138   0.580  17.659 -0.5560  0.4073  0.2350
 5145SOL    HW127068   4.179   0.603  17.575  1.1914  2.6129  1.7113
 5145SOL    HW227069   4.210   0.560  17.718  0.0334  0.5948 -0.4191
 5146SOL     OW27070   1.425   4.088   4.076 -0.3506  0.1956 -0.1022
 5146SOL    HW127071   1.468   4.121   3.997 -0.4939 -0.1116 -0.3103
 5146SOL    HW227072   1.366   4.028   4.030 -2.1134  1.9839 -0.1787
 5147SOL     OW27073   2.198   2.407   4.876  0.5578  0.0183 -0.8181
 5147SOL    HW127074   2.230   2.350   4.946  1.1315  1.0989 -0.1965
 5147SOL    HW227075   2.235   2.487   4.912  0.7070 -0.6553  0.5476
 5148SOL     OW27076   0.425   2.103   1.690  0.9642  0.6178 -0.0208
 5148SOL    HW127077   0.507   2.136   1.727  1.7190  0.5058 -1.5737
 5148SOL    HW227078   0.448   2.038   1.623  1.9151  2.0287 -1.0741
 5149SOL     OW27079   2.764   0.223   2.277 -0.4279 -0.4386  0.1105
 5149SOL    HW127080   2.745   0.213   2.184 -1.2197 -1.2372  0.3651
 5149SOL    HW227081   2.834   0.289   2.277 -0.0802 -0.7990  1.0677
 5150SOL     OW27082   0.899   2.825  17.300 -0.5324  0.2399  0.0154
 5150SOL    HW127083   0.882   2.898  17.241  0.1513 -0.8396 -1.5052
 5150SOL    HW227084   0.875   2.747  17.252  0.8304 -0.2317  0.1169
 5151SOL     OW27085   1.624   3.251  12.040 -0.1245  0.3380  0.1507
 5151SOL    HW127086   1.599   3.344  12.037 -0.2738  0.2552 -1.3734
 5151SOL    HW227087   1.712   3.264  12.006  0.1943 -0.3373  0.7255
 5152SOL     OW27088   1.625   1.662   0.980 -0.1627 -0.5726  0.6975
 5152SOL    HW127089   1.644   1.691   1.069 -3.3114  2.1592  0.4945
 5152SOL    HW227090   1.595   1.572   0.999  0.4845 -0.9969 -0.3128
 5153SOL     OW27091   0.654   4.476   3.035  0.5041  0.0408  0.5087
 5153SOL    HW127092   0.646   4.484   3.130 -0.1908 -0.3476  0.4817
 5153SOL    HW227093   0.586   4.540   3.012 -0.5953 -0.7321  1.6159
 5154SOL     OW27094   3.046   0.964   5.480  0.0234  0.3198  0.1672
 5154SOL    HW127095   3.033   1.056   5.455 -0.5291 -0.0864 -1.0474
 5154SOL    HW227096   3.059   0.963   5.574 -2.0617 -1.5312  0.4300
 5155SOL     OW27097   0.892   4.595   7.077  0.2258  0.6351  0.2203
 5155SOL    HW127098   0.798   4.606   7.065  0.0521 -0.9217  0.1476
 5155SOL    HW227099   0.909   4.544   6.998 -0.8284 -0.0048  0.3993
 5156SOL     OW27100   1.313   3.720   2.472 -0.4472  0.0293  0.3935
 5156SOL    HW127101   1.235   3.776   2.470  0.9572  1.9437 -1.1340
 5156SOL    HW227102   1.279   3.643   2.426  1.2546 -0.5355  0.0887
 5157SOL     OW27103   1.410   2.510  17.673 -0.5187  0.1395  0.0912
 5157SOL    HW127104   1.326   2.503  17.718 -1.5349 -0.3607 -1.9070
 5157SOL    HW227105   1.462   2.483   0.012  0.8217  2.5433  0.0212
 5158SOL     OW27106   1.743   4.162   6.397 -0.3568  0.1447  0.2154
 5158SOL    HW127107   1.718   4.134   6.309  0.8475 -2.5325  0.7558
 5158SOL    HW227108   1.733   4.257   6.387  0.7973  0.5060  2.6715
 5159SOL     OW27109   3.138   0.607  15.300 -0.3467  0.1299  0.0245
 5159SOL    HW127110   3.117   0.644  15.214  1.0340 -1.2846 -0.9222
 5159SOL    HW227111   3.232   0.591  15.292 -0.2166  0.3770  1.0831
 5160SOL     OW27112   4.053   4.532   2.113 -0.2285 -0.1404  0.0116
 5160SOL    HW127113   4.027   4.594   2.045  2.2340 -0.4155 -1.2068
 5160SOL    HW227114   4.088   4.462   2.057 -0.3830  0.1002 -0.3818
 5161SOL     OW27115   0.531   0.661  14.315  0.3002 -0.5846 -0.5905
 5161SOL    HW127116   0.469   0.662  14.387  0.9412 -0.5191 -0.0439
 5161SOL    HW227117   0.488   0.711  14.245 -2.1861  1.7476  2.5891
 5162SOL     OW27118   1.368   2.017   4.035  0.4930 -0.0318 -0.6315
 5162SOL    HW127119   1.304   2.070   4.083 -0.3622 -1.1756 -0.4924
 5162SOL    HW227120   1.444   2.074   4.036  1.7915 -1.7695 -0.0277
 5163SOL     OW27121   2.768   3.401   5.262  0.3202 -0.0322 -0.1808
 5163SOL    HW127122   2.675   3.402   5.286  0.1561 -0.2506 -0.8192
 5163SOL    HW227123   2.761   3.335   5.193  0.0032 -1.4061  1.1460
 5164SOL     OW27124   3.491   0.153  13.534 -0.1713 -0.1503  0.0733
 5164SOL    HW127125   3.457   0.072  13.497  2.9382  0.0342 -3.1486
 5164SOL    HW227126   3.451   0.162  13.621 -0.2520 -1.2511  0.1519
 5165SOL     OW27127   2.580   3.045   5.228 -0.0914 -0.1070  0.1179
 5165SOL    HW127128   2.671   3.060   5.251 -0.5086  1.9412  0.3934
 5165SOL    HW227129   2.584   3.105   5.154  1.6052  0.9496  1.0632
 5166SOL     OW27130   0.100   1.761   0.773  0.3076  0.3703 -0.5063
 5166SOL    HW127131   0.125   1.848   0.740  1.4228  0.2949  0.1407
 5166SOL    HW227132   0.185   1.735   0.809 -0.1786 -1.7782 -0.8967
 5167SOL     OW27133   3.933   1.610   0.384 -0.2882 -0.4267 -0.0688
 5167SOL    HW127134   3.963   1.578   0.299  1.8912  1.4190 -0.0081
 5167SOL    HW227135   3.926   1.705   0.368 -0.1606 -0.6185 -1.2275
 5168SOL     OW27136   0.417   2.954   4.826 -0.1234  0.5085  0.2636
 5168SOL    HW127137   0.382   2.876   4.869  0.8581 -1.1341 -1.8888
 5168SOL    HW227138   0.348   3.016   4.846  0.6401  1.5830 -0.4259
 5169SOL     OW27139   0.345   0.733   9.310 -0.1760 -0.1688 -0.3409
 5169SOL    HW127140   0.269   0.768   9.357 -0.1774 -3.4726  2.1053
 5169SOL    HW227141   0.417   0.782   9.350 -3.4219  1.6625  3.2753
 5170SOL     OW27142   4.479   2.686   8.249  0.4101 -0.2731  0.3077
 5170SOL    HW127143   4.464   2.669   8.156  1.7952 -1.7248  0.3433
 5170SOL    HW227144   4.389   2.674   8.278  0.7542 -0.2560  1.3832
 5171SOL     OW27145   1.864   3.734   8.831  0.3486  0.4553  0.3283
 5171SOL    HW127146   1.945   3.751   8.783  1.3620 -0.6006  1.6458
 5171SOL    HW227147   1.894   3.766   8.916  0.4885  1.9294 -0.2750
 5172SOL     OW27148   0.022   0.888   1.684  0.1715 -0.4476 -0.1027
 5172SOL    HW127149   4.725   0.918   1.599 -0.0334  1.3553  0.6031
 5172SOL    HW227150   0.109   0.855   1.664  0.4277  0.3204 -0.2789
 5173SOL     OW27151   1.093   1.745   1.738 -0.5709  0.1088  0.4616
 5173SOL    HW127152   1.108   1.722   1.830 -0.9906 -0.4854  0.3776
 5173SOL    HW227153   1.142   1.827   1.731  1.3124 -1.1990 -1.5483
 5174SOL     OW27154   2.842   2.526  16.449 -0.0800 -0.1397  0.6505
 5174SOL    HW127155   2.850   2.495  16.359  0.8534 -0.6579  0.9043
 5174SOL    HW227156   2.933   2.557  16.458 -0.0906  0.1168 -0.1445
 5175SOL     OW27157   1.471   2.867   6.563  0.0636 -0.9675  0.3405
 5175SOL    HW127158   1.393   2.864   6.507  1.2102 -0.0966 -1.3297
 5175SOL    HW227159   1.526   2.898   6.491  0.7208  0.6019  1.5221
 5176SOL     OW27160   1.998   2.586   3.945 -0.3136  0.0725  0.0676
 5176SOL    HW127161   2.090   2.581   3.971 -1.1602  0.7137  3.2000
 5176SOL    HW227162   1.984   2.670   3.902  1.5442  0.2534 -0.1736
 5177SOL     OW27163   4.198   1.944   7.531 -1.0139 -0.1142  0.4139
 5177SOL    HW127164   4.199   2.038   7.548  1.4478 -0.3967  1.7934
 5177SOL    HW227165   4.158   1.928   7.616 -1.1943  0.0559  0.3611
 5178SOL     OW27166   3.576   0.957  17.602  0.5775 -0.0784 -0.0288
 5178SOL    HW127167   3.578   0.997  17.689  0.2714 -0.0574 -0.0332
 5178SOL    HW227168   3.488   0.988  17.581  1.0136  2.6559  2.2989
 5179SOL     OW27169   4.662   4.007  14.861  0.0516  0.1190  0.7869
 5179SOL    HW127170   4.577   4.004  14.817  0.7449  1.7420 -0.6569
 5179SOL    HW227171   4.707   3.957  14.793  2.0603  1.1406  1.3502
 5180SOL     OW27172   0.643   4.430   7.230 -1.0182  0.3890  0.8248
 5180SOL    HW127173   0.715   4.460   7.285  1.2820 -0.9016 -1.4817
 5180SOL    HW227174   0.584   4.505   7.224  0.5456  1.6004  0.5853
 5181SOL     OW27175   3.160   2.605  16.459  0.4034  0.1374  0.3753
 5181SOL    HW127176   3.198   2.539  16.516 -0.2509 -2.4838 -2.2628
 5181SOL    HW227177   3.211   2.602  16.378 -2.8985  0.6853 -1.7286
 5182SOL     OW27178   1.943   4.686   6.030 -0.3670  0.2223 -0.3295
 5182SOL    HW127179   1.953   4.602   6.075 -1.3929  0.1606 -0.2030
 5182SOL    HW227180   2.024   4.727   6.058 -0.8155  0.8547  0.0395
 5183SOL     OW27181   4.613   3.812  15.148  0.0416  0.7733 -0.5100
 5183SOL    HW127182   4.612   3.744  15.080  0.9966 -1.1521  1.3894
 5183SOL    HW227183   4.574   3.762  15.220 -0.9686  1.8722 -0.2952
 5184SOL     OW27184   2.166   2.865   4.798 -0.2421  0.4298  0.5612
 5184SOL    HW127185   2.167   2.793   4.861  1.8252 -0.6426 -0.6905
 5184SOL    HW227186   2.198   2.940   4.848 -0.3150 -0.4027  1.8326
 5185SOL     OW27187   0.829   1.218  12.200  0.1242  0.1942 -0.2355
 5185SOL    HW127188   0.897   1.150  12.202  0.3433  0.4486  1.5685
 5185SOL    HW227189   0.825   1.235  12.106  0.3751 -0.2561 -0.3294
 5186SOL     OW27190   4.499   0.797  11.276  0.1260  0.1269 -0.1786
 5186SOL    HW127191   4.552   0.805  11.197  1.5177 -1.7836  0.5610
 5186SOL    HW227192   4.408   0.811  11.250  0.7151  2.9308 -0.7586
 5187SOL     OW27193   1.873   1.392   1.946 -0.1676 -0.5221 -0.6021
 5187SOL    HW127194   1.810   1.327   1.980  0.1614  0.2958  1.6076
 5187SOL    HW227195   1.864   1.363   1.856 -0.1398  0.6798 -0.9954
 5188SOL     OW27196   3.644   1.177   7.120  0.2820  0.0449 -0.3501
 5188SOL    HW127197   3.668   1.258   7.166  1.4817 -0.7662  0.4608
 5188SOL    HW227198   3.552   1.197   7.102 -0.2607 -1.5964  0.5640
 5189SOL     OW27199   2.513   4.522   3.849  0.5041  0.0361 -0.1153
 5189SOL    HW127200   2.507   4.585   3.777  0.3643  0.1971  0.0339
 5189SOL    HW227201   2.510   4.588   3.919  0.4613  0.0357 -0.1168
 5190SOL     OW27202   3.963   0.761  17.388 -0.0649  0.1908  0.0605
 5190SOL    HW127203   3.892   0.812  17.349  1.5815 -0.5306 -3.9420
 5190SOL    HW227204   3.921   0.721  17.464  0.6716 -0.2784  0.2116
 5191SOL     OW27205   1.821   1.813   1.744 -0.1519  0.3549 -0.1627
 5191SOL    HW127206   1.898   1.775   1.703  0.3732 -0.6927  1.7556
 5191SOL    HW227207   1.779   1.732   1.775  1.2849 -0.4252 -0.2707
 5192SOL     OW27208   0.399   0.514   2.175  0.0479 -1.1032  0.3749
 5192SOL    HW127209   0.477   0.550   2.217 -0.3279  1.0701 -0.7783
 5192SOL    HW227210   0.412   0.421   2.194  1.5777 -1.1214 -0.7502
 5193SOL     OW27211   0.560   3.419   2.673 -0.7002  0.4665  0.0452
 5193SOL    HW127212   0.529   3.419   2.582  1.0319 -1.6851 -0.5301
 5193SOL    HW227213   0.548   3.512   2.690  0.6260  0.6625 -0.1251
 5194SOL     OW27214   2.774   3.719   3.867  0.2941  0.8164  0.3048
 5194SOL    HW127215   2.833   3.669   3.924  0.3369  1.7350  1.0690
 5194SOL    HW227216   2.702   3.715   3.930  0.7696  0.3547  0.8279
 5195SOL     OW27217   0.789   4.542   3.554  0.4188  1.0171 -0.4153
 5195SOL    HW127218   0.819   4.504   3.636  0.8946  2.0652 -0.0961
 5195SOL    HW227219   0.748   4.626   3.574 -0.7870  0.6806 -1.4521
 5196SOL     OW27220   1.539   2.673  12.597  0.2691 -0.1339 -0.7316
 5196SOL    HW127221   1.603   2.617  12.641 -2.1097 -2.4062 -0.0807
 5196SOL    HW227222   1.585   2.735  12.541  0.1045  2.8825  2.4820
 5197SOL     OW27223   0.713   4.152   1.401 -0.3618  0.2912  0.4750
 5197SOL    HW127224   0.706   4.237   1.446 -2.2875  0.5666 -0.3298
 5197SOL    HW227225   0.642   4.161   1.338 -1.2242 -0.5957  1.3178
 5198SOL     OW27226   2.360   3.336  11.907 -0.3792  0.1532 -0.0248
 5198SOL    HW127227   2.268   3.311  11.916 -0.7152  1.6976  0.8758
 5198SOL    HW227228   2.355   3.430  11.894  0.4246  0.1144 -0.6285
 5199SOL     OW27229   2.666   3.498   9.318  0.1797 -0.0134 -0.1800
 5199SOL    HW127230   2.645   3.439   9.246 -2.2139  1.5195 -0.7574
 5199SOL    HW227231   2.629   3.442   9.387  0.9119  1.1612  1.1703
 5200SOL     OW27232   0.782   4.293  12.790  0.5072 -0.0349  0.5537
 5200SOL    HW127233   0.839   4.252  12.724 -1.2124  0.6024 -1.3400
 5200SOL    HW227234   0.803   4.250  12.873 -2.2818  1.1054  1.8554
 5201SOL     OW27235   1.424   0.476   2.622 -0.1892 -0.1311  0.1785
 5201SOL    HW127236   1.409   0.436   2.536 -1.3803  1.0714 -0.1649
 5201SOL    HW227237   1.352   0.448   2.678  1.7113 -0.3569  2.4978
 5202SOL     OW27238   1.791   4.261   3.577 -0.1711 -0.5641  0.1373
 5202SOL    HW127239   1.719   4.260   3.514  0.5784  0.5857 -0.7671
 5202SOL    HW227240   1.752   4.314   3.646 -1.0706 -0.7978 -0.1947
 5203SOL     OW27241   1.408   3.713   5.549  0.4852 -0.1853 -0.4210
 5203SOL    HW127242   1.376   3.628   5.519  0.9502 -0.2847 -0.6367
 5203SOL    HW227243   1.326   3.758   5.570  0.8751  0.4288 -0.2133
 5204SOL     OW27244   0.688   2.847   4.865 -0.1971  0.1625 -0.1685
 5204SOL    HW127245   0.622   2.916   4.875  1.0200  1.2390  0.3890
 5204SOL    HW227246   0.646   2.774   4.910  0.5008 -0.7549 -1.0052
 5205SOL     OW27247   3.813   0.191   8.349  0.1173  0.2266  0.5442
 5205SOL    HW127248   3.812   0.140   8.267 -0.5910 -0.0668  0.7341
 5205SOL    HW227249   3.901   0.172   8.380  0.0370 -1.2500 -0.0926
 5206SOL     OW27250   4.570   1.670   0.851  0.4759 -0.4702 -0.0475
 5206SOL    HW127251   4.650   1.701   0.808 -1.2526  0.8029 -2.3475
 5206SOL    HW227252   4.529   1.617   0.783 -0.2003 -0.7741  0.5996
 5207SOL     OW27253   3.339   4.688   0.958 -0.2135 -0.1065 -0.1812
 5207SOL    HW127254   3.273   0.023   0.950 -0.6780 -0.3754  1.3990
 5207SOL    HW227255   3.274   4.626   0.990 -0.5660  1.0166  1.2667
 5208SOL     OW27256   1.932   1.925  11.953  0.0476 -0.1089 -0.4670
 5208SOL    HW127257   1.914   1.839  11.990  2.6558 -1.4884 -2.4248
 5208SOL    HW227258   1.996   1.955  12.018 -0.9787  2.1305 -0.4776
 5209SOL     OW27259   3.402   0.698   3.158  0.1388 -0.2024 -0.2005
 5209SOL    HW127260   3.427   0.686   3.066  0.0272 -1.4736 -0.0612
 5209SOL    HW227261   3.322   0.647   3.167  1.2794 -1.8447  0.5128
 5210SOL     OW27262   1.831   1.338  13.273  0.1984  0.5907 -0.5834
 5210SOL    HW127263   1.792   1.324  13.360 -1.5151  0.0262 -1.4426
 5210SOL    HW227264   1.919   1.365  13.301 -0.1769 -0.1348  1.3115
 5211SOL     OW27265   1.419   3.308  12.265  0.1749  0.8131 -1.0167
 5211SOL    HW127266   1.492   3.351  12.310  0.0964  0.5883 -0.6733
 5211SOL    HW227267   1.465   3.248  12.207  2.1747  0.8272  0.5435
 5212SOL     OW27268   3.859   0.038   1.366 -0.1030  0.2520 -0.0393
 5212SOL    HW127269   3.892   0.008   1.450  1.7577  0.9238 -0.5427
 5212SOL    HW227270   3.818   0.122   1.388 -1.8401 -0.5189 -0.3393
 5213SOL     OW27271   0.947   1.201  14.001  0.8617  0.3406 -0.2808
 5213SOL    HW127272   0.948   1.218  14.095 -1.5075 -2.4385  0.2578
 5213SOL    HW227273   0.853   1.181  13.993  1.3035 -1.4192 -1.0768
 5214SOL     OW27274   4.462   2.618  14.548 -0.2339 -0.1377  0.4170
 5214SOL    HW127275   4.420   2.588  14.467 -0.1911  2.8086 -0.6929
 5214SOL    HW227276   4.493   2.535  14.585  1.6177  1.8233  3.2706
 5215SOL     OW27277   2.210   0.538   6.638 -0.1103  0.1159  0.3489
 5215SOL    HW127278   2.170   0.503   6.558 -0.6112 -0.8936  1.0419
 5215SOL    HW227279   2.176   0.627   6.644  0.6224  0.3364  1.1971
 5216SOL     OW27280   0.268   2.065   4.604  0.2595 -0.2538  0.3673
 5216SOL    HW127281   0.338   2.017   4.649 -0.3581 -0.6965  0.8520
 5216SOL    HW227282   0.316   2.109   4.534  0.6212 -1.9711 -0.4386
 5217SOL     OW27283   1.707   1.907   8.624  0.2193 -0.2838 -0.4065
 5217SOL    HW127284   1.642   1.946   8.566  0.6847  0.7837 -0.2007
 5217SOL    HW227285   1.784   1.962   8.635 -0.8464  1.7120 -3.0655
 5218SOL     OW27286   2.047   0.239   5.440  0.4341 -0.2245 -0.6338
 5218SOL    HW127287   2.094   0.319   5.421  0.5798 -0.4090 -1.0418
 5218SOL    HW227288   2.005   0.211   5.359  0.6133 -2.5882  0.0888
 5219SOL     OW27289   4.642   1.710   6.473  0.1196 -0.3904  0.8051
 5219SOL    HW127290   4.673   1.659   6.548  0.8374 -0.8126  0.2318
 5219SOL    HW227291   4.607   1.791   6.509 -0.2054 -1.1415  2.1579
 5220SOL     OW27292   2.398   4.046  13.137 -0.5883  0.1088  0.0089
 5220SOL    HW127293   2.418   4.109  13.067 -0.5201 -2.5228 -2.3497
 5220SOL    HW227294   2.329   4.100  13.175  0.8976  1.0067  1.4181
 5221SOL     OW27295   2.412   4.676  12.806  0.0989 -0.3550  0.4333
 5221SOL    HW127296   2.507   4.676  12.809  0.1175 -2.8882  0.1079
 5221SOL    HW227297   2.390   4.603  12.748  2.7326  0.4460 -1.5323
 5222SOL     OW27298   0.285   1.901   6.640  0.1020  0.4664  0.1729
 5222SOL    HW127299   0.293   1.807   6.629  3.1905  0.5940  1.3789
 5222SOL    HW227300   0.305   1.901   6.734 -3.2006  1.6783  0.8745
 5223SOL     OW27301   3.824   3.301   7.814  0.2306 -0.6097  0.5471
 5223SOL    HW127302   3.777   3.220   7.798 -1.1025  0.0595  1.0825
 5223SOL    HW227303   3.750   3.362   7.811  0.4796 -0.2737  1.3389
 5224SOL     OW27304   0.054   0.581  12.373  0.3113 -0.2554  0.9128
 5224SOL    HW127305   4.726   0.512  12.349  1.1050 -0.3449 -0.9111
 5224SOL    HW227306   0.109   0.574  12.295  0.5193  1.5472  0.9054
 5225SOL     OW27307   3.898   4.550  16.106  0.5891 -0.1052  0.3437
 5225SOL    HW127308   3.932   4.515  16.188  1.8363  0.7959  0.1971
 5225SOL    HW227309   3.919   4.476  16.049 -1.2815  1.8500 -2.8538
 5226SOL     OW27310   1.778   2.340  11.328 -0.1392 -0.1679 -0.3349
 5226SOL    HW127311   1.820   2.372  11.407  0.2762 -1.9102  0.1365
 5226SOL    HW227312   1.766   2.245  11.333  0.5527 -0.1893  0.7731
 5227SOL     OW27313   3.608   4.487   7.251 -0.5525  0.0428 -0.1326
 5227SOL    HW127314   3.523   4.445   7.258 -0.6741  0.3713  0.3651
 5227SOL    HW227315   3.598   4.555   7.318 -2.5230 -0.3696 -0.0141
 5228SOL     OW27316   3.204   4.511   1.631 -0.2539  0.1417  0.1394
 5228SOL    HW127317   3.216   4.482   1.541 -1.3420 -1.0073  0.3743
 5228SOL    HW227318   3.109   4.517   1.639 -0.4080 -0.4850 -1.4059
 5229SOL     OW27319   2.529   3.095  10.734  0.5211  0.0254 -0.4106
 5229SOL    HW127320   2.524   3.190  10.729  1.8150  0.0316 -1.6404
 5229SOL    HW227321   2.591   3.077  10.663 -1.8024 -0.1423 -2.3718
 5230SOL     OW27322   0.520   1.696   3.210  0.1509 -0.4657 -0.1546
 5230SOL    HW127323   0.539   1.744   3.129 -3.0374 -0.3195 -0.8095
 5230SOL    HW227324   0.468   1.764   3.253 -0.9375 -0.8097 -0.9267
 5231SOL     OW27325   2.814   2.207   6.613  0.1546 -0.6492  0.0546
 5231SOL    HW127326   2.760   2.253   6.676 -0.9284 -0.5789 -0.9191
 5231SOL    HW227327   2.765   2.132   6.580  1.8388 -1.4025 -0.7379
 5232SOL     OW27328   2.480   4.304  17.333  0.3013 -0.3793  0.4829
 5232SOL    HW127329   2.408   4.273  17.277 -0.3061 -1.3253  1.8081
 5232SOL    HW227330   2.437   4.277  17.414 -0.0859 -2.7308 -0.5003
 5233SOL     OW27331   2.454   2.949   3.803 -0.2042  0.4860 -0.4721
 5233SOL    HW127332   2.535   2.945   3.753 -0.0913  0.8750 -0.3213
 5233SOL    HW227333   2.482   3.008   3.873  2.0017  0.8372 -1.6700
 5234SOL     OW27334   3.145   4.433   3.578  0.5325  0.2522 -0.1947
 5234SOL    HW127335   3.137   4.517   3.623  1.2297  0.4624 -0.4685
 5234SOL    HW227336   3.104   4.383   3.649 -0.3702  1.4046  0.1056
 5235SOL     OW27337   0.873   3.395   2.715 -0.2769  0.2911  0.3985
 5235SOL    HW127338   0.793   3.446   2.708 -0.1547  0.2712 -1.2193
 5235SOL    HW227339   0.866   3.372   2.807 -0.8761  2.1844  0.8147
 5236SOL     OW27340   4.654   3.403   8.955 -0.4128  0.2575  0.0515
 5236SOL    HW127341   4.632   3.314   8.927  0.9078  0.9068 -2.9916
 5236SOL    HW227342   4.570   3.446   8.974  0.0451  1.3383 -0.3210
 5237SOL     OW27343   1.955   3.580   3.518  0.0462 -0.6729 -0.1613
 5237SOL    HW127344   2.018   3.508   3.524  1.2028  0.5082  1.8134
 5237SOL    HW227345   1.885   3.542   3.465  0.4626 -0.1708 -1.0609
 5238SOL     OW27346   2.395   3.741  15.548 -1.3579  0.3249  0.1732
 5238SOL    HW127347   2.430   3.681  15.614 -1.8282  1.5040  1.4876
 5238SOL    HW227348   2.388   3.685  15.470 -2.6452 -0.6449  0.9691
 5239SOL     OW27349   3.069   4.292  11.782 -0.4462  0.3560  0.5437
 5239SOL    HW127350   3.150   4.239  11.782 -1.4689 -1.2063  0.1340
 5239SOL    HW227351   3.014   4.250  11.716 -1.2425 -0.5504  1.7868
 5240SOL     OW27352   0.704   1.844  13.372 -0.0732  0.3221 -0.4312
 5240SOL    HW127353   0.751   1.830  13.290 -0.9231  1.6789 -1.1627
 5240SOL    HW227354   0.635   1.903  13.341  0.0306  1.2667  1.1526
 5241SOL     OW27355   0.570   1.344   5.157  0.2090 -0.3845 -0.4991
 5241SOL    HW127356   0.538   1.424   5.198  0.2050 -0.4449 -0.3845
 5241SOL    HW227357   0.664   1.355   5.142 -0.0007 -0.6570 -2.0436
 5242SOL     OW27358   4.512   1.864   2.699  0.1630  0.0419  0.2215
 5242SOL    HW127359   4.473   1.951   2.702 -0.9165 -0.4409 -0.0658
 5242SOL    HW227360   4.572   1.870   2.625  0.5497 -1.8670  0.3874
 5243SOL     OW27361   3.059   3.035   6.693 -0.2192 -0.2126  0.3324
 5243SOL    HW127362   3.138   3.015   6.642 -3.0302 -5.9839 -1.8167
 5243SOL    HW227363   2.986   3.032   6.631  0.1112  0.9099 -0.1035
 5244SOL     OW27364   2.878   2.943   8.220  0.2911  0.0084  0.1574
 5244SOL    HW127365   2.851   2.877   8.155 -0.3990 -0.8229  1.2846
 5244SOL    HW227366   2.856   3.016   8.162  0.3975 -2.7141 -3.3222
 5245SOL     OW27367   2.362   4.080  16.239 -0.5220 -0.8132 -0.0458
 5245SOL    HW127368   2.443   4.118  16.274 -2.9548  3.4989  0.8806
 5245SOL    HW227369   2.304   4.145  16.277  1.0735  1.1059 -0.8581
 5246SOL     OW27370   1.759   4.225   5.972 -0.5974 -0.8599  0.5511
 5246SOL    HW127371   1.782   4.176   5.893  0.3238  2.5957 -1.3325
 5246SOL    HW227372   1.849   4.253   5.991 -0.2432 -1.6632  0.0772
 5247SOL     OW27373   1.084   1.524  11.925  0.0175  0.2324 -0.0528
 5247SOL    HW127374   1.022   1.597  11.928 -0.3445 -0.1071  0.8114
 5247SOL    HW227375   1.046   1.465  11.861 -0.3378  2.0860 -1.5579
 5248SOL     OW27376   4.175   1.738   3.784  0.4271  0.2480 -0.3604
 5248SOL    HW127377   4.243   1.791   3.825  0.3923 -0.7371  0.9873
 5248SOL    HW227378   4.223   1.655   3.774 -0.8251 -0.4679 -0.4976
 5249SOL     OW27379   3.648   0.819   2.632 -0.0727  0.3079  0.3515
 5249SOL    HW127380   3.629   0.777   2.716 -0.7061 -1.8688 -0.8793
 5249SOL    HW227381   3.673   0.744   2.578 -0.7022 -0.4036  1.0441
 5250SOL     OW27382   1.240   4.341   5.560 -0.2675 -0.1941  0.0309
 5250SOL    HW127383   1.189   4.400   5.615  1.1021  2.6040 -1.6781
 5250SOL    HW227384   1.176   4.289   5.511 -1.5797  0.7239  0.7956
 5251SOL     OW27385   0.915   1.426   8.928 -0.6323  0.6952 -0.0811
 5251SOL    HW127386   0.841   1.471   8.888 -2.5695 -0.7676  1.8940
 5251SOL    HW227387   0.862   1.369   8.983 -2.4274  0.4738 -2.0444
 5252SOL     OW27388   0.916   0.425   7.538  0.0686  0.5594 -0.2173
 5252SOL    HW127389   0.821   0.429   7.547  0.2743  0.9132  1.9045
 5252SOL    HW227390   0.929   0.440   7.444 -2.1782  0.3277 -0.5678
 5253SOL     OW27391   0.965   4.274   0.836  0.0714 -0.1333 -0.6375
 5253SOL    HW127392   0.942   4.189   0.800  1.3803 -0.4508 -0.6997
 5253SOL    HW227393   0.913   4.279   0.917 -0.9973 -2.2671 -1.1900
 5254SOL     OW27394   1.170   3.098   9.672  0.0732  0.0947 -0.2377
 5254SOL    HW127395   1.243   3.134   9.622  0.1108  3.5389  2.3065
 5254SOL    HW227396   1.118   3.057   9.604 -0.7652  0.8663 -0.0571
 5255SOL     OW27397   4.354   2.876  11.103  0.5173 -0.0910 -0.6788
 5255SOL    HW127398   4.418   2.936  11.063 -1.0738  0.8096 -1.9107
 5255SOL    HW227399   4.330   2.935  11.175 -2.1011  1.8011 -3.0794
 5256SOL     OW27400   3.610   3.856   6.993 -0.2566  0.5939 -0.7175
 5256SOL    HW127401   3.704   3.872   6.977  0.8935 -1.9740  3.6210
 5256SOL    HW227402   3.599   3.894   7.080  2.1295 -1.3598  0.4472
 5257SOL     OW27403   3.941   1.429  16.059  0.3188  0.1994 -0.0698
 5257SOL    HW127404   3.877   1.375  16.105 -0.5643  0.7155 -0.6958
 5257SOL    HW227405   3.947   1.387  15.973  1.1540  0.7043 -0.2601
 5258SOL     OW27406   0.641   2.506   6.899  0.1466  0.2671  0.0643
 5258SOL    HW127407   0.668   2.564   6.970  3.0833 -1.0953  0.0522
 5258SOL    HW227408   0.629   2.424   6.947 -0.0333  0.5886  0.5715
 5259SOL     OW27409   4.149   1.408   0.840 -0.0276  0.2906 -0.5025
 5259SOL    HW127410   4.097   1.389   0.762  0.6364  0.2382 -0.9373
 5259SOL    HW227411   4.127   1.500   0.854  0.5046  0.2480  0.5620
 5260SOL     OW27412   3.996   0.235   6.093 -0.1030 -0.0922  0.0202
 5260SOL    HW127413   3.990   0.286   6.173 -2.6116 -1.2810  0.6019
 5260SOL    HW227414   4.034   0.293   6.027  0.4267 -1.3349 -0.7741
 5261SOL     OW27415   3.524   0.429  11.389 -0.1050 -0.2050 -0.7014
 5261SOL    HW127416   3.514   0.462  11.478  0.3534 -0.8884 -0.3935
 5261SOL    HW227417   3.432   0.424  11.363 -0.4790  0.0301  0.5697
 5262SOL     OW27418   3.784   3.262   3.028 -0.0165  0.2052 -0.2613
 5262SOL    HW127419   3.779   3.236   3.120  0.5986  1.1850  0.0493
 5262SOL    HW227420   3.702   3.310   3.012 -0.1906  0.3759  1.1563
 5263SOL     OW27421   2.611   0.579   8.286 -0.0399  0.3887  0.3983
 5263SOL    HW127422   2.545   0.533   8.338 -1.8468  0.3109 -1.9868
 5263SOL    HW227423   2.684   0.564   8.347  0.6668  2.3263  0.0327
 5264SOL     OW27424   3.013   1.980   8.136  0.5281 -0.1410  0.0468
 5264SOL    HW127425   2.981   2.012   8.052  1.1057  0.6505  0.1282
 5264SOL    HW227426   3.107   1.997   8.127  0.3507  0.6112 -0.4135
 5265SOL     OW27427   2.182   4.147   2.887 -0.2297 -0.0735 -0.3499
 5265SOL    HW127428   2.194   4.100   2.970 -2.5380  0.7141  0.4366
 5265SOL    HW227429   2.273   4.136   2.859 -0.5116 -1.5380 -0.6795
 5266SOL     OW27430   3.527   0.577   4.211  0.4511 -0.0662 -0.3768
 5266SOL    HW127431   3.486   0.656   4.245 -1.2398 -1.5630  1.0990
 5266SOL    HW227432   3.583   0.557   4.286  0.2760  1.6759  0.2107
 5267SOL     OW27433   0.343   3.750  10.806 -0.4065 -0.2275  0.0080
 5267SOL    HW127434   0.261   3.744  10.855 -1.6948  1.5530 -1.8890
 5267SOL    HW227435   0.357   3.844  10.796 -0.2910 -0.2526 -0.0608
 5268SOL     OW27436   3.875   1.603   5.510  0.6673  0.6367 -0.0256
 5268SOL    HW127437   3.932   1.627   5.583  0.9045  1.9836 -0.6645
 5268SOL    HW227438   3.847   1.519   5.547 -1.7868  1.8383  0.8534
 5269SOL     OW27439   3.654   2.812   2.694  0.7589 -0.1054 -0.0264
 5269SOL    HW127440   3.633   2.849   2.607 -1.0849  1.4115  1.0650
 5269SOL    HW227441   3.633   2.890   2.746  0.6618  0.8684 -1.5157
 5270SOL     OW27442   3.184   3.305  12.425 -0.2072  0.1910  0.2565
 5270SOL    HW127443   3.113   3.243  12.446 -0.7854 -0.0243 -2.3153
 5270SOL    HW227444   3.258   3.248  12.403  0.9924  1.0127  2.1280
 5271SOL     OW27445   2.084   0.235  15.528 -0.2272  0.2662  0.1548
 5271SOL    HW127446   2.048   0.322  15.549 -2.0566 -0.6629  0.8353
 5271SOL    HW227447   2.175   0.253  15.506  0.0117  0.8971  1.6836
 5272SOL     OW27448   3.046   2.735   8.057  0.2039  0.1277  0.0648
 5272SOL    HW127449   3.000   2.651   8.057  0.7826 -0.1809  0.8494
 5272SOL    HW227450   3.137   2.707   8.052 -0.1216 -1.0495  0.6753
 5273SOL     OW27451   1.297   0.327   5.588 -0.0962 -0.2577  0.2856
 5273SOL    HW127452   1.387   0.306   5.613 -0.8101 -0.8753  2.3324
 5273SOL    HW227453   1.242   0.317   5.666  0.4787  0.8955  0.8456
 5274SOL     OW27454   4.262   4.425   6.603 -0.0547 -0.2939  0.1102
 5274SOL    HW127455   4.321   4.486   6.558 -2.8663  1.5772 -1.0733
 5274SOL    HW227456   4.233   4.364   6.535 -1.6511 -1.2313  1.6456
 5275SOL     OW27457   0.786   0.763   4.668 -0.6363  0.0126  0.2212
 5275SOL    HW127458   0.702   0.808   4.671 -0.0655  1.1004 -0.0769
 5275SOL    HW227459   0.772   0.702   4.596  0.1776 -1.6025  1.4385
 5276SOL     OW27460   1.733   3.110   8.163  0.0114  0.1568 -0.0966
 5276SOL    HW127461   1.675   3.130   8.236 -1.3947 -1.4676 -0.7631
 5276SOL    HW227462   1.814   3.098   8.213  0.1595  0.1370 -0.3380
 5277SOL     OW27463   0.418   4.255   8.355  0.3007  0.0081  0.1506
 5277SOL    HW127464   0.388   4.176   8.401 -0.1414 -0.1080 -0.3244
 5277SOL    HW227465   0.489   4.287   8.410  1.0335 -0.2964 -0.6105
 5278SOL     OW27466   3.905   2.186   5.644 -0.3712  0.3794  0.4137
 5278SOL    HW127467   3.860   2.202   5.561  0.1742  0.3114  0.1076
 5278SOL    HW227468   3.893   2.092   5.658  3.9757 -0.2654 -0.1241
 5279SOL     OW27469   1.794   1.532  14.463  0.1970  0.0556  0.1018
 5279SOL    HW127470   1.829   1.578  14.539 -1.6019  1.0254  0.3352
 5279SOL    HW227471   1.776   1.447  14.502  0.1671 -0.2865 -0.6637
 5280SOL     OW27472   2.601   1.130   6.602  0.0856  0.0706  0.1197
 5280SOL    HW127473   2.599   1.201   6.666  2.0911  0.1492  0.1096
 5280SOL    HW227474   2.610   1.053   6.658 -1.0808  0.9803  1.5632
 5281SOL     OW27475   4.094   3.108   8.495  0.1554 -0.0338 -0.4504
 5281SOL    HW127476   4.039   3.030   8.494  1.5514 -1.0094 -0.8651
 5281SOL    HW227477   4.167   3.088   8.436 -1.4237 -2.1734 -1.6952
 5282SOL     OW27478   1.340   2.822   2.391 -0.1907 -0.7904 -0.0768
 5282SOL    HW127479   1.285   2.849   2.464  0.8371  0.8548  0.0743
 5282SOL    HW227480   1.303   2.736   2.371 -1.8984  0.2625 -1.4483
 5283SOL     OW27481   0.708   1.655   2.652  0.4668  0.2311  0.8560
 5283SOL    HW127482   0.632   1.709   2.673 -0.8941 -0.6239 -1.8195
 5283SOL    HW227483   0.773   1.687   2.714  0.1199  2.3012  0.1580
 5284SOL     OW27484   3.378   0.835   2.054 -0.4541 -0.3390  0.3435
 5284SOL    HW127485   3.466   0.799   2.058 -0.2694  0.0264 -0.5297
 5284SOL    HW227486   3.374   0.883   1.971  1.1529 -2.3072 -0.8476
 5285SOL     OW27487   0.744   1.531  12.437  0.3735 -0.1800 -0.4106
 5285SOL    HW127488   0.658   1.573  12.441  0.0673 -1.0210  1.7158
 5285SOL    HW227489   0.712   1.444  12.411  1.8325 -0.6684 -0.5396
 5286SOL     OW27490   3.649   2.388   7.217 -0.5588  0.4695  0.0431
 5286SOL    HW127491   3.590   2.313   7.215 -1.5737  1.2273  1.3486
 5286SOL    HW227492   3.730   2.351   7.182 -0.3927  0.3114  0.5909
 5287SOL     OW27493   1.162   4.260  14.250  0.0752  0.9765 -0.3074
 5287SOL    HW127494   1.126   4.315  14.180  0.5377  2.0364  0.2925
 5287SOL    HW227495   1.249   4.300  14.249  0.9141 -0.8305  0.7396
 5288SOL     OW27496   0.200   3.808   4.188 -0.6754 -0.3365 -0.1401
 5288SOL    HW127497   0.230   3.898   4.200 -1.0811 -0.0939 -0.8976
 5288SOL    HW227498   0.263   3.786   4.120 -0.1610  0.5142  0.0620
 5289SOL     OW27499   3.982   3.790   9.464 -0.7379 -0.3912  0.5044
 5289SOL    HW127500   4.043   3.785   9.390 -0.7003  0.4293  0.4858
 5289SOL    HW227501   4.016   3.719   9.519  1.5162 -0.9449 -1.6160
 5290SOL     OW27502   2.199   4.394   5.326  0.3901  0.0401  0.4366
 5290SOL    HW127503   2.255   4.382   5.250 -1.6453 -3.2030 -0.5765
 5290SOL    HW227504   2.170   4.484   5.309 -1.2796 -0.7029 -0.6216
 5291SOL     OW27505   0.652   1.383   8.036 -0.0497 -0.1469  0.2823
 5291SOL    HW127506   0.609   1.371   8.120  1.0903  1.9792  1.1940
 5291SOL    HW227507   0.653   1.479   8.033 -1.7716 -0.0950  1.3946
 5292SOL     OW27508   1.201   3.730  17.401 -0.6013 -0.3684  0.4608
 5292SOL    HW127509   1.157   3.720  17.317 -0.1820  2.0821 -0.0534
 5292SOL    HW227510   1.169   3.647  17.436 -0.3522  0.0195  1.6005
 5293SOL     OW27511   2.565   3.448   8.382  0.2582 -0.5911 -0.2741
 5293SOL    HW127512   2.509   3.394   8.327  0.8895 -1.1915 -0.3257
 5293SOL    HW227513   2.519   3.442   8.466 -0.9865 -2.8387 -1.1112
 5294SOL     OW27514   1.312   1.368  17.718  0.0620 -0.6766 -0.5941
 5294SOL    HW127515   1.282   1.354  17.628  0.2297  0.9607 -0.9010
 5294SOL    HW227516   1.316   1.463  17.714 -1.1151 -0.6632 -1.4569
 5295SOL     OW27517   0.437   0.843   0.911  0.3312  0.2275 -0.4515
 5295SOL    HW127518   0.530   0.846   0.888  0.4335 -0.8459 -0.1424
 5295SOL    HW227519   0.446   0.854   1.006 -2.3003  0.8188 -0.2811
 5296SOL     OW27520   4.208   4.005   8.960 -0.1739  0.1724 -0.5153
 5296SOL    HW127521   4.134   3.998   9.021 -0.6199  2.5166 -0.7769
 5296SOL    HW227522   4.161   4.002   8.877  0.5784  0.4449 -0.9446
 5297SOL     OW27523   2.067   1.602  11.120  0.1792  0.7134 -0.1582
 5297SOL    HW127524   1.972   1.616  11.120  0.2412  1.1899  1.5519
 5297SOL    HW227525   2.096   1.653  11.196  0.1158 -0.2655  0.5107
 5298SOL     OW27526   3.175   3.627   7.330  0.3820  0.0897  0.1192
 5298SOL    HW127527   3.214   3.584   7.406 -0.0769  2.1077  1.4936
 5298SOL    HW227528   3.087   3.622   7.366  0.2149  0.0896 -0.2975
 5299SOL     OW27529   2.874   1.964   5.406 -0.6834 -0.0507  0.0059
 5299SOL    HW127530   2.830   1.976   5.322 -2.9005  2.2169  1.4821
 5299SOL    HW227531   2.855   2.047   5.449 -1.0802  0.5375 -1.2964
 5300SOL     OW27532   4.047   3.813   6.052  0.0005  0.2315 -0.0670
 5300SOL    HW127533   4.051   3.865   5.971  1.6814  0.7480  0.3353
 5300SOL    HW227534   4.032   3.880   6.118  0.2415  0.7998 -0.5832
 5301SOL     OW27535   3.451   3.463   8.648 -0.3413  0.5429 -0.5515
 5301SOL    HW127536   3.501   3.542   8.628 -0.5035  1.2936  1.9850
 5301SOL    HW227537   3.415   3.481   8.735  0.1048 -2.0049  0.1622
 5302SOL     OW27538   3.812   2.632  10.144 -0.1529  0.4080 -0.0314
 5302SOL    HW127539   3.800   2.583  10.226  1.8024 -0.5803 -0.3268
 5302SOL    HW227540   3.802   2.723  10.171 -0.6385  1.1374 -2.7560
 5303SOL     OW27541   3.663   1.109   0.559 -0.1874  0.0744  0.0066
 5303SOL    HW127542   3.758   1.096   0.560 -0.3980 -1.4228 -0.3351
 5303SOL    HW227543   3.636   1.169   0.490  2.0112  1.8515  0.6858
 5304SOL     OW27544   2.930   3.868   7.087  0.0664 -0.5137  0.0030
 5304SOL    HW127545   2.879   3.929   7.141 -0.6194 -0.9010 -0.2050
 5304SOL    HW227546   2.999   3.920   7.045  0.0622 -1.3227 -0.9893
 5305SOL     OW27547   0.701   0.257  11.811 -0.1871  0.3070 -0.0854
 5305SOL    HW127548   0.687   0.322  11.742 -0.7069  1.5440  1.1826
 5305SOL    HW227549   0.793   0.249  11.785 -0.8389 -1.0221 -1.9866
 5306SOL     OW27550   4.483   3.063   4.984  0.4840 -0.1423  0.1795
 5306SOL    HW127551   4.394   3.078   5.018  0.3922 -0.0070 -0.1178
 5306SOL    HW227552   4.516   3.153   4.985  2.8513 -1.0465  2.3387
 5307SOL     OW27553   4.649   4.174   8.419  0.2043  0.1454 -0.0782
 5307SOL    HW127554   4.661   4.249   8.476 -1.1036  0.4454 -0.1999
 5307SOL    HW227555   4.727   4.181   8.363 -0.8538 -0.1676 -1.6045
 5308SOL     OW27556   0.495   4.257   0.597 -0.1978  0.0796 -0.4743
 5308SOL    HW127557   0.474   4.344   0.563 -0.9950 -1.0468 -2.8635
 5308SOL    HW227558   0.410   4.218   0.583 -0.7713  0.9091  0.7038
 5309SOL     OW27559   3.048   3.786   2.949 -0.2879  0.5462  0.3235
 5309SOL    HW127560   3.088   3.860   2.903  0.4383 -0.5630 -0.8282
 5309SOL    HW227561   3.123   3.728   2.960  0.2996  1.1822 -0.2701
 5310SOL     OW27562   1.311   0.746   2.004  0.1088 -0.7612  0.0384
 5310SOL    HW127563   1.301   0.681   2.074 -1.9398 -1.7760 -1.1979
 5310SOL    HW227564   1.277   0.823   2.050 -0.6907 -1.0653 -0.0457
 5311SOL     OW27565   4.424   3.252   3.505  0.2269  0.7120  0.1991
 5311SOL    HW127566   4.347   3.235   3.451 -1.6273  1.7129  2.5134
 5311SOL    HW227567   4.381   3.299   3.577  0.2524  0.8334  0.1349
 5312SOL     OW27568   4.658   3.546   6.055  0.0371 -0.1037 -0.1514
 5312SOL    HW127569   4.684   3.468   6.105  1.9382 -0.3302 -1.5078
 5312SOL    HW227570   4.698   3.513   5.974  2.5318  1.1585  0.5401
 5313SOL     OW27571   1.424   4.708   8.097 -0.0045 -0.4556 -0.3461
 5313SOL    HW127572   1.335   4.684   8.122  0.0947 -1.5241 -1.0033
 5313SOL    HW227573   1.430   4.671   8.009  1.1004  3.0975 -1.7690
 5314SOL     OW27574   3.430   3.128   7.012 -0.6525 -0.2188  0.7526
 5314SOL    HW127575   3.524   3.115   7.011 -0.7697 -1.0220 -0.1467
 5314SOL    HW227576   3.424   3.163   7.101  0.9364 -2.5850  1.8102
 5315SOL     OW27577   0.644   1.314   8.793 -0.0856  0.4623  0.2191
 5315SOL    HW127578   0.628   1.295   8.700 -2.1549  0.4389  0.5864
 5315SOL    HW227579   0.641   1.409   8.793  0.0106  0.4663  0.4579
 5316SOL     OW27580   0.066   3.496   5.794  0.9410 -0.9074  0.2630
 5316SOL    HW127581   0.124   3.427   5.763 -0.1920 -0.9822 -1.6952
 5316SOL    HW227582   4.716   3.453   5.784  0.6623 -0.5214  0.9500
 5317SOL     OW27583   0.773   0.077   3.855 -0.4720  0.2137 -0.1909
 5317SOL    HW127584   0.779   0.044   3.944 -0.1668  2.0293  0.4497
 5317SOL    HW227585   0.756   0.169   3.873 -1.5554 -0.2096  0.9210
 5318SOL     OW27586   4.718   4.262   7.664  0.1600 -0.0325 -0.1410
 5318SOL    HW127587   4.693   4.287   7.753 -1.0580  0.6958 -0.6834
 5318SOL    HW227588   0.055   4.202   7.682  1.2238  1.6430  1.1970
 5319SOL     OW27589   2.614   0.937   1.989  0.0796 -0.8735  0.0441
 5319SOL    HW127590   2.555   1.008   2.014 -2.6695 -2.3973 -2.0356
 5319SOL    HW227591   2.593   0.869   2.054 -0.0731 -0.7155  0.1598
 5320SOL     OW27592   3.045   1.730   5.916  0.1179  0.2817  0.0349
 5320SOL    HW127593   3.004   1.761   5.835 -0.4375  0.5211  0.4141
 5320SOL    HW227594   2.983   1.762   5.981 -2.0645  1.1776 -2.4904
 5321SOL     OW27595   2.983   3.705  17.348  0.1281  0.5919 -0.1620
 5321SOL    HW127596   3.047   3.769  17.382 -0.2581  1.0538 -0.2976
 5321SOL    HW227597   2.904   3.757  17.362  0.2064  0.8866 -0.8329
 5322SOL     OW27598   0.461   2.179   0.316  0.1485 -0.5412  0.7013
 5322SOL    HW127599   0.535   2.182   0.377 -0.0009 -1.9101  0.9604
 5322SOL    HW227600   0.498   2.231   0.244 -1.0105 -0.3184  0.2758
 5323SOL     OW27601   2.136   3.633   4.953  0.7591 -0.5118  0.3852
 5323SOL    HW127602   2.061   3.662   5.006  1.6931  2.6429 -0.0099
 5323SOL    HW227603   2.149   3.709   4.896 -1.7725 -0.6248 -0.3561
 5324SOL     OW27604   1.517   1.007   2.046  0.4266  0.1202 -0.3590
 5324SOL    HW127605   1.610   1.029   2.049  0.6230 -0.4212 -2.0307
 5324SOL    HW227606   1.510   1.050   1.960 -1.4059  0.9976  0.2256
 5325SOL     OW27607   3.733   3.860   5.156 -0.0800 -0.1878 -0.3293
 5325SOL    HW127608   3.660   3.914   5.125 -1.3201 -2.1076 -0.7799
 5325SOL    HW227609   3.722   3.778   5.107  0.4060 -1.0772  1.0708
 5326SOL     OW27610   4.102   3.971   7.978  0.1367  0.3620 -0.0955
 5326SOL    HW127611   4.082   4.059   7.946  0.9160  1.5450  2.5732
 5326SOL    HW227612   4.192   3.960   7.946 -0.5087 -2.2797 -0.9390
 5327SOL     OW27613   4.066   3.454   0.044  0.1054 -0.1179 -0.0875
 5327SOL    HW127614   4.083   3.377  17.728  0.4539 -1.2996  1.7258
 5327SOL    HW227615   4.133   3.522   0.037 -1.3847  1.4178  0.3937
 5328SOL     OW27616   4.426   3.520   9.894 -0.0624 -0.0579 -0.7125
 5328SOL    HW127617   4.510   3.494   9.933 -1.2693 -0.8054  1.4065
 5328SOL    HW227618   4.379   3.436   9.896 -1.7539  0.9572  2.2839
 5329SOL     OW27619   2.203   3.633   2.626  0.1458  0.5886 -0.2424
 5329SOL    HW127620   2.132   3.649   2.565 -0.4671 -1.8755 -0.2045
 5329SOL    HW227621   2.174   3.634   2.718  3.1742  0.4587  0.7168
 5330SOL     OW27622   1.224   0.525   7.808 -0.1954  0.4379 -0.7292
 5330SOL    HW127623   1.248   0.610   7.771  0.1094  0.4247 -0.5646
 5330SOL    HW227624   1.299   0.510   7.865 -1.1303 -0.0765  0.3572
 5331SOL     OW27625   0.258   0.441   9.118  0.2164 -0.1593 -0.0748
 5331SOL    HW127626   0.283   0.439   9.210 -0.1422  1.0381  0.0535
 5331SOL    HW227627   0.193   0.512   9.114 -1.3662 -1.5756  0.2617
 5332SOL     OW27628   4.233   3.714   6.537 -0.5311 -0.1651 -0.4275
 5332SOL    HW127629   4.157   3.711   6.479 -0.8687  2.2619 -0.1000
 5332SOL    HW227630   4.200   3.646   6.596  0.0040 -0.0778 -0.0282
 5333SOL     OW27631   1.543   0.608   1.916  0.2140 -0.5073  0.6672
 5333SOL    HW127632   1.475   0.548   1.886 -0.3600 -0.0445  1.0503
 5333SOL    HW227633   1.498   0.684   1.950 -1.2178 -0.6728 -0.8639
 5334SOL     OW27634   0.431   1.034  15.293 -0.0933 -0.0510 -0.4609
 5334SOL    HW127635   0.427   0.984  15.374 -0.7584  0.0993 -0.4012
 5334SOL    HW227636   0.448   0.967  15.226  1.3260  0.4483 -0.6010
 5335SOL     OW27637   2.344   1.380   2.346 -0.7882 -0.7628 -0.0930
 5335SOL    HW127638   2.318   1.304   2.294 -1.1372 -0.8309  0.1760
 5335SOL    HW227639   2.358   1.355   2.437 -2.1868 -0.2593  0.2761
 5336SOL     OW27640   3.628   2.889   8.881 -0.2079 -0.3015  0.3649
 5336SOL    HW127641   3.557   2.924   8.934 -0.5061 -3.4256  2.0277
 5336SOL    HW227642   3.578   2.832   8.822 -1.9882  0.2444  1.3482
 5337SOL     OW27643   0.423   0.888   6.642 -0.2317  0.0319 -0.3064
 5337SOL    HW127644   0.481   0.851   6.709 -1.7785  0.8905  1.5178
 5337SOL    HW227645   0.372   0.811   6.619  1.0184  0.0926 -3.3153
 5338SOL     OW27646   0.122   1.630  12.615  0.0514 -0.2076  0.4717
 5338SOL    HW127647   0.185   1.599  12.551  0.6319  0.0666  0.9127
 5338SOL    HW227648   0.055   1.563  12.602 -0.3794  0.2360  0.3958
 5339SOL     OW27649   0.845   3.877   0.465  0.3769  0.1284  0.3247
 5339SOL    HW127650   0.851   3.877   0.369 -0.4383 -1.6822  0.2677
 5339SOL    HW227651   0.772   3.937   0.476  1.2645  1.5656 -1.5730
 5340SOL     OW27652   2.809   1.181   1.777 -0.4289 -0.4019  0.2228
 5340SOL    HW127653   2.744   1.180   1.847 -0.3932 -0.2543  0.2590
 5340SOL    HW227654   2.802   1.266   1.733  0.0047 -1.1443 -1.2707
 5341SOL     OW27655   2.040   3.598  10.210 -0.0920 -0.3073  0.1274
 5341SOL    HW127656   1.981   3.538  10.164  1.7135  0.0615 -2.6387
 5341SOL    HW227657   2.023   3.572  10.301 -2.1928 -0.6092 -0.3565
 5342SOL     OW27658   4.561   0.439   4.294 -0.2276  0.1289  0.3599
 5342SOL    HW127659   4.490   0.456   4.232 -0.2974 -0.4778  0.2748
 5342SOL    HW227660   4.636   0.480   4.252 -1.2229 -1.3118 -2.8452
 5343SOL     OW27661   0.017   0.307   3.083  0.0917  0.2318  0.0064
 5343SOL    HW127662   0.045   0.396   3.060  1.8832 -0.9069 -2.2458
 5343SOL    HW227663   0.016   0.313   3.179 -0.9905  0.8642 -0.0527
 5344SOL     OW27664   3.646   3.688   4.458 -0.0868 -0.1476 -0.1495
 5344SOL    HW127665   3.685   3.636   4.528 -1.3788 -0.3344  0.4283
 5344SOL    HW227666   3.719   3.743   4.429 -0.8006 -0.8849 -3.3593
 5345SOL     OW27667   1.520   2.661   6.739 -0.0472  0.2790 -0.2020
 5345SOL    HW127668   1.508   2.724   6.667 -2.8476 -2.0692 -1.7908
 5345SOL    HW227669   1.535   2.727   6.807  1.3783  2.6925 -2.8495
 5346SOL     OW27670   1.840   3.549  15.262 -0.3345  0.0960  0.0243
 5346SOL    HW127671   1.798   3.463  15.258 -0.1942  0.0510 -0.4461
 5346SOL    HW227672   1.801   3.573  15.346  0.6208 -1.4928  0.9057
 5347SOL     OW27673   0.769   4.002   3.538  0.1472  0.9418 -0.5172
 5347SOL    HW127674   0.755   4.001   3.633  0.4954 -5.3410 -0.5527
 5347SOL    HW227675   0.737   3.916   3.511  0.6603  0.6551 -0.2047
 5348SOL     OW27676   3.810   3.884  10.414  0.0227 -0.0602  0.3977
 5348SOL    HW127677   3.720   3.905  10.441  0.4603  3.4501 -0.9215
 5348SOL    HW227678   3.818   3.791  10.437  3.2532  0.3857  1.0172
 5349SOL     OW27679   2.053   1.864   8.502 -0.4110 -0.0783 -0.0013
 5349SOL    HW127680   2.022   1.938   8.555  0.9790  0.2920  0.3209
 5349SOL    HW227681   1.970   1.826   8.475 -0.4830 -0.9988  1.5216
 5350SOL     OW27682   1.347   0.006   8.951  0.0415 -0.0478 -0.1737
 5350SOL    HW127683   1.373   4.700   8.868 -0.2123 -0.9664  0.1982
 5350SOL    HW227684   1.432   0.002   8.995  0.5025 -1.1915 -1.1392
 5351SOL     OW27685   0.755   1.520   1.127  0.1211  0.4234 -0.0532
 5351SOL    HW127686   0.850   1.523   1.113 -0.0103 -1.1615 -1.1808
 5351SOL    HW227687   0.758   1.524   1.223 -0.7413 -1.4568  0.0549
 5352SOL     OW27688   1.104   4.563  15.655  0.2427  0.0113 -0.6757
 5352SOL    HW127689   1.033   4.541  15.594  1.1464 -1.8374 -1.0663
 5352SOL    HW227690   1.125   4.645  15.610  1.4149 -0.4621 -0.9889
 5353SOL     OW27691   2.568   2.860  10.535 -0.1103  0.3159  0.0932
 5353SOL    HW127692   2.572   2.767  10.556 -0.1600  0.6507  1.5725
 5353SOL    HW227693   2.577   2.895  10.623 -1.0289  0.2081  0.2292
 5354SOL     OW27694   3.022   3.604  14.223  0.0838  0.1873 -0.1656
 5354SOL    HW127695   3.092   3.654  14.182  0.4663  1.3556  1.8875
 5354SOL    HW227696   3.000   3.655  14.301  0.3838  0.3473 -0.1877
 5355SOL     OW27697   2.616   0.339   3.560  0.2376  0.0423 -0.8262
 5355SOL    HW127698   2.554   0.305   3.625  0.6713  0.3463 -0.2530
 5355SOL    HW227699   2.636   0.269   3.497 -0.7553 -0.6471 -0.3814
 5356SOL     OW27700   1.399   0.324   0.317  0.4663 -0.5324 -0.7448
 5356SOL    HW127701   1.381   0.257   0.251  0.6458 -0.7206 -0.6012
 5356SOL    HW227702   1.341   0.396   0.292  1.1970  0.4537  0.3874
 5357SOL     OW27703   3.279   0.750   2.304 -0.0240  0.1198  0.2246
 5357SOL    HW127704   3.343   0.688   2.338 -0.7489 -0.8848 -0.2137
 5357SOL    HW227705   3.288   0.739   2.209 -0.5062  0.1108  0.1775
 5358SOL     OW27706   3.143   2.154   9.922 -0.0055  0.1514 -0.4771
 5358SOL    HW127707   3.239   2.148   9.916  0.2230  1.4746  1.6600
 5358SOL    HW227708   3.113   2.063   9.920 -0.7360  0.4280 -1.6018
 5359SOL     OW27709   3.182   3.495   3.280  0.2718 -0.0842  0.3172
 5359SOL    HW127710   3.191   3.584   3.313  0.5727  0.4002 -1.0787
 5359SOL    HW227711   3.110   3.468   3.338  0.1564  3.4095  1.7731
 5360SOL     OW27712   2.785   4.448   5.380  0.5010  0.1714 -0.1599
 5360SOL    HW127713   2.807   4.509   5.310 -1.6946  1.7874  0.5711
 5360SOL    HW227714   2.691   4.460   5.391  0.7928  0.2217  2.3810
 5361SOL     OW27715   1.174   0.492   5.404  0.9179  0.0208  0.2822
 5361SOL    HW127716   1.218   0.445   5.474  0.2179 -0.8886  0.1226
 5361SOL    HW227717   1.083   0.481   5.431  0.9257  0.7746  0.5967
 5362SOL     OW27718   2.968   2.014   5.115 -0.3608  0.3894 -0.0906
 5362SOL    HW127719   2.983   2.092   5.168 -0.9748 -0.6047  1.5632
 5362SOL    HW227720   3.062   1.997   5.103  0.0865  1.8430  1.4034
 5363SOL     OW27721   0.545   1.973   4.177  0.1072  0.5960  0.0437
 5363SOL    HW127722   0.590   2.012   4.252  0.9491  0.0873 -0.1924
 5363SOL    HW227723   0.617   1.938   4.124 -0.4682  1.6667 -1.4332
 5364SOL     OW27724   3.990   1.489   2.290  0.1128  0.3703 -0.0900
 5364SOL    HW127725   3.912   1.544   2.295 -0.9082 -0.8377 -2.6406
 5364SOL    HW227726   4.051   1.557   2.263 -0.2911  1.8376  2.7036
 5365SOL     OW27727   1.322   0.506  15.512  0.8284 -0.4602  0.3311
 5365SOL    HW127728   1.374   0.583  15.537 -1.6506  1.2417  0.3068
 5365SOL    HW227729   1.262   0.486  15.584 -0.0062 -1.1807 -0.5702
 5366SOL     OW27730   0.222   1.009  11.392  0.5358 -0.1818 -0.2610
 5366SOL    HW127731   0.275   1.077  11.434  0.3129 -0.9311  1.2479
 5366SOL    HW227732   0.190   0.964  11.470  1.2304  1.5377  1.0255
 5367SOL     OW27733   2.767   1.223   7.992  0.5894 -0.0086  0.0946
 5367SOL    HW127734   2.678   1.249   8.014  0.2939 -1.3522  0.5359
 5367SOL    HW227735   2.776   1.134   8.027 -0.3218  1.4330  3.9442
 5368SOL     OW27736   4.276   3.424   5.547  0.5283  0.1755 -0.0700
 5368SOL    HW127737   4.263   3.517   5.559 -0.7262 -0.1684  1.1417
 5368SOL    HW227738   4.206   3.397   5.606  0.1541  1.9573  0.2711
 5369SOL     OW27739   3.943   3.327   2.815 -0.1585 -0.1146  0.0698
 5369SOL    HW127740   3.979   3.412   2.840  0.5132 -0.1758 -0.6997
 5369SOL    HW227741   3.889   3.304   2.891  0.6744 -1.2915  0.2955
 5370SOL     OW27742   0.597   0.979  14.459  0.4596 -0.0476 -0.3893
 5370SOL    HW127743   0.542   0.901  14.460  0.0725  0.2279  0.3310
 5370SOL    HW227744   0.538   1.044  14.423 -1.4381 -1.1541  0.7253
 5371SOL     OW27745   3.830   4.426   7.476  0.0284 -0.0074 -0.0075
 5371SOL    HW127746   3.826   4.338   7.512 -1.0150 -0.1585 -0.5043
 5371SOL    HW227747   3.738   4.452   7.477  0.1556  0.4397 -0.1830
 5372SOL     OW27748   4.039   0.831   3.233 -0.3296 -0.6173  0.2120
 5372SOL    HW127749   3.975   0.784   3.287 -0.7154 -0.4925 -0.1284
 5372SOL    HW227750   4.072   0.747   3.201 -0.1684 -0.5983  0.3318
 5373SOL     OW27751   1.621   3.324  13.273 -0.6072 -0.3152  0.2041
 5373SOL    HW127752   1.655   3.328  13.363 -1.4460  0.4981  0.4910
 5373SOL    HW227753   1.685   3.273  13.224  0.0476  1.2324 -0.5355
 5374SOL     OW27754   0.551   0.005  17.593 -0.1426  0.4312 -0.5321
 5374SOL    HW127755   0.460   0.003  17.620  0.0147  0.5757 -0.0014
 5374SOL    HW227756   0.586   4.657  17.628  1.7849  1.5616  0.1930
 5375SOL     OW27757   0.043   4.011   3.827  0.0751  0.2749 -0.0140
 5375SOL    HW127758   0.004   3.931   3.863 -0.1150  0.1559 -0.4953
 5375SOL    HW227759   4.732   4.066   3.891  0.3708  1.1547 -0.5572
 5376SOL     OW27760   0.013   0.350   5.755 -0.1181  0.0555 -0.3534
 5376SOL    HW127761   4.670   0.354   5.700 -0.5586  0.8237  0.3160
 5376SOL    HW227762   4.708   0.351   5.842 -0.1461  0.5306 -0.3679
 5377SOL     OW27763   2.227   1.304   7.372 -0.2326 -0.6226  0.1121
 5377SOL    HW127764   2.136   1.288   7.347 -0.6993 -0.0451  1.4110
 5377SOL    HW227765   2.259   1.214   7.376  0.1965 -0.4983 -0.6707
 5378SOL     OW27766   4.625   4.127  14.122 -0.4787  0.2199  0.8601
 5378SOL    HW127767   4.545   4.077  14.139 -0.3876  0.3797  1.7573
 5378SOL    HW227768   4.597   4.203  14.071  1.5386  0.2763 -0.1670
 5379SOL     OW27769   3.068   4.033   6.459 -0.4111 -0.5038 -0.4764
 5379SOL    HW127770   3.116   4.031   6.542 -0.5987 -1.0996 -0.3818
 5379SOL    HW227771   3.151   4.055   6.415  0.8203 -2.1250  1.0218
 5380SOL     OW27772   0.340   3.682   3.274 -0.0307  0.0348  0.1289
 5380SOL    HW127773   0.353   3.695   3.180  0.5453 -0.6134  0.1254
 5380SOL    HW227774   0.318   3.589   3.279 -0.4230  0.3477  3.8107
 5381SOL     OW27775   1.398   2.056   3.590  0.2447 -0.0024  0.2991
 5381SOL    HW127776   1.417   2.105   3.670 -2.1215  0.8277  0.3625
 5381SOL    HW227777   1.303   2.045   3.595  0.3685  0.0243  2.6709
 5382SOL     OW27778   0.204   2.635  10.532  0.0179  0.0779 -0.0571
 5382SOL    HW127779   0.188   2.613  10.624  1.7277  1.9113  0.6721
 5382SOL    HW227780   0.281   2.581  10.512 -0.4028 -0.0224 -1.3782
 5383SOL     OW27781   2.908   1.441  15.594 -0.7809 -0.0131  0.4751
 5383SOL    HW127782   2.932   1.364  15.542  1.3370  0.0177  1.3849
 5383SOL    HW227783   2.966   1.504  15.553  0.6682 -0.2677  2.0911
 5384SOL     OW27784   1.642   0.224   5.856  0.2834  0.3416  0.1234
 5384SOL    HW127785   1.673   0.144   5.815 -0.4194  0.3569 -0.4350
 5384SOL    HW227786   1.721   0.277   5.843  0.1615  0.0706 -1.7392
 5385SOL     OW27787   4.702   3.227   1.198  0.0974  0.0385 -0.1313
 5385SOL    HW127788   4.668   3.229   1.288  1.9062 -1.1907  0.5844
 5385SOL    HW227789   0.040   3.164   1.206 -0.0598 -0.4269 -2.2956
 5386SOL     OW27790   0.550   1.016  13.550  0.9467 -0.3294 -0.1017
 5386SOL    HW127791   0.499   1.097  13.541  1.1313 -0.1922  0.1158
 5386SOL    HW227792   0.491   0.962  13.602 -0.2418 -0.1136 -1.2138
 5387SOL     OW27793   2.589   4.594   6.148  0.2190  0.1068  0.5400
 5387SOL    HW127794   2.642   4.659   6.193  1.7877  0.3393 -1.6281
 5387SOL    HW227795   2.650   4.526   6.120  1.6336  1.1158  1.1764
 5388SOL     OW27796   1.065   3.905  16.846 -0.5202 -0.4255 -0.4629
 5388SOL    HW127797   1.019   3.834  16.892  0.3857 -0.3881  0.4849
 5388SOL    HW227798   1.013   3.907  16.765  2.3443  0.3423 -2.2564
 5389SOL     OW27799   3.899   3.313   6.415 -0.5358  0.0214  0.4346
 5389SOL    HW127800   3.832   3.251   6.441  0.8402  0.0011  3.8776
 5389SOL    HW227801   3.983   3.271   6.434 -0.5407  0.9205  2.4420
 5390SOL     OW27802   1.405   3.996   2.643 -0.1020  0.0517  0.5232
 5390SOL    HW127803   1.348   4.062   2.603  0.5279  0.5980  0.5068
 5390SOL    HW227804   1.485   4.001   2.589 -0.5580 -0.2692 -0.1856
 5391SOL     OW27805   0.888   0.081   9.214 -0.3071  0.0199  1.0994
 5391SOL    HW127806   0.984   0.075   9.211 -0.1678  0.8430  4.3885
 5391SOL    HW227807   0.865   0.082   9.121  1.2230  1.4525  0.7333
 5392SOL     OW27808   2.594   2.909   4.632 -0.2808  0.0130  0.3953
 5392SOL    HW127809   2.679   2.864   4.634 -0.4036 -0.2082  0.6037
 5392SOL    HW227810   2.541   2.860   4.569 -1.1627 -0.0549  1.2035
 5393SOL     OW27811   0.558   1.879   0.245  0.1303  0.0852  0.0938
 5393SOL    HW127812   0.470   1.848   0.268 -0.6602  0.7994 -1.9933
 5393SOL    HW227813   0.561   1.968   0.278 -0.4204 -0.0763  0.5930
 5394SOL     OW27814   0.148   0.925   7.668 -0.0497  0.0138  0.9747
 5394SOL    HW127815   0.147   0.936   7.573 -1.3344 -0.4843  0.9317
 5394SOL    HW227816   0.230   0.877   7.676  1.1382  1.6732 -1.3250
 5395SOL     OW27817   3.702   3.835   5.740 -0.4138 -0.5890 -0.1533
 5395SOL    HW127818   3.700   3.889   5.660  1.3502  0.8149  0.7338
 5395SOL    HW227819   3.749   3.899   5.794 -0.8539  2.0863 -2.8739
 5396SOL     OW27820   1.614   2.811   6.093 -0.4028 -0.2281 -0.0123
 5396SOL    HW127821   1.662   2.730   6.072 -0.1639 -0.3822  1.1345
 5396SOL    HW227822   1.529   2.767   6.089 -0.2874 -0.4096 -0.4371
 5397SOL     OW27823   3.970   4.518   6.251  0.0827 -0.0955  0.9274
 5397SOL    HW127824   3.926   4.598   6.279  0.5328  1.1337 -1.8137
 5397SOL    HW227825   4.023   4.553   6.179 -1.8290  0.2657 -0.2998
 5398SOL     OW27826   2.291   2.633   4.974  0.6779  0.2309 -0.0052
 5398SOL    HW127827   2.344   2.711   4.989  1.2806  0.0181 -1.0429
 5398SOL    HW227828   2.257   2.614   5.062  1.3069  1.6440  0.5367
 5399SOL     OW27829   1.377   2.465   9.714 -0.5257  0.3426  0.1190
 5399SOL    HW127830   1.351   2.501   9.798 -0.7122 -0.6428  0.4897
 5399SOL    HW227831   1.448   2.406   9.742  0.0481  1.8725  1.8677
 5400SOL     OW27832   3.535   0.076   8.101  0.5332 -0.2306 -0.4164
 5400SOL    HW127833   3.487   0.044   8.177  0.0911  0.4580 -0.4127
 5400SOL    HW227834   3.483   0.154   8.082 -0.8798 -0.6294  1.7727
 5401SOL     OW27835   1.861   0.939   2.255  0.4039  0.0100 -0.5315
 5401SOL    HW127836   1.829   1.002   2.191 -1.3201  0.7339  1.0459
 5401SOL    HW227837   1.822   0.976   2.334  0.9574  0.4736 -0.4722
 5402SOL     OW27838   0.650   2.894  13.428 -0.4389 -0.2726 -0.0775
 5402SOL    HW127839   0.635   2.977  13.474 -0.4448  1.0468 -2.4741
 5402SOL    HW227840   0.575   2.840  13.454 -0.9501 -0.1826 -1.3713
 5403SOL     OW27841   1.650   2.500   8.432  0.1723 -0.5060 -0.1953
 5403SOL    HW127842   1.702   2.576   8.406 -0.4583 -0.6628 -1.9168
 5403SOL    HW227843   1.569   2.526   8.387 -0.6719 -2.2819  0.3071
 5404SOL     OW27844   3.701   2.093  17.137  0.0016  0.1224 -0.0976
 5404SOL    HW127845   3.781   2.087  17.085 -0.4856 -1.5394 -0.6601
 5404SOL    HW227846   3.646   2.137  17.072  1.0937  1.8969  0.1901
 5405SOL     OW27847   0.214   1.800   3.047 -0.3333 -0.0576 -0.2974
 5405SOL    HW127848   0.147   1.867   3.032  0.7418  1.2809  0.8945
 5405SOL    HW227849   0.183   1.740   2.979 -0.0054 -0.7855  0.2017
 5406SOL     OW27850   4.119   0.549   3.185  0.2864 -0.2246  0.0857
 5406SOL    HW127851   4.077   0.478   3.234  0.5851  0.1847  0.9294
 5406SOL    HW227852   4.106   0.510   3.098  1.8395  1.0476 -0.7045
 5407SOL     OW27853   0.421   4.703   5.841  0.0874  0.0970 -0.7057
 5407SOL    HW127854   0.411   4.623   5.893  0.5078  0.9272  0.6610
 5407SOL    HW227855   0.516   4.709   5.836  0.1266  2.1199  2.3648
 5408SOL     OW27856   0.457   1.548   0.066  0.4582 -0.0803  0.3491
 5408SOL    HW127857   0.400   1.596   0.127 -1.0636 -0.8650 -0.4518
 5408SOL    HW227858   0.467   1.615  17.735 -0.9057  0.2164  0.4354
 5409SOL     OW27859   0.008   3.808   3.425  0.6561  0.2855 -0.8296
 5409SOL    HW127860   4.686   3.822   3.501  4.0084  0.2815  1.6607
 5409SOL    HW227861   0.047   3.891   3.398  2.0457  0.5646  2.0790
 5410SOL     OW27862   3.555   2.523  17.737  0.3320  0.4083 -0.2550
 5410SOL    HW127863   3.623   2.526   0.068 -1.6284  0.7613  1.6896
 5410SOL    HW227864   3.608   2.503  17.660 -0.9494  0.9005 -1.2557
 5411SOL     OW27865   2.136   2.709   2.465 -0.1292  0.2008  0.3935
 5411SOL    HW127866   2.098   2.626   2.493 -3.0590  1.3669 -0.1027
 5411SOL    HW227867   2.104   2.700   2.375 -1.4751 -0.8322  0.9773
 5412SOL     OW27868   2.830   3.720   2.184  0.7487  0.2959  0.0942
 5412SOL    HW127869   2.803   3.812   2.188 -2.4083 -0.5337 -1.4752
 5412SOL    HW227870   2.918   3.747   2.160  0.2195  0.6543 -1.4760
 5413SOL     OW27871   4.015   4.288   7.300  0.0550 -0.4022 -0.1602
 5413SOL    HW127872   4.080   4.349   7.264 -0.3922  0.4007  0.3961
 5413SOL    HW227873   3.974   4.341   7.368  0.7815  0.3334 -0.2902
 5414SOL     OW27874   3.945   4.552   8.190 -0.1610 -0.0420 -0.0632
 5414SOL    HW127875   3.909   4.628   8.144  0.1037 -0.0352 -0.2583
 5414SOL    HW227876   3.926   4.564   8.283  0.6386 -0.4372  0.1496
 5415SOL     OW27877   3.588   3.050   2.834 -0.0410  0.1727 -0.1242
 5415SOL    HW127878   3.640   3.125   2.806  0.7716  0.6609  2.6868
 5415SOL    HW227879   3.621   3.032   2.922  2.0080 -0.4577 -1.0172
 5416SOL     OW27880   4.646   0.542  15.379  0.1654  0.2561  0.4428
 5416SOL    HW127881   4.580   0.484  15.418 -1.4428  0.9748 -1.2487
 5416SOL    HW227882   4.728   0.500  15.407  0.8376 -0.2298 -2.3086
 5417SOL     OW27883   3.367   0.727   3.466 -0.2660  0.5892 -0.0066
 5417SOL    HW127884   3.293   0.768   3.422 -0.7262 -0.1071  0.1148
 5417SOL    HW227885   3.405   0.687   3.387 -0.3312  0.8080 -0.1495
 5418SOL     OW27886   0.641   1.301   1.013  0.2826  0.2998  0.3540
 5418SOL    HW127887   0.690   1.383   1.014 -2.0008  1.6666 -0.1364
 5418SOL    HW227888   0.677   1.258   0.936  1.7761 -2.3589  2.5437
 5419SOL     OW27889   2.104   3.208   7.063 -0.3801 -0.0023  0.3142
 5419SOL    HW127890   2.194   3.193   7.091 -0.3628  2.6332  1.7168
 5419SOL    HW227891   2.068   3.222   7.150 -0.7600  4.0724 -0.5097
 5420SOL     OW27892   4.722   1.126   6.947 -0.1697 -0.6729 -0.0931
 5420SOL    HW127893   4.627   1.139   6.952  0.1131  0.3695  2.6548
 5420SOL    HW227894   4.733   1.081   6.864  0.4971 -0.4500 -0.1283
 5421SOL     OW27895   0.312   2.061   0.699  0.0280 -0.5060  0.3836
 5421SOL    HW127896   0.217   2.077   0.699  0.3376  1.3701  1.8375
 5421SOL    HW227897   0.328   2.079   0.791  1.0204 -0.0239  0.1156
 5422SOL     OW27898   0.111   4.132   8.747  0.0819  0.1877 -0.0548
 5422SOL    HW127899   0.064   4.126   8.830  2.7301  2.5825  1.6257
 5422SOL    HW227900   0.122   4.226   8.732 -0.5395  0.1976 -0.4677
 5423SOL     OW27901   0.574   4.424  11.684 -0.7689 -0.0142 -0.2498
 5423SOL    HW127902   0.661   4.388  11.700 -2.1141 -2.6715  1.0317
 5423SOL    HW227903   0.575   4.483  11.759 -1.2260  1.0194 -1.0556
 5424SOL     OW27904   2.665   0.715  16.537  0.0209  0.1734 -0.3711
 5424SOL    HW127905   2.628   0.788  16.487 -0.1217  1.8794  2.2272
 5424SOL    HW227906   2.715   0.676  16.466 -2.9049 -0.1774 -2.2197
 5425SOL     OW27907   4.585   2.887   5.566 -0.6526  0.1008  0.2432
 5425SOL    HW127908   4.679   2.874   5.577 -0.5951 -0.9645 -1.5407
 5425SOL    HW227909   4.570   2.960   5.505  2.7429  1.2215  0.7198
 5426SOL     OW27910   0.663   0.376   4.600 -0.1269 -0.1305 -0.1158
 5426SOL    HW127911   0.675   0.465   4.567  2.8623 -0.0352  1.1785
 5426SOL    HW227912   0.731   0.326   4.554  1.5393  1.6358  0.4370
 5427SOL     OW27913   1.436   3.574   8.176 -0.3666  0.0506 -0.3487
 5427SOL    HW127914   1.442   3.501   8.115 -0.5701 -0.1217 -0.1628
 5427SOL    HW227915   1.515   3.558   8.228  0.8168 -0.7483 -2.4221
 5428SOL     OW27916   3.524   4.432  13.507  0.2975 -0.8352  0.3410
 5428SOL    HW127917   3.465   4.373  13.554 -1.5595 -0.7726 -1.8790
 5428SOL    HW227918   3.583   4.363  13.477 -0.6943 -1.0592 -1.1110
 5429SOL     OW27919   1.214   3.971   5.118  0.7084 -0.1231  0.4950
 5429SOL    HW127920   1.239   3.962   5.026 -1.3383  2.0492 -0.2751
 5429SOL    HW227921   1.271   3.901   5.150  0.6491  0.5204  2.0198
 5430SOL     OW27922   0.781   3.591   3.731 -0.3361 -0.1517 -0.4947
 5430SOL    HW127923   0.739   3.505   3.720 -1.3426  0.2208  0.3655
 5430SOL    HW227924   0.728   3.638   3.666 -1.6322 -2.7164 -1.3128
 5431SOL     OW27925   3.749   0.817   4.163  0.1349 -0.3954 -0.0131
 5431SOL    HW127926   3.678   0.792   4.102  0.5135  1.7166 -1.3178
 5431SOL    HW227927   3.766   0.908   4.139 -4.3810  0.2449 -0.9523
 5432SOL     OW27928   0.083   0.561   3.033 -0.0492 -0.2893 -0.0110
 5432SOL    HW127929   0.049   0.590   3.117 -1.5881  1.4790 -1.2367
 5432SOL    HW227930   0.111   0.650   3.012  1.5050 -1.2180 -1.9005
 5433SOL     OW27931   3.124   2.111   4.200 -0.5939 -0.2865  0.2778
 5433SOL    HW127932   3.072   2.074   4.128 -1.1282  0.7625  0.1122
 5433SOL    HW227933   3.182   2.175   4.159 -0.9778 -0.8828 -1.1950
 5434SOL     OW27934   1.178   0.210   8.113 -0.2510 -0.3873 -0.3800
 5434SOL    HW127935   1.088   0.202   8.080 -0.7274 -0.9528  1.0180
 5434SOL    HW227936   1.217   0.123   8.105  2.5104  0.7667  0.5242
 5435SOL     OW27937   1.996   4.596  15.447  0.0863 -0.1648 -0.3061
 5435SOL    HW127938   1.922   4.592  15.508 -0.6948 -1.5008 -1.3528
 5435SOL    HW227939   1.965   4.668  15.391 -2.5713  0.1552  1.5844
 5436SOL     OW27940   2.415   0.583   9.226  0.4103 -0.2799  0.0736
 5436SOL    HW127941   2.489   0.524   9.212  2.4479  1.7752  2.0305
 5436SOL    HW227942   2.417   0.652   9.160 -2.4198  1.2194  1.5297
 5437SOL     OW27943   3.793   4.090   6.911 -0.4517  0.3602  0.1518
 5437SOL    HW127944   3.828   4.021   6.969 -1.9686 -0.2861  0.3077
 5437SOL    HW227945   3.860   4.155   6.929  0.7671  0.0391 -3.3653
 5438SOL     OW27946   0.872   4.302  11.749 -0.3449 -0.3319  0.5764
 5438SOL    HW127947   0.906   4.223  11.707 -1.7206 -0.7674  0.2886
 5438SOL    HW227948   0.891   4.365  11.680  0.2737  1.4939  2.4020
 5439SOL     OW27949   4.419   0.511  12.378 -0.2858 -0.1705  0.3563
 5439SOL    HW127950   4.332   0.478  12.403  0.5463 -3.4962 -1.0764
 5439SOL    HW227951   4.413   0.596  12.422 -1.6915 -0.1003  0.0344
 5440SOL     OW27952   2.588   2.188   2.530  0.2896  0.4066  0.4762
 5440SOL    HW127953   2.634   2.267   2.503  2.2256 -0.6819  0.5486
 5440SOL    HW227954   2.607   2.189   2.624  0.1587 -0.4914  0.5146
 5441SOL     OW27955   3.248   1.417   3.380  0.3126  0.0577  0.1576
 5441SOL    HW127956   3.302   1.471   3.323  0.9621  0.7079  1.3800
 5441SOL    HW227957   3.305   1.340   3.382  0.2415  0.0291  1.6641
 5442SOL     OW27958   1.901   3.277   7.916 -0.2941 -0.3077  0.4040
 5442SOL    HW127959   1.958   3.324   7.855  2.2137 -1.4099  1.8929
 5442SOL    HW227960   1.958   3.212   7.957 -2.2405 -1.7725  0.8464
 5443SOL     OW27961   2.309   0.182   2.970  0.1057 -0.8682 -0.2694
 5443SOL    HW127962   2.258   0.110   3.006 -2.9853  0.3233 -2.2896
 5443SOL    HW227963   2.372   0.198   3.040  0.5496  2.2509 -1.3763
 5444SOL     OW27964   2.796   1.153   2.359 -0.1606 -0.6814  0.2495
 5444SOL    HW127965   2.767   1.193   2.441  1.9678  0.3973  0.4703
 5444SOL    HW227966   2.796   1.060   2.383 -1.5362 -1.2492 -1.9342
 5445SOL     OW27967   2.726   3.076  13.089  0.1503 -0.7916  0.1790
 5445SOL    HW127968   2.792   3.079  13.020 -0.4875 -0.7202 -0.4350
 5445SOL    HW227969   2.721   2.985  13.119  1.0905 -0.8073  0.3000
 5446SOL     OW27970   2.547   3.151  17.650  0.2742 -0.2344  0.1728
 5446SOL    HW127971   2.605   3.075  17.648 -0.9509 -1.1780 -0.2983
 5446SOL    HW227972   2.604   3.224  17.673 -0.8499  0.2209  1.5113
 5447SOL     OW27973   1.894   3.458   2.223  0.2259 -0.1999  0.6778
 5447SOL    HW127974   1.938   3.529   2.176 -0.2986  0.1925  0.7744
 5447SOL    HW227975   1.832   3.519   2.263  0.5814  0.3849  0.3380
 5448SOL     OW27976   4.216   2.483   5.512  0.3367  0.3501  0.1086
 5448SOL    HW127977   4.283   2.467   5.447  1.6079 -1.2885  1.8409
 5448SOL    HW227978   4.269   2.500   5.590 -1.3872  1.4551  1.0586
 5449SOL     OW27979   4.605   3.708   4.563 -0.4173 -0.2779 -0.1758
 5449SOL    HW127980   4.653   3.734   4.484 -0.0281 -4.1240 -1.2217
 5449SOL    HW227981   4.677   3.694   4.624 -0.8359 -0.3300  0.3024
 5450SOL     OW27982   3.386   4.215   5.991  0.1950 -0.3789 -0.1372
 5450SOL    HW127983   3.468   4.169   5.976  0.4184 -0.1639  0.4379
 5450SOL    HW227984   3.397   4.240   6.082 -1.8211 -0.5636  0.1602
 5451SOL     OW27985   2.307   1.177   3.903  0.0763 -0.0376  0.2891
 5451SOL    HW127986   2.391   1.167   3.859  0.4800 -2.4686  1.5882
 5451SOL    HW227987   2.247   1.140   3.838 -0.1436  0.4277  0.2265
 5452SOL     OW27988   1.370   3.219   7.190  0.0044  0.0275  0.1834
 5452SOL    HW127989   1.422   3.223   7.110 -0.7437 -0.1170 -0.3054
 5452SOL    HW227990   1.370   3.126   7.213 -1.3162  0.5407  2.1945
 5453SOL     OW27991   4.687   1.355  13.411 -0.0457  0.7292  0.3625
 5453SOL    HW127992   4.724   1.315  13.332  1.1767  1.3660  0.6167
 5453SOL    HW227993   0.006   1.317  13.480  1.5569  0.1831 -1.1794
 5454SOL     OW27994   4.366   1.665  17.152 -0.1398 -0.1852 -0.6714
 5454SOL    HW127995   4.420   1.601  17.105 -0.0570 -0.2050 -0.5496
 5454SOL    HW227996   4.425   1.694  17.221 -0.4912 -3.0231  0.8212
 5455SOL     OW27997   4.536   4.062  15.208 -0.1862  0.2630 -0.7020
 5455SOL    HW127998   4.558   3.979  15.165  0.3437 -1.1059  2.2096
 5455SOL    HW227999   4.442   4.043  15.219 -0.2679  0.7052 -0.6563
 5456SOL     OW28000   3.922   0.130  11.734 -0.0653 -0.1954  0.2521
 5456SOL    HW128001   3.915   0.093  11.646  1.2967 -1.2716  0.5919
 5456SOL    HW228002   3.833   0.145  11.766  0.9347  0.5144  2.7382
 5457SOL     OW28003   0.690   1.528   6.132 -0.2053 -0.0114  0.3326
 5457SOL    HW128004   0.597   1.510   6.147  0.3551 -2.2501  1.1097
 5457SOL    HW228005   0.676   1.536   6.038 -2.2012  4.3978  0.9702
 5458SOL     OW28006   4.190   0.273   2.695 -0.0030  0.3512  0.1588
 5458SOL    HW128007   4.256   0.208   2.673  1.3145  0.3159  4.1710
 5458SOL    HW228008   4.248   0.330   2.747  0.1224  1.7223 -1.5015
 5459SOL     OW28009   1.559   3.438   1.925  0.4523 -0.2154 -0.2424
 5459SOL    HW128010   1.564   3.343   1.938 -1.8174 -0.5006 -1.4322
 5459SOL    HW228011   1.650   3.456   1.947  0.6756 -0.7160 -0.7584
 5460SOL     OW28012   4.185   0.790   2.019 -0.4495  0.7262 -0.2457
 5460SOL    HW128013   4.106   0.784   1.965 -1.5554 -0.9716  1.5469
 5460SOL    HW228014   4.162   0.740   2.098  1.8446 -0.4583 -0.3207
 5461SOL     OW28015   1.415   3.405   5.680  0.0226 -0.3636 -0.2201
 5461SOL    HW128016   1.353   3.424   5.610 -1.1248 -1.3373  0.5149
 5461SOL    HW228017   1.382   3.322   5.716  1.1357 -1.0553 -0.7878
 5462SOL     OW28018   0.142   0.143   8.361  0.3607  0.0095 -0.0401
 5462SOL    HW128019   0.105   0.061   8.396  1.7542 -0.6173 -0.0674
 5462SOL    HW228020   0.218   0.123   8.307 -0.7549 -0.7641 -1.3419
 5463SOL     OW28021   0.944   4.439  15.490 -0.0806  0.0551 -0.1656
 5463SOL    HW128022   0.924   4.346  15.494 -0.7304  0.2357  0.7448
 5463SOL    HW228023   0.907   4.463  15.405  2.3825  1.0658 -0.9536
 5464SOL     OW28024   1.497   3.291   7.420 -0.0795 -0.3151 -0.0507
 5464SOL    HW128025   1.586   3.257   7.424  0.2371  0.4249 -0.9869
 5464SOL    HW228026   1.469   3.282   7.329 -0.2175 -1.9074  0.1472
 5465SOL     OW28027   2.809   0.356  14.201 -0.5552  0.3191 -0.5113
 5465SOL    HW128028   2.755   0.284  14.230  3.0014 -2.5968 -1.1432
 5465SOL    HW228029   2.875   0.312  14.146 -0.4425 -2.1742  1.6465
 5466SOL     OW28030   2.680   0.086   5.430 -0.2838  0.2270  0.0074
 5466SOL    HW128031   2.647   4.732   5.444  2.6330 -0.8926 -0.0215
 5466SOL    HW228032   2.774   0.064   5.433 -1.1791 -3.8642 -1.6377
 5467SOL     OW28033   1.665   2.052   5.975 -0.1887  0.6584  0.3486
 5467SOL    HW128034   1.731   1.991   6.008  0.7956  2.0276  0.8797
 5467SOL    HW228035   1.720   2.130   5.970  0.9160 -0.1204  0.3386
 5468SOL     OW28036   3.926   0.545   6.073  0.1553 -0.4402  0.3355
 5468SOL    HW128037   3.965   0.574   6.156 -0.5339 -2.1249  1.2474
 5468SOL    HW228038   4.003   0.515   6.024 -0.4335 -1.3154 -0.0514
 5469SOL     OW28039   0.562   2.419   4.704  0.0786  0.0723 -0.3146
 5469SOL    HW128040   0.565   2.343   4.646  0.8705 -0.6566  0.6678
 5469SOL    HW228041   0.471   2.445   4.693  0.3758 -0.0087 -2.7939
 5470SOL     OW28042   3.465   1.799   9.866 -0.2556  0.1532  0.0666
 5470SOL    HW128043   3.544   1.841   9.900 -0.7908 -0.0783  1.6471
 5470SOL    HW228044   3.500   1.784   9.779  0.6940 -0.5739  0.5659
 5471SOL     OW28045   1.392   1.049   3.151  1.0705  0.0034 -0.1870
 5471SOL    HW128046   1.384   0.957   3.129 -1.9876 -0.1341  1.4828
 5471SOL    HW228047   1.394   1.049   3.247  0.8863 -4.4214 -0.1848
 5472SOL     OW28048   3.586   2.026   5.343  1.1019 -0.1836 -0.6197
 5472SOL    HW128049   3.540   1.989   5.419 -0.7730  1.6778 -0.8758
 5472SOL    HW228050   3.653   1.959   5.325  1.2579 -0.0104 -0.6864
 5473SOL     OW28051   0.414   4.642   1.228  0.2425  0.4796 -0.5420
 5473SOL    HW128052   0.498   4.686   1.240 -0.5162  1.6496  0.4239
 5473SOL    HW228053   0.432   4.561   1.275  0.9303  1.6092  1.1530
 5474SOL     OW28054   0.946   1.417   2.869 -0.5144  0.1360 -0.3083
 5474SOL    HW128055   0.902   1.424   2.954  1.4545  1.0158  0.6464
 5474SOL    HW228056   0.999   1.337   2.877 -0.7986  0.0731  0.9558
 5475SOL     OW28057   3.530   0.183   1.647 -0.2852 -0.7162 -0.3596
 5475SOL    HW128058   3.463   0.250   1.657  0.9851  0.1785  2.1320
 5475SOL    HW228059   3.479   0.103   1.660  0.7466 -1.0793  1.5079
 5476SOL     OW28060   1.713   2.477   6.440 -0.0950 -0.0028 -0.4814
 5476SOL    HW128061   1.631   2.526   6.432 -0.7149 -1.0672 -0.6729
 5476SOL    HW228062   1.711   2.420   6.363 -3.0487  1.3279 -1.3920
 5477SOL     OW28063   1.911   0.218   6.697  1.0682  0.0053  0.1010
 5477SOL    HW128064   1.939   0.130   6.673 -3.1248 -1.5216  0.8153
 5477SOL    HW228065   1.842   0.236   6.634  1.8507 -0.7879 -0.9964
 5478SOL     OW28066   3.785   0.446  10.252  0.0394 -0.0533  0.0700
 5478SOL    HW128067   3.864   0.441  10.197 -0.0969 -3.4662  0.1775
 5478SOL    HW228068   3.798   0.530  10.297 -2.7898  0.5960 -0.3767
 5479SOL     OW28069   4.364   2.593   7.592  0.0540 -0.6154  0.2373
 5479SOL    HW128070   4.283   2.548   7.566 -1.4333  1.4870  1.2698
 5479SOL    HW228071   4.384   2.642   7.512  0.7456  1.9265  1.9864
 5480SOL     OW28072   2.976   1.184   3.415  0.8494 -0.2849  0.2045
 5480SOL    HW128073   2.896   1.145   3.381 -0.8272  2.6669  0.7624
 5480SOL    HW228074   3.012   1.229   3.339 -1.5468  0.3767 -0.5501
 5481SOL     OW28075   0.751   3.842   6.514 -0.2336 -0.0867 -0.5415
 5481SOL    HW128076   0.707   3.766   6.477 -1.2581  0.7054 -0.9578
 5481SOL    HW228077   0.812   3.869   6.446 -0.1543 -0.2724 -0.5442
 5482SOL     OW28078   0.212   0.430   6.451 -0.2154  0.0764 -0.4678
 5482SOL    HW128079   0.222   0.359   6.388  0.4404  0.6476 -1.0038
 5482SOL    HW228080   0.258   0.501   6.405  0.4216 -0.0485 -0.0182
 5483SOL     OW28081   1.814   4.525  16.456  0.2258  0.2627 -0.8336
 5483SOL    HW128082   1.735   4.476  16.474  0.5577 -0.3082 -0.9415
 5483SOL    HW228083   1.774   4.607  16.485 -0.0523 -0.3565  0.5061
 5484SOL     OW28084   4.557   1.147   7.930 -1.0367  0.1342 -0.1911
 5484SOL    HW128085   4.625   1.096   7.886 -1.7087  0.3354 -1.4367
 5484SOL    HW228086   4.547   1.104   8.016 -1.2644  1.6824  0.5546
 5485SOL     OW28087   0.097   2.874   5.357  0.0227  0.0492 -0.0564
 5485SOL    HW128088   0.028   2.875   5.291 -1.3613 -2.3455  1.4042
 5485SOL    HW228089   0.083   2.964   5.387  0.9720 -0.0169  0.5952
 5486SOL     OW28090   2.750   1.862  13.894 -0.2033  0.0768 -0.4547
 5486SOL    HW128091   2.766   1.784  13.947  2.4182  0.2642 -0.9511
 5486SOL    HW228092   2.782   1.936  13.946  1.0822 -1.2739  0.6581
 5487SOL     OW28093   1.416   3.283   6.622 -0.5972  0.2993  0.2304
 5487SOL    HW128094   1.423   3.243   6.709 -0.1640 -2.2373 -0.9789
 5487SOL    HW228095   1.509   3.279   6.600 -0.4447  3.6619  0.2357
 5488SOL     OW28096   1.486   2.222   6.278 -0.1079 -0.2827 -0.4302
 5488SOL    HW128097   1.462   2.131   6.294 -4.1300  0.8978  0.3169
 5488SOL    HW228098   1.421   2.257   6.339 -0.5366 -0.2049 -0.9343
 5489SOL     OW28099   2.162   4.076  11.442  0.0889  0.0499  0.3345
 5489SOL    HW128100   2.105   4.150  11.424 -1.4254 -1.1187  0.3007
 5489SOL    HW228101   2.231   4.081  11.376  1.4035  0.9505  1.7724
 5490SOL     OW28102   2.186   0.248  13.136  0.0889  0.2225 -0.8384
 5490SOL    HW128103   2.248   0.320  13.151  0.5618 -0.1009 -1.2327
 5490SOL    HW228104   2.235   0.193  13.074 -0.8134  0.7853 -2.0355
 5491SOL     OW28105   3.251   3.017   3.111 -0.0250 -0.6893 -0.4555
 5491SOL    HW128106   3.324   2.958   3.093 -0.6156 -0.9838 -1.8219
 5491SOL    HW228107   3.193   2.948   3.142 -2.4792  0.5366 -2.2697
 5492SOL     OW28108   2.294   3.800   4.650 -0.2397  0.1396  0.0735
 5492SOL    HW128109   2.206   3.794   4.614  0.6799 -2.4919 -1.7809
 5492SOL    HW228110   2.314   3.706   4.654  1.7386  0.6048  1.4674
 5493SOL     OW28111   0.645   3.946   5.431 -0.5697  0.5388  0.1497
 5493SOL    HW128112   0.578   4.009   5.457 -2.2925 -0.4125 -2.0797
 5493SOL    HW228113   0.613   3.914   5.347 -1.6743 -0.8520  1.0894
 5494SOL     OW28114   0.266   2.861   6.162  0.0859 -0.2263  0.1466
 5494SOL    HW128115   0.213   2.834   6.237 -4.1594  3.1559 -1.6091
 5494SOL    HW228116   0.199   2.845   6.096 -0.8471  0.6103  0.8927
 5495SOL     OW28117   4.648   1.423   6.477 -0.7999  0.5038  0.3037
 5495SOL    HW128118   4.573   1.391   6.528 -0.2178 -1.6449 -0.1639
 5495SOL    HW228119   4.654   1.356   6.408 -0.3202  0.9677 -0.0992
 5496SOL     OW28120   2.042   1.790   6.526 -0.2328  0.5377 -0.1412
 5496SOL    HW128121   1.951   1.785   6.555 -0.0997  1.0291  0.3656
 5496SOL    HW228122   2.051   1.854   6.455 -1.9804  0.5947 -0.3010
 5497SOL     OW28123   3.166   4.328   7.057  0.0054 -0.4611 -0.3478
 5497SOL    HW128124   3.228   4.306   7.127 -0.2304 -0.9441 -0.2908
 5497SOL    HW228125   3.087   4.290   7.095 -1.2148  1.8098 -0.6350
 5498SOL     OW28126   1.485   1.086   4.988 -0.0174  0.5029  0.2992
 5498SOL    HW128127   1.538   1.115   4.914  1.3712  0.9445  1.4584
 5498SOL    HW228128   1.470   1.169   5.034  0.1262  1.9490 -2.3117
 5499SOL     OW28129   1.349   1.394   0.822 -0.1529 -0.0134 -0.4249
 5499SOL    HW128130   1.378   1.379   0.732  0.2038 -1.5059 -0.0498
 5499SOL    HW228131   1.277   1.457   0.811 -0.3325  0.0982  1.5275
 5500SOL     OW28132   2.675   1.846   1.816 -0.0745  0.6268  0.1584
 5500SOL    HW128133   2.634   1.837   1.902  0.5285  2.3111  0.6276
 5500SOL    HW228134   2.628   1.780   1.767 -1.2529  2.2741 -0.9173
 5501SOL     OW28135   0.042   3.566  17.607 -0.2564 -0.1168  0.0027
 5501SOL    HW128136   4.688   3.548  17.575  0.0329  0.9623 -1.4525
 5501SOL    HW228137   0.083   3.480  17.616 -0.8646 -0.2768  1.2016
 5502SOL     OW28138   0.426   2.140   5.733 -0.4192  0.2099  0.0884
 5502SOL    HW128139   0.500   2.160   5.674  0.9697  1.2876  2.2049
 5502SOL    HW228140   0.391   2.061   5.693  2.3434 -0.4062 -1.1412
 5503SOL     OW28141   2.055   1.427   7.596 -0.2669 -0.3231 -0.1210
 5503SOL    HW128142   2.121   1.394   7.535  1.6013 -0.2279  1.8329
 5503SOL    HW228143   2.000   1.483   7.542  0.5700 -0.2493 -0.9111
 5504SOL     OW28144   1.957   0.255  12.985  0.1465  0.3202  0.1248
 5504SOL    HW128145   2.027   0.254  13.050  0.2218  0.6610  0.0482
 5504SOL    HW228146   1.937   0.161  12.993 -1.5890  0.7490  0.9173
 5505SOL     OW28147   2.255   1.701  15.620  0.4048 -0.6473 -0.4403
 5505SOL    HW128148   2.214   1.727  15.538  2.1026 -0.2023 -1.1345
 5505SOL    HW228149   2.294   1.787  15.635  1.4048 -1.1503 -0.1860
 5506SOL     OW28150   2.771   4.356   2.127 -0.3579 -0.0387 -0.5188
 5506SOL    HW128151   2.689   4.322   2.090  0.2838 -1.4364 -0.6720
 5506SOL    HW228152   2.762   4.450   2.110  2.2231  0.7931  2.7713
 5507SOL     OW28153   1.774   0.478   5.348  0.5102  0.4553  0.5344
 5507SOL    HW128154   1.697   0.529   5.371  2.5668  2.6597  2.5962
 5507SOL    HW228155   1.843   0.538   5.378  2.3715 -1.3081 -0.2468
 5508SOL     OW28156   2.346   3.516   7.500  0.4813  0.3404 -0.5914
 5508SOL    HW128157   2.305   3.599   7.475  0.0997  0.2487 -0.2599
 5508SOL    HW228158   2.296   3.500   7.580  0.9892 -1.2422 -0.5871
 5509SOL     OW28159   4.065   0.983   7.350 -0.6574  0.0136 -0.0820
 5509SOL    HW128160   4.008   1.058   7.333  0.9884  0.6757 -2.6821
 5509SOL    HW228161   4.122   1.018   7.417  0.4377  1.0027 -1.5339
 5510SOL     OW28162   4.564   0.738   7.522  0.4539 -0.0030 -0.0783
 5510SOL    HW128163   4.583   0.725   7.614  0.9007 -1.4501 -0.3774
 5510SOL    HW228164   4.636   0.690   7.481  1.5035 -0.2445  2.0953
 5511SOL     OW28165   0.726   1.582   5.607  0.0723 -0.6075 -0.0258
 5511SOL    HW128166   0.736   1.575   5.512 -0.9453 -0.6862 -0.1273
 5511SOL    HW228167   0.720   1.487   5.622  0.9554 -0.8410 -1.1439
 5512SOL     OW28168   4.313   4.635   1.778 -0.1736  0.3604  0.3382
 5512SOL    HW128169   4.340   4.662   1.866  0.7479 -0.6571  0.3698
 5512SOL    HW228170   4.390   4.594   1.739 -1.6368 -0.6459 -1.5160
 5513SOL     OW28171   3.154   0.828   4.533  0.0339  0.1393  0.4864
 5513SOL    HW128172   3.168   0.903   4.591 -0.1598 -0.3529  1.1719
 5513SOL    HW228173   3.144   0.755   4.594 -1.2138 -0.2500 -0.1852
 5514SOL     OW28174   2.084   1.606   1.376 -0.1207  0.4312  0.0608
 5514SOL    HW128175   1.990   1.600   1.388 -0.2689  2.7404  0.1863
 5514SOL    HW228176   2.099   1.549   1.301 -1.4240 -0.7966  0.7500
 5515SOL     OW28177   0.818   2.506   7.535 -0.2380  0.8034  0.5630
 5515SOL    HW128178   0.830   2.473   7.446  2.8520 -0.0461  1.3133
 5515SOL    HW228179   0.842   2.598   7.528  0.6420  0.6926  2.1361
 5516SOL     OW28180   0.283   4.011  15.285 -0.3185 -0.3589  0.4271
 5516SOL    HW128181   0.200   4.044  15.320 -0.7737 -1.0935  0.0371
 5516SOL    HW228182   0.242   3.975  15.206 -2.0985  1.8548  0.3345
 5517SOL     OW28183   1.952   0.486   8.760  0.6996 -0.9455 -0.0282
 5517SOL    HW128184   2.015   0.416   8.779 -0.5739 -2.0619  0.1109
 5517SOL    HW228185   1.950   0.524   8.848 -0.9530  1.2547 -1.0413
 5518SOL     OW28186   2.741   4.018   3.869 -1.1735  0.1383  0.1304
 5518SOL    HW128187   2.668   3.998   3.928 -0.1588 -2.1816  0.5932
 5518SOL    HW228188   2.820   4.036   3.919 -1.0543  0.1532 -0.0644
 5519SOL     OW28189   2.667   3.612   6.297 -0.4194  0.2567 -0.4786
 5519SOL    HW128190   2.603   3.680   6.322 -0.0753 -0.2360  1.7471
 5519SOL    HW228191   2.748   3.655   6.324  0.3606  0.1107 -2.5942
 5520SOL     OW28192   3.350   3.611  12.205 -0.7309  0.0453 -0.4230
 5520SOL    HW128193   3.257   3.628  12.193 -0.4737  1.7498 -0.0113
 5520SOL    HW228194   3.352   3.568  12.290  1.2241 -0.8472 -0.9037
 5521SOL     OW28195   2.804   0.401   5.210  0.7086  0.4248  0.2500
 5521SOL    HW128196   2.870   0.417   5.278  0.9093 -1.0878  0.4102
 5521SOL    HW228197   2.836   0.464   5.145 -2.1562 -0.0737 -1.6370
 5522SOL     OW28198   2.730   3.379   3.446 -0.1967  0.0730  0.8428
 5522SOL    HW128199   2.772   3.438   3.383  0.9528 -0.8027  0.7846
 5522SOL    HW228200   2.683   3.442   3.501 -0.9576  1.3128 -1.2285
 5523SOL     OW28201   1.207   2.833   5.135 -0.2733 -0.4819 -0.2752
 5523SOL    HW128202   1.180   2.898   5.070  0.8054  1.7646  1.5264
 5523SOL    HW228203   1.272   2.790   5.080 -0.2690 -2.4191  1.2580
 5524SOL     OW28204   0.692   4.003   1.625 -0.0259  1.0060 -0.1776
 5524SOL    HW128205   0.696   4.050   1.541  1.8699  0.9318 -0.1247
 5524SOL    HW228206   0.679   4.082   1.677  0.3465  0.2599  1.0581
 5525SOL     OW28207   3.107   3.308   7.108 -0.1465  0.8107  0.3128
 5525SOL    HW128208   3.045   3.346   7.045  0.0542 -0.1358 -0.4529
 5525SOL    HW228209   3.134   3.233   7.055  0.6673  2.5986 -1.8503
 5526SOL     OW28210   3.142   2.943   4.425 -0.4878 -0.0177 -0.4528
 5526SOL    HW128211   3.204   2.967   4.494 -0.4078  2.5039 -1.3978
 5526SOL    HW228212   3.192   2.871   4.387 -0.5325 -1.7913  2.8986
 5527SOL     OW28213   4.067   1.690  16.042  0.5350  0.5078 -0.2004
 5527SOL    HW128214   4.015   1.609  16.042  1.8665 -0.3299 -2.3179
 5527SOL    HW228215   4.142   1.678  15.984 -0.3297 -1.4543 -0.9227
 5528SOL     OW28216   4.531   1.487   8.577  0.0073  0.4735 -0.2642
 5528SOL    HW128217   4.555   1.418   8.515 -3.6134 -0.2085 -0.8769
 5528SOL    HW228218   4.444   1.514   8.547 -1.8642 -3.8834  1.2833
 5529SOL     OW28219   4.246   1.981   0.061 -0.5073  0.4319  0.4379
 5529SOL    HW128220   4.328   1.970   0.111  0.2175 -0.1062 -0.8761
 5529SOL    HW228221   4.229   1.897   0.020  1.2998 -0.1457  0.8507
 5530SOL     OW28222   2.432   2.895   1.120 -0.1553  0.2327 -0.0100
 5530SOL    HW128223   2.346   2.930   1.095 -0.0278  1.1575  0.8383
 5530SOL    HW228224   2.464   2.975   1.163  0.0870  0.3750 -0.4514
 5531SOL     OW28225   0.793   0.575  10.200 -0.0627 -0.0610 -0.1109
 5531SOL    HW128226   0.698   0.565  10.211 -0.3361  0.6098 -1.7744
 5531SOL    HW228227   0.823   0.537  10.282 -1.8628  0.7115  0.9074
 5532SOL     OW28228   2.369   0.936   5.704  0.1663 -0.3074  0.0360
 5532SOL    HW128229   2.424   0.918   5.628 -0.1515 -1.6482  0.1161
 5532SOL    HW228230   2.436   0.988   5.748  0.1066  0.6131 -0.9667
 5533SOL     OW28231   0.412   2.521   5.148  0.0585  0.4550 -0.4166
 5533SOL    HW128232   0.341   2.585   5.149  1.2526  1.6784  4.2165
 5533SOL    HW228233   0.446   2.541   5.235 -0.7349  0.9608 -0.2166
 5534SOL     OW28234   4.076   2.970   5.445  0.6355  0.9426 -0.2516
 5534SOL    HW128235   4.141   2.925   5.391  0.0215  0.1363 -0.3384
 5534SOL    HW228236   4.017   3.005   5.379 -1.8437  0.2166  1.5655
 5535SOL     OW28237   0.240   2.881  16.181  0.3878 -0.8969 -0.0047
 5535SOL    HW128238   0.180   2.921  16.244  1.4835 -0.5890  0.8501
 5535SOL    HW228239   0.326   2.914  16.208  0.4832  0.1023 -1.4782
 5536SOL     OW28240   3.823   0.333   2.556  0.3462 -0.1537 -0.3381
 5536SOL    HW128241   3.873   0.262   2.518 -1.9169 -2.1388  0.3627
 5536SOL    HW228242   3.790   0.285   2.632  0.2693  2.5000  1.3285
 5537SOL     OW28243   3.182   0.024   4.785 -0.3773 -0.1774 -0.1239
 5537SOL    HW128244   3.168   4.711   4.866 -5.6874 -0.0767 -0.9900
 5537SOL    HW228245   3.109   4.723   4.735  1.0713 -1.3343 -1.4156
 5538SOL     OW28246   1.986   3.032   8.288 -0.0762  0.4205 -0.1505
 5538SOL    HW128247   1.924   2.999   8.353 -1.1920  0.7342 -1.0515
 5538SOL    HW228248   2.066   2.981   8.298 -0.9960 -1.0524 -0.3361
 5539SOL     OW28249   1.966   0.836   4.606  0.1001  0.1695  0.3173
 5539SOL    HW128250   2.026   0.786   4.549  1.6482  0.5451  1.6342
 5539SOL    HW228251   2.030   0.865   4.671 -0.3952  1.1419  0.3626
 5540SOL     OW28252   3.902   3.826   2.197  0.0512 -0.2049 -0.0441
 5540SOL    HW128253   3.923   3.739   2.161 -1.3547  0.0638 -1.5120
 5540SOL    HW228254   3.963   3.839   2.269 -0.6715 -3.6434  1.1840
 5541SOL     OW28255   4.603   0.986   0.221 -0.1557  0.9007 -0.0048
 5541SOL    HW128256   4.527   1.016   0.271 -1.3555  0.4192 -1.5340
 5541SOL    HW228257   4.613   0.901   0.263 -1.0350  0.5836 -0.4270
 5542SOL     OW28258   2.951   4.308   4.432  0.0889  0.0717 -0.1363
 5542SOL    HW128259   3.005   4.256   4.491  0.2940 -0.6803 -1.0040
 5542SOL    HW228260   2.873   4.314   4.488 -0.2473 -1.2541 -0.4666
 5543SOL     OW28261   4.087   3.166   1.350  0.2363  0.1260  0.1670
 5543SOL    HW128262   4.002   3.170   1.395  1.7973  4.0607  2.7441
 5543SOL    HW228263   4.067   3.200   1.262  0.5477  4.2777  1.6750
 5544SOL     OW28264   2.580   2.246   8.049  0.2879 -0.0790 -0.6376
 5544SOL    HW128265   2.612   2.160   8.021 -0.0808 -1.2440  2.5849
 5544SOL    HW228266   2.597   2.289   7.965 -1.5087  0.6010 -0.6507
 5545SOL     OW28267   1.182   1.840   2.439 -0.4220 -0.4948 -0.2041
 5545SOL    HW128268   1.105   1.825   2.494  1.6107 -1.1496  2.4582
 5545SOL    HW228269   1.178   1.935   2.428  0.7803 -0.3824  0.3273
 5546SOL     OW28270   2.038   1.907   3.375  0.0376 -0.5968 -0.1908
 5546SOL    HW128271   2.110   1.860   3.334 -0.4124 -1.9648  0.5813
 5546SOL    HW228272   2.076   1.919   3.462  0.5982 -1.8176 -0.2684
 5547SOL     OW28273   3.855   2.174   8.129 -0.0710  0.5876 -0.2590
 5547SOL    HW128274   3.861   2.244   8.194 -0.1108  1.0359 -0.7376
 5547SOL    HW228275   3.761   2.154   8.133  0.0959  0.0944  1.2221
 5548SOL     OW28276   2.196   2.012  14.979 -0.2481  1.0515 -0.2694
 5548SOL    HW128277   2.207   1.922  14.948 -0.7393  0.3496  1.6302
 5548SOL    HW228278   2.108   2.001  15.015 -0.6674  2.5019 -0.8536
 5549SOL     OW28279   4.708   3.071   4.044 -0.3073  0.1218 -0.4092
 5549SOL    HW128280   0.053   3.040   4.086 -1.4412  0.0108  1.6759
 5549SOL    HW228281   4.640   3.019   4.087 -0.7495  0.8852 -0.1763
 5550SOL     OW28282   1.352   2.591   0.339  0.7280  0.0541 -0.1027
 5550SOL    HW128283   1.431   2.620   0.293  1.8260 -3.2240 -0.3070
 5550SOL    HW228284   1.282   2.643   0.300  2.3256  0.7542 -2.0084
 5551SOL     OW28285   0.720   3.890  15.105  0.1828  0.2718 -0.2838
 5551SOL    HW128286   0.758   3.968  15.067  0.9932  0.3861  0.7727
 5551SOL    HW228287   0.774   3.820  15.069  1.0735 -0.2444  2.0284
 5552SOL     OW28288   3.988   2.162   6.292  0.5159  1.0888  0.2775
 5552SOL    HW128289   4.065   2.218   6.284  0.4055  1.2090  0.0615
 5552SOL    HW228290   3.952   2.196   6.374 -1.6668  1.0932 -0.6922
 5553SOL     OW28291   3.521   0.044   7.841 -0.0765  0.4007 -0.8120
 5553SOL    HW128292   3.457   0.114   7.850 -1.3651 -0.7879 -0.8026
 5553SOL    HW228293   3.540   0.035   7.934 -1.3764 -1.3067 -0.7200
 5554SOL     OW28294   3.210   4.347   5.836 -0.4282 -0.2431 -0.3537
 5554SOL    HW128295   3.191   4.271   5.781 -0.9750  0.3890 -1.0350
 5554SOL    HW228296   3.288   4.319   5.884 -0.0914  1.1240 -0.0989
 5555SOL     OW28297   1.909   1.635  11.755  0.0116  0.1260  0.5838
 5555SOL    HW128298   1.961   1.560  11.725  0.2471  0.1322  0.9853
 5555SOL    HW228299   1.974   1.702  11.738 -0.0416  0.6718  2.6386
 5556SOL     OW28300   0.185   1.736   7.983 -0.3137 -0.6933 -0.1520
 5556SOL    HW128301   0.263   1.792   7.985 -0.8859  0.1162 -0.5762
 5556SOL    HW228302   0.124   1.800   7.947 -0.4655 -0.9056 -0.2732
 5557SOL     OW28303   2.805   1.783   4.047 -0.3753 -0.1129  0.1763
 5557SOL    HW128304   2.878   1.840   4.024  1.7165 -1.7171  2.7159
 5557SOL    HW228305   2.798   1.806   4.140 -1.0399 -0.3952  0.2025
 5558SOL     OW28306   2.690   0.920   5.931  0.2572 -0.4126  0.6255
 5558SOL    HW128307   2.751   0.848   5.915 -0.0510 -0.4635 -0.3227
 5558SOL    HW228308   2.731   0.981   5.870 -1.0591  1.1816  1.3211
 5559SOL     OW28309   3.352   3.743   7.179 -0.0070  0.1769 -0.0928
 5559SOL    HW128310   3.372   3.663   7.130 -2.6866  0.2719 -1.3201
 5559SOL    HW228311   3.280   3.707   7.231  1.2513  0.7208  2.0603
 5560SOL     OW28312   4.197   1.657   4.863  0.2554 -0.3018  0.2514
 5560SOL    HW128313   4.107   1.689   4.865  0.3631 -0.0799  1.3915
 5560SOL    HW228314   4.201   1.668   4.958  2.3053  1.1046 -0.0034
 5561SOL     OW28315   2.372   0.140   4.437  0.4006  0.4994  0.1634
 5561SOL    HW128316   2.425   0.217   4.419  1.5662 -0.6248 -1.2314
 5561SOL    HW228317   2.431   0.070   4.411 -0.8062 -0.4211 -0.1099
 5562SOL     OW28318   1.142   1.850  13.849  0.2516  0.9032  0.0562
 5562SOL    HW128319   1.225   1.814  13.818 -0.7990 -1.4415 -0.0225
 5562SOL    HW228320   1.122   1.920  13.787  1.0540  1.4052  0.3608
 5563SOL     OW28321   4.369   2.910   2.572 -0.2376 -0.1090  0.3459
 5563SOL    HW128322   4.321   2.988   2.599  1.2679  0.8649  0.1759
 5563SOL    HW228323   4.441   2.943   2.519 -0.0796 -2.7749 -1.1048
 5564SOL     OW28324   2.296   0.636  16.442  0.3661  0.1299  0.2262
 5564SOL    HW128325   2.342   0.641  16.359  2.9732  3.2995  1.8714
 5564SOL    HW228326   2.301   0.541  16.451 -0.1460  0.0347 -0.4398
 5565SOL     OW28327   4.103   2.672  14.639  0.6662 -0.3876  0.1790
 5565SOL    HW128328   4.028   2.708  14.591 -0.3953 -0.0071  2.1176
 5565SOL    HW228329   4.178   2.713  14.597 -0.8421  1.1503 -0.9952
 5566SOL     OW28330   3.884   1.350   1.607  0.6670  0.2672 -0.2023
 5566SOL    HW128331   3.880   1.429   1.554 -0.5274  0.9360  0.8888
 5566SOL    HW228332   3.978   1.359   1.625  0.2026  1.1659  1.7420
 5567SOL     OW28333   0.295   1.678   3.992  0.0893  0.4836 -0.2600
 5567SOL    HW128334   0.212   1.720   3.969 -0.0038  0.7288  0.5027
 5567SOL    HW228335   0.262   1.588   3.994  1.7873 -0.1461 -0.6255
 5568SOL     OW28336   3.094   4.526  12.244 -0.4681  0.7280 -0.2714
 5568SOL    HW128337   3.087   4.612  12.202 -0.3865  1.1837  0.6707
 5568SOL    HW228338   3.160   4.487  12.186 -0.7879  1.7006 -1.2997
 5569SOL     OW28339   3.188   2.704   9.325  0.2781  0.4859 -0.4328
 5569SOL    HW128340   3.188   2.793   9.291 -3.4944  1.2618  1.6145
 5569SOL    HW228341   3.099   2.669   9.319  0.7921 -1.5627  3.9504
 5570SOL     OW28342   2.280   0.809   1.615 -0.8592 -0.7715  0.1425
 5570SOL    HW128343   2.324   0.892   1.596 -2.1197 -0.3722 -0.9784
 5570SOL    HW228344   2.248   0.794   1.526  2.1972 -0.5652 -0.9879
 5571SOL     OW28345   3.570   2.728   8.669 -0.2831  0.0984  0.3611
 5571SOL    HW128346   3.631   2.798   8.644  0.7495 -0.2159  1.9747
 5571SOL    HW228347   3.496   2.748   8.612  1.1050  0.0884 -1.4479
 5572SOL     OW28348   2.077   0.510   6.919  0.3702  0.1423 -0.0754
 5572SOL    HW128349   2.004   0.448   6.918 -0.5364  1.2152 -1.3502
 5572SOL    HW228350   2.141   0.465   6.864  2.0279 -0.0115  1.9636
 5573SOL     OW28351   4.213   4.025   1.744 -0.0871  0.4289  0.1222
 5573SOL    HW128352   4.196   3.983   1.828 -0.6353 -1.0495 -0.7241
 5573SOL    HW228353   4.309   4.021   1.743 -0.1478 -1.0424 -1.6723
 5574SOL     OW28354   4.377   2.281   4.529  0.2382  0.0906 -0.2323
 5574SOL    HW128355   4.389   2.194   4.567 -1.4760 -0.0014  0.1044
 5574SOL    HW228356   4.427   2.337   4.588  2.8189 -2.6513  0.1547
 5575SOL     OW28357   3.958   3.974  10.199  0.7724  1.3408 -0.7650
 5575SOL    HW128358   3.919   3.945  10.281  2.0538 -0.1673 -0.6744
 5575SOL    HW228359   4.037   3.920  10.196  1.3492  2.1425 -0.0791
 5576SOL     OW28360   1.082   0.863   8.879  0.0186 -0.4523  0.1537
 5576SOL    HW128361   1.032   0.936   8.843 -0.9692 -0.7317  0.9826
 5576SOL    HW228362   1.053   0.870   8.970  0.7789 -0.0777  0.3729
 5577SOL     OW28363   3.427   1.622   5.439 -0.0680  0.2660 -0.0583
 5577SOL    HW128364   3.377   1.701   5.415  1.8747  1.6682  0.5351
 5577SOL    HW228365   3.372   1.602   5.515  0.7421  0.9621  0.7123
 5578SOL     OW28366   2.350   1.532   4.954 -0.5536  0.1557 -0.1434
 5578SOL    HW128367   2.260   1.536   4.922 -1.0933 -0.7328  1.3019
 5578SOL    HW228368   2.358   1.616   5.000  0.8579  0.2315 -0.5057
 5579SOL     OW28369   0.583   1.859   4.902 -0.2734  0.9838  0.3512
 5579SOL    HW128370   0.631   1.939   4.923 -0.9323  1.6421 -0.6710
 5579SOL    HW228371   0.640   1.797   4.947  0.5959  0.7385 -1.0968
 5580SOL     OW28372   1.693   3.620   6.609 -0.2511 -0.1935  0.3432
 5580SOL    HW128373   1.649   3.633   6.693  0.8850 -1.7963  1.1777
 5580SOL    HW228374   1.687   3.525   6.611 -1.7230 -0.0915  0.8723
 5581SOL     OW28375   1.874   2.699   5.941  0.0782  0.0691 -0.2286
 5581SOL    HW128376   1.809   2.633   5.967  0.2665 -0.3021 -0.7062
 5581SOL    HW228377   1.903   2.671   5.854  3.0305 -1.8749  1.3796
 5582SOL     OW28378   1.727   4.444   2.899 -0.3401 -0.0846  0.8139
 5582SOL    HW128379   1.720   4.406   2.812  1.0489  3.0367 -0.6527
 5582SOL    HW228380   1.817   4.470   2.919 -0.3457  0.7147 -0.1735
 5583SOL     OW28381   4.325   1.943   4.035 -0.2730 -0.2243  0.2193
 5583SOL    HW128382   4.233   1.967   4.024  0.0753  1.6970  1.5142
 5583SOL    HW228383   4.343   1.940   4.129 -0.0088  0.4134  0.1898
 5584SOL     OW28384   1.373   1.509   8.730  0.0250  0.3193 -0.4264
 5584SOL    HW128385   1.371   1.491   8.824 -0.9065 -1.0927 -0.7124
 5584SOL    HW228386   1.398   1.601   8.731  0.6111  0.1999 -3.3033
 5585SOL     OW28387   4.397   2.185   5.418 -0.2569  0.0307 -0.4764
 5585SOL    HW128388   4.358   2.129   5.486 -0.4033  1.3774  0.5376
 5585SOL    HW228389   4.479   2.213   5.456 -2.3767  4.4186  0.8116
 5586SOL     OW28390   3.408   1.322   5.256 -0.1010 -0.2514  0.3249
 5586SOL    HW128391   3.448   1.409   5.254 -0.0517 -0.3522 -2.2481
 5586SOL    HW228392   3.481   1.262   5.267 -2.3445 -2.9484  0.7013
 5587SOL     OW28393   0.225   1.427   1.527 -0.0726 -0.3578  0.3784
 5587SOL    HW128394   0.147   1.478   1.552 -0.2205 -0.3264 -0.1648
 5587SOL    HW228395   0.218   1.442   1.433 -2.5573  0.1753  0.6585
 5588SOL     OW28396   2.465   1.498  12.094 -0.0519 -0.1646 -0.9051
 5588SOL    HW128397   2.514   1.443  12.033 -2.4447 -1.1065 -1.9858
 5588SOL    HW228398   2.405   1.437  12.135 -0.8968  1.8827  0.8898
 5589SOL     OW28399   1.110   3.438   2.534  0.3016  0.6169  0.1025
 5589SOL    HW128400   1.037   3.393   2.576  1.4534 -1.2322  0.1069
 5589SOL    HW228401   1.173   3.439   2.606  0.8046  0.4459 -0.3347
 5590SOL     OW28402   4.142   4.688  10.902  0.3710 -0.0101  0.1901
 5590SOL    HW128403   4.079   4.719  10.837  1.6904  1.1320 -0.5539
 5590SOL    HW228404   4.124   0.013  10.975  0.3203  2.1220 -1.5568
 5591SOL     OW28405   2.561   2.141  15.153 -0.2423  0.1151 -0.2832
 5591SOL    HW128406   2.530   2.217  15.202 -0.2383  1.1442 -1.9025
 5591SOL    HW228407   2.504   2.140  15.076 -0.4754 -3.4588 -0.0866
 5592SOL     OW28408   2.648   3.222   7.236 -0.6841 -0.4391  0.4505
 5592SOL    HW128409   2.700   3.201   7.159 -0.7915  1.0507 -0.0251
 5592SOL    HW228410   2.608   3.139   7.262  1.0083 -1.3407  0.1764
 5593SOL     OW28411   2.073   0.733  16.768  0.2603 -0.1450 -0.1495
 5593SOL    HW128412   2.074   0.820  16.808  0.1740 -0.1297 -0.1794
 5593SOL    HW228413   1.982   0.716  16.742  0.2534 -0.4139  0.0506
 5594SOL     OW28414   1.618   1.874   8.985 -0.6090  0.1619  0.0431
 5594SOL    HW128415   1.695   1.926   9.009  0.6236 -0.8869 -1.6582
 5594SOL    HW228416   1.617   1.793   9.036  2.2102  0.0436 -0.1106
 5595SOL     OW28417   1.824   1.480   8.090  0.1742  0.2049  0.1015
 5595SOL    HW128418   1.786   1.564   8.117 -0.5040  0.0873 -0.4756
 5595SOL    HW228419   1.806   1.487   7.996  0.7452 -4.4683 -0.3413
 5596SOL     OW28420   3.911   3.753   3.753  0.0024  0.0446  0.3793
 5596SOL    HW128421   3.968   3.780   3.680  0.9116 -2.5483  0.1234
 5596SOL    HW228422   3.951   3.667   3.762 -2.0001 -0.7106  2.0191
 5597SOL     OW28423   0.693   3.219   3.306  0.3176 -0.1218  0.3212
 5597SOL    HW128424   0.627   3.283   3.334  1.7940  1.5202  0.0052
 5597SOL    HW228425   0.648   3.188   3.227  0.7926  0.3217 -0.1199
 5598SOL     OW28426   2.559   1.400  11.058  0.5243 -0.3140 -0.1831
 5598SOL    HW128427   2.516   1.463  11.116  1.5720  0.5432 -0.3487
 5598SOL    HW228428   2.485   1.369  11.006  0.3413  1.6026 -1.0570
 5599SOL     OW28429   2.889   1.999  14.849 -0.5128  0.5753  1.1210
 5599SOL    HW128430   2.933   2.080  14.875  0.8472  0.3042 -0.2942
 5599SOL    HW228431   2.955   1.943  14.890  0.6126  1.7199  0.8853
 5600SOL     OW28432   1.355   0.807   5.990 -0.7516 -0.1261  0.1055
 5600SOL    HW128433   1.392   0.889   5.958  0.0877  0.2466  2.0945
 5600SOL    HW228434   1.318   0.758   5.916 -0.8514 -0.3391  0.2975
 5601SOL     OW28435   2.185   2.683  11.454 -0.2811 -1.1386 -0.1571
 5601SOL    HW128436   2.167   2.628  11.530 -1.0146 -2.2338 -1.1338
 5601SOL    HW228437   2.101   2.689  11.409 -1.2386 -0.1753  1.7683
 5602SOL     OW28438   3.291   0.121   9.058  0.3369  0.2615 -0.5039
 5602SOL    HW128439   3.269   0.153   8.971  1.0803  0.9434 -0.4444
 5602SOL    HW228440   3.203   0.104   9.091  1.1821 -3.5055 -0.2529
 5603SOL     OW28441   4.151   2.233   7.516 -0.0776 -0.4440 -0.0376
 5603SOL    HW128442   4.084   2.244   7.584  1.1024  3.0140  0.5857
 5603SOL    HW228443   4.109   2.182   7.447  2.0762 -1.2394 -0.7731
 5604SOL     OW28444   4.091   2.067   1.444  0.3197 -0.2083  0.3218
 5604SOL    HW128445   4.098   2.039   1.353 -0.0688 -0.2872  0.3150
 5604SOL    HW228446   3.995   2.063   1.448  0.4612 -0.8133  3.6034
 5605SOL     OW28447   0.578   3.953   5.718 -0.4014 -0.4942 -1.1359
 5605SOL    HW128448   0.653   4.008   5.741  1.1817 -3.2309  0.2569
 5605SOL    HW228449   0.593   3.946   5.623  2.2358  3.2070 -0.9836
 5606SOL     OW28450   3.000   4.417   1.972  0.3873 -0.4241  0.7047
 5606SOL    HW128451   2.911   4.412   2.007  0.5623  2.8019  1.5628
 5606SOL    HW228452   2.999   4.510   1.952  2.9960 -0.8005 -1.1164
 5607SOL     OW28453   1.149   0.286   3.393 -0.0568  0.3158  0.6646
 5607SOL    HW128454   1.122   0.323   3.309 -0.5923  1.2503  1.2467
 5607SOL    HW228455   1.153   0.365   3.447  0.4458  0.7069  0.0473
 5608SOL     OW28456   2.063   4.041   6.011 -0.3123  0.2604  0.0477
 5608SOL    HW128457   2.139   4.040   6.069 -0.5291  1.8200  0.3626
 5608SOL    HW228458   2.020   3.964   6.047 -0.6917  0.5658  0.2408
 5609SOL     OW28459   3.009   1.616  15.109  0.1617  0.4129  0.1772
 5609SOL    HW128460   2.944   1.618  15.039 -0.1424 -0.7972  0.4159
 5609SOL    HW228461   2.971   1.667  15.181 -0.5470  0.2436 -0.0720
 5610SOL     OW28462   4.410   3.000   3.919  0.8692  0.4547 -0.0991
 5610SOL    HW128463   4.378   2.948   3.993  0.7001  0.3286 -0.2613
 5610SOL    HW228464   4.465   2.933   3.879  1.6640  1.7973 -1.2307
 5611SOL     OW28465   4.431   0.106   4.440 -0.1619  0.1058 -0.2913
 5611SOL    HW128466   4.432   0.142   4.528 -0.7458 -1.4942  0.3670
 5611SOL    HW228467   4.416   0.014   4.462 -0.5777  0.0493 -0.8046
 5612SOL     OW28468   3.054   0.461  17.455  0.1084  0.4750  0.4277
 5612SOL    HW128469   3.149   0.475  17.458 -0.2433  2.9045 -0.1389
 5612SOL    HW228470   3.032   0.518  17.382  2.0628  1.7505  0.8415
 5613SOL     OW28471   1.153   2.108   2.439 -0.3639 -0.2561 -0.2488
 5613SOL    HW128472   1.211   2.182   2.419  0.0716 -0.8616 -1.1927
 5613SOL    HW228473   1.062   2.136   2.441  0.5262  2.5528  0.4406
 5614SOL     OW28474   3.860   3.678   7.203 -0.7244 -0.2253 -0.2991
 5614SOL    HW128475   3.876   3.728   7.283 -0.0271 -0.6378 -0.1775
 5614SOL    HW228476   3.764   3.679   7.205 -0.6624  2.1424  1.5113
 5615SOL     OW28477   4.174   4.697   4.666  0.0942 -0.1719  0.5437
 5615SOL    HW128478   4.098   0.010   4.697 -0.0419  0.1023 -0.2277
 5615SOL    HW228479   4.154   4.682   4.573  1.0084  0.9116  0.1706
 5616SOL     OW28480   0.768   3.999   2.611 -0.0250  0.2363  0.0174
 5616SOL    HW128481   0.709   4.028   2.681 -1.2635 -0.8089 -0.6172
 5616SOL    HW228482   0.854   4.001   2.655 -1.2912  1.4260  2.4460
 5617SOL     OW28483   1.659   1.754  11.900  0.1741  0.3074  0.1448
 5617SOL    HW128484   1.740   1.717  11.934 -0.2116  1.3357  2.1692
 5617SOL    HW228485   1.641   1.821  11.966  0.8225  0.8409 -0.2245
 5618SOL     OW28486   2.850   3.968   2.997 -0.7184  0.1822 -0.9866
 5618SOL    HW128487   2.787   3.901   3.024 -1.0470  0.4666 -1.0518
 5618SOL    HW228488   2.922   3.905   2.985 -0.4101  0.2830  0.3012
 5619SOL     OW28489   0.377   2.293  16.418  0.3508  0.2288 -0.1742
 5619SOL    HW128490   0.385   2.340  16.335 -0.9858  0.3504 -0.2299
 5619SOL    HW228491   0.344   2.356  16.482  0.0337 -1.5076  1.4036
 5620SOL     OW28492   1.605   2.241   5.264 -0.0556 -0.6178 -0.7154
 5620SOL    HW128493   1.698   2.222   5.251  0.6931  1.7607  0.9889
 5620SOL    HW228494   1.567   2.154   5.253 -1.5735 -0.1676  0.9575
 5621SOL     OW28495   1.584   2.285  16.218 -0.4280 -0.3560  0.1161
 5621SOL    HW128496   1.522   2.359  16.224  0.6623  0.5938 -0.3825
 5621SOL    HW228497   1.634   2.323  16.146 -0.6425  2.2619  1.3446
 5622SOL     OW28498   2.541   2.318   6.132  0.0390  0.1865  0.0847
 5622SOL    HW128499   2.456   2.302   6.090 -0.5429 -0.9330  1.6846
 5622SOL    HW228500   2.521   2.329   6.225 -1.0491 -0.6275 -0.0618
 5623SOL     OW28501   1.943   0.751   0.485 -0.5040  0.5029 -0.5524
 5623SOL    HW128502   2.038   0.745   0.489 -0.4591  0.6193 -1.6406
 5623SOL    HW228503   1.928   0.717   0.397  0.8834 -1.6660  0.0449
 5624SOL     OW28504   1.829   0.715  15.259 -0.3407  0.3327  0.0549
 5624SOL    HW128505   1.866   0.800  15.233  0.0016  0.9414  2.5395
 5624SOL    HW228506   1.796   0.681  15.176 -1.0582 -2.7004  1.6044
 5625SOL     OW28507   3.111   3.291   2.637  0.5716  0.2089  0.0795
 5625SOL    HW128508   3.121   3.237   2.715 -1.2771 -1.4298 -0.8154
 5625SOL    HW228509   3.046   3.240   2.588  0.3413  2.4590 -1.9591
 5626SOL     OW28510   0.751   2.569  11.218  0.5077 -0.0600 -0.2129
 5626SOL    HW128511   0.732   2.488  11.265  2.3831  0.0377  0.6998
 5626SOL    HW228512   0.744   2.545  11.125 -1.1695 -0.3944 -0.0007
 5627SOL     OW28513   2.703   3.073   5.831 -0.0238  0.2777 -0.0059
 5627SOL    HW128514   2.740   3.160   5.840  0.2952  0.4131 -2.8437
 5627SOL    HW228515   2.737   3.046   5.746 -0.1928 -0.4459  0.1551
 5628SOL     OW28516   1.438   1.628   6.239  0.3062 -0.2828 -0.2713
 5628SOL    HW128517   1.344   1.610   6.239  0.3032 -0.2662 -0.0112
 5628SOL    HW228518   1.471   1.562   6.178 -0.9199  0.0306 -1.2691
 5629SOL     OW28519   0.077   0.247  14.640  0.1770  0.0102  0.0392
 5629SOL    HW128520   0.090   0.158  14.606 -1.0214  0.3193 -1.2166
 5629SOL    HW228521   0.142   0.292  14.586 -0.9981  1.1341 -0.4341
 5630SOL     OW28522   4.612   2.925   6.807 -0.4186 -0.2563 -0.0643
 5630SOL    HW128523   4.547   2.904   6.874 -0.0549 -0.7547  0.1308
 5630SOL    HW228524   4.688   2.941   6.863  0.1114 -0.7230 -0.6502
 5631SOL     OW28525   4.458   1.525   4.835  0.2828 -0.3688  0.1907
 5631SOL    HW128526   4.374   1.570   4.846  0.3978  0.1428 -1.1195
 5631SOL    HW228527   4.423   1.457   4.778  0.4381 -0.5023  0.2542
 5632SOL     OW28528   0.141   4.067  13.088 -0.5121 -0.5040  0.4765
 5632SOL    HW128529   0.178   4.018  13.161  0.3754  1.9356  1.6526
 5632SOL    HW228530   0.110   4.149  13.128 -0.5203 -0.0552 -0.4311
 5633SOL     OW28531   3.703   0.276   4.152  0.0961  0.9428 -0.1802
 5633SOL    HW128532   3.797   0.270   4.168  0.2987  0.7464 -1.4139
 5633SOL    HW228533   3.674   0.284   4.243 -0.0353 -1.6014 -0.0155
 5634SOL     OW28534   2.426   2.317   8.255 -0.0039  0.2513  0.2446
 5634SOL    HW128535   2.360   2.378   8.223 -1.4528  0.2079  3.1263
 5634SOL    HW228536   2.480   2.306   8.177  0.7674  0.2405  0.7740
 5635SOL     OW28537   0.611   3.792  15.590 -0.8091  0.2301  0.3606
 5635SOL    HW128538   0.608   3.827  15.501 -0.2587  0.4642  0.4330
 5635SOL    HW228539   0.665   3.858  15.632 -1.3159 -0.0509  1.4491
 5636SOL     OW28540   0.803   2.767  11.403 -0.2218  0.2236 -0.1709
 5636SOL    HW128541   0.750   2.838  11.367  1.0609  0.4361 -1.6451
 5636SOL    HW228542   0.796   2.700  11.335  1.3714 -0.5921  0.4528
 5637SOL     OW28543   1.586   4.254   8.892 -0.4563 -0.2011 -0.0124
 5637SOL    HW128544   1.579   4.179   8.833  1.1246  0.4175 -0.9817
 5637SOL    HW228545   1.493   4.277   8.892 -0.4738 -0.2713  0.1481
 5638SOL     OW28546   3.627   1.636   3.652  0.7356 -0.7591  0.0242
 5638SOL    HW128547   3.722   1.641   3.660  0.6595  0.0376  0.3867
 5638SOL    HW228548   3.609   1.720   3.610  1.3655 -0.6389 -0.0120
 5639SOL     OW28549   3.838   4.184   7.620  0.4022  0.4034  0.0200
 5639SOL    HW128550   3.792   4.245   7.677  1.5870  0.2265  1.1458
 5639SOL    HW228551   3.783   4.106   7.632 -0.2829  0.4534 -2.8071
 5640SOL     OW28552   3.115   3.382   1.931  0.0633  0.2372  0.3993
 5640SOL    HW128553   3.121   3.356   1.839 -2.3712 -2.0097  0.8529
 5640SOL    HW228554   3.027   3.351   1.953  0.8957 -1.5792  1.1459
 5641SOL     OW28555   1.112   2.045  17.038 -0.3253 -0.0744  0.4181
 5641SOL    HW128556   1.136   2.098  17.115  0.3168 -0.3942  0.4413
 5641SOL    HW228557   1.082   2.114  16.979 -0.4036 -1.4587 -1.1591
 5642SOL     OW28558   3.303   1.727   4.041  0.1408  0.6079 -0.4048
 5642SOL    HW128559   3.355   1.685   4.111 -1.3105 -0.8665 -0.2203
 5642SOL    HW228560   3.339   1.697   3.958 -1.8165  1.2097 -1.4551
 5643SOL     OW28561   1.427   1.494   7.250 -0.3843  0.5069 -0.0848
 5643SOL    HW128562   1.518   1.464   7.251 -0.6147 -0.1779  1.4268
 5643SOL    HW228563   1.410   1.485   7.156  0.2369 -1.2229 -0.0189
 5644SOL     OW28564   4.075   3.450  14.284  0.6041  0.6096 -0.1944
 5644SOL    HW128565   4.019   3.513  14.238  0.9279  0.9597 -0.1029
 5644SOL    HW228566   4.076   3.376  14.222  0.5833  1.6634 -1.4507
 5645SOL     OW28567   0.852   4.336   9.556  0.2719  0.1031 -0.1354
 5645SOL    HW128568   0.862   4.326   9.651  1.5492 -0.5925 -0.3379
 5645SOL    HW228569   0.825   4.426   9.540  0.5148 -0.0640 -1.5303
 5646SOL     OW28570   2.771   1.599  14.835 -0.8669  0.2383  0.1930
 5646SOL    HW128571   2.830   1.614  14.761 -1.6956 -1.5323 -0.8275
 5646SOL    HW228572   2.753   1.688  14.865  2.2671  0.9502 -0.1183
 5647SOL     OW28573   0.032   4.097   3.390  0.1267  0.2545  0.0112
 5647SOL    HW128574   4.708   4.131   3.457  0.7702 -0.3355  0.8757
 5647SOL    HW228575   4.714   4.077   3.312  0.4388  0.3579 -0.2279
 5648SOL     OW28576   4.415   4.504   9.929  0.5979  0.2538 -0.0417
 5648SOL    HW128577   4.447   4.590   9.956 -1.5645  1.2335 -0.6410
 5648SOL    HW228578   4.323   4.514   9.953  0.9921 -0.0367  1.6400
 5649SOL     OW28579   3.030   0.433   5.354  0.0928 -0.5109 -0.6236
 5649SOL    HW128580   3.029   0.516   5.400  1.0886 -0.8603  0.0323
 5649SOL    HW228581   3.119   0.397   5.362  0.2664  0.1337  0.2325
 5650SOL     OW28582   3.443   1.833  10.675  0.1307 -0.3021 -0.0529
 5650SOL    HW128583   3.359   1.787  10.675 -0.3431  0.5618  0.5991
 5650SOL    HW228584   3.500   1.776  10.623 -1.9300 -1.8534 -0.6182
 5651SOL     OW28585   1.740   0.594  12.995 -0.2185  0.0919  0.3210
 5651SOL    HW128586   1.678   0.556  13.057 -0.6869 -2.1993 -1.5763
 5651SOL    HW228587   1.776   0.680  13.019 -0.4943 -0.2332  1.8879
 5652SOL     OW28588   1.824   1.483  14.207  0.4680 -0.0241 -0.1671
 5652SOL    HW128589   1.738   1.512  14.177  0.4973 -0.2937 -0.5164
 5652SOL    HW228590   1.824   1.503  14.300 -1.5673  1.7429 -0.5441
 5653SOL     OW28591   3.220   3.390   8.159 -0.1976 -0.0833  0.5247
 5653SOL    HW128592   3.144   3.402   8.217 -0.8305  1.4483 -0.6010
 5653SOL    HW228593   3.250   3.481   8.151  1.8187 -1.0023 -2.2155
 5654SOL     OW28594   1.086   3.353  13.175  0.6854 -0.1243  0.0390
 5654SOL    HW128595   1.085   3.449  13.174  1.3337 -0.1267 -1.2822
 5654SOL    HW228596   1.176   3.337  13.203  0.0564 -1.1758  1.4601
 5655SOL     OW28597   3.900   2.630   6.196  0.0666 -0.4889  0.1613
 5655SOL    HW128598   3.900   2.623   6.101  3.2347  0.2346  0.0875
 5655SOL    HW228599   3.868   2.718   6.215 -0.9652 -0.3566 -2.2509
 5656SOL     OW28600   3.315   0.726   2.667 -0.4928  0.0945 -0.2588
 5656SOL    HW128601   3.398   0.722   2.714  1.0939  0.5378 -3.0476
 5656SOL    HW228602   3.308   0.648   2.612  0.5374  0.5292 -0.9948
 5657SOL     OW28603   1.582   2.192   7.295  0.0637  0.3191 -0.5591
 5657SOL    HW128604   1.612   2.110   7.255 -0.4980 -0.6769  1.0823
 5657SOL    HW228605   1.562   2.251   7.222  0.7869  1.2791  0.0389
 5658SOL     OW28606   3.165   2.076   4.605  0.6676  0.4514  0.1680
 5658SOL    HW128607   3.237   2.016   4.624  0.1755 -0.1690  0.0837
 5658SOL    HW228608   3.092   2.015   4.593  0.4335  1.2911 -2.6320
 5659SOL     OW28609   0.919   3.270   7.491  0.4304 -0.4162  0.0188
 5659SOL    HW128610   1.006   3.231   7.478  0.6761  0.4340 -0.9568
 5659SOL    HW228611   0.891   3.264   7.399 -0.2441  0.5016  0.1600
 5660SOL     OW28612   3.814   1.275  12.711  0.1828  0.2537  0.1728
 5660SOL    HW128613   3.871   1.227  12.652 -3.2829 -1.0117 -2.1805
 5660SOL    HW228614   3.725   1.250  12.684  0.0347 -0.9687  1.7771
 5661SOL     OW28615   1.565   1.309   1.393 -0.2933 -0.5846 -0.0911
 5661SOL    HW128616   1.474   1.278   1.384 -0.3419 -0.4388 -0.0993
 5661SOL    HW228617   1.590   1.328   1.303  0.0450 -0.2363  0.0797
 5662SOL     OW28618   1.050   3.199  14.280  0.0481  0.1295  0.0046
 5662SOL    HW128619   1.004   3.262  14.225 -0.2564 -0.5372 -0.5072
 5662SOL    HW228620   1.137   3.192  14.241 -0.3580  1.7283 -1.1942
 5663SOL     OW28621   1.827   2.347   2.717  0.0221 -0.7084  0.8125
 5663SOL    HW128622   1.735   2.319   2.717 -0.1419 -0.1612  0.1059
 5663SOL    HW228623   1.856   2.273   2.771  2.5791  0.1786  0.6336
 5664SOL     OW28624   0.229   0.667  12.751 -0.6983  0.1625 -0.4188
 5664SOL    HW128625   0.229   0.628  12.664 -0.7063 -0.7400 -0.0162
 5664SOL    HW228626   0.251   0.587  12.799 -1.4805  1.2808  1.7852
 5665SOL     OW28627   3.132   1.059   4.173  0.1397 -0.4769  0.1641
 5665SOL    HW128628   3.108   1.081   4.263  1.2079 -0.0754  0.3422
 5665SOL    HW228629   3.080   1.115   4.114  0.9659 -0.1526 -0.2503
 5666SOL     OW28630   3.508   0.067   4.172  0.1559 -0.2535  0.5837
 5666SOL    HW128631   3.506   0.090   4.265  3.8324 -0.9099  0.8041
 5666SOL    HW228632   3.525   4.707   4.169 -0.2859 -0.3444  0.8400
 5667SOL     OW28633   2.265   4.674  12.553 -0.3403  0.4174  0.2680
 5667SOL    HW128634   2.266   0.020  12.605  0.0385 -1.7313  3.5947
 5667SOL    HW228635   2.206   4.625  12.610  1.6892 -2.5097 -0.1168
 5668SOL     OW28636   2.720   4.361  12.630  0.2495 -0.2518 -0.0565
 5668SOL    HW128637   2.780   4.415  12.682 -0.6504 -0.6399  1.3657
 5668SOL    HW228638   2.717   4.410  12.548  0.7117  0.5545  0.4029
 5669SOL     OW28639   1.867   0.830  13.058 -0.0786  0.4428 -0.4014
 5669SOL    HW128640   1.955   0.812  13.091  0.0250  1.3390 -0.1836
 5669SOL    HW228641   1.858   0.923  13.078  1.4388  0.9882 -2.3315
 5670SOL     OW28642   1.694   2.480   6.891  0.5921 -0.0781  0.0816
 5670SOL    HW128643   1.757   2.487   6.819 -0.0006  0.5032 -0.3806
 5670SOL    HW228644   1.608   2.490   6.850  1.1706  1.9032 -0.6484
 5671SOL     OW28645   3.438   4.015   2.311 -0.2099  0.0086 -0.2480
 5671SOL    HW128646   3.499   3.970   2.253  1.4497  0.6500  0.9798
 5671SOL    HW228647   3.485   4.098   2.321 -0.0712 -0.5644  3.7314
 5672SOL     OW28648   3.123   3.972   2.778 -0.0584  0.7580  0.1537
 5672SOL    HW128649   3.112   3.918   2.700  2.4085  1.5661 -0.7697
 5672SOL    HW228650   3.165   4.048   2.737 -1.5754  0.3991 -2.0769
 5673SOL     OW28651   2.577   2.377   1.840  0.1125 -0.2844 -0.1710
 5673SOL    HW128652   2.552   2.293   1.880 -0.5451  0.1451  0.3142
 5673SOL    HW228653   2.671   2.360   1.845  0.2009  0.2022 -0.2521
 5674SOL     OW28654   3.428   3.884   1.723 -0.2119  0.3284  0.0345
 5674SOL    HW128655   3.438   3.942   1.648 -0.5514 -2.2152 -1.9810
 5674SOL    HW228656   3.354   3.928   1.766  0.2790  1.6729 -0.4968
 5675SOL     OW28657   0.346   0.855   9.075 -0.1770  0.0635 -0.0746
 5675SOL    HW128658   0.316   0.784   9.132 -0.3245  0.6256  0.5473
 5675SOL    HW228659   0.302   0.928   9.119 -1.9704 -1.5859  0.8827
 5676SOL     OW28660   1.889   0.479   8.483  0.7814  0.2095 -0.0481
 5676SOL    HW128661   1.890   0.468   8.578  2.0799  1.4963  0.0942
 5676SOL    HW228662   1.952   0.548   8.460  0.1445  0.9965  0.5522
 5677SOL     OW28663   3.802   2.588   2.800 -0.5453 -0.0657 -0.8388
 5677SOL    HW128664   3.759   2.666   2.766  0.1237  0.5926 -0.1825
 5677SOL    HW228665   3.802   2.604   2.895  3.5473 -1.4896 -0.6037
 5678SOL     OW28666   1.919   2.734   7.210  0.2332 -0.1561 -0.4431
 5678SOL    HW128667   1.978   2.660   7.196 -0.0272 -0.6826  1.2017
 5678SOL    HW228668   1.833   2.705   7.181 -0.5336 -0.1487  1.8038
 5679SOL     OW28669   1.370   3.379  11.794  0.3147 -0.0366  0.0087
 5679SOL    HW128670   1.311   3.434  11.743  0.8594 -0.6356 -1.2519
 5679SOL    HW228671   1.305   3.353  11.860  0.6434 -1.5638 -0.2883
 5680SOL     OW28672   1.201   0.297  15.336  0.1393  0.2791  0.6240
 5680SOL    HW128673   1.268   0.244  15.293  0.7638  0.8740  0.8691
 5680SOL    HW228674   1.250   0.361  15.388  0.6407  0.4677 -0.0960
 5681SOL     OW28675   0.401   2.227   9.383 -0.3903 -0.5928  0.4104
 5681SOL    HW128676   0.416   2.304   9.438  1.2303 -0.0433 -0.7832
 5681SOL    HW228677   0.485   2.185   9.403  0.4912 -0.0700 -2.2085
 5682SOL     OW28678   1.088   1.478   9.530  0.9315  0.2921 -0.0483
 5682SOL    HW128679   1.039   1.436   9.601  1.3945 -0.6529 -0.2993
 5682SOL    HW228680   1.169   1.427   9.536  0.9163  0.1869 -0.7807
 5683SOL     OW28681   4.379   3.251  16.753  0.3027  0.2187 -0.0151
 5683SOL    HW128682   4.284   3.260  16.741  0.3215 -2.1474 -2.0388
 5683SOL    HW228683   4.401   3.192  16.680  1.0859  0.4895  0.0134
 5684SOL     OW28684   1.388   2.682  17.192  0.4407 -0.2446  0.4099
 5684SOL    HW128685   1.373   2.724  17.107 -1.2886 -0.1304  0.7782
 5684SOL    HW228686   1.398   2.750  17.258 -0.5585  1.7194 -1.4462
 5685SOL     OW28687   2.689   1.558  15.520 -0.1061 -0.0194  0.0684
 5685SOL    HW128688   2.770   1.524  15.558 -0.2934 -0.5231  0.0097
 5685SOL    HW228689   2.683   1.497  15.447  3.2592  1.0022 -1.0500
 5686SOL     OW28690   3.094   3.981   5.254 -0.7945  0.1245 -0.0738
 5686SOL    HW128691   3.162   4.030   5.207 -1.9402  1.6415 -0.1429
 5686SOL    HW228692   3.019   4.030   5.219 -1.0747 -0.5797 -0.4525
 5687SOL     OW28693   1.395   1.981  12.816 -0.5829  0.5766  0.2442
 5687SOL    HW128694   1.300   1.974  12.802 -0.4677 -2.2117  0.9720
 5687SOL    HW228695   1.413   2.075  12.819  1.5829  0.1872 -0.4213
 5688SOL     OW28696   1.835   0.395   2.760 -0.0872  0.5007 -0.0053
 5688SOL    HW128697   1.795   0.438   2.835 -1.3906  0.4374 -0.6506
 5688SOL    HW228698   1.839   0.465   2.694  0.1614  1.2448  0.8040
 5689SOL     OW28699   2.218   1.892   5.329  0.2866  0.0019 -0.3153
 5689SOL    HW128700   2.195   1.970   5.278 -2.5148 -0.1935  0.6190
 5689SOL    HW228701   2.273   1.931   5.396  2.2378 -1.3245 -1.1442
 5690SOL     OW28702   4.038   1.657   1.201  0.0979 -0.2475  0.0751
 5690SOL    HW128703   4.025   1.580   1.257 -0.0051 -0.7803 -0.6902
 5690SOL    HW228704   4.114   1.698   1.242 -2.0038  0.2140  3.5321
 5691SOL     OW28705   2.221   1.654   5.190 -0.7261 -0.0210 -0.3680
 5691SOL    HW128706   2.201   1.726   5.249 -2.5389 -0.0487 -0.9299
 5691SOL    HW228707   2.197   1.570   5.231  0.5963  0.0184  0.4625
 5692SOL     OW28708   4.549   2.024  17.661 -0.6925  0.1883  0.1433
 5692SOL    HW128709   4.565   1.950  17.602 -2.7207 -0.4613  0.3991
 5692SOL    HW228710   4.491   1.976  17.721  0.2831 -1.2499 -0.0603
 5693SOL     OW28711   4.356   0.984   4.421 -0.3798 -0.3047  0.5863
 5693SOL    HW128712   4.333   0.898   4.388  0.1608 -0.0294 -0.5057
 5693SOL    HW228713   4.285   1.004   4.482 -2.0750  0.9317 -1.8013
 5694SOL     OW28714   1.423   0.607   8.719  0.2681  0.1003  0.7893
 5694SOL    HW128715   1.406   0.620   8.625  0.4392  0.1375  0.7627
 5694SOL    HW228716   1.371   0.529   8.739  0.6423 -1.1212 -2.9205
 5695SOL     OW28717   4.534   2.155  10.201 -0.0422 -0.2400 -0.0093
 5695SOL    HW128718   4.440   2.136  10.196 -0.2942  1.8618 -3.2673
 5695SOL    HW228719   4.543   2.166  10.295 -0.3300  2.0321 -0.2373
 5696SOL     OW28720   0.494   0.412   4.281 -0.3503 -0.3298  0.1812
 5696SOL    HW128721   0.490   0.381   4.190  1.3215 -1.4728  0.4922
 5696SOL    HW228722   0.583   0.398   4.313 -0.0729  0.2976 -0.3167
 5697SOL     OW28723   3.092   2.007   3.031  0.0761  0.1673 -0.0918
 5697SOL    HW128724   3.097   1.993   2.937 -0.2862  1.1891 -0.2544
 5697SOL    HW228725   3.028   1.941   3.058  0.5002 -0.5472 -0.8564
 5698SOL     OW28726   3.001   1.835  15.716 -0.2059  0.5340 -0.5252
 5698SOL    HW128727   3.032   1.774  15.649  1.0767 -1.2522  1.7138
 5698SOL    HW228728   2.914   1.842  15.676 -0.2712 -2.6600 -0.9170
 5699SOL     OW28729   2.035   3.173   3.338 -0.3380  0.0951  0.2825
 5699SOL    HW128730   1.980   3.251   3.337  1.7112  1.5502  1.6517
 5699SOL    HW228731   2.026   3.146   3.429  2.8761 -0.0204  0.5788
 5700SOL     OW28732   0.177   1.159  10.292 -0.0942  0.3115 -0.2304
 5700SOL    HW128733   0.245   1.224  10.307  0.5644 -0.3166 -0.4727
 5700SOL    HW228734   0.122   1.191  10.363 -0.7215 -1.2263 -0.0275
 5701SOL     OW28735   3.212   0.135   2.187 -0.0924 -0.2175  0.0123
 5701SOL    HW128736   3.186   0.086   2.109  0.1658 -0.4336  0.0642
 5701SOL    HW228737   3.249   0.065   2.240 -0.1071  0.9853  1.5986
 5702SOL     OW28738   4.007   1.729  17.323 -0.0240 -0.0220  0.4827
 5702SOL    HW128739   3.991   1.749  17.231 -0.8914 -1.2871  0.3554
 5702SOL    HW228740   4.031   1.637  17.326  0.6743  0.1759  0.9399
 5703SOL     OW28741   2.826   0.400  16.152 -0.2681 -0.4450 -0.2743
 5703SOL    HW128742   2.753   0.351  16.113 -1.2019  0.6120  0.1503
 5703SOL    HW228743   2.898   0.394  16.089  0.2300 -0.1806  0.2720
 5704SOL     OW28744   4.165   4.297   9.009 -0.2660  0.0017 -0.4089
 5704SOL    HW128745   4.224   4.355   8.960  0.0664 -0.1584 -0.1961
 5704SOL    HW228746   4.195   4.213   8.973 -0.2908 -0.1259 -0.1316
 5705SOL     OW28747   4.224   3.904  11.502  0.2355  0.7964 -0.0665
 5705SOL    HW128748   4.318   3.913  11.514  0.3432 -0.9034  0.3437
 5705SOL    HW228749   4.216   3.813  11.531  1.6338  1.2659  1.7746
 5706SOL     OW28750   0.198   0.432   6.003  0.2747 -0.2798  0.2915
 5706SOL    HW128751   0.289   0.403   6.014  0.6612  0.5832 -0.6736
 5706SOL    HW228752   0.197   0.416   5.909  0.1821  0.4233  0.1735
 5707SOL     OW28753   1.819   3.087   8.739 -0.5659 -0.4543 -0.2094
 5707SOL    HW128754   1.724   3.099   8.745 -0.7225 -1.0617 -1.6352
 5707SOL    HW228755   1.839   3.169   8.785 -0.1907 -0.1413 -0.9310
 5708SOL     OW28756   4.251   1.577  12.128  0.0686  0.1523  0.1389
 5708SOL    HW128757   4.252   1.559  12.221 -1.4632  0.6481  0.2579
 5708SOL    HW228758   4.157   1.584  12.108 -0.0057 -0.3913  0.3006
 5709SOL     OW28759   1.902   4.443   1.853 -0.4040 -0.3097  0.2712
 5709SOL    HW128760   1.833   4.394   1.807 -0.4117 -1.1584  1.1801
 5709SOL    HW228761   1.905   4.520   1.796  0.9066 -0.0245  0.7290
 5710SOL     OW28762   4.055   0.002   4.404  0.5572  0.7333  0.0955
 5710SOL    HW128763   4.001   4.699   4.335 -0.2198  2.5237 -0.2759
 5710SOL    HW228764   4.075   0.086   4.362  0.7372  0.4938 -0.2935
 5711SOL     OW28765   4.368   0.791   3.323 -0.1571 -0.5089  0.1571
 5711SOL    HW128766   4.370   0.886   3.311  2.4043 -0.3701  1.8223
 5711SOL    HW228767   4.280   0.778   3.288 -0.1180 -2.1924  0.6746
 5712SOL     OW28768   0.889   1.836   3.342 -0.1768 -0.1244  0.1856
 5712SOL    HW128769   0.886   1.748   3.380  1.0956  0.5994  1.9437
 5712SOL    HW228770   0.865   1.819   3.251  1.6557 -1.0087 -0.1400
 5713SOL     OW28771   0.810   0.940   1.582  0.9924 -0.0150  0.2572
 5713SOL    HW128772   0.870   0.880   1.539  1.7264 -0.0926  1.3760
 5713SOL    HW228773   0.855   0.949   1.666 -0.3882  0.7239  0.9221
 5714SOL     OW28774   2.488   1.072   0.787 -0.4871  0.2606 -0.0457
 5714SOL    HW128775   2.401   1.086   0.749 -1.2655 -2.6941  0.6246
 5714SOL    HW228776   2.531   1.008   0.729  0.1237  1.4061 -0.8529
 5715SOL     OW28777   2.840   3.330   4.438  0.1886 -0.4047 -0.0341
 5715SOL    HW128778   2.803   3.255   4.391  1.2478 -0.3843 -0.8975
 5715SOL    HW228779   2.815   3.317   4.530  2.3181 -2.4411  0.2724
 5716SOL     OW28780   3.342   4.083   7.280  1.0011  0.2490 -0.0045
 5716SOL    HW128781   3.255   4.052   7.305  0.4608 -0.0060 -2.1987
 5716SOL    HW228782   3.392   4.081   7.361 -0.6497  2.7988  1.0819
 5717SOL     OW28783   1.058   1.949  11.021  0.3556  0.3683 -0.1147
 5717SOL    HW128784   1.147   1.938  11.053  0.7877  0.8237 -1.1930
 5717SOL    HW228785   0.993   1.937  11.091 -2.3375 -1.4782 -2.9123
 5718SOL     OW28786   2.777   1.132  15.277  0.0501 -0.1535  0.2143
 5718SOL    HW128787   2.722   1.093  15.345 -1.7376  0.1066 -1.0958
 5718SOL    HW228788   2.786   1.053  15.223 -1.2187  1.2652 -2.0912
 5719SOL     OW28789   1.947   2.622   8.482 -0.3899  0.0587  0.0369
 5719SOL    HW128790   1.900   2.698   8.516 -2.7191 -1.2508 -0.2291
 5719SOL    HW228791   1.934   2.635   8.388  0.1520 -1.3239 -0.2347
 5720SOL     OW28792   1.591   2.897   2.395 -0.3308  0.1227 -0.0628
 5720SOL    HW128793   1.505   2.856   2.405 -0.7666  1.7919  2.8778
 5720SOL    HW228794   1.569   2.990   2.386  1.8374  0.6301 -0.0402
 5721SOL     OW28795   0.407   1.683   8.912 -0.1020 -0.2212  0.2367
 5721SOL    HW128796   0.315   1.711   8.915 -0.0232  0.3589 -2.3767
 5721SOL    HW228797   0.402   1.590   8.889  2.6132 -0.3741  0.2208
 5722SOL     OW28798   4.724   1.854   4.900  0.0458 -0.4376  0.2195
 5722SOL    HW128799   4.676   1.934   4.920 -0.8420 -1.2351  1.2743
 5722SOL    HW228800   4.679   1.793   4.957 -0.9915 -0.2149 -0.3668
 5723SOL     OW28801   1.803   4.223   2.693 -0.4928 -0.2439  0.1362
 5723SOL    HW128802   1.741   4.154   2.669 -0.4824 -0.2114  0.0182
 5723SOL    HW228803   1.837   4.244   2.607  1.3281  0.4286  1.0232
 5724SOL     OW28804   3.689   2.909   5.467  0.2730 -0.4366  0.2300
 5724SOL    HW128805   3.654   2.951   5.546  0.0628 -2.0231  1.0013
 5724SOL    HW228806   3.759   2.857   5.506  0.1812 -1.5607 -1.1098
 5725SOL     OW28807   1.715   0.659  15.014 -0.5342 -0.7559 -1.0383
 5725SOL    HW128808   1.701   0.578  14.966  0.9688 -0.9738 -1.1030
 5725SOL    HW228809   1.774   0.713  14.962 -0.3548 -1.3575 -1.4605
 5726SOL     OW28810   3.133   1.964  15.049  0.7415  0.0947 -0.1022
 5726SOL    HW128811   3.190   1.895  15.014  1.3646  1.3549 -1.5419
 5726SOL    HW228812   3.111   1.936  15.138 -2.9247  0.7585 -0.7894
 5727SOL     OW28813   0.826   4.288  12.040  0.4552  0.9776 -0.0971
 5727SOL    HW128814   0.860   4.303  11.952  2.0255 -1.9150  0.0147
 5727SOL    HW228815   0.879   4.216  12.075 -0.5634 -0.5654 -1.8067
 5728SOL     OW28816   4.691   1.463   9.061  0.6542  0.0704 -0.0850
 5728SOL    HW128817   4.678   1.483   8.968  1.0332 -0.8010 -0.3227
 5728SOL    HW228818   0.003   1.379   9.058  1.8435  0.7815 -1.6496
 5729SOL     OW28819   4.216   0.595   8.229 -0.2186 -0.0821  0.4495
 5729SOL    HW128820   4.147   0.658   8.251  2.3398  3.3805 -1.3394
 5729SOL    HW228821   4.160   0.518   8.227 -1.1050  0.5772  0.2331
 5730SOL     OW28822   2.573   3.152  12.327 -0.2006  0.1782 -0.8698
 5730SOL    HW128823   2.545   3.221  12.266 -1.4518 -0.1032 -0.6119
 5730SOL    HW228824   2.490   3.113  12.352  0.5970 -0.5612  0.6056
 5731SOL     OW28825   2.577   2.488   4.300 -0.1616  0.4812  0.3015
 5731SOL    HW128826   2.563   2.533   4.383 -2.5871  0.4470 -0.1113
 5731SOL    HW228827   2.618   2.558   4.249 -1.7985 -0.7546 -2.6678
 5732SOL     OW28828   4.363   1.206  12.716 -0.7001  0.2171 -0.2000
 5732SOL    HW128829   4.438   1.248  12.674 -0.5683 -1.4994 -1.6837
 5732SOL    HW228830   4.319   1.277  12.763 -1.8092 -1.6980  1.6637
 5733SOL     OW28831   3.820   1.598   8.392 -0.1424  0.5972 -0.2227
 5733SOL    HW128832   3.728   1.617   8.411 -0.1541 -1.5921  2.0431
 5733SOL    HW228833   3.814   1.522   8.450 -2.2700  0.6704 -0.3397
 5734SOL     OW28834   1.129   2.701   0.193 -0.0109 -0.6567 -0.2712
 5734SOL    HW128835   1.058   2.740   0.244  0.9602  0.6065  0.0904
 5734SOL    HW228836   1.153   2.762   0.123 -2.8596 -1.8384 -2.3050
 5735SOL     OW28837   1.559   3.640   6.837 -0.2164 -0.8417  1.0354
 5735SOL    HW128838   1.475   3.601   6.862 -0.6956  0.0372  0.8073
 5735SOL    HW228839   1.622   3.586   6.885  1.1835 -0.7529 -0.6697
 5736SOL     OW28840   2.827   2.973   7.254  0.2361 -0.0563  0.5603
 5736SOL    HW128841   2.904   2.942   7.205  0.0618  0.2923  0.0601
 5736SOL    HW228842   2.837   3.068   7.250 -1.9092  0.1627  0.4046
 5737SOL     OW28843   4.150   1.200   5.382 -0.0243  0.1984  0.3278
 5737SOL    HW128844   4.231   1.177   5.336 -0.3273  2.4841 -1.3522
 5737SOL    HW228845   4.097   1.243   5.315 -0.0094  2.5256  1.7985
 5738SOL     OW28846   4.144   3.618   5.720 -0.0014  0.2626 -0.7293
 5738SOL    HW128847   4.077   3.628   5.652  0.0493  0.2850 -0.7760
 5738SOL    HW228848   4.132   3.701   5.766  0.0176 -0.2031  0.0958
 5739SOL     OW28849   3.857   0.147   5.860 -0.2162  0.0902 -0.0172
 5739SOL    HW128850   3.864   0.182   5.949 -4.0449 -1.0995  0.7534
 5739SOL    HW228851   3.905   0.212   5.809  1.1667  0.5160  1.8360
 5740SOL     OW28852   0.815   4.420   3.801  0.2725 -0.2675  0.3539
 5740SOL    HW128853   0.897   4.378   3.774 -0.0244 -0.1595 -0.7157
 5740SOL    HW228854   0.779   4.353   3.859 -1.9519  2.1019  1.7266
 5741SOL     OW28855   0.680   3.464   8.059  0.0712  0.0677 -0.5028
 5741SOL    HW128856   0.593   3.454   8.019 -0.8680  0.6343  1.3787
 5741SOL    HW228857   0.657   3.469   8.152 -0.6007 -3.4858 -0.4983
 5742SOL     OW28858   2.229   2.856   4.268 -0.8517 -0.0513 -0.6960
 5742SOL    HW128859   2.135   2.849   4.288 -0.5089  0.5874  1.1132
 5742SOL    HW228860   2.243   2.874   4.175 -1.0512 -1.3125 -0.9718
 5743SOL     OW28861   2.902   3.674   2.744 -0.5676 -0.3587 -0.5811
 5743SOL    HW128862   2.877   3.766   2.752 -0.6458 -0.2482 -2.2030
 5743SOL    HW228863   2.942   3.665   2.831 -2.8649 -0.1545  0.5090
 5744SOL     OW28864   1.954   2.392  16.295 -0.0259 -0.0820  0.2962
 5744SOL    HW128865   1.964   2.486  16.280  0.0652  0.0201  0.9933
 5744SOL    HW228866   1.994   2.387  16.381 -1.2723 -0.4328  0.8573
 5745SOL     OW28867   3.672   0.719   4.430 -0.0095  0.1072 -0.0161
 5745SOL    HW128868   3.699   0.753   4.345  2.1016  0.7489  0.9212
 5745SOL    HW228869   3.598   0.777   4.451 -0.3805 -1.2246  2.3345
 5746SOL     OW28870   4.216   1.634  16.828  0.2716 -0.1042 -0.3669
 5746SOL    HW128871   4.194   1.726  16.811 -0.5411 -0.1497  0.4254
 5746SOL    HW228872   4.180   1.587  16.754 -0.9318 -0.2563  0.3096
 5747SOL     OW28873   0.409   4.182   0.272 -0.0986 -0.6068  0.1036
 5747SOL    HW128874   0.350   4.202   0.344 -0.5418  2.3235 -1.0483
 5747SOL    HW228875   0.370   4.103   0.235 -0.5234 -1.7098  2.9209
 5748SOL     OW28876   0.282   0.800   6.038 -0.3454 -0.0137 -0.2656
 5748SOL    HW128877   0.370   0.764   6.031 -0.9614 -1.2836 -1.5131
 5748SOL    HW228878   0.269   0.772   6.129 -0.8130 -2.1758 -1.0102
 5749SOL     OW28879   2.401   0.667   9.495  0.8608  0.2269 -0.0260
 5749SOL    HW128880   2.366   0.633   9.413  1.4932 -0.2889 -0.0835
 5749SOL    HW228881   2.486   0.622   9.501  0.1405 -1.3872 -2.0823
 5750SOL     OW28882   3.246   1.623   4.562 -0.6284  0.3321  0.6302
 5750SOL    HW128883   3.201   1.674   4.494 -0.7260 -0.2146  0.2823
 5750SOL    HW228884   3.172   1.594   4.616 -1.7682  0.7697 -0.6760
 5751SOL     OW28885   2.721   0.517  10.504 -0.6708  0.1586 -0.1362
 5751SOL    HW128886   2.741   0.607  10.480  0.4642  0.9725  3.7944
 5751SOL    HW228887   2.714   0.479  10.417  1.3347  1.8506 -1.0305
 5752SOL     OW28888   3.569   1.433   2.907  0.4274  0.7113  0.2404
 5752SOL    HW128889   3.525   1.412   2.825 -0.6597  2.6211  0.3260
 5752SOL    HW228890   3.505   1.494   2.946 -0.9398 -1.7082  1.7911
 5753SOL     OW28891   1.934   3.768   4.753 -0.6762  0.3496  0.5883
 5753SOL    HW128892   1.883   3.753   4.673 -0.9780 -0.6892  0.9799
 5753SOL    HW228893   1.875   3.725   4.815  1.4693 -0.1709  2.2648
 5754SOL     OW28894   2.821   3.264  12.313  0.2500  0.2956  0.1850
 5754SOL    HW128895   2.793   3.349  12.279  1.0141  1.4021  2.2992
 5754SOL    HW228896   2.738   3.216  12.319 -0.5110  1.5661 -0.1026
 5755SOL     OW28897   4.225   0.081  10.018 -0.1264 -0.8207  0.2197
 5755SOL    HW128898   4.272   0.056   9.939 -0.8214  0.5078 -0.6216
 5755SOL    HW228899   4.299   0.121  10.064  0.6217 -2.2233  0.2555
 5756SOL     OW28900   1.423   4.289   4.312 -0.1670 -0.3602  0.0745
 5756SOL    HW128901   1.461   4.317   4.229  2.0446 -1.2386  0.8028
 5756SOL    HW228902   1.333   4.320   4.305  0.1870  0.5015 -0.5698
 5757SOL     OW28903   0.092   4.692  13.138  0.0381  0.6377  0.2267
 5757SOL    HW128904   0.174   4.673  13.183 -1.1317 -0.9996  1.6695
 5757SOL    HW228905   0.122   4.715  13.051  0.0209  0.5774  0.2048
 5758SOL     OW28906   0.827   1.540  14.146  0.0807  0.4472  0.2513
 5758SOL    HW128907   0.905   1.564  14.096 -1.8413  2.3702 -1.8171
 5758SOL    HW228908   0.859   1.472  14.205 -2.2986 -0.3380  0.6124
 5759SOL     OW28909   1.479   2.076  13.346 -0.3422  0.5317 -0.1009
 5759SOL    HW128910   1.426   2.029  13.283  1.9161 -1.7747 -0.2859
 5759SOL    HW228911   1.560   2.030  13.326 -2.0773 -2.1616 -0.8883
 5760SOL     OW28912   2.979   3.130   8.034 -0.1302 -0.1905  0.5806
 5760SOL    HW128913   2.983   3.184   8.113 -2.0929  0.4283  0.2577
 5760SOL    HW228914   3.060   3.162   7.994 -0.7996 -0.8698 -1.2871
 5761SOL     OW28915   2.511   0.698   7.060 -0.7088  0.4314 -0.3799
 5761SOL    HW128916   2.427   0.655   7.073  0.2609 -0.6408  2.2342
 5761SOL    HW228917   2.494   0.784   7.099 -1.5638 -0.0899  0.3930
 5762SOL     OW28918   0.731   2.852   9.394  0.1118  0.4074  0.2113
 5762SOL    HW128919   0.662   2.867   9.458  1.7163  1.9193  1.6002
 5762SOL    HW228920   0.721   2.926   9.333 -0.7645 -0.2105 -0.3824
 5763SOL     OW28921   1.846   0.130  14.333 -0.5226  0.1486 -0.2873
 5763SOL    HW128922   1.776   0.191  14.310 -0.8205  0.3129  1.0108
 5763SOL    HW228923   1.811   0.050  14.295 -0.5914  0.8578 -1.6928
 5764SOL     OW28924   3.927   1.037  12.263 -0.0742  0.4233  0.3430
 5764SOL    HW128925   4.004   1.048  12.207  0.7155  0.7478  1.4824
 5764SOL    HW228926   3.964   1.010  12.347 -2.3337  2.4849  2.0145
 5765SOL     OW28927   0.987   1.325   3.811 -0.3522 -0.2629 -0.4146
 5765SOL    HW128928   0.986   1.354   3.719 -0.6627  2.0442  0.3051
 5765SOL    HW228929   1.009   1.232   3.806 -2.2095 -0.7509  0.3504
 5766SOL     OW28930   3.798   4.689   6.612 -0.2821 -0.6426  0.5911
 5766SOL    HW128931   3.866   4.655   6.671  1.3693 -1.3152 -1.7110
 5766SOL    HW228932   3.795   4.613   6.554 -0.9116 -1.0256  1.1107
 5767SOL     OW28933   1.798   1.263  14.588  0.2605  0.4064 -0.1357
 5767SOL    HW128934   1.867   1.214  14.634  0.5697  1.3190  0.3969
 5767SOL    HW228935   1.765   1.207  14.518  2.9688 -0.4023 -0.7537
 5768SOL     OW28936   2.442   4.532   3.435  0.4519  0.4268 -0.1117
 5768SOL    HW128937   2.427   4.576   3.519 -0.9782  1.9220 -1.1787
 5768SOL    HW228938   2.361   4.541   3.385 -1.1902 -3.9895  1.7482
 5769SOL     OW28939   3.879   4.345   5.380  0.1177 -0.1250  0.6660
 5769SOL    HW128940   3.889   4.302   5.295 -0.7090  0.0626  0.4703
 5769SOL    HW228941   3.791   4.319   5.407 -0.2756  2.3885  1.8875
 5770SOL     OW28942   3.786   4.596   5.702 -0.0697 -0.2269  0.4437
 5770SOL    HW128943   3.753   4.662   5.762  0.0600 -0.0438  0.3173
 5770SOL    HW228944   3.754   4.518   5.746 -0.3889 -0.2490  0.1737
 5771SOL     OW28945   0.985   3.715   6.600  0.4217 -0.4704  0.1373
 5771SOL    HW128946   0.922   3.773   6.557 -0.2261 -2.5126 -1.6489
 5771SOL    HW228947   0.956   3.727   6.690  1.1439 -0.1513  0.3242
 5772SOL     OW28948   4.195   3.486  13.565 -0.3006 -0.0988  0.1264
 5772SOL    HW128949   4.135   3.502  13.492  1.9626  0.0679 -1.7315
 5772SOL    HW228950   4.208   3.394  13.543  0.9636  0.4108 -1.2596
 5773SOL     OW28951   3.275   2.649  10.865 -0.1028 -0.0762 -0.2136
 5773SOL    HW128952   3.297   2.613  10.951  0.0156  2.4142  0.8080
 5773SOL    HW228953   3.319   2.584  10.810  1.0368  0.3059  0.2545
 5774SOL     OW28954   1.150   2.877  17.719 -0.1381  0.1017 -0.3786
 5774SOL    HW128955   1.198   2.841  17.645  0.0332 -0.0555 -0.1927
 5774SOL    HW228956   1.086   2.922  17.664  1.9301  1.3315 -1.7556
 5775SOL     OW28957   1.887   4.017   7.575  1.1489 -1.4859 -0.0865
 5775SOL    HW128958   1.854   3.988   7.660 -1.5882  1.8850  0.0146
 5775SOL    HW228959   1.808   4.047   7.530  2.7887 -0.1764 -2.0936
 5776SOL     OW28960   0.986   4.289   2.746  0.1551 -0.0287  0.2038
 5776SOL    HW128961   0.939   4.234   2.682 -0.2745  2.0373 -1.2495
 5776SOL    HW228962   1.051   4.331   2.690  0.2872  1.0323  1.1811
 5777SOL     OW28963   1.362   3.432   7.664 -0.1016  0.0034  0.2613
 5777SOL    HW128964   1.412   3.372   7.607 -1.3678 -0.6408 -0.1686
 5777SOL    HW228965   1.271   3.413   7.642 -0.4173 -2.0108  3.3702
 5778SOL     OW28966   3.058   1.402  12.020  0.3394  0.0211  0.5534
 5778SOL    HW128967   3.031   1.486  12.058  2.8375  1.3662 -0.6230
 5778SOL    HW228968   3.112   1.433  11.946  1.0969 -3.3399 -0.2809
 5779SOL     OW28969   3.905   3.321   6.723  0.3369  0.0732 -0.1916
 5779SOL    HW128970   3.830   3.335   6.665  1.4635 -0.8641 -1.8417
 5779SOL    HW228971   3.864   3.330   6.809  0.7766  1.4971 -0.1243
 5780SOL     OW28972   4.032   1.219   6.530  0.2136  0.1517  0.1026
 5780SOL    HW128973   4.077   1.188   6.608  1.5979  1.5919 -0.1320
 5780SOL    HW228974   4.093   1.280   6.490  0.8979 -1.4427 -1.3098
 5781SOL     OW28975   1.378   3.406   5.104 -0.5377  0.2168 -0.5683
 5781SOL    HW128976   1.372   3.315   5.134 -0.2831  0.8271  1.3354
 5781SOL    HW228977   1.429   3.399   5.024  0.1764 -1.8577  0.0708
 5782SOL     OW28978   0.351   4.491   3.996  0.1996  0.5083 -0.5434
 5782SOL    HW128979   0.421   4.524   3.939  0.5986 -0.8636 -0.8368
 5782SOL    HW228980   0.341   4.568   4.052  0.8852 -0.7553  1.3092
 5783SOL     OW28981   2.245   3.648   5.503 -0.4091  0.0369  0.3530
 5783SOL    HW128982   2.224   3.555   5.506  1.8059 -0.5202 -1.0268
 5783SOL    HW228983   2.313   3.652   5.570 -2.6379 -0.0002  2.6101
 5784SOL     OW28984   0.057   2.756  15.222 -0.1766  0.2160 -0.3449
 5784SOL    HW128985   0.047   2.849  15.201  0.0060 -0.1631 -2.1575
 5784SOL    HW228986   0.093   2.767  15.310  1.4070 -1.0018 -0.8408
 5785SOL     OW28987   1.317   3.080  10.268  0.3541 -0.7977  0.2129
 5785SOL    HW128988   1.259   3.036  10.205 -0.0724 -0.3022  0.2622
 5785SOL    HW228989   1.376   3.010  10.296  1.1611  0.5522  1.8827
 5786SOL     OW28990   3.136   3.695  14.958  0.4753 -0.0113  0.8535
 5786SOL    HW128991   3.205   3.757  14.932 -0.0576  0.4896  0.6308
 5786SOL    HW228992   3.157   3.631  14.890  0.4365 -2.0372  2.7604
 5787SOL     OW28993   4.078   2.775   0.244  0.2735 -0.1328 -1.0789
 5787SOL    HW128994   4.097   2.721   0.167  1.1845 -1.8912  0.3754
 5787SOL    HW228995   4.022   2.713   0.291  2.9686 -1.5868  0.1953
 5788SOL     OW28996   1.546   4.383   5.301  0.0484 -0.2757  0.0263
 5788SOL    HW128997   1.540   4.399   5.395 -1.5712 -0.5676 -0.0245
 5788SOL    HW228998   1.454   4.364   5.286 -0.2851  1.1677  0.2390
 5789SOL     OW28999   4.599   0.336  17.060 -0.1966 -0.1758  0.2216
 5789SOL    HW129000   4.616   0.242  17.065 -0.0328 -0.0800  1.4435
 5789SOL    HW229001   4.686   0.356  17.025 -0.4979  2.2439  0.8668
 5790SOL     OW29002   2.888   2.623   9.515  0.3370 -0.5750  0.0346
 5790SOL    HW129003   2.805   2.655   9.550  0.8491  0.2291  0.5194
 5790SOL    HW229004   2.926   2.576   9.589 -0.6479  1.7231  2.0028
 5791SOL     OW29005   0.537   4.480   6.196  0.0449  0.0897  0.6641
 5791SOL    HW129006   0.562   4.414   6.132 -1.1490  0.7680 -0.4938
 5791SOL    HW229007   0.485   4.431   6.260 -0.4596  2.3655  1.9953
 5792SOL     OW29008   4.173   0.674   3.544  0.1931 -0.0251  0.0058
 5792SOL    HW129009   4.243   0.613   3.520  1.5594  1.1491  1.0045
 5792SOL    HW229010   4.223   0.748   3.578  0.9277 -0.9888  1.0038
 5793SOL     OW29011   2.873   3.947   4.609  0.0121  0.0303  0.4709
 5793SOL    HW129012   2.821   4.028   4.613  1.8027  1.2370 -0.6272
 5793SOL    HW229013   2.959   3.984   4.591 -0.0691  0.0207  0.0484
 5794SOL     OW29014   2.172   4.633   5.197 -0.1052  0.0066 -0.2132
 5794SOL    HW129015   2.196   4.612   5.107 -1.2599 -0.6927 -0.3595
 5794SOL    HW229016   2.196   4.726   5.201  1.6266 -0.4153 -1.0822
 5795SOL     OW29017   2.424   3.665   3.734 -0.0905 -0.0276 -0.4229
 5795SOL    HW129018   2.464   3.669   3.647  3.3182  0.5285  1.1906
 5795SOL    HW229019   2.362   3.738   3.726  0.3275  0.1403 -2.0562
 5796SOL     OW29020   3.893   0.161  16.298 -0.0136  0.6694 -0.0635
 5796SOL    HW129021   3.967   0.126  16.348 -2.0914 -0.9240  1.9171
 5796SOL    HW229022   3.917   0.117  16.216  0.9254  0.9214  0.0753
 5797SOL     OW29023   1.941   3.568   3.936  0.1026  0.2034  0.0109
 5797SOL    HW129024   2.013   3.631   3.927  0.5376 -0.0217  1.8990
 5797SOL    HW229025   1.958   3.520   4.017  1.9853  0.6260 -0.1421
 5798SOL     OW29026   0.569   2.218   7.052  0.0815  0.1318  0.7623
 5798SOL    HW129027   0.549   2.136   7.007 -0.6109 -0.3378  1.9115
 5798SOL    HW229028   0.663   2.202   7.058  0.4006  1.7140  0.0829
 5799SOL     OW29029   3.019   1.732   1.596 -0.1303  0.8425 -0.6286
 5799SOL    HW129030   2.976   1.807   1.556 -3.1469 -0.2545  0.5349
 5799SOL    HW229031   3.006   1.742   1.690  1.6522  1.0700 -0.4058
 5800SOL     OW29032   1.255   0.318  10.521  0.8051 -0.0149 -0.0967
 5800SOL    HW129033   1.174   0.280  10.488 -0.6345  2.8481  0.1759
 5800SOL    HW229034   1.303   0.240  10.548 -1.1631 -0.4421  2.0993
 5801SOL     OW29035   4.229   0.742   4.429 -0.9996 -0.1526 -0.5969
 5801SOL    HW129036   4.261   0.748   4.519 -0.1106 -0.1626 -0.9128
 5801SOL    HW229037   4.196   0.653   4.420 -1.5299 -0.0946  0.7053
 5802SOL     OW29038   3.677   3.286   3.285 -0.5867  0.4037 -0.3222
 5802SOL    HW129039   3.658   3.192   3.281 -0.1094  0.1884  2.5058
 5802SOL    HW229040   3.603   3.322   3.235 -2.3199  0.1852  2.1168
 5803SOL     OW29041   0.661   3.993   3.948  0.5358  0.8339 -0.3219
 5803SOL    HW129042   0.707   3.917   3.912 -1.1172 -1.2847  1.9460
 5803SOL    HW229043   0.607   4.033   3.881 -2.2561 -1.5660  0.5073
 5804SOL     OW29044   2.758   0.347  17.585  0.2811  0.3372 -0.0250
 5804SOL    HW129045   2.674   0.391  17.595 -0.2661 -1.0087  1.2700
 5804SOL    HW229046   2.802   0.376  17.665 -1.0851 -2.5788  1.7979
 5805SOL     OW29047   3.765   4.151  14.120 -0.8651 -0.4514  0.0503
 5805SOL    HW129048   3.749   4.229  14.067 -0.2527 -0.4179 -0.0847
 5805SOL    HW229049   3.700   4.173  14.187  0.4625  0.4932  1.0167
 5806SOL     OW29050   4.426   2.853  12.596  0.1115  0.2803 -0.3341
 5806SOL    HW129051   4.432   2.763  12.629  0.6095  1.1108  1.8433
 5806SOL    HW229052   4.416   2.825  12.505 -0.6731  2.5420 -0.9615
 5807SOL     OW29053   4.492   2.562   1.505  0.7432  0.6516  0.2232
 5807SOL    HW129054   4.399   2.583   1.514  0.3829 -0.5489 -0.7236
 5807SOL    HW229055   4.495   2.525   1.417 -0.5302 -1.9008  1.2850
 5808SOL     OW29056   4.655   3.514  15.833 -0.2154 -0.3302 -0.2330
 5808SOL    HW129057   4.585   3.573  15.862  1.3498  0.0281  2.6996
 5808SOL    HW229058   4.626   3.486  15.746  1.8709  0.9168 -1.3550
 5809SOL     OW29059   1.032   2.042   2.852 -0.1816  0.5176 -0.8271
 5809SOL    HW129060   1.051   2.136   2.852 -0.5290  0.5880  0.1902
 5809SOL    HW229061   1.121   2.006   2.856 -0.4004  0.1118  0.2922
 5810SOL     OW29062   1.298   0.260   2.764  0.0429  0.1016 -0.1661
 5810SOL    HW129063   1.383   0.268   2.808  0.8035  1.2793 -1.8352
 5810SOL    HW229064   1.323   0.188   2.706 -0.6663  0.3115 -0.7257
 5811SOL     OW29065   3.444   3.937   3.834  0.5462 -0.6919  0.3775
 5811SOL    HW129066   3.506   3.865   3.835  1.1811 -0.1646 -2.6292
 5811SOL    HW229067   3.403   3.931   3.921  0.0738  0.4514  0.2398
 5812SOL     OW29068   0.055   2.199   8.141 -0.2464 -0.1211 -0.6471
 5812SOL    HW129069   0.063   2.245   8.057 -0.6455 -0.3541 -0.8118
 5812SOL    HW229070   4.703   2.226   8.174 -1.0102 -1.3835 -1.6409
 5813SOL     OW29071   1.571   0.921  15.918  0.3741 -0.1679  0.1152
 5813SOL    HW129072   1.625   0.875  15.854 -0.7995 -1.9098  0.3585
 5813SOL    HW229073   1.494   0.864  15.909  0.2144 -0.0225  0.5576
 5814SOL     OW29074   1.382   0.445   8.081  0.1417  0.9401  0.5545
 5814SOL    HW129075   1.305   0.392   8.061  1.6003 -0.4605 -1.3365
 5814SOL    HW229076   1.441   0.376   8.113 -1.7437 -1.0427 -0.2817
 5815SOL     OW29077   1.143   3.699   4.910  0.4586 -0.5525 -0.1812
 5815SOL    HW129078   1.105   3.771   4.860  0.1158  0.2939  1.3125
 5815SOL    HW229079   1.226   3.737   4.938  1.4408 -2.9402  0.1424
 5816SOL     OW29080   0.605   4.040   1.965 -0.4034 -0.0942  0.5903
 5816SOL    HW129081   0.570   4.124   1.937 -1.3944 -0.4248  0.8296
 5816SOL    HW229082   0.555   4.018   2.043 -1.1025 -0.4228  0.0521
 5817SOL     OW29083   3.623   0.938   7.759  0.0723 -0.3466  0.5747
 5817SOL    HW129084   3.713   0.908   7.774  0.4159 -1.0240 -2.8449
 5817SOL    HW229085   3.629   1.028   7.790  0.1740 -0.3136  0.4551
 5818SOL     OW29086   1.993   0.923  14.870 -0.3876  0.2274 -0.2774
 5818SOL    HW129087   1.978   1.015  14.848 -0.4271  0.5149  0.9422
 5818SOL    HW229088   2.040   0.924  14.954  0.0788 -0.7197 -0.5179
 5819SOL     OW29089   4.236   3.583  10.835 -0.1417  0.2136 -0.5180
 5819SOL    HW129090   4.192   3.531  10.767  0.6535 -0.4340 -0.5371
 5819SOL    HW229091   4.156   3.587  10.888  0.1955  3.8872 -0.3238
 5820SOL     OW29092   4.606   2.467   7.999  0.7383 -0.2720 -0.1745
 5820SOL    HW129093   4.659   2.424   7.932 -1.4373 -0.8781 -1.5021
 5820SOL    HW229094   4.666   2.533   8.035  2.1528 -2.6475  1.8021
 5821SOL     OW29095   2.338   2.297   5.074  0.0401 -0.3606 -0.4749
 5821SOL    HW129096   2.398   2.231   5.037  1.3715  0.8840 -0.5352
 5821SOL    HW229097   2.401   2.361   5.107 -1.0257 -0.1227  1.1124
 5822SOL     OW29098   3.090   3.885   4.924 -0.7080  0.0786 -0.7774
 5822SOL    HW129099   3.053   3.964   4.885  1.1714  0.5088 -1.6525
 5822SOL    HW229100   3.018   3.864   4.984  0.2650 -0.4910  0.2037
 5823SOL     OW29101   1.646   2.205  17.324 -0.3958  0.1932  0.2668
 5823SOL    HW129102   1.588   2.266  17.369 -2.4313 -0.6781 -1.1677
 5823SOL    HW229103   1.624   2.220  17.232  0.8984 -2.2264 -0.4512
 5824SOL     OW29104   2.498   1.049   9.337  0.0538  0.6861 -0.3809
 5824SOL    HW129105   2.477   1.015   9.250  0.0926  0.1783 -0.1914
 5824SOL    HW229106   2.573   1.104   9.316  0.4937  0.3257  0.2437
 5825SOL     OW29107   2.574   0.294   7.781  0.1414  0.0351  0.4396
 5825SOL    HW129108   2.586   0.319   7.872 -0.4158  1.1610  0.2100
 5825SOL    HW229109   2.533   0.208   7.779  0.2710 -0.0254  0.3709
 5826SOL     OW29110   4.280   2.284  16.889 -0.2743  0.2339 -0.1194
 5826SOL    HW129111   4.214   2.246  16.947  0.2473  0.1625  0.4301
 5826SOL    HW229112   4.330   2.203  16.885  0.5171  0.6099  2.2096
 5827SOL     OW29113   3.476   2.975  12.428  0.2977  0.2679 -0.0822
 5827SOL    HW129114   3.478   2.920  12.349  3.5820 -1.0754  0.9712
 5827SOL    HW229115   3.383   2.976  12.451  0.0826  1.2805 -1.0040
 5828SOL     OW29116   1.048   2.697  10.019  0.4830 -0.4134  0.1279
 5828SOL    HW129117   1.016   2.620  10.067 -1.2512  0.3425  0.1979
 5828SOL    HW229118   1.077   2.664   9.934  1.3666  0.3976  0.1205
 5829SOL     OW29119   4.132   0.494   8.928  0.2430  1.1419 -0.6804
 5829SOL    HW129120   4.194   0.489   8.856 -0.1865  0.3897 -0.9998
 5829SOL    HW229121   4.056   0.458   8.883 -0.4771 -0.7373  2.0802
 5830SOL     OW29122   1.170   2.722  17.479  0.6131 -0.4833 -0.0888
 5830SOL    HW129123   1.182   2.648  17.419 -1.2594  0.1652 -1.2665
 5830SOL    HW229124   1.075   2.728  17.466  0.8319  1.2231 -0.8416
 5831SOL     OW29125   0.642   4.101  11.817  0.6876  0.1214  0.3986
 5831SOL    HW129126   0.699   4.166  11.776 -1.2514  1.4399 -0.2000
 5831SOL    HW229127   0.698   4.034  11.856 -0.4294 -1.6172 -1.0199
 5832SOL     OW29128   2.266   3.503   9.438  0.0536 -0.2402 -0.5704
 5832SOL    HW129129   2.312   3.553   9.370  4.6384 -0.6584  2.2182
 5832SOL    HW229130   2.182   3.548   9.433  0.6307  0.8497 -0.3587
 5833SOL     OW29131   0.513   1.493  16.368  0.1038  0.0728  0.4209
 5833SOL    HW129132   0.426   1.532  16.372  0.3143  0.4983  0.9624
 5833SOL    HW229133   0.496   1.406  16.403 -1.5558 -0.1191 -0.8730
 5834SOL     OW29134   2.303   2.639   3.999  0.0865  0.1718  0.7366
 5834SOL    HW129135   2.342   2.557   3.970 -0.5783  0.1017  0.0345
 5834SOL    HW229136   2.373   2.679   4.050  2.0763 -0.4773 -1.5183
 5835SOL     OW29137   2.727   0.975   9.089 -0.1508 -0.4700 -0.0128
 5835SOL    HW129138   2.746   0.961   8.996 -0.0823  0.8370 -0.1955
 5835SOL    HW229139   2.772   0.903   9.133 -0.4405  0.9228  2.5510
 5836SOL     OW29140   2.344   4.467   4.168  0.0647  0.1933  0.1775
 5836SOL    HW129141   2.360   4.439   4.258  1.7166 -1.8560 -0.7375
 5836SOL    HW229142   2.380   4.556   4.172 -0.9183  0.6292 -0.6515
 5837SOL     OW29143   2.718   1.498   8.747  0.4478 -0.2681 -0.7150
 5837SOL    HW129144   2.739   1.592   8.748 -0.5354 -0.0440 -1.5396
 5837SOL    HW229145   2.768   1.470   8.670  0.6250  1.3609 -1.2022
 5838SOL     OW29146   3.506   2.710   4.945  0.2475 -0.2124  0.1373
 5838SOL    HW129147   3.438   2.673   5.001 -0.8090  1.9637  0.2922
 5838SOL    HW229148   3.554   2.752   5.016 -0.3650  1.9726 -0.7306
 5839SOL     OW29149   1.203   3.484   1.603  0.1491 -0.0262 -0.2920
 5839SOL    HW129150   1.188   3.515   1.692 -0.2609  1.4715 -0.8861
 5839SOL    HW229151   1.288   3.440   1.606  0.9833  1.7441  2.3249
 5840SOL     OW29152   3.792   0.378   8.051  0.5594 -0.5114  0.1761
 5840SOL    HW129153   3.852   0.352   7.981  0.8852  0.3747  0.1324
 5840SOL    HW229154   3.729   0.433   8.004  1.1267 -0.4041 -0.4620
 5841SOL     OW29155   1.703   2.812   3.327 -0.1959  0.0576 -0.0475
 5841SOL    HW129156   1.752   2.843   3.403  1.3202  0.9378 -1.3692
 5841SOL    HW229157   1.768   2.829   3.259  0.8048  0.2856  0.9671
 5842SOL     OW29158   3.371   0.621  13.514 -0.1455  0.2224  0.1569
 5842SOL    HW129159   3.325   0.543  13.546 -0.1137 -0.2747 -1.0186
 5842SOL    HW229160   3.461   0.599  13.538 -0.1147 -1.6843 -1.7441
 5843SOL     OW29161   2.099   4.124  13.811  0.3597 -0.2089  0.3406
 5843SOL    HW129162   2.118   4.211  13.777 -1.2355 -1.0243 -2.6175
 5843SOL    HW229163   2.175   4.118  13.869  0.3203 -0.7015  0.3488
 5844SOL     OW29164   1.552   2.002   5.410 -0.3140 -0.0646  0.2878
 5844SOL    HW129165   1.610   1.943   5.457 -0.8895  0.1207  1.2318
 5844SOL    HW229166   1.535   2.079   5.465 -0.8694 -1.2429  1.7659
 5845SOL     OW29167   0.295   4.071   4.235  0.8596 -0.6820 -0.3524
 5845SOL    HW129168   0.308   4.051   4.327 -1.9860  2.9946  0.8356
 5845SOL    HW229169   0.357   4.144   4.230 -0.5647  0.5452 -0.0066
 5846SOL     OW29170   0.082   2.334  15.107  0.2031 -0.9754 -0.0673
 5846SOL    HW129171   0.014   2.284  15.153 -0.9448 -0.2885 -1.0262
 5846SOL    HW229172   0.130   2.375  15.180 -0.5838 -3.4609  1.8507
 5847SOL     OW29173   2.997   3.865  10.071  0.2897 -0.2108 -0.2154
 5847SOL    HW129174   2.929   3.864  10.138  0.3353  0.1901 -0.1587
 5847SOL    HW229175   3.057   3.800  10.108 -1.0187 -1.0418  0.4648
 5848SOL     OW29176   3.727   1.096  11.197 -0.3689 -0.1577  0.5882
 5848SOL    HW129177   3.642   1.110  11.238  0.1929  1.9660  0.9860
 5848SOL    HW229178   3.784   1.074  11.271 -0.2312 -0.8869  0.2716
 5849SOL     OW29179   4.114   3.372  10.697 -0.4969 -0.0409 -0.3395
 5849SOL    HW129180   4.040   3.375  10.758 -0.1776  0.0334  0.0380
 5849SOL    HW229181   4.165   3.301  10.734 -0.1128 -1.5374 -3.7915
 5850SOL     OW29182   4.118   2.353   0.602 -0.4920  0.1979  0.7796
 5850SOL    HW129183   4.190   2.367   0.540 -0.7189 -1.0340  0.2377
 5850SOL    HW229184   4.067   2.297   0.544  1.4246  1.3181 -2.0120
 5851SOL     OW29185   2.333   4.019  15.572 -1.0336  0.0371 -0.9114
 5851SOL    HW129186   2.428   4.018  15.561 -0.9081 -0.3836  0.2950
 5851SOL    HW229187   2.328   3.933  15.612 -1.8532  0.0630 -0.9615
 5852SOL     OW29188   1.751   1.488  13.065 -0.4338  0.2157 -0.1731
 5852SOL    HW129189   1.758   1.437  13.146  1.9844 -3.1214 -2.4945
 5852SOL    HW229190   1.694   1.433  13.012 -0.2291  1.0773 -1.2723
 5853SOL     OW29191   2.312   0.642   4.992  0.1947 -0.3654  0.1867
 5853SOL    HW129192   2.291   0.607   4.905 -0.0701 -1.7930  0.8354
 5853SOL    HW229193   2.406   0.657   4.981 -0.0701 -0.3562 -2.1851
 5854SOL     OW29194   4.699   1.212  15.022 -0.4809 -0.0873  0.7793
 5854SOL    HW129195   0.053   1.183  15.045 -0.2390  0.8753  1.0382
 5854SOL    HW229196   4.649   1.131  15.032  0.6140 -0.6642  1.6084
 5855SOL     OW29197   4.095   4.562   3.071 -0.7958  0.7904 -0.3730
 5855SOL    HW129198   4.109   4.635   3.131 -0.0354 -1.4755  2.1766
 5855SOL    HW229199   4.153   4.588   2.999  1.0551 -0.4725  0.6695
 5856SOL     OW29200   1.640   2.915   6.341 -0.1648 -0.5079  0.0342
 5856SOL    HW129201   1.640   2.853   6.268  0.4449 -0.5773  0.0870
 5856SOL    HW229202   1.709   2.880   6.398  0.0510  3.6230  2.3253
 5857SOL     OW29203   3.423   0.790   4.657 -0.1514  0.3401  0.2257
 5857SOL    HW129204   3.348   0.786   4.717  0.5523 -0.2705  1.0636
 5857SOL    HW229205   3.435   0.697   4.640  1.4118  0.5277  0.3311
 5858SOL     OW29206   4.039   4.150   3.085 -0.1051  0.2234 -0.3781
 5858SOL    HW129207   4.110   4.091   3.058 -1.1146 -0.5725 -1.3380
 5858SOL    HW229208   3.966   4.100   3.047 -0.8096  0.9193  0.0501
 5859SOL     OW29209   2.874   0.446   7.222  0.2455  0.1834 -0.0072
 5859SOL    HW129210   2.823   0.486   7.151 -0.7444 -0.6454  0.2468
 5859SOL    HW229211   2.960   0.447   7.179 -0.5488 -1.6529 -1.5979
 5860SOL     OW29212   1.888   0.049   4.204 -0.1594  0.5156  0.1426
 5860SOL    HW129213   1.817   0.104   4.236 -2.5297 -1.4278 -1.8023
 5860SOL    HW229214   1.877   4.706   4.259  1.2656 -0.9197 -1.5947
 5861SOL     OW29215   0.747   4.561  12.772  0.2402  0.5682  0.4909
 5861SOL    HW129216   0.783   4.602  12.850 -1.5829  0.5215  1.3506
 5861SOL    HW229217   0.768   4.469  12.789 -0.1181  0.1643 -1.2183
 5862SOL     OW29218   1.879   1.945  10.206 -0.9161 -0.0128  0.5192
 5862SOL    HW129219   1.938   1.897  10.265 -2.5389 -0.7866  1.5282
 5862SOL    HW229220   1.801   1.890  10.216  0.1034 -1.8831 -1.5995
 5863SOL     OW29221   2.860   1.490   3.969  0.3656  0.1267 -0.0963
 5863SOL    HW129222   2.862   1.542   3.888  2.2327 -1.4412 -1.0447
 5863SOL    HW229223   2.787   1.536   4.010 -0.2241 -0.3218 -0.6422
 5864SOL     OW29224   2.721   1.483  16.153  0.2669 -0.6029  0.1203
 5864SOL    HW129225   2.805   1.524  16.173 -0.1186  0.7205 -0.9547
 5864SOL    HW229226   2.700   1.531  16.073 -0.4818  0.7397  1.1181
 5865SOL     OW29227   4.579   3.833   9.808  0.4642  0.5630 -0.0645
 5865SOL    HW129228   4.597   3.927   9.809 -1.8416  0.9981  2.3515
 5865SOL    HW229229   4.622   3.791   9.882  2.8017  3.1807  0.0651
 5866SOL     OW29230   4.242   1.100   8.288  0.2210 -0.4693 -0.5996
 5866SOL    HW129231   4.225   1.165   8.356  0.8675 -1.1751  0.2351
 5866SOL    HW229232   4.156   1.087   8.248 -1.1611  0.4407  2.0876
 5867SOL     OW29233   2.237   1.119   9.707 -0.1647 -0.5431 -0.2641
 5867SOL    HW129234   2.312   1.111   9.765  0.3359 -0.8568 -0.9556
 5867SOL    HW229235   2.257   1.043   9.652 -0.9937 -1.4456  0.6810
 5868SOL     OW29236   1.922   1.618  11.390  0.0281  0.0341  0.7454
 5868SOL    HW129237   1.856   1.627  11.459  0.2949  1.6919  0.7847
 5868SOL    HW229238   1.933   1.523  11.390  2.6318  0.3109 -1.6822
 5869SOL     OW29239   3.118   3.174   5.316  0.4857 -0.2221 -0.3595
 5869SOL    HW129240   3.105   3.204   5.406  1.3053 -2.7568  0.6132
 5869SOL    HW229241   3.184   3.106   5.331 -0.3267 -0.6133  1.4857
 5870SOL     OW29242   0.477   4.267   0.952 -0.1266  0.7095 -0.1300
 5870SOL    HW129243   0.440   4.316   0.879  0.0510  0.9476 -0.0639
 5870SOL    HW229244   0.568   4.264   0.923  0.1377 -0.9717  0.8452
 5871SOL     OW29245   4.082   0.851  15.967  0.3636  0.2254  0.4392
 5871SOL    HW129246   4.041   0.928  16.005  0.0453  0.4621 -0.3708
 5871SOL    HW229247   4.009   0.789  15.970 -1.3271  2.0316 -2.7266
 5872SOL     OW29248   0.976   1.933   5.680 -0.1671 -0.2023 -0.4477
 5872SOL    HW129249   0.929   1.996   5.625  1.2794  1.5834  0.3581
 5872SOL    HW229250   0.995   1.867   5.613  0.5186  2.2076 -2.6121
 5873SOL     OW29251   3.492   3.320   7.509 -0.0613 -0.0407 -0.2903
 5873SOL    HW129252   3.502   3.234   7.549  1.0026  0.2889  0.1333
 5873SOL    HW229253   3.580   3.357   7.505 -0.3989  0.9957  1.7599
 5874SOL     OW29254   2.207   4.406   6.489 -0.6193  0.2447  0.3398
 5874SOL    HW129255   2.280   4.393   6.550 -0.5892  1.1946  0.5147
 5874SOL    HW229256   2.249   4.428   6.406 -1.0574  0.4423  0.1663
 5875SOL     OW29257   4.596   2.290   9.964  0.2290 -0.0458  0.2141
 5875SOL    HW129258   4.617   2.245  10.045  0.2808  0.5949  0.5545
 5875SOL    HW229259   4.503   2.309   9.977  0.6856  0.9223  1.9552
 5876SOL     OW29260   1.754   4.449   7.081  0.7900 -0.1410 -0.5774
 5876SOL    HW129261   1.820   4.518   7.092 -0.1449  0.5330  0.8207
 5876SOL    HW229262   1.779   4.385   7.147  0.7068  0.2684 -0.1435
 5877SOL     OW29263   1.496   1.169  15.966 -0.4173  0.1208 -0.6334
 5877SOL    HW129264   1.504   1.082  15.929 -1.5985  0.3722 -1.4895
 5877SOL    HW229265   1.465   1.147  16.054 -0.5275  0.7052 -0.5215
 5878SOL     OW29266   0.484   4.158   5.490  0.0965 -0.2421  0.1930
 5878SOL    HW129267   0.509   4.229   5.549  1.4518 -0.7224  0.1898
 5878SOL    HW229268   0.413   4.121   5.542 -0.3920  0.4917  0.0392
 5879SOL     OW29269   1.861   3.293   3.815  0.7300  0.6189 -0.4223
 5879SOL    HW129270   1.914   3.372   3.827  0.1643  0.8802  0.3373
 5879SOL    HW229271   1.775   3.323   3.844  1.9534  2.9388  0.8496
 5880SOL     OW29272   0.662   0.957  12.058  0.0943 -0.2758 -0.7748
 5880SOL    HW129273   0.657   0.879  12.113  0.7764 -0.4658 -0.9899
 5880SOL    HW229274   0.644   1.023  12.125  0.0456 -0.9769 -0.1074
 5881SOL     OW29275   1.060   2.607  15.697 -0.2754  0.2151  0.7628
 5881SOL    HW129276   1.102   2.555  15.629  1.0858  1.8040  0.3976
 5881SOL    HW229277   1.058   2.695  15.658  4.3455 -0.0964 -0.1661
 5882SOL     OW29278   1.857   4.086   7.859 -0.3497  0.0242  0.3644
 5882SOL    HW129279   1.791   4.045   7.915 -0.0037 -0.9652  0.0646
 5882SOL    HW229280   1.839   4.177   7.881 -0.8047  0.1830 -0.6591
 5883SOL     OW29281   1.589   3.825   0.081 -0.0385  0.5815  0.6701
 5883SOL    HW129282   1.592   3.809   0.175  0.3970 -2.0910  0.2118
 5883SOL    HW229283   1.550   3.744   0.047  0.4692  0.6350 -0.0324
 5884SOL     OW29284   1.338   3.790   9.341 -0.1809  0.2747  0.0463
 5884SOL    HW129285   1.367   3.722   9.402  2.1507  0.6310 -0.6709
 5884SOL    HW229286   1.421   3.835   9.323 -0.5561  0.7883 -0.3695
 5885SOL     OW29287   2.640   3.178  15.878  0.2634 -0.7545 -0.0934
 5885SOL    HW129288   2.717   3.153  15.827 -0.8880 -0.4707 -1.9783
 5885SOL    HW229289   2.649   3.273  15.888  2.0247 -0.6911 -2.1301
 5886SOL     OW29290   2.026   3.264   9.856 -0.1434  0.1683  0.4648
 5886SOL    HW129291   2.048   3.170   9.860 -1.8326 -0.2695 -0.9016
 5886SOL    HW229292   2.111   3.306   9.870 -1.2041  1.2500  3.6539
 5887SOL     OW29293   4.662   4.120   2.748  0.0010 -0.5697  0.3539
 5887SOL    HW129294   4.686   4.031   2.774 -1.7102 -1.6433 -1.7074
 5887SOL    HW229295   4.645   4.113   2.654 -1.4325  1.2541  0.4919
 5888SOL     OW29296   3.114   0.537   2.195 -0.1947 -0.6448  0.2075
 5888SOL    HW129297   3.117   0.600   2.267 -0.2424 -0.7244  0.2807
 5888SOL    HW229298   3.087   0.462   2.248  1.0550 -0.1715  1.5037
 5889SOL     OW29299   1.634   4.640   5.985  0.1140 -0.2047 -0.0682
 5889SOL    HW129300   1.603   4.643   6.075  0.2957  1.4862 -0.0507
 5889SOL    HW229301   1.727   4.659   5.996 -0.6808  3.3168  0.7530
 5890SOL     OW29302   1.041   3.333   3.325 -0.3037  0.4274 -0.6234
 5890SOL    HW129303   1.089   3.293   3.251  0.3095  2.1492 -1.1656
 5890SOL    HW229304   0.954   3.294   3.320  0.1158 -0.4279 -1.2886
 5891SOL     OW29305   1.315   4.203   8.577  0.1041  0.8399 -0.3029
 5891SOL    HW129306   1.308   4.254   8.658 -0.9434  1.3363 -0.7065
 5891SOL    HW229307   1.384   4.251   8.532  0.4303  0.2821 -0.3994
 5892SOL     OW29308   0.758   2.334   5.551 -0.3821  0.1535  0.0705
 5892SOL    HW129309   0.825   2.398   5.526  0.3168 -0.9185 -0.8187
 5892SOL    HW229310   0.726   2.370   5.634 -0.0175  0.2228  0.1827
 5893SOL     OW29311   4.679   0.407  17.322  0.1241 -0.2109 -0.0659
 5893SOL    HW129312   4.632   0.380  17.243 -0.2870 -1.4478  0.6130
 5893SOL    HW229313   4.609   0.462  17.359  0.6963 -0.4188  1.3181
 5894SOL     OW29314   1.042   0.098   2.039 -0.0217 -0.0179 -0.9468
 5894SOL    HW129315   1.016   0.006   2.028 -1.9073  0.5723 -1.4436
 5894SOL    HW229316   1.104   0.110   1.967  0.2520 -1.1084 -0.8945
 5895SOL     OW29317   0.235   1.875   6.386  0.2979  0.2300 -0.0906
 5895SOL    HW129318   0.250   1.900   6.477  3.2872  2.4995 -1.1967
 5895SOL    HW229319   0.313   1.825   6.364 -0.3732 -1.4140  1.2591
 5896SOL     OW29320   1.522   3.274  16.159 -0.1000  0.4983 -0.2551
 5896SOL    HW129321   1.526   3.268  16.064  2.4999 -0.5502 -0.0737
 5896SOL    HW229322   1.486   3.363  16.158 -3.5242 -0.8278  2.6793
 5897SOL     OW29323   4.354   2.865   8.724  0.2245  0.1812  0.4915
 5897SOL    HW129324   4.357   2.956   8.756 -1.7243  0.6433 -0.6432
 5897SOL    HW229325   4.272   2.838   8.767 -0.9377  1.4380 -0.9069
 5898SOL     OW29326   4.148   0.309   7.676 -0.0274 -0.1900 -0.4655
 5898SOL    HW129327   4.170   0.390   7.630 -1.8472 -0.6754 -2.1742
 5898SOL    HW229328   4.188   0.329   7.761  0.5371 -1.2681 -0.4704
 5899SOL     OW29329   1.993   1.566  13.908  0.0955  0.0484 -0.1543
 5899SOL    HW129330   1.923   1.501  13.910  0.8914 -0.7983 -0.0526
 5899SOL    HW229331   1.943   1.643  13.880 -0.3378  0.2874  1.2676
 5900SOL     OW29332   1.287   3.528   2.252  0.6717  0.2350 -0.1100
 5900SOL    HW129333   1.309   3.439   2.225  0.0732  0.6560 -1.9555
 5900SOL    HW229334   1.218   3.544   2.188 -0.9434 -0.6826  1.4096
 5901SOL     OW29335   1.113   0.332   8.869 -0.3967 -0.0197 -0.3037
 5901SOL    HW129336   1.026   0.347   8.908  0.8749  1.7966  1.8583
 5901SOL    HW229337   1.104   0.368   8.780 -0.2199 -0.8845 -0.6652
 5902SOL     OW29338   0.763   0.887   3.045 -0.4185 -0.1915  0.6292
 5902SOL    HW129339   0.845   0.922   3.080 -0.6896  0.1013  0.9841
 5902SOL    HW229340   0.716   0.877   3.128  0.2379  0.7959  1.1251
 5903SOL     OW29341   1.001   1.055   6.275  0.1763 -0.1111 -0.8381
 5903SOL    HW129342   0.941   0.998   6.226  0.0041 -0.2014 -0.5191
 5903SOL    HW229343   1.000   1.009   6.359  0.8720 -0.2055 -0.8801
 5904SOL     OW29344   1.647   3.673  13.955  0.2909 -0.0325 -0.2118
 5904SOL    HW129345   1.587   3.602  13.935 -1.3363  0.9601  1.1739
 5904SOL    HW229346   1.602   3.747  13.913 -0.4309 -2.0772 -3.0311
 5905SOL     OW29347   4.690   4.021   8.947 -1.0700  0.0478 -0.0542
 5905SOL    HW129348   4.605   4.036   8.989 -0.8898  1.7032 -0.2714
 5905SOL    HW229349   4.667   3.943   8.896 -2.0900  0.3732 -0.0943
 5906SOL     OW29350   2.086   0.343   1.721 -0.0101 -0.0425 -0.0181
 5906SOL    HW129351   2.026   0.403   1.675  0.3770 -2.1687 -3.2903
 5906SOL    HW229352   2.079   0.273   1.657  0.8199  0.8854 -1.1182
 5907SOL     OW29353   0.067   3.012   7.007  0.5954 -0.1252 -0.2428
 5907SOL    HW129354   0.140   2.984   7.062  1.2166  0.6240 -0.6889
 5907SOL    HW229355   0.013   3.068   7.063 -0.8940  0.5281 -2.3420
 5908SOL     OW29356   2.882   0.031   1.506  0.3767 -0.7037 -0.1682
 5908SOL    HW129357   2.818   0.094   1.539  0.0789 -1.1101  0.0302
 5908SOL    HW229358   2.911   0.083   1.431 -1.0252  1.8485  1.0679
 5909SOL     OW29359   0.212   1.874  13.680  0.2503 -0.1653  0.7234
 5909SOL    HW129360   0.196   1.780  13.675 -1.1909  0.0806  0.8691
 5909SOL    HW229361   0.241   1.889  13.590  1.3362 -0.2315  1.0551
 5910SOL     OW29362   0.754   4.094   1.065  0.3729  0.2143  0.3370
 5910SOL    HW129363   0.848   4.096   1.086  0.2220  0.2711  1.0021
 5910SOL    HW229364   0.717   4.169   1.112 -0.5445  0.4960 -0.8461
 5911SOL     OW29365   0.872   1.774  15.752  0.7481  0.0306  0.2914
 5911SOL    HW129366   0.896   1.720  15.827 -0.5684 -0.3309  0.4668
 5911SOL    HW229367   0.784   1.803  15.776 -0.3616 -2.1992 -1.0441
 5912SOL     OW29368   3.597   3.787  17.733 -0.1448 -0.0429 -0.6586
 5912SOL    HW129369   3.680   3.745   0.019 -0.7258 -0.2213  1.1155
 5912SOL    HW229370   3.548   3.705  17.728  0.6830 -0.6887  1.6279
 5913SOL     OW29371   3.284   0.447   2.585 -0.0532 -0.3038 -0.0359
 5913SOL    HW129372   3.303   0.407   2.670  1.0353  1.2410  0.4524
 5913SOL    HW229373   3.309   0.384   2.518  0.9185  1.3196 -1.2076
 5914SOL     OW29374   2.710   2.394  12.294  0.0665 -0.2602 -0.0904
 5914SOL    HW129375   2.742   2.391  12.384 -1.1865 -0.3852  0.3463
 5914SOL    HW229376   2.664   2.310  12.292  0.0393 -0.2207 -1.1820
 5915SOL     OW29377   1.981   1.288   1.665  0.2586 -0.1315 -0.4938
 5915SOL    HW129378   1.958   1.195   1.663 -3.7548  0.8442  1.6224
 5915SOL    HW229379   2.025   1.291   1.580  0.6238  1.3853 -0.2546
 5916SOL     OW29380   0.986   1.121   9.341  0.4464  0.5141  0.3011
 5916SOL    HW129381   0.897   1.156   9.350 -0.6035 -2.0713  0.1841
 5916SOL    HW229382   1.003   1.139   9.249 -0.4478  0.1953  0.0728
 5917SOL     OW29383   3.377   0.184  14.765 -0.6307 -0.0036 -1.0625
 5917SOL    HW129384   3.309   0.185  14.832  0.7441  1.1922  0.3295
 5917SOL    HW229385   3.385   0.097  14.727  1.6559  0.5418 -1.8288
 5918SOL     OW29386   3.371   0.747   3.900  0.4090 -0.1170  0.2047
 5918SOL    HW129387   3.391   0.833   3.938  1.3029 -0.3330  0.2267
 5918SOL    HW229388   3.433   0.696   3.952 -0.8557 -1.0616  0.8114
 5919SOL     OW29389   2.487   4.202   9.164 -0.3715  0.1908  0.3911
 5919SOL    HW129390   2.576   4.221   9.194  0.4205 -1.7436 -0.7641
 5919SOL    HW229391   2.499   4.109   9.144 -2.4352  0.3266 -1.4813
 5920SOL     OW29392   4.231   2.734  15.755  0.1340  0.4213 -0.2035
 5920SOL    HW129393   4.184   2.808  15.716  0.6074  0.7777 -0.1016
 5920SOL    HW229394   4.286   2.774  15.823 -0.9546 -1.9710  2.0763
 5921SOL     OW29395   2.994   0.914   0.449  0.4135 -0.1931  0.2769
 5921SOL    HW129396   2.930   0.976   0.484  1.2953  1.3548 -0.8421
 5921SOL    HW229397   2.935   0.839   0.450 -0.2920  0.3527 -0.3326
 5922SOL     OW29398   3.161   2.159  14.543  0.2538  0.3988  0.2225
 5922SOL    HW129399   3.253   2.180  14.527  0.7516 -0.2299  2.3308
 5922SOL    HW229400   3.132   2.234  14.593  1.6823  0.3084  1.1943
 5923SOL     OW29401   0.412   0.130  10.405 -0.2868 -0.4403  0.0844
 5923SOL    HW129402   0.487   0.098  10.454 -0.3872  0.9504  1.1513
 5923SOL    HW229403   0.356   0.053  10.402  0.8334 -1.1828 -1.6051
 5924SOL     OW29404   0.069   1.557  16.198  0.2552  0.0377  0.0429
 5924SOL    HW129405   0.122   1.606  16.261  1.1679 -0.2281 -0.5246
 5924SOL    HW229406   0.101   1.589  16.114 -2.3598  1.3735 -0.4582
 5925SOL     OW29407   2.119   1.135  15.882 -0.5097 -0.3766 -0.2705
 5925SOL    HW129408   2.180   1.097  15.945 -0.0061 -1.1346 -1.2061
 5925SOL    HW229409   2.055   1.065  15.894 -3.0146  1.7479 -1.2663
 5926SOL     OW29410   2.594   4.153   5.327 -0.1854 -0.1244  0.4529
 5926SOL    HW129411   2.567   4.235   5.286  1.9388 -0.1162 -0.9222
 5926SOL    HW229412   2.586   4.177   5.420  1.4460  2.4667 -0.0916
 5927SOL     OW29413   2.392   0.107   5.436 -0.2566 -0.0149  0.0134
 5927SOL    HW129414   2.347   0.192   5.434 -1.4888 -0.7054 -2.4683
 5927SOL    HW229415   2.327   0.063   5.491 -0.4144 -0.1937 -0.3164
 5928SOL     OW29416   0.646   1.269  12.388 -0.3724 -0.4874  0.1417
 5928SOL    HW129417   0.696   1.269  12.306  0.9308  2.1532  0.9484
 5928SOL    HW229418   0.574   1.210  12.365 -0.9668 -1.0204  3.3762
 5929SOL     OW29419   1.020   0.182   6.920 -0.1623 -0.4129  1.0483
 5929SOL    HW129420   0.982   0.190   6.832 -0.9641 -1.0309  1.3423
 5929SOL    HW229421   0.938   0.174   6.968 -1.3765  0.3743 -0.8594
 5930SOL     OW29422   2.066   4.027  12.054  0.1187 -0.0498 -0.5940
 5930SOL    HW129423   1.990   3.984  12.014 -1.4146  2.3202 -0.2671
 5930SOL    HW229424   2.019   4.089  12.110 -0.4575 -1.0127 -0.0129
 5931SOL     OW29425   2.704   2.666  12.559 -0.0059  0.0835 -0.4545
 5931SOL    HW129426   2.761   2.695  12.630 -0.7898 -0.0563  0.2309
 5931SOL    HW229427   2.712   2.742  12.501 -2.7182 -0.3575 -1.4080
 5932SOL     OW29428   1.264   3.800  11.647 -0.8440  0.0067 -0.5946
 5932SOL    HW129429   1.232   3.760  11.727  0.1850 -0.7562 -0.5524
 5932SOL    HW229430   1.347   3.754  11.630  0.1201  1.2241  0.8541
 5933SOL     OW29431   3.595   0.511   1.808  0.1663  0.5284 -0.3171
 5933SOL    HW129432   3.561   0.422   1.820 -1.0671  0.9662 -0.5968
 5933SOL    HW229433   3.555   0.555   1.883  1.5904 -0.5428  1.0798
 5934SOL     OW29434   0.181   3.124   8.058  0.0166  0.3550  0.3273
 5934SOL    HW129435   0.212   3.041   8.096 -0.5218 -0.1524 -0.3331
 5934SOL    HW229436   0.106   3.096   8.006 -0.8722 -0.1477  1.8637
 5935SOL     OW29437   4.521   4.585   5.492 -0.1528 -0.3330  0.2163
 5935SOL    HW129438   4.599   4.625   5.531 -0.6503 -0.3820  1.2573
 5935SOL    HW229439   4.450   4.646   5.513  0.4208  0.2666  0.4416
 5936SOL     OW29440   2.813   1.003   8.784  0.2434  0.4914  0.7673
 5936SOL    HW129441   2.846   1.065   8.718 -1.7755  2.0623  1.2234
 5936SOL    HW229442   2.737   0.966   8.738 -1.6252  3.9319  1.1131
 5937SOL     OW29443   3.798   0.393  11.362  0.3254 -0.3520 -0.2918
 5937SOL    HW129444   3.712   0.428  11.384  1.0731  0.0572  1.9191
 5937SOL    HW229445   3.815   0.425  11.273 -1.7866 -3.8876 -2.0005
 5938SOL     OW29446   2.660   2.671   9.665  0.5833  0.5813 -0.6507
 5938SOL    HW129447   2.588   2.621   9.626  1.5920 -1.6228  0.3030
 5938SOL    HW229448   2.621   2.758   9.665  1.0838  0.7963  1.8689
 5939SOL     OW29449   2.413   0.307   9.343  0.1965 -0.4332  0.1382
 5939SOL    HW129450   2.403   0.213   9.356  0.8664 -0.4097  0.8653
 5939SOL    HW229451   2.444   0.336   9.430  0.9017  1.3452 -0.6962
 5940SOL     OW29452   2.822   0.371   6.537 -0.0110  0.0372 -0.3330
 5940SOL    HW129453   2.811   0.317   6.616 -0.5546 -1.2324 -1.2705
 5940SOL    HW229454   2.917   0.382   6.525  0.3300 -0.7593  1.6258
 5941SOL     OW29455   1.249   4.178   2.548  0.5843  0.2492 -0.0225
 5941SOL    HW129456   1.163   4.164   2.508 -0.3348  2.2629  1.2155
 5941SOL    HW229457   1.238   4.266   2.584  0.1441 -0.1749  0.8996
 5942SOL     OW29458   4.162   4.599   1.297  0.1024 -0.1340  0.3684
 5942SOL    HW129459   4.153   4.592   1.392 -0.0554  0.2297  0.3800
 5942SOL    HW229460   4.096   4.536   1.269  0.5964 -0.6119  0.2760
 5943SOL     OW29461   3.599   2.944   6.737 -0.1163  0.1784  0.6544
 5943SOL    HW129462   3.692   2.968   6.744  0.4265 -1.4163 -0.9349
 5943SOL    HW229463   3.547   3.023   6.719 -0.4736 -0.4843 -1.1998
 5944SOL     OW29464   1.786   2.385  12.063  0.7084 -0.0049 -0.5342
 5944SOL    HW129465   1.764   2.297  12.035 -0.7234 -0.4778  2.0710
 5944SOL    HW229466   1.773   2.389  12.158  0.0541 -2.0713 -0.5438
 5945SOL     OW29467   2.034   2.744   8.857  0.3148  0.2930  0.1995
 5945SOL    HW129468   1.940   2.762   8.862  0.6273  2.2094 -0.7088
 5945SOL    HW229469   2.063   2.824   8.901  0.4177  0.7359 -0.6723
 5946SOL     OW29470   1.534   1.821   2.537 -0.1458  0.3867  0.1437
 5946SOL    HW129471   1.473   1.831   2.611  0.7348  0.8679  0.8013
 5946SOL    HW229472   1.478   1.790   2.466 -1.5425  2.1790  0.4472
 5947SOL     OW29473   1.740   3.720   5.933 -0.5886 -0.3593  0.2301
 5947SOL    HW129474   1.684   3.723   5.856  0.4814 -0.5097 -0.5651
 5947SOL    HW229475   1.816   3.771   5.905 -1.3959  2.2845  2.9670
 5948SOL     OW29476   3.030   1.767   6.654 -0.0038 -0.0032 -0.3954
 5948SOL    HW129477   2.986   1.731   6.731  1.4670 -0.9773 -0.0218
 5948SOL    HW229478   3.100   1.801   6.710 -0.9586 -0.3779  1.0309
 5949SOL     OW29479   1.369   0.125   6.479 -0.0538  0.5009  0.3517
 5949SOL    HW129480   1.315   0.111   6.401 -1.0363  0.2183  1.0879
 5949SOL    HW229481   1.298   0.107   6.540 -0.4668  0.9070 -0.0005
 5950SOL     OW29482   2.698   0.488   7.040  0.1667 -0.3514 -0.3987
 5950SOL    HW129483   2.644   0.560   7.008  0.9966 -0.0152 -1.0605
 5950SOL    HW229484   2.657   0.429   6.976  0.0743 -1.5057  0.7197
 5951SOL     OW29485   1.451   3.671   4.996 -0.3046  0.3441 -0.1423
 5951SOL    HW129486   1.390   3.605   5.029 -0.9753  0.4617 -1.1669
 5951SOL    HW229487   1.458   3.727   5.073 -0.5164  0.5654 -0.2826
 5952SOL     OW29488   4.452   1.850  16.136  0.1463  0.9275  0.3818
 5952SOL    HW129489   4.517   1.913  16.106  0.5094 -0.2826 -1.3706
 5952SOL    HW229490   4.432   1.883  16.224 -0.6086 -2.7698  1.6177
 5953SOL     OW29491   4.635   3.691  11.755  0.1202  0.1476 -0.4160
 5953SOL    HW129492   4.623   3.785  11.768 -1.0716 -0.3697  2.3398
 5953SOL    HW229493   4.555   3.666  11.802  0.3001  1.3797  0.5363
 5954SOL     OW29494   2.338   1.798   4.682 -0.7101 -0.0015  0.5693
 5954SOL    HW129495   2.312   1.850   4.606 -3.7306 -1.1593  0.8192
 5954SOL    HW229496   2.296   1.834   4.759 -0.0631  0.2502  0.8012
 5955SOL     OW29497   2.493   3.336   9.497  0.5721 -0.2105  0.3344
 5955SOL    HW129498   2.414   3.364   9.451  0.6955 -1.3482 -0.5791
 5955SOL    HW229499   2.460   3.265   9.553 -0.1722 -1.2040 -1.3578
 5956SOL     OW29500   2.891   3.155  15.780 -0.1589 -0.0604 -0.1900
 5956SOL    HW129501   2.920   3.237  15.819 -0.8990  0.9343 -1.7262
 5956SOL    HW229502   2.879   3.182  15.689 -1.0743  1.4200  0.3827
 5957SOL     OW29503   4.610   2.594   6.277 -0.0522 -0.7139 -0.2213
 5957SOL    HW129504   4.605   2.504   6.308  1.8018 -1.0397 -0.8956
 5957SOL    HW229505   4.595   2.590   6.183  2.4950  0.7190 -0.6849
 5958SOL     OW29506   4.478   0.147   1.305  0.6293 -0.3551  0.1114
 5958SOL    HW129507   4.461   0.068   1.254 -1.4907  0.3998 -0.3877
 5958SOL    HW229508   4.559   0.180   1.266  1.3798 -2.4190 -0.0495
 5959SOL     OW29509   2.788   0.082   4.570  0.1098  0.0180  0.2114
 5959SOL    HW129510   2.854   0.145   4.543  1.7218 -1.7548 -0.0299
 5959SOL    HW229511   2.719   0.141   4.600 -1.9453 -1.1816 -2.1027
 5960SOL     OW29512   0.385   0.371   7.608  0.2059 -0.2106  0.7593
 5960SOL    HW129513   0.439   0.431   7.659 -1.3817  0.3283  1.8171
 5960SOL    HW229514   0.336   0.318   7.671  0.2884  3.5885  3.9760
 5961SOL     OW29515   4.074   1.670   0.932 -0.6400  0.4395  0.5075
 5961SOL    HW129516   3.982   1.644   0.924 -0.9203  1.8722 -0.7083
 5961SOL    HW229517   4.079   1.669   1.028 -3.2459 -0.4643  0.6256
 5962SOL     OW29518   2.711   4.245   9.372 -0.4375  0.4713 -0.4762
 5962SOL    HW129519   2.760   4.323   9.345  0.4431 -0.0352 -0.3539
 5962SOL    HW229520   2.739   4.231   9.463 -3.4863 -0.9759  0.2450
 5963SOL     OW29521   4.497   2.443   8.807 -0.0593 -0.8695  0.5356
 5963SOL    HW129522   4.439   2.491   8.866  1.5180  0.0961  1.2753
 5963SOL    HW229523   4.540   2.509   8.753  3.4690 -0.7852  3.4599
 5964SOL     OW29524   3.305   1.101  16.280 -0.0190 -0.4089 -0.5421
 5964SOL    HW129525   3.362   1.026  16.295  0.6647  0.0918 -0.6181
 5964SOL    HW229526   3.360   1.154  16.221  1.2419 -2.4817 -1.2395
 5965SOL     OW29527   3.381   2.995   2.652  0.5347 -0.5206 -0.3516
 5965SOL    HW129528   3.313   3.041   2.701  1.9501  2.6521 -1.3227
 5965SOL    HW229529   3.452   3.009   2.714  1.0362 -2.5866 -0.4846
 5966SOL     OW29530   4.300   0.694  17.123 -0.3075 -0.1583  0.2604
 5966SOL    HW129531   4.350   0.624  17.082  0.4534 -0.6724  2.0672
 5966SOL    HW229532   4.213   0.676  17.087  0.8060 -1.8400 -1.5695
 5967SOL     OW29533   2.068   2.008   7.792 -0.3182  0.3036  0.3026
 5967SOL    HW129534   2.047   1.949   7.720 -0.8340 -0.5559  1.1507
 5967SOL    HW229535   2.154   1.970   7.812 -1.2741 -1.2544  1.4161
 5968SOL     OW29536   4.124   2.527   7.448  0.0302  0.4024  1.1239
 5968SOL    HW129537   4.054   2.519   7.382  0.5872  0.8221  0.4874
 5968SOL    HW229538   4.183   2.454   7.430  0.0582  1.0881 -1.5515
 5969SOL     OW29539   1.220   1.072   9.439 -0.1621 -0.4797  0.5286
 5969SOL    HW129540   1.134   1.114   9.432 -0.3173 -0.4330  2.8675
 5969SOL    HW229541   1.249   1.124   9.514  0.7271 -0.7368  0.3580
 5970SOL     OW29542   2.038   3.621   7.876  0.7343 -0.2561 -0.6320
 5970SOL    HW129543   2.076   3.603   7.962  1.3981 -0.1546 -0.8967
 5970SOL    HW229544   2.059   3.549   7.817  0.6677 -0.8610  0.0903
 5971SOL     OW29545   1.255   2.130   4.248 -0.2894  0.3560  0.1047
 5971SOL    HW129546   1.326   2.128   4.312 -2.0978 -0.6574  2.1103
 5971SOL    HW229547   1.187   2.080   4.295 -0.1050  0.6539  0.6881
 5972SOL     OW29548   1.733   1.247  14.300  0.0252 -0.0647 -0.2823
 5972SOL    HW129549   1.743   1.206  14.214 -0.2233  0.0323 -0.3582
 5972SOL    HW229550   1.787   1.324  14.281  1.0638 -0.6426  0.3089
 5973SOL     OW29551   2.062   1.643   7.862 -0.2465  0.6976  0.1472
 5973SOL    HW129552   1.971   1.672   7.852 -1.9711 -3.9024  2.2037
 5973SOL    HW229553   2.096   1.646   7.773 -1.2806 -0.2412 -0.2748
 5974SOL     OW29554   1.045   0.153   5.251  0.2982 -0.3350 -0.2495
 5974SOL    HW129555   1.034   0.104   5.169 -0.3004  0.0807 -0.4237
 5974SOL    HW229556   1.113   0.098   5.289  0.2289  0.0317  0.4027
 5975SOL     OW29557   1.919   0.057   8.831 -0.0311  0.5310  0.6592
 5975SOL    HW129558   1.920   0.134   8.775  0.3023 -1.9625 -2.7547
 5975SOL    HW229559   1.851   0.080   8.894  0.0738  1.4183  0.4539
 5976SOL     OW29560   4.384   2.037   5.661 -0.0688 -0.1749  0.0467
 5976SOL    HW129561   4.415   1.957   5.619  0.0718 -1.4176  2.5630
 5976SOL    HW229562   4.300   2.006   5.695  0.3403  0.0887  1.2694
 5977SOL     OW29563   2.076   4.603   7.665 -0.3546  0.4137 -0.0571
 5977SOL    HW129564   2.127   4.631   7.741  1.0292 -1.2844 -0.3637
 5977SOL    HW229565   2.107   4.666   7.599  0.2039  0.0727 -0.1216
 5978SOL     OW29566   0.016   0.233  15.156  0.3449  0.1683 -0.0402
 5978SOL    HW129567   0.040   0.227  15.249 -0.4691 -0.4410  0.1358
 5978SOL    HW229568   0.091   0.263  15.104 -0.6102  1.7241 -0.4939
 5979SOL     OW29569   1.108   0.446   0.197  0.2695  0.3352  0.2127
 5979SOL    HW129570   1.025   0.437   0.242 -0.2367 -3.9284 -1.6026
 5979SOL    HW229571   1.129   0.536   0.224  1.2438  0.2420 -0.2311
 5980SOL     OW29572   0.263   1.963   4.193 -0.0791  0.2095  0.1220
 5980SOL    HW129573   0.358   1.959   4.201  0.0397 -0.5345 -1.6682
 5980SOL    HW229574   0.251   1.870   4.209 -1.5247  0.2167 -0.9291
 5981SOL     OW29575   0.787   3.199   6.341  0.4741  0.5038 -0.1333
 5981SOL    HW129576   0.793   3.122   6.283 -0.0048  1.0973 -0.9700
 5981SOL    HW229577   0.871   3.246   6.338  1.3844 -1.0964  0.0847
 5982SOL     OW29578   4.151   2.238   3.270  0.1597  0.0765  0.6086
 5982SOL    HW129579   4.201   2.294   3.212  0.6452  0.1168  1.0664
 5982SOL    HW229580   4.211   2.163   3.277  0.0948  0.0716  1.1495
 5983SOL     OW29581   2.395   4.489   2.614  0.0984 -0.5254 -0.1029
 5983SOL    HW129582   2.449   4.457   2.686  0.6472 -0.9072 -0.6849
 5983SOL    HW229583   2.374   4.574   2.653 -2.6470 -1.8003  1.2368
 5984SOL     OW29584   2.465   2.181  10.435  0.0289  0.0923  0.6463
 5984SOL    HW129585   2.486   2.170  10.528  0.3587 -0.9243  0.4520
 5984SOL    HW229586   2.370   2.180  10.443  0.0216  2.2166  0.9162
 5985SOL     OW29587   4.370   3.116   8.832 -0.3638 -0.0211  0.2689
 5985SOL    HW129588   4.353   3.196   8.783 -0.9190 -0.5454 -0.3873
 5985SOL    HW229589   4.459   3.129   8.866 -0.0624  0.7766 -0.8367
 5986SOL     OW29590   2.330   3.930   3.649 -0.7764 -0.1943  0.8341
 5986SOL    HW129591   2.322   3.997   3.717 -1.2636 -0.4102  0.9813
 5986SOL    HW229592   2.250   3.880   3.663 -0.9094 -0.3324 -0.3870
 5987SOL     OW29593   0.746   2.279  10.700 -0.2762 -0.2875 -0.2478
 5987SOL    HW129594   0.763   2.373  10.709  3.0298 -1.2413  3.7762
 5987SOL    HW229595   0.714   2.269  10.790  0.0824 -0.5995 -0.1553
 5988SOL     OW29596   0.872   3.293   8.506 -0.2355  0.5291  0.3538
 5988SOL    HW129597   0.789   3.324   8.541 -0.3782  1.4657 -0.8255
 5988SOL    HW229598   0.934   3.349   8.554  0.9056 -1.3331  1.0456
 5989SOL     OW29599   4.258   1.922   2.505  0.2308  0.5700 -0.4884
 5989SOL    HW129600   4.306   1.903   2.424  3.7165  0.9187  1.5048
 5989SOL    HW229601   4.178   1.970   2.482  0.4871  0.8163 -0.8747
 5990SOL     OW29602   2.376   3.137   4.614  0.0923  0.5919 -0.4445
 5990SOL    HW129603   2.436   3.064   4.600  1.6528  1.7701  0.0968
 5990SOL    HW229604   2.438   3.209   4.623  1.8606 -0.9749  0.0109
 5991SOL     OW29605   0.394   3.745   3.979 -0.8477 -0.6377  0.5198
 5991SOL    HW129606   0.364   3.758   3.889  0.5003 -1.5010 -0.0481
 5991SOL    HW229607   0.489   3.753   3.968 -0.7220 -2.7869  0.0454
 5992SOL     OW29608   4.433   3.968   3.222 -0.0110  0.3255 -0.0713
 5992SOL    HW129609   4.500   3.917   3.175 -1.8511 -0.2501 -2.0589
 5992SOL    HW229610   4.461   4.060   3.213  2.3858 -0.4073 -0.0928
 5993SOL     OW29611   0.327   1.265   0.562 -0.4737  0.3683  0.3223
 5993SOL    HW129612   0.243   1.309   0.571 -0.9874 -0.4601 -0.4662
 5993SOL    HW229613   0.330   1.257   0.467  1.9610 -0.8736  0.4910
 5994SOL     OW29614   1.846   0.587  17.514  0.2756  0.1115  0.0556
 5994SOL    HW129615   1.848   0.495  17.490 -2.6734  0.3547 -1.0738
 5994SOL    HW229616   1.936   0.598  17.544  0.0363  0.6451  0.5803
 5995SOL     OW29617   2.308   1.410   5.329 -0.1794  0.4271 -0.1943
 5995SOL    HW129618   2.325   1.365   5.246  1.9500  0.6144  0.1391
 5995SOL    HW229619   2.383   1.467   5.349 -1.2531  1.6467  0.3092
 5996SOL     OW29620   1.573   4.356  13.473 -0.2808  0.4207  0.5064
 5996SOL    HW129621   1.566   4.320  13.562 -0.6748 -0.9112 -0.0677
 5996SOL    HW229622   1.551   4.445  13.500 -1.6299 -0.0533  0.9981
 5997SOL     OW29623   0.973   1.467  13.830  0.3050 -0.8327 -0.1689
 5997SOL    HW129624   1.026   1.415  13.770  2.8948 -0.1193  1.5150
 5997SOL    HW229625   0.940   1.397  13.887 -1.7256  0.9024  0.7937
 5998SOL     OW29626   2.435   0.230   7.124  0.2515  0.5568  0.2699
 5998SOL    HW129627   2.484   0.262   7.200 -1.1882 -0.4826  1.6384
 5998SOL    HW229628   2.459   0.294   7.056 -1.6367  0.0214 -0.8961
 5999SOL     OW29629   0.417   1.058  16.973 -0.0280  0.0228  0.6573
 5999SOL    HW129630   0.350   1.010  17.021  0.5911 -1.7809 -0.3000
 5999SOL    HW229631   0.486   1.094  17.029  0.0976  0.4329  0.2475
 6000SOL     OW29632   3.557   0.611   3.660  0.3562 -0.2476 -0.4086
 6000SOL    HW129633   3.484   0.653   3.615  0.5034  1.3042  0.8044
 6000SOL    HW229634   3.539   0.517   3.651  0.9055 -0.2490 -1.5233
 6001SOL     OW29635   2.784   0.126   8.845 -0.7595 -0.1550 -0.2697
 6001SOL    HW129636   2.733   0.176   8.781  1.7797  0.1908 -2.0235
 6001SOL    HW229637   2.738   0.043   8.848  0.4084 -0.8627 -1.6479
 6002SOL     OW29638   4.546   1.474   7.416 -0.0230 -0.4678 -0.5464
 6002SOL    HW129639   4.621   1.513   7.460 -0.4184 -1.3773  0.9422
 6002SOL    HW229640   4.568   1.385   7.441 -0.9101 -0.9426 -1.4372
 6003SOL     OW29641   2.148   1.522  10.495  0.1290  0.0978  0.5649
 6003SOL    HW129642   2.084   1.499  10.562  1.2006  0.7258  1.8013
 6003SOL    HW229643   2.229   1.486  10.530 -0.0814  0.8832  1.8398
 6004SOL     OW29644   0.780   2.974   6.942 -0.4984  0.2971  0.0408
 6004SOL    HW129645   0.851   3.034   6.917 -0.2824  0.0076 -0.0384
 6004SOL    HW229646   0.798   2.899   6.885 -0.0109  2.6727 -2.9314
 6005SOL     OW29647   3.264   2.555   1.916  0.2854 -0.1055  0.4964
 6005SOL    HW129648   3.352   2.552   1.953  0.3199  1.4912  0.5321
 6005SOL    HW229649   3.218   2.597   1.989 -0.9236  1.3065 -1.0960
 6006SOL     OW29650   1.951   0.654   5.421 -0.5068 -0.0326 -0.6221
 6006SOL    HW129651   1.886   0.712   5.461 -1.8557 -1.4258 -0.8166
 6006SOL    HW229652   1.994   0.708   5.355  1.9682 -0.2083  0.8231
 6007SOL     OW29653   3.395   4.107   4.615 -0.0057  0.0791 -0.2748
 6007SOL    HW129654   3.444   4.173   4.664  2.8841 -1.3260 -1.2627
 6007SOL    HW229655   3.418   4.027   4.662  0.5343 -1.1285 -2.5942
 6008SOL     OW29656   2.057   3.814   9.039 -0.1504 -0.5531 -0.5553
 6008SOL    HW129657   2.114   3.742   9.068 -2.1903 -2.9968 -2.5997
 6008SOL    HW229658   2.041   3.843   9.129  1.4931  1.2723 -0.8673
 6009SOL     OW29659   1.724   1.312   5.679 -0.0309  0.3632  0.0112
 6009SOL    HW129660   1.778   1.268   5.613 -2.9710 -0.5332 -1.8215
 6009SOL    HW229661   1.636   1.291   5.649 -0.5759 -1.3060  2.8152
 6010SOL     OW29662   1.833   3.290   4.769  0.0337  0.1355 -0.2228
 6010SOL    HW129663   1.798   3.206   4.798  1.8665 -0.6810 -0.3505
 6010SOL    HW229664   1.796   3.345   4.838 -0.0977 -0.9464  0.5585
 6011SOL     OW29665   2.783   3.103   2.771 -0.0509 -0.4713  0.2774
 6011SOL    HW129666   2.847   3.045   2.811  1.7507  1.0138 -0.4719
 6011SOL    HW229667   2.727   3.118   2.847 -0.6864 -0.8950 -0.1053
 6012SOL     OW29668   0.236   1.027  14.408 -0.5730  0.2641 -0.3982
 6012SOL    HW129669   0.302   1.094  14.392 -0.8278  1.1388  2.1774
 6012SOL    HW229670   0.178   1.070  14.472 -0.6250 -1.6066  0.8021
 6013SOL     OW29671   2.961   0.814   5.837 -0.0330  0.6789 -0.0500
 6013SOL    HW129672   2.999   0.887   5.788 -2.7243  2.5819  0.6634
 6013SOL    HW229673   3.032   0.802   5.899  1.6586 -1.5262 -2.4397
 6014SOL     OW29674   0.027   2.175   0.951  0.6095 -0.3846 -0.0436
 6014SOL    HW129675   0.071   2.097   0.984 -0.6209 -1.5607 -1.2012
 6014SOL    HW229676   0.077   2.245   0.992 -2.3380  1.7112 -0.0276
 6015SOL     OW29677   2.564   1.032   5.038  0.0241  0.3579  0.0325
 6015SOL    HW129678   2.588   0.977   4.963  0.0808 -0.4548  0.6481
 6015SOL    HW229679   2.625   1.104   5.019  0.7775 -0.0732  0.8246
 6016SOL     OW29680   2.452   3.800  12.295  0.0015  0.0387  0.0553
 6016SOL    HW129681   2.464   3.718  12.343  2.2780  1.2150  1.5167
 6016SOL    HW229682   2.371   3.839  12.328 -0.5145 -0.0992 -1.0345
 6017SOL     OW29683   3.923   3.292   8.072 -0.2952 -0.5984 -0.2495
 6017SOL    HW129684   3.878   3.277   7.989  0.6087  1.3908 -1.0930
 6017SOL    HW229685   3.885   3.222   8.126 -0.0113 -1.0860 -0.6806
 6018SOL     OW29686   0.917   1.842  17.076  0.3712  0.0099 -0.0361
 6018SOL    HW129687   0.960   1.769  17.033  0.9504  0.1284  0.3372
 6018SOL    HW229688   0.992   1.898  17.096  0.5591  0.0089 -0.7377
 6019SOL     OW29689   0.381   2.256  14.160  0.0048  0.0405 -0.5228
 6019SOL    HW129690   0.440   2.331  14.165 -0.5433  0.3249  1.9031
 6019SOL    HW229691   0.324   2.288  14.231  1.0017 -1.3776  0.9292
 6020SOL     OW29692   3.225   4.554   4.989  0.1134 -0.1387  0.1029
 6020SOL    HW129693   3.162   4.494   5.027 -1.6516  0.3741 -2.0375
 6020SOL    HW229694   3.261   4.589   5.071 -1.8634 -0.6482  1.1803
 6021SOL     OW29695   0.167   0.452   4.576  0.4440 -0.0737  0.7440
 6021SOL    HW129696   0.155   0.410   4.661 -1.0151 -1.5252 -0.1865
 6021SOL    HW229697   0.262   0.463   4.578  0.3532  1.3011 -3.8034
 6022SOL     OW29698   4.563   1.347   4.495 -0.2831  0.0001  0.3456
 6022SOL    HW129699   4.648   1.326   4.533 -0.1543  1.2142  0.7167
 6022SOL    HW229700   4.573   1.357   4.400 -1.9573 -1.8626 -0.0320
 6023SOL     OW29701   0.991   3.571   7.249  0.4617 -0.4777  0.4934
 6023SOL    HW129702   0.998   3.621   7.167 -1.7572 -0.9900 -0.0265
 6023SOL    HW229703   0.970   3.630   7.322 -1.9492  1.6660 -1.8861
 6024SOL     OW29704   1.639   3.787   5.675 -0.0432  0.0221 -0.5760
 6024SOL    HW129705   1.684   3.736   5.607  2.0650  0.6864  0.3311
 6024SOL    HW229706   1.549   3.779   5.642 -0.0661  0.6035 -0.6490
 6025SOL     OW29707   3.472   1.955   4.043 -0.0107  0.4227  0.2002
 6025SOL    HW129708   3.401   1.910   4.089 -0.2055  1.8115  1.2410
 6025SOL    HW229709   3.432   1.958   3.956 -1.9936  0.8554  1.1432
 6026SOL     OW29710   1.994   3.391   4.168 -0.0737  0.1226 -0.1338
 6026SOL    HW129711   1.958   3.442   4.241  0.5656 -1.2122  1.1228
 6026SOL    HW229712   1.982   3.307   4.212  2.5850 -0.3885 -0.3578
 6027SOL     OW29713   0.515   2.472   8.196  0.4770 -0.4344 -0.4972
 6027SOL    HW129714   0.604   2.487   8.225 -0.1286 -0.8306  1.5295
 6027SOL    HW229715   0.494   2.555   8.153 -1.8827 -0.3435  0.8252
 6028SOL     OW29716   2.745   2.200   3.273 -0.2396  0.5126 -0.4333
 6028SOL    HW129717   2.757   2.265   3.204  1.0056  0.3796 -0.3431
 6028SOL    HW229718   2.650   2.188   3.276 -0.1231 -0.1943  0.6150
 6029SOL     OW29719   2.182   1.743   7.381 -0.5040  0.7062 -0.1783
 6029SOL    HW129720   2.221   1.726   7.467  0.8698 -0.9212 -1.1316
 6029SOL    HW229721   2.245   1.796   7.333  1.2303 -2.9105 -1.9014
 6030SOL     OW29722   1.258   4.387  11.985  0.3738 -0.3974 -0.1080
 6030SOL    HW129723   1.320   4.386  12.058  1.5849  1.2679 -1.1412
 6030SOL    HW229724   1.211   4.466  12.012  0.9538  0.3274 -1.2541
 6031SOL     OW29725   3.640   0.711   8.078 -0.5678  0.2195 -0.6209
 6031SOL    HW129726   3.605   0.717   7.989 -1.3547  1.1103 -0.2581
 6031SOL    HW229727   3.711   0.776   8.078  1.5970 -2.1592  1.6898
 6032SOL     OW29728   2.595   2.391   3.065  0.0073 -0.1967  0.4145
 6032SOL    HW129729   2.545   2.472   3.064 -1.4462 -1.1094 -0.4939
 6032SOL    HW229730   2.547   2.342   3.132 -0.5092  0.6728  0.6798
 6033SOL     OW29731   0.799   0.052  13.848  0.0931  0.3258  0.1672
 6033SOL    HW129732   0.750   0.045  13.766 -1.6580 -0.6877  1.2836
 6033SOL    HW229733   0.736   0.091  13.909  0.7035 -0.2186  1.1463
 6034SOL     OW29734   4.611   0.708  16.958  0.4380  0.1827  0.1546
 6034SOL    HW129735   4.659   0.696  17.041  1.0179 -0.3225 -0.2541
 6034SOL    HW229736   4.689   0.692  16.904 -0.7418  1.1210 -1.8096
 6035SOL     OW29737   1.115   3.077  12.629  0.2384 -0.0819  0.0961
 6035SOL    HW129738   1.136   3.124  12.548  1.4686 -0.0581  0.4227
 6035SOL    HW229739   1.020   3.079  12.615  0.3218 -0.5077 -0.4939
 6036SOL     OW29740   3.747   1.043  16.298  0.2966  0.3190 -0.3403
 6036SOL    HW129741   3.791   0.991  16.365  1.1853  0.7081 -0.6258
 6036SOL    HW229742   3.654   1.034  16.316  0.2479  1.9954  0.2472
 6037SOL     OW29743   4.378   3.877  13.148 -0.0490 -0.0309 -0.0195
 6037SOL    HW129744   4.363   3.822  13.072 -0.2866  0.5778 -0.4166
 6037SOL    HW229745   4.387   3.965  13.111 -3.2224  0.4403  0.3913
 6038SOL     OW29746   3.040   2.103   0.257  0.3603  0.1283  0.8984
 6038SOL    HW129747   2.994   2.157   0.321 -1.0009  1.6739 -1.3824
 6038SOL    HW229748   3.104   2.169   0.231  1.8840 -2.0352 -0.8453
 6039SOL     OW29749   2.252   4.066   6.208  0.0147 -0.1620  0.3127
 6039SOL    HW129750   2.189   4.130   6.242 -1.3450 -0.5023 -1.5810
 6039SOL    HW229751   2.254   4.009   6.285  1.1280 -1.2183 -0.5030
 6040SOL     OW29752   3.014   0.532  13.468  0.4138 -0.3345  0.6859
 6040SOL    HW129753   2.991   0.623  13.454  0.0665 -0.3412  1.2344
 6040SOL    HW229754   2.943   0.494  13.417  1.6572 -1.0578 -0.5293
 6041SOL     OW29755   0.112   1.757   9.672  0.1569 -0.7748 -0.2289
 6041SOL    HW129756   0.099   1.830   9.611  0.8185 -2.0045 -1.8476
 6041SOL    HW229757   0.177   1.798   9.727 -0.5156  1.4070 -1.0738
 6042SOL     OW29758   0.572   0.263   3.105 -0.2221 -0.2299  0.4590
 6042SOL    HW129759   0.509   0.224   3.044  0.3973  0.1645 -0.4340
 6042SOL    HW229760   0.589   0.348   3.064 -1.7773  0.4103  1.1140
 6043SOL     OW29761   3.653   0.682   8.368  0.3861  0.3640  0.5326
 6043SOL    HW129762   3.626   0.694   8.277 -1.5276 -2.2509  0.7338
 6043SOL    HW229763   3.675   0.589   8.359  1.6351  0.8979 -1.8787
 6044SOL     OW29764   1.835   2.471   9.354  0.2840 -0.2715  0.1329
 6044SOL    HW129765   1.917   2.443   9.314  1.3378  1.0760  1.3535
 6044SOL    HW229766   1.851   2.416   9.431 -3.6782 -2.1762 -0.4277
 6045SOL     OW29767   3.397   1.476   4.723 -0.2958 -0.1214  0.0898
 6045SOL    HW129768   3.399   1.495   4.817 -2.1216 -1.3324  0.3699
 6045SOL    HW229769   3.352   1.551   4.685  0.5484 -0.1460 -0.9524
 6046SOL     OW29770   0.129   4.306   1.766  0.2114 -0.5931 -0.0076
 6046SOL    HW129771   0.060   4.281   1.705  0.6101 -0.7112 -0.4076
 6046SOL    HW229772   0.168   4.387   1.731 -0.5302  0.7421  2.2212
 6047SOL     OW29773   1.763   0.839  15.504  0.4443 -0.4751  0.2171
 6047SOL    HW129774   1.812   0.794  15.436  0.1858  0.4050 -0.5398
 6047SOL    HW229775   1.671   0.829  15.481  0.1695  2.8993 -0.1320
 6048SOL     OW29776   1.990   0.349   9.430 -0.0773  0.1588  0.6597
 6048SOL    HW129777   1.932   0.415   9.391 -0.1910 -0.3756 -0.0714
 6048SOL    HW229778   2.050   0.333   9.357 -0.4539 -1.1212  0.6275
 6049SOL     OW29779   1.351   2.907   7.667 -0.1060 -0.1775  0.0976
 6049SOL    HW129780   1.387   2.927   7.753 -0.4191 -1.6930  0.5829
 6049SOL    HW229781   1.371   2.814   7.661 -1.5135 -0.6235  2.3527
 6050SOL     OW29782   1.263   2.765   8.454  0.1534 -0.5433 -0.9595
 6050SOL    HW129783   1.289   2.847   8.412  1.2868 -0.9924 -1.1300
 6050SOL    HW229784   1.167   2.769   8.458  0.2891  0.1777  1.2021
 6051SOL     OW29785   3.193   2.629  14.570 -0.3473 -0.2252  0.1418
 6051SOL    HW129786   3.215   2.637  14.477 -2.8134  0.6330 -0.3794
 6051SOL    HW229787   3.113   2.681  14.573  0.2041  0.6578 -0.3072
 6052SOL     OW29788   3.417   0.292   7.957  0.0521  0.2906 -0.1915
 6052SOL    HW129789   3.496   0.345   7.944  0.2558  0.2353  0.8628
 6052SOL    HW229790   3.358   0.359   7.993 -1.4663 -1.0427 -0.2036
 6053SOL     OW29791   2.034   4.615  12.723  0.6797  0.3424  0.0627
 6053SOL    HW129792   2.013   4.708  12.717 -1.8995 -0.3793 -2.4888
 6053SOL    HW229793   1.945   4.588  12.747  0.5051  0.4518 -0.4564
 6054SOL     OW29794   3.383   0.306  16.811  0.4074  0.1642  0.2085
 6054SOL    HW129795   3.406   0.227  16.762  0.5261 -0.3366  1.0852
 6054SOL    HW229796   3.331   0.273  16.883  0.5867  0.6112  0.5425
 6055SOL     OW29797   0.801   2.094   4.286 -0.2666 -0.3524 -0.3829
 6055SOL    HW129798   0.837   2.015   4.327 -0.7682  0.0102  0.7473
 6055SOL    HW229799   0.830   2.078   4.196  0.7712  0.9095 -0.2669
 6056SOL     OW29800   1.044   0.578   6.406 -0.2417  0.2711 -0.0085
 6056SOL    HW129801   1.062   0.601   6.314 -1.4495 -2.7556 -0.9860
 6056SOL    HW229802   0.981   0.507   6.399  1.4114 -1.1862 -0.0629
 6057SOL     OW29803   4.440   2.696   4.606  0.0789 -0.2448 -0.1555
 6057SOL    HW129804   4.495   2.732   4.675 -0.2424 -0.6624  0.3193
 6057SOL    HW229805   4.498   2.673   4.533 -0.1834  0.8354 -0.7054
 6058SOL     OW29806   0.075   0.696   6.502  0.3621  0.2333  0.3618
 6058SOL    HW129807   0.024   0.623   6.539  0.1996 -0.9565 -2.1837
 6058SOL    HW229808   0.123   0.719   6.581  0.0257  0.1183  0.5985
 6059SOL     OW29809   0.257   1.843   1.064  0.9852  0.3044  0.1784
 6059SOL    HW129810   0.278   1.936   1.068  0.4088  0.3700  1.8333
 6059SOL    HW229811   0.162   1.850   1.051  1.2984 -0.5926 -2.6519
 6060SOL     OW29812   1.168   0.115   8.579  0.3461  0.0301  0.3330
 6060SOL    HW129813   1.238   0.069   8.534 -0.1805 -0.3630 -0.0865
 6060SOL    HW229814   1.205   0.201   8.595 -1.7619  1.0365 -0.2438
 6061SOL     OW29815   4.636   0.332   6.497  0.0673 -0.2200 -0.1648
 6061SOL    HW129816   4.666   0.332   6.406 -0.3096  1.1213 -0.2911
 6061SOL    HW229817   4.578   0.408   6.491  0.3040 -0.1378 -1.4298
 6062SOL     OW29818   0.144   3.418   2.143 -0.0447  0.4120  0.4356
 6062SOL    HW129819   0.174   3.382   2.060 -0.3463 -2.8864  1.7352
 6062SOL    HW229820   0.221   3.460   2.180 -0.8193  2.5054 -0.3067
 6063SOL     OW29821   3.832   2.752   4.502  0.0281  0.1993  0.2958
 6063SOL    HW129822   3.814   2.682   4.565 -1.8821  0.3873 -0.0371
 6063SOL    HW229823   3.901   2.713   4.448 -1.8556  0.5157 -2.3558
 6064SOL     OW29824   4.299   3.818   4.433 -0.5169  0.6547  1.0214
 6064SOL    HW129825   4.385   3.850   4.460 -0.9107  2.2651  0.3516
 6064SOL    HW229826   4.273   3.787   4.520  1.7429  0.2617  1.5560
 6065SOL     OW29827   4.686   1.276  17.337  0.1900  0.1139 -0.3554
 6065SOL    HW129828   0.037   1.292  17.298  0.0222 -1.1455 -1.2493
 6065SOL    HW229829   4.641   1.270  17.252 -1.0566 -1.5029  0.4153
 6066SOL     OW29830   3.568   4.381   3.815  0.5661 -0.7934 -0.2271
 6066SOL    HW129831   3.544   4.300   3.770  0.7879 -1.5007  0.9501
 6066SOL    HW229832   3.610   4.423   3.740 -2.6332  1.5072 -0.7414
 6067SOL     OW29833   4.103   3.322   6.020  0.2551  0.5185  0.0646
 6067SOL    HW129834   4.066   3.242   5.983 -0.9200  1.0322  0.1300
 6067SOL    HW229835   4.137   3.290   6.104 -0.0901 -0.7041 -0.2704
 6068SOL     OW29836   1.453   0.638   6.360  0.2879  0.1835  0.1755
 6068SOL    HW129837   1.373   0.686   6.380  0.4680 -0.4202  2.3738
 6068SOL    HW229838   1.522   0.685   6.406  0.6603 -1.6259  1.4707
 6069SOL     OW29839   0.594   0.906  14.127  0.5326  0.3939 -0.0884
 6069SOL    HW129840   0.647   0.866  14.197 -0.1429 -0.1622  0.1092
 6069SOL    HW229841   0.659   0.956  14.079 -2.0118  1.7199 -2.1559
 6070SOL     OW29842   0.033   0.537   8.026 -0.1358 -0.5444 -0.4651
 6070SOL    HW129843   0.048   0.588   8.105  2.3582  0.8176 -1.8281
 6070SOL    HW229844   0.095   0.580   7.967  0.5686  0.7036  1.2120
 6071SOL     OW29845   1.137   0.438   8.281 -0.2375 -0.8122  0.0045
 6071SOL    HW129846   1.096   0.488   8.211  0.1797 -2.5656 -1.4954
 6071SOL    HW229847   1.134   0.349   8.245 -1.5857 -0.6606 -0.2640
 6072SOL     OW29848   1.604   3.015   7.262 -0.5830  0.2144  0.7005
 6072SOL    HW129849   1.528   3.007   7.320 -0.9842 -0.6511  0.0611
 6072SOL    HW229850   1.675   3.025   7.325 -0.7418  0.4060  0.8507
 6073SOL     OW29851   3.100   3.754   8.344  0.2314 -0.0873  0.2662
 6073SOL    HW129852   3.160   3.797   8.404  1.6340 -3.0889  1.0121
 6073SOL    HW229853   3.034   3.822   8.325 -1.0050 -1.4278 -0.2653
 6074SOL     OW29854   4.498   4.520   2.591 -0.0155 -0.2659 -0.2720
 6074SOL    HW129855   4.588   4.496   2.613 -0.4955 -2.8686 -1.0959
 6074SOL    HW229856   4.447   4.439   2.587 -0.5646  0.2582 -3.8903
 6075SOL     OW29857   3.478   1.223   7.933  0.3091 -0.1189  0.3633
 6075SOL    HW129858   3.447   1.313   7.946 -0.1601 -0.1014 -0.8809
 6075SOL    HW229859   3.572   1.235   7.915  0.4771 -2.7470 -0.5042
 6076SOL     OW29860   3.633   2.267   3.384 -0.6431  0.4559 -0.1030
 6076SOL    HW129861   3.622   2.196   3.321 -0.6933 -0.6570  1.1815
 6076SOL    HW229862   3.728   2.275   3.392 -0.5259  1.0746 -1.9237
 6077SOL     OW29863   1.314   1.243   2.360 -0.1367 -0.9290 -0.5621
 6077SOL    HW129864   1.253   1.297   2.410  0.3875  0.5034 -1.4753
 6077SOL    HW229865   1.370   1.215   2.433 -0.1449 -1.2293 -0.6715
 6078SOL     OW29866   1.998   3.281   6.551 -0.3045  0.1598 -1.4064
 6078SOL    HW129867   2.040   3.240   6.626 -0.2095 -1.5738 -2.4105
 6078SOL    HW229868   1.937   3.209   6.532  0.8484 -0.9280 -1.0009
 6079SOL     OW29869   0.313   4.661   8.568 -0.5200  0.1054 -0.6514
 6079SOL    HW129870   0.257   0.001   8.589 -1.0098 -0.5475  0.3808
 6079SOL    HW229871   0.247   4.603   8.530  0.4200 -1.3887  0.0127
 6080SOL     OW29872   0.401   0.010   5.357  0.2294  0.6660  0.4068
 6080SOL    HW129873   0.450   0.078   5.403  0.7583  1.1490 -0.8890
 6080SOL    HW229874   0.324   4.734   5.413  1.5023 -0.5511  1.9294
 6081SOL     OW29875   1.940   1.267  11.840 -0.0285  0.3927 -0.1128
 6081SOL    HW129876   2.002   1.197  11.860 -0.1474  0.1233 -0.6811
 6081SOL    HW229877   1.930   1.296  11.931 -0.8683  1.1505 -0.4517
 6082SOL     OW29878   4.204   3.174   0.923 -0.5888 -0.1532  0.2924
 6082SOL    HW129879   4.267   3.215   0.864  0.7663  0.3881  2.1080
 6082SOL    HW229880   4.257   3.168   1.002  3.0834 -2.3827 -2.3371
 6083SOL     OW29881   2.388   4.302   6.731 -0.0704  0.1211  0.2791
 6083SOL    HW129882   2.451   4.231   6.722 -1.8284 -1.6271  1.7512
 6083SOL    HW229883   2.433   4.380   6.766  1.8984 -0.9233  0.0436
 6084SOL     OW29884   2.835   4.128  12.602  0.4994  0.3392 -0.7062
 6084SOL    HW129885   2.903   4.191  12.627  2.5202 -1.6042 -1.3506
 6084SOL    HW229886   2.761   4.186  12.584  0.8788  1.1166  0.2070
 6085SOL     OW29887   4.024   3.047   3.961 -0.6193  0.2910 -0.1086
 6085SOL    HW129888   4.017   2.957   3.992 -1.3144 -0.8794 -3.6142
 6085SOL    HW229889   3.942   3.081   3.997 -0.2115 -0.0361  1.1084
 6086SOL     OW29890   1.048   1.065  12.207  0.1876 -0.2370  0.0468
 6086SOL    HW129891   1.062   0.974  12.236 -0.8322 -0.4068  0.0234
 6086SOL    HW229892   1.129   1.089  12.163  0.9779  0.1103  1.6880
 6087SOL     OW29893   0.082   0.273  14.147 -0.4118  0.1174 -0.4873
 6087SOL    HW129894   0.076   0.362  14.115  2.6535  0.1844 -0.7916
 6087SOL    HW229895   0.031   0.270  14.229 -0.7463  0.8498 -0.6729
 6088SOL     OW29896   2.842   1.074   0.597 -0.1823  0.0530  0.5603
 6088SOL    HW129897   2.878   1.033   0.675  1.8170 -0.9882 -0.9100
 6088SOL    HW229898   2.747   1.066   0.605 -0.3892  1.0596 -0.8176
 6089SOL     OW29899   1.713   2.074  11.869  0.0788  0.1257  0.2252
 6089SOL    HW129900   1.648   2.078  11.939  0.9140  2.8815  0.8249
 6089SOL    HW229901   1.779   2.020  11.912  0.3477  1.3931  1.4134
 6090SOL     OW29902   4.294   3.389   3.708 -0.6333  0.3044 -0.3167
 6090SOL    HW129903   4.207   3.418   3.734 -1.9129 -0.9398 -3.1335
 6090SOL    HW229904   4.336   3.381   3.793  0.3088  1.1132 -0.6959
 6091SOL     OW29905   2.359   2.287   5.865 -0.0349 -0.6796  0.4849
 6091SOL    HW129906   2.416   2.364   5.859 -0.4842 -0.2843  1.3035
 6091SOL    HW229907   2.271   2.322   5.856 -1.1509 -3.3635  0.9674
 6092SOL     OW29908   2.134   2.197   7.319 -0.0362  0.1571  0.5744
 6092SOL    HW129909   2.151   2.175   7.410 -1.7005 -0.4311  0.7455
 6092SOL    HW229910   2.069   2.130   7.297 -0.6061  0.8491  0.1323
 6093SOL     OW29911   1.199   4.206   9.301 -0.2878 -0.1384 -0.3500
 6093SOL    HW129912   1.211   4.135   9.238 -3.3048  0.9007 -2.0691
 6093SOL    HW229913   1.104   4.203   9.306 -0.2376  0.0407  0.7285
 6094SOL     OW29914   1.194   3.777   4.131 -0.1817 -0.0852 -0.1528
 6094SOL    HW129915   1.263   3.816   4.077  0.2221 -1.4546 -0.6236
 6094SOL    HW229916   1.174   3.694   4.087 -1.2585  0.0651  0.0342
 6095SOL     OW29917   0.210   4.701   2.147  0.1097 -0.8803 -0.5149
 6095SOL    HW129918   0.221   4.729   2.056  1.6309  1.9080  0.5135
 6095SOL    HW229919   0.143   4.634   2.137 -0.6742  0.1640 -2.3977
 6096SOL     OW29920   2.256   3.507   1.677 -0.1346 -0.4011  0.7157
 6096SOL    HW129921   2.313   3.574   1.638  0.9420 -1.0537  1.1678
 6096SOL    HW229922   2.268   3.536   1.767  0.1987 -0.5485  0.7171
 6097SOL     OW29923   1.935   1.859   5.390  0.3634  0.1183 -0.5071
 6097SOL    HW129924   2.018   1.818   5.414  1.6301  2.8880 -0.2016
 6097SOL    HW229925   1.907   1.795   5.325  0.0583  1.4741 -1.7023
 6098SOL     OW29926   1.636   0.293  12.601 -0.1715 -0.6503  0.6598
 6098SOL    HW129927   1.649   0.369  12.544 -0.2716 -0.2446  1.1882
 6098SOL    HW229928   1.657   0.327  12.687  0.1683  0.9143 -0.0366
 6099SOL     OW29929   3.599   1.808   0.794 -0.5589 -0.1829  0.5591
 6099SOL    HW129930   3.548   1.877   0.752 -1.4977 -1.4853 -0.4127
 6099SOL    HW229931   3.684   1.833   0.760 -0.6420  0.3904  0.7653
 6100SOL     OW29932   0.308   0.764  14.438  0.0929  0.3214 -0.2320
 6100SOL    HW129933   0.263   0.847  14.420  0.5290  0.4260 -0.8383
 6100SOL    HW229934   0.237   0.703  14.422  1.0994 -0.6923 -0.8146
 6101SOL     OW29935   2.788   3.133   3.836  0.0083 -0.3403  0.1295
 6101SOL    HW129936   2.834   3.064   3.789  0.5157  0.1139 -0.0508
 6101SOL    HW229937   2.855   3.180   3.886 -0.5332 -2.4695  2.8707
 6102SOL     OW29938   2.007   4.273   6.848  0.2919  0.0393 -0.1687
 6102SOL    HW129939   1.931   4.220   6.870  0.3269 -0.1019 -0.3876
 6102SOL    HW229940   2.037   4.288   6.938 -2.3945  0.5465  0.6430
 6103SOL     OW29941   2.346   1.304  15.394  0.2228  0.5428  0.2078
 6103SOL    HW129942   2.288   1.310  15.471 -1.1177  3.0572 -0.9989
 6103SOL    HW229943   2.379   1.214  15.401  0.2966  0.7306  2.4828
 6104SOL     OW29944   1.787   1.891   2.538 -0.1056  0.5232 -0.0911
 6104SOL    HW129945   1.759   1.959   2.477  2.6295  1.7810  0.0414
 6104SOL    HW229946   1.707   1.845   2.563  1.0191 -2.7813 -2.4661
 6105SOL     OW29947   2.319   3.587   0.397 -0.4274  0.1336  0.2656
 6105SOL    HW129948   2.275   3.502   0.410 -2.6353  1.2800  0.3002
 6105SOL    HW229949   2.297   3.610   0.307 -1.6812  1.0233  0.8053
 6106SOL     OW29950   0.989   4.730   6.072 -0.2909  0.1136 -0.1322
 6106SOL    HW129951   1.037   4.709   6.152 -1.3330 -1.6068  0.0508
 6106SOL    HW229952   1.041   4.679   6.009 -0.6473 -0.1188 -0.2407
 6107SOL     OW29953   0.527   3.755   7.884  0.3102 -0.0230  0.1082
 6107SOL    HW129954   0.513   3.770   7.977  2.0442  1.9617  0.0620
 6107SOL    HW229955   0.512   3.661   7.882  0.3627 -0.0138 -0.9401
 6108SOL     OW29956   4.726   2.242  15.851  0.5460 -0.1331  0.0677
 6108SOL    HW129957   4.662   2.304  15.817 -0.3803 -2.5739 -2.6004
 6108SOL    HW229958   0.055   2.228  15.781 -1.8204 -0.2741 -2.0547
 6109SOL     OW29959   2.806   0.732   6.761  0.2918 -0.0674  0.5463
 6109SOL    HW129960   2.881   0.779   6.726  0.4860 -1.4126 -0.8689
 6109SOL    HW229961   2.730   0.787   6.742  1.0498  0.8616  0.2498
 6110SOL     OW29962   0.098   0.799   1.024  0.7716  0.1764 -0.0412
 6110SOL    HW129963   0.115   0.776   0.933 -1.1802  2.2520 -0.9228
 6110SOL    HW229964   0.003   0.804   1.034  1.0652  2.0057  1.9858
 6111SOL     OW29965   0.725   0.682   5.850  0.6738 -0.2658 -0.1950
 6111SOL    HW129966   0.776   0.742   5.797 -0.3204  1.1276  0.4038
 6111SOL    HW229967   0.676   0.634   5.784  0.5006  0.4270 -0.5759
 6112SOL     OW29968   2.538   0.161   5.711 -0.3543  0.4691  0.5299
 6112SOL    HW129969   2.540   0.096   5.781  0.1172  1.8966  1.8418
 6112SOL    HW229970   2.462   0.137   5.657  0.2798  2.2435 -1.1484
 6113SOL     OW29971   2.986   0.177   4.336 -0.0250 -0.0494 -0.2751
 6113SOL    HW129972   3.067   0.172   4.387 -1.9340  0.4015  2.7279
 6113SOL    HW229973   2.987   0.086   4.306  0.3087  0.2872 -1.2931
 6114SOL     OW29974   0.104   4.250   9.397 -0.1569 -0.0019  0.3275
 6114SOL    HW129975   0.032   4.188   9.387  1.6197 -1.7953 -1.3101
 6114SOL    HW229976   0.178   4.204   9.356 -0.3143 -1.9474  2.2304
 6115SOL     OW29977   3.831   0.589  16.428  0.3093 -0.1934  0.8163
 6115SOL    HW129978   3.880   0.554  16.502  0.5641  1.1351  1.2817
 6115SOL    HW229979   3.752   0.535  16.425  0.8291 -0.8948 -0.1202
 6116SOL     OW29980   4.391   3.572  11.869  0.2907  0.0420  0.5435
 6116SOL    HW129981   4.383   3.512  11.796 -2.6854  0.5223  0.4961
 6116SOL    HW229982   4.390   3.503  11.936 -0.8017 -0.5443 -0.0851
 6117SOL     OW29983   0.946   4.469   6.830 -0.0298 -0.4188  0.4861
 6117SOL    HW129984   0.941   4.374   6.842 -0.4282 -0.6602 -1.5293
 6117SOL    HW229985   1.032   4.471   6.789 -0.5008  0.1302 -0.4646
 6118SOL     OW29986   2.849   4.573   9.139 -0.1402 -0.5502  0.3655
 6118SOL    HW129987   2.785   4.512   9.103  1.4202 -2.2699  0.5225
 6118SOL    HW229988   2.793   4.646   9.166  1.2540  0.4245  0.6168
 6119SOL     OW29989   0.655   0.811  17.403 -0.0537  0.1188  0.2416
 6119SOL    HW129990   0.567   0.844  17.422  0.5838  1.7037  0.4546
 6119SOL    HW229991   0.634   0.725  17.365 -1.2512 -0.4804  2.2518
 6120SOL     OW29992   2.425   1.540   7.913  0.0130 -0.1220 -0.0189
 6120SOL    HW129993   2.497   1.536   7.849  0.1795  1.6209  0.0530
 6120SOL    HW229994   2.486   1.528   7.985  2.5161 -0.5927 -2.2205
 6121SOL     OW29995   3.671   1.921   0.451 -0.0400 -0.9782 -0.3190
 6121SOL    HW129996   3.603   1.854   0.463 -0.2055 -0.3543  2.1204
 6121SOL    HW229997   3.633   2.007   0.436  1.2829 -0.1875  0.9638
 6122SOL     OW29998   1.034   2.275  16.916  0.2153 -0.1665 -0.0687
 6122SOL    HW129999   1.029   2.368  16.936 -0.8280 -0.0365 -0.9546
 6122SOL    HW230000   0.940   2.272  16.898  0.2544 -2.7619  0.0859
 6123SOL     OW30001   0.912   2.496   8.110  0.6096  0.7545 -0.5106
 6123SOL    HW130002   0.892   2.403   8.108 -3.0790  1.5366 -0.0917
 6123SOL    HW230003   0.849   2.521   8.178 -1.0582  2.6011 -2.7457
 6124SOL     OW30004   3.093   3.354  16.959 -0.0567  0.5729 -0.3420
 6124SOL    HW130005   3.153   3.417  16.921 -2.2093  2.9242  0.1865
 6124SOL    HW230006   3.107   3.280  16.900 -1.1480  0.8055 -0.8835
 6125SOL     OW30007   1.436   1.156   4.469 -0.4975 -0.5463 -0.2896
 6125SOL    HW130008   1.377   1.086   4.498  0.1230 -0.4020  1.3381
 6125SOL    HW230009   1.396   1.178   4.385 -0.8431  1.0023  0.2875
 6126SOL     OW30010   1.142   2.802   4.090  0.2722 -0.0835  0.6488
 6126SOL    HW130011   1.097   2.751   4.022  1.4270  0.9917 -0.9262
 6126SOL    HW230012   1.096   2.885   4.098 -1.2455 -0.8866  0.3744
 6127SOL     OW30013   1.876   2.931   6.802  0.6287  0.6234 -0.0463
 6127SOL    HW130014   1.854   2.849   6.847  2.9625  0.3981  0.6928
 6127SOL    HW230015   1.788   2.965   6.784 -0.2020 -0.8604  1.2165
 6128SOL     OW30016   1.174   3.217  10.457 -0.0656 -0.5896  0.0761
 6128SOL    HW130017   1.254   3.229  10.509 -0.5452 -0.2192  0.7299
 6128SOL    HW230018   1.209   3.182  10.375 -1.2786 -0.8085 -0.3523
 6129SOL     OW30019   0.182   3.282   5.264  0.0958 -0.0704 -0.8051
 6129SOL    HW130020   0.275   3.261   5.272 -0.0038 -0.0309  0.4270
 6129SOL    HW230021   0.195   3.377   5.260  0.0054 -0.1674 -3.3584
 6130SOL     OW30022   0.589   3.833  16.328 -0.2394  0.7781  0.4117
 6130SOL    HW130023   0.557   3.803  16.413 -0.9461  2.2171  0.6735
 6130SOL    HW230024   0.679   3.857  16.350  0.0434  1.5605 -1.5992
 6131SOL     OW30025   0.434   2.898   9.393  0.2670  0.2432  0.9418
 6131SOL    HW130026   0.447   2.806   9.369 -0.1518  0.6590 -0.8925
 6131SOL    HW230027   0.408   2.893   9.485  1.5706 -0.6525  1.2586
 6132SOL     OW30028   0.789   0.840  15.130 -0.4016  0.4563 -0.0830
 6132SOL    HW130029   0.829   0.917  15.171  1.4299 -1.1141  1.0815
 6132SOL    HW230030   0.699   0.845  15.160 -0.4467  1.0991 -0.3326
 6133SOL     OW30031   3.928   1.443   7.796  0.3572  1.1888 -0.0781
 6133SOL    HW130032   3.912   1.473   7.706 -1.3119 -1.0709 -0.5277
 6133SOL    HW230033   3.905   1.521   7.847  1.0724  2.6544 -1.9854
 6134SOL     OW30034   0.053   4.230   6.161 -0.1756 -0.1825  0.1320
 6134SOL    HW130035   0.078   4.145   6.124 -0.6692 -0.6794  0.9407
 6134SOL    HW230036   4.724   4.259   6.096 -0.0926  0.6563  0.4262
 6135SOL     OW30037   3.168   3.403   4.166  0.6755  0.2224  0.4915
 6135SOL    HW130038   3.197   3.340   4.232 -0.7027 -0.4976  0.4272
 6135SOL    HW230039   3.112   3.454   4.224  1.8330  1.9961  0.0473
 6136SOL     OW30040   4.498   4.124   2.963  0.0669 -0.4905 -0.1393
 6136SOL    HW130041   4.534   4.144   2.876 -2.0858  1.7238 -0.5398
 6136SOL    HW230042   4.415   4.173   2.963  1.2573  1.5368  0.2822
 6137SOL     OW30043   3.465   0.670   7.255 -0.1691  0.5573 -0.2935
 6137SOL    HW130044   3.407   0.653   7.181  0.8645 -1.3157 -0.6928
 6137SOL    HW230045   3.501   0.756   7.235  2.7102 -0.0399  2.3164
 6138SOL     OW30046   1.757   0.478  15.370 -0.4193  0.9474 -0.0442
 6138SOL    HW130047   1.767   0.565  15.330 -0.0519  0.9289  0.0023
 6138SOL    HW230048   1.678   0.439  15.333 -0.8946  0.9240  1.0015
 6139SOL     OW30049   1.916   3.851   2.245 -0.1280 -0.0969  0.6084
 6139SOL    HW130050   1.831   3.810   2.228 -0.1307  0.0218  0.3384
 6139SOL    HW230051   1.921   3.825   2.337 -2.5240  0.2223  0.8284
 6140SOL     OW30052   3.983   1.839   4.943  0.1283 -0.3848  0.1865
 6140SOL    HW130053   4.000   1.916   4.996 -1.5810 -1.5508  2.4230
 6140SOL    HW230054   3.924   1.791   5.001  0.7983 -2.2131 -0.6549
 6141SOL     OW30055   1.859   1.915   7.193 -0.3322 -0.5578  1.0125
 6141SOL    HW130056   1.796   1.879   7.132  1.0369 -2.2136  0.5851
 6141SOL    HW230057   1.910   1.835   7.201 -0.0960 -0.5609 -0.5477
 6142SOL     OW30058   1.473   3.541   9.837  0.1820 -0.7874  0.2466
 6142SOL    HW130059   1.536   3.613   9.835 -1.1561  0.3342 -1.5904
 6142SOL    HW230060   1.397   3.599   9.832  0.6110 -0.2210  0.3180
 6143SOL     OW30061   3.063   2.402   7.462 -0.2215 -0.0666 -0.1566
 6143SOL    HW130062   3.132   2.394   7.397  0.4206  1.0709  0.3815
 6143SOL    HW230063   3.073   2.495   7.482 -1.9681  0.4675 -1.8160
 6144SOL     OW30064   2.757   2.836   1.054 -0.3261 -0.1861 -0.2308
 6144SOL    HW130065   2.691   2.791   1.107  0.7845 -2.9658 -1.1535
 6144SOL    HW230066   2.707   2.835   0.972  0.9719 -1.1547 -1.0202
 6145SOL     OW30067   0.967   0.316  11.795 -0.2829  0.5135  0.3142
 6145SOL    HW130068   1.008   0.334  11.880  1.5341  0.5798 -0.5914
 6145SOL    HW230069   1.038   0.293  11.736  0.6392  2.0154  0.8350
 6146SOL     OW30070   2.757   2.485   6.380  0.0550 -0.0673 -0.1807
 6146SOL    HW130071   2.813   2.428   6.432 -0.1375  0.4675  0.6252
 6146SOL    HW230072   2.672   2.441   6.387  0.8148 -1.9006 -2.9037
 6147SOL     OW30073   2.639   2.327  12.789  0.3639  0.0481  0.2690
 6147SOL    HW130074   2.578   2.344  12.862 -0.2376 -1.1537  0.0546
 6147SOL    HW230075   2.592   2.246  12.768  0.6851  0.4496 -1.9846
 6148SOL     OW30076   2.920   3.138   2.512  0.2820 -0.0007 -0.2669
 6148SOL    HW130077   2.876   3.091   2.441 -1.4621 -0.0873  0.8758
 6148SOL    HW230078   2.868   3.113   2.589  2.1385  0.8317  1.2809
 6149SOL     OW30079   4.573   4.310   5.523 -0.2640  0.4874 -0.4657
 6149SOL    HW130080   4.487   4.271   5.509 -0.2363  0.6831 -1.1760
 6149SOL    HW230081   4.547   4.401   5.517 -1.1843  0.1985 -0.8100
 6150SOL     OW30082   0.659   0.927  15.858 -0.0668 -0.2589  0.5404
 6150SOL    HW130083   0.643   0.834  15.846  1.0103 -0.5800  1.5468
 6150SOL    HW230084   0.699   0.954  15.775  0.5235 -1.3380  0.4742
 6151SOL     OW30085   2.643   0.555  14.255  0.0569 -0.4157  0.2588
 6151SOL    HW130086   2.704   0.482  14.243  0.2576 -0.2067  0.0168
 6151SOL    HW230087   2.596   0.551  14.172  1.5976 -1.0342 -0.5803
 6152SOL     OW30088   3.823   1.834   1.129 -0.2833 -0.0508  0.4576
 6152SOL    HW130089   3.887   1.767   1.154 -1.1394 -0.7177  0.8603
 6152SOL    HW230090   3.879   1.893   1.078 -0.1648 -0.1190  0.5074
 6153SOL     OW30091   4.407   0.954   7.578  0.0300 -0.0340 -0.3307
 6153SOL    HW130092   4.488   0.996   7.607 -0.5439  1.6827 -1.1835
 6153SOL    HW230093   4.440   0.882   7.524  0.6119 -0.2843  0.3638
 6154SOL     OW30094   0.728   1.547  16.212 -0.4684 -0.0270  0.0045
 6154SOL    HW130095   0.662   1.532  16.280  1.0748  1.2161  1.7654
 6154SOL    HW230096   0.695   1.488  16.144  0.8854 -0.9802  0.1675
 6155SOL     OW30097   2.854   1.905   2.741  0.0290 -0.1347  0.1077
 6155SOL    HW130098   2.810   1.981   2.779  2.4648  1.3700 -0.0848
 6155SOL    HW230099   2.938   1.942   2.714 -0.9797  0.5601 -2.0408
 6156SOL     OW30100   0.343   0.973   5.027  0.1192  0.3930  0.1854
 6156SOL    HW130101   0.412   0.995   5.089 -0.0419  0.1918  0.4332
 6156SOL    HW230102   0.386   0.991   4.943 -1.3849  1.0292 -0.4548
 6157SOL     OW30103   0.713   1.043  13.946 -0.3864 -0.0302  0.0277
 6157SOL    HW130104   0.712   1.092  13.864  2.6646 -2.1697 -1.2687
 6157SOL    HW230105   0.746   0.958  13.917 -2.6411 -0.8152 -0.2504
 6158SOL     OW30106   3.170   1.014  13.111 -0.2116 -0.0556  0.1615
 6158SOL    HW130107   3.172   1.007  13.016 -1.4087  1.6643  0.0085
 6158SOL    HW230108   3.229   0.942  13.134  0.7217  0.2759 -1.1922
 6159SOL     OW30109   2.184   0.009   1.995  0.2855 -0.4175 -0.0131
 6159SOL    HW130110   2.263   4.689   1.995  1.1184  0.7692  1.5002
 6159SOL    HW230111   2.227   0.089   2.024 -0.6882  0.1611 -0.1953
 6160SOL     OW30112   4.395   4.529   7.000  0.1320 -0.2902  0.2586
 6160SOL    HW130113   4.413   4.511   6.908  1.8006 -1.8016  0.8747
 6160SOL    HW230114   4.456   4.466   7.039 -0.6020 -0.6098  0.8686
 6161SOL     OW30115   4.343   3.531   7.824  0.4219  0.2908 -0.1420
 6161SOL    HW130116   4.256   3.508   7.790  0.7793 -2.1872  0.5883
 6161SOL    HW230117   4.393   3.469   7.770  1.8743  1.2606  0.0961
 6162SOL     OW30118   2.018   3.043   8.027  0.0050  0.0875  0.6902
 6162SOL    HW130119   2.090   2.985   8.002 -1.3046 -0.3356 -2.0355
 6162SOL    HW230120   2.012   3.035   8.122 -1.1047  0.3798  0.6488
 6163SOL     OW30121   3.702   3.323   5.587 -0.4186  0.2254  0.1039
 6163SOL    HW130122   3.685   3.350   5.678  1.5085 -0.9631  0.8293
 6163SOL    HW230123   3.791   3.353   5.569 -0.9339  2.2853  0.9708
 6164SOL     OW30124   0.371   3.946   6.180 -0.7807 -0.1135 -0.2703
 6164SOL    HW130125   0.418   3.950   6.097  0.2884  0.9804  0.3880
 6164SOL    HW230126   0.280   3.957   6.150 -0.7839 -0.2468 -0.3073
 6165SOL     OW30127   2.847   0.828   2.391 -0.2956  0.1057 -0.7511
 6165SOL    HW130128   2.890   0.838   2.306 -0.2956 -0.9710 -0.8774
 6165SOL    HW230129   2.914   0.847   2.456 -0.4871 -3.0483  0.4032
 6166SOL     OW30130   4.408   3.150   7.718  0.2442  0.2014  0.2802
 6166SOL    HW130131   4.377   3.109   7.637  3.0258 -2.1654  0.4153
 6166SOL    HW230132   4.450   3.224   7.675 -1.2025  0.0552 -1.3882
 6167SOL     OW30133   0.779   2.538  15.849  0.3231  0.3801 -0.0642
 6167SOL    HW130134   0.744   2.551  15.761  1.9082 -0.7493 -0.8603
 6167SOL    HW230135   0.850   2.601  15.839 -0.2788  1.2090  0.9181
 6168SOL     OW30136   3.621   3.748   2.698 -0.0377  0.0933 -0.2820
 6168SOL    HW130137   3.571   3.694   2.638 -1.1457 -0.0930  0.8096
 6168SOL    HW230138   3.692   3.781   2.642  0.3654  0.3105  0.3449
 6169SOL     OW30139   0.660   4.703  12.138 -0.3496 -0.2352  0.7165
 6169SOL    HW130140   0.618   4.716  12.223  1.5269  0.8116  1.4920
 6169SOL    HW230141   0.630   0.044  12.087 -0.8250 -0.4123  0.7358
 6170SOL     OW30142   4.611   3.176   8.156  0.4643 -0.4606  0.2140
 6170SOL    HW130143   4.572   3.211   8.075 -1.8990  0.2014  1.6357
 6170SOL    HW230144   4.669   3.251   8.168 -0.4933  0.2926  0.0864
 6171SOL     OW30145   3.457   3.052   8.512 -0.0562 -0.2245  0.6714
 6171SOL    HW130146   3.418   3.099   8.439  0.2319 -1.0496 -0.0231
 6171SOL    HW230147   3.508   3.122   8.553 -1.2512  0.5971  0.7166
 6172SOL     OW30148   0.271   1.618   6.641  0.0659  0.5727 -0.5828
 6172SOL    HW130149   0.254   1.539   6.590 -1.5168 -1.0125  2.4895
 6172SOL    HW230150   0.355   1.593   6.679 -0.7094  0.1052  0.7952
 6173SOL     OW30151   0.406   2.185   7.870 -0.2341  0.1342 -0.2721
 6173SOL    HW130152   0.450   2.178   7.786  0.0565 -0.5284 -0.0632
 6173SOL    HW230153   0.358   2.266   7.852 -0.8436  0.1024  1.1510
 6174SOL     OW30154   0.729   2.031  16.956 -0.7985  0.7226 -0.3251
 6174SOL    HW130155   0.791   1.963  16.984  0.4381  2.6890  1.7348
 6174SOL    HW230156   0.724   2.024  16.861  0.4898 -2.4546 -0.1734
 6175SOL     OW30157   0.375   0.574   5.818 -0.1226 -0.5869 -0.2763
 6175SOL    HW130158   0.298   0.625   5.792 -0.3828 -1.4437 -1.1549
 6175SOL    HW230159   0.431   0.583   5.742 -0.4590 -2.6207 -0.7512
 6176SOL     OW30160   1.651   1.125  13.616 -0.5373 -0.8073  0.2659
 6176SOL    HW130161   1.667   1.047  13.564  2.1587 -0.5566  0.7471
 6176SOL    HW230162   1.568   1.098  13.656 -0.9889  1.7194  1.0443
 6177SOL     OW30163   2.213   0.474   1.907 -0.4171  0.7634 -0.3163
 6177SOL    HW130164   2.166   0.417   1.847  0.8477  0.6725 -1.2135
 6177SOL    HW230165   2.143   0.520   1.954 -0.3305  0.7557 -0.1782
 6178SOL     OW30166   3.367   4.121  16.304  0.3498 -0.4673  0.3346
 6178SOL    HW130167   3.451   4.143  16.265 -0.4453 -0.0742 -1.1464
 6178SOL    HW230168   3.314   4.192  16.269  0.2649  0.0314  1.4780
 6179SOL     OW30169   4.702   2.637   5.147 -0.3450 -0.0412 -0.3639
 6179SOL    HW130170   0.058   2.645   5.178  0.5218  0.0336 -2.9266
 6179SOL    HW230171   4.671   2.728   5.151  0.1043  0.1316 -0.9259
 6180SOL     OW30172   0.738   4.334   5.215  1.0211  0.3228 -0.1491
 6180SOL    HW130173   0.823   4.361   5.179  2.1365 -1.2926  1.2611
 6180SOL    HW230174   0.703   4.310   5.129  0.6230  0.4354 -0.0164
 6181SOL     OW30175   2.229   4.670  11.845 -0.3636 -0.1297 -0.0171
 6181SOL    HW130176   2.314   4.642  11.878 -0.5607  0.2447  0.7961
 6181SOL    HW230177   2.256   4.734  11.779  0.6550  1.0792  1.5809
 6182SOL     OW30178   2.343   0.925  12.570 -0.1096 -0.6142 -0.0867
 6182SOL    HW130179   2.247   0.929  12.565 -0.2785 -1.5181  2.4402
 6182SOL    HW230180   2.366   0.959  12.484  0.6789 -3.0787 -0.8500
 6183SOL     OW30181   2.566   4.591   5.544 -0.4293  0.2162  0.1839
 6183SOL    HW130182   2.609   4.548   5.618  2.0229  1.1771 -0.6518
 6183SOL    HW230183   2.487   4.627   5.582 -0.7954 -0.0504 -0.3268
 6184SOL     OW30184   1.452   1.787   1.741  0.0240 -0.0607  0.7146
 6184SOL    HW130185   1.480   1.811   1.829 -1.0886  0.6879  0.8531
 6184SOL    HW230186   1.360   1.813   1.736  0.2207  0.5578  0.2814
 6185SOL     OW30187   0.927   4.362  14.557  1.0011  0.6872 -0.3976
 6185SOL    HW130188   0.941   4.288  14.498 -1.4598  0.4153 -0.6657
 6185SOL    HW230189   0.966   4.435  14.510 -1.4211  1.7772 -0.7543
 6186SOL     OW30190   3.731   0.425   8.972  0.3266  0.1277  0.1183
 6186SOL    HW130191   3.744   0.355   9.036 -0.3920  0.3003  0.4622
 6186SOL    HW230192   3.675   0.378   8.911 -0.6795 -0.0155  1.1494
 6187SOL     OW30193   3.370   0.115   2.905 -0.2056 -0.4013  0.2235
 6187SOL    HW130194   3.410   0.028   2.906 -2.8041 -1.5626  1.6447
 6187SOL    HW230195   3.314   0.116   2.827 -0.0358  1.7785  0.1130
 6188SOL     OW30196   2.110   3.886  16.735  0.1729  0.0521 -0.0614
 6188SOL    HW130197   2.036   3.933  16.772  0.1124 -0.5591  0.5968
 6188SOL    HW230198   2.118   3.932  16.652  1.4383 -0.0327  0.0132
 6189SOL     OW30199   3.182   0.802  17.227  0.7696  0.3852  1.1314
 6189SOL    HW130200   3.112   0.853  17.269  0.7178  1.3884 -0.1482
 6189SOL    HW230201   3.166   0.823  17.134  1.7845  2.5036  1.4431
 6190SOL     OW30202   0.049   2.190   5.133  0.0317  0.0018  0.4173
 6190SOL    HW130203   0.068   2.241   5.211 -3.1993 -0.3857  1.4795
 6190SOL    HW230204   0.035   2.261   5.070 -0.5046  1.9166  2.6967
 6191SOL     OW30205   0.769   0.722   2.137  0.2098 -0.4827 -0.1669
 6191SOL    HW130206   0.845   0.775   2.163 -0.5560  0.2666  0.5370
 6191SOL    HW230207   0.730   0.774   2.066  1.8061  1.2582  0.2316
 6192SOL     OW30208   0.272   0.233   2.667 -0.4248 -0.7732 -0.1864
 6192SOL    HW130209   0.181   0.261   2.661  0.7569  3.0743 -0.1938
 6192SOL    HW230210   0.280   0.194   2.580  0.1459  1.5767 -1.1843
 6193SOL     OW30211   2.405   1.486   4.004 -0.4987  0.1355  0.1582
 6193SOL    HW130212   2.452   1.565   3.977  0.2269 -0.1074  0.7411
 6193SOL    HW230213   2.336   1.493   3.937 -0.8199 -0.5470  0.4170
 6194SOL     OW30214   4.138   1.206  16.161 -0.0714  0.1306  0.1881
 6194SOL    HW130215   4.224   1.243  16.180 -0.2651  2.1394 -2.7492
 6194SOL    HW230216   4.097   1.270  16.102 -0.8985  1.7418  2.4965
 6195SOL     OW30217   2.608   1.914   2.404 -0.2240 -0.2945  0.3658
 6195SOL    HW130218   2.594   2.008   2.416 -1.1443 -0.2343 -1.2174
 6195SOL    HW230219   2.575   1.885   2.490 -0.2622 -0.7432  0.2021
 6196SOL     OW30220   4.149   1.058   3.177 -0.0877 -0.1396  0.4058
 6196SOL    HW130221   4.118   1.113   3.249  0.7263 -1.4535  1.7750
 6196SOL    HW230222   4.103   0.976   3.194  0.4836 -0.2591  1.3783
 6197SOL     OW30223   0.644   4.614   5.917  0.4447  0.3785 -0.2705
 6197SOL    HW130224   0.740   4.611   5.920  0.4615  1.2726 -0.0758
 6197SOL    HW230225   0.618   4.541   5.973 -1.5978 -0.4243 -2.2650
 6198SOL     OW30226   3.185   3.686   9.354 -0.7221  0.2434  0.4537
 6198SOL    HW130227   3.274   3.662   9.326 -0.5538 -1.5761  2.5893
 6198SOL    HW230228   3.185   3.679   9.449  0.5881  2.7380  0.6465
 6199SOL     OW30229   1.235   0.688   0.260 -0.9316 -0.1038 -0.1366
 6199SOL    HW130230   1.316   0.706   0.213 -1.8646  1.0356 -1.3234
 6199SOL    HW230231   1.204   0.778   0.266  0.8865  0.6109 -1.3399
 6200SOL     OW30232   4.698   2.209   6.644  0.3397 -0.1855 -0.0700
 6200SOL    HW130233   4.647   2.161   6.708  3.4218 -2.5550  0.5855
 6200SOL    HW230234   0.040   2.235   6.694  2.5137 -2.4003 -2.2814
 6201SOL     OW30235   3.617   3.993   7.687 -0.4419  0.4293  0.1066
 6201SOL    HW130236   3.616   4.035   7.773  5.2497 -0.6340  0.6866
 6201SOL    HW230237   3.629   3.906   7.726  0.6274 -0.4886 -2.2439
 6202SOL     OW30238   3.594   2.795   7.164  0.4203  0.2474  0.2885
 6202SOL    HW130239   3.556   2.756   7.243 -0.7006 -1.1122 -0.9274
 6202SOL    HW230240   3.571   2.736   7.092  0.0709 -1.7493  2.0291
 6203SOL     OW30241   4.623   2.672   1.725 -0.1008  0.0620 -0.5806
 6203SOL    HW130242   4.704   2.674   1.675  0.1106 -2.0265 -0.2993
 6203SOL    HW230243   4.565   2.632   1.660 -1.7052 -2.3358  2.3571
 6204SOL     OW30244   0.360   1.674   0.839 -0.2849  0.4973  0.2934
 6204SOL    HW130245   0.347   1.741   0.906  1.3360  2.7847 -1.6461
 6204SOL    HW230246   0.435   1.633   0.881  0.9048  2.0209 -0.3341
 6205SOL     OW30247   4.519   2.152   0.602 -0.6810  0.2080  0.1684
 6205SOL    HW130248   4.447   2.173   0.543  1.5220  1.4863 -2.0458
 6205SOL    HW230249   4.576   2.108   0.538 -0.4805  0.3627  0.2401
 6206SOL     OW30250   2.086   3.405   5.252  0.4688  0.5047 -0.3587
 6206SOL    HW130251   2.071   3.416   5.346  1.9912 -0.5470  0.0040
 6206SOL    HW230252   2.141   3.482   5.237  2.5315 -0.9609 -0.4031
 6207SOL     OW30253   4.683   0.877  15.127 -0.2228  0.2620  0.1388
 6207SOL    HW130254   4.710   0.786  15.119 -2.8831 -0.5747  0.6383
 6207SOL    HW230255   4.641   0.891  15.042 -0.3282 -1.4180 -0.0860
 6208SOL     OW30256   3.365   1.218   3.796  0.2030  0.7650 -0.2363
 6208SOL    HW130257   3.419   1.260   3.729 -0.4367 -1.3955 -2.0913
 6208SOL    HW230258   3.345   1.135   3.753 -2.6254 -0.4389  3.4652
 6209SOL     OW30259   3.700   1.853   9.443  0.0230 -0.4235  0.5201
 6209SOL    HW130260   3.732   1.897   9.522  0.9723  0.1270 -0.1607
 6209SOL    HW230261   3.715   1.918   9.375 -2.4025 -0.6862 -0.2680
 6210SOL     OW30262   3.726   2.495  16.044 -0.0991  0.1611  0.7451
 6210SOL    HW130263   3.642   2.452  16.058 -0.6178  0.8445 -0.2930
 6210SOL    HW230264   3.796   2.434  16.070 -0.5513 -0.7385 -0.1532
 6211SOL     OW30265   4.481   3.496   5.249  0.2956  0.1706  0.4407
 6211SOL    HW130266   4.551   3.561   5.258  1.6794 -0.9949 -1.8613
 6211SOL    HW230267   4.514   3.437   5.316  0.0882  0.2253  0.5914
 6212SOL     OW30268   0.272   2.009   9.213 -0.3140 -0.1309  0.3687
 6212SOL    HW130269   0.309   2.012   9.124 -0.7482  0.9906  0.2299
 6212SOL    HW230270   0.327   2.070   9.262 -1.5355  0.5870  0.8230
 6213SOL     OW30271   4.597   3.853   8.023  0.6779 -0.8480  0.6768
 6213SOL    HW130272   4.550   3.770   8.030  0.6137 -0.9579 -0.8649
 6213SOL    HW230273   4.545   3.908   8.081  1.6333  0.6014  0.1619
 6214SOL     OW30274   0.028   0.797   4.326  0.2523 -0.3910  0.6680
 6214SOL    HW130275   0.037   0.803   4.421  0.1097  0.2086  0.6430
 6214SOL    HW230276   0.116   0.765   4.305  0.2271  1.0923 -1.6274
 6215SOL     OW30277   4.556   0.470  16.813 -0.1819 -0.4025 -0.2548
 6215SOL    HW130278   4.543   0.426  16.897 -2.6596 -3.2785 -2.1736
 6215SOL    HW230279   4.569   0.559  16.847 -0.0435 -0.3722 -0.3869
 6216SOL     OW30280   1.679   2.514   3.867  0.2690  0.3889 -0.1156
 6216SOL    HW130281   1.751   2.469   3.911 -0.9862 -2.3305 -0.8330
 6216SOL    HW230282   1.681   2.486   3.775  0.3468 -0.4748  0.1487
 6217SOL     OW30283   0.256   1.375   2.159 -0.0269 -0.4760 -0.3995
 6217SOL    HW130284   0.339   1.371   2.206 -0.8718 -0.3673  1.0980
 6217SOL    HW230285   0.265   1.301   2.099  1.2259  0.3905 -1.2786
 6218SOL     OW30286   3.426   2.929   9.105 -0.3581 -0.7939 -0.0317
 6218SOL    HW130287   3.487   2.928   9.179 -0.5109  1.2607  0.1046
 6218SOL    HW230288   3.350   2.980   9.131  0.0743 -1.0516  1.7289
 6219SOL     OW30289   3.790   0.372   3.216 -0.1348  0.1288  0.1941
 6219SOL    HW130290   3.757   0.333   3.297 -1.0354  0.5592  0.0259
 6219SOL    HW230291   3.839   0.298   3.181  0.9035  0.3009  1.2828
 6220SOL     OW30292   2.321   4.219  10.338  0.3085 -0.7852 -0.4436
 6220SOL    HW130293   2.392   4.247  10.395 -0.3707 -0.0801  0.0497
 6220SOL    HW230294   2.248   4.234  10.398 -1.8453 -1.9454 -2.7418
 6221SOL     OW30295   0.327   3.921   5.834  0.2447  0.2490 -0.8557
 6221SOL    HW130296   0.333   3.982   5.907 -3.6760  1.1353 -1.2583
 6221SOL    HW230297   0.417   3.937   5.804  0.5996 -1.3074 -0.5844
 6222SOL     OW30298   0.141   3.832   2.103  0.5034  0.3018  0.2414
 6222SOL    HW130299   0.221   3.791   2.136  0.4067  0.2028  0.3539
 6222SOL    HW230300   0.172   3.852   2.015  0.2627 -0.4919 -0.0299
 6223SOL     OW30301   1.072   0.903   3.400 -0.1941 -0.2929 -0.4508
 6223SOL    HW130302   1.093   0.878   3.490  2.0948  0.6772 -0.7089
 6223SOL    HW230303   1.026   0.831   3.357 -2.0331 -1.0034  2.6819
 6224SOL     OW30304   1.232   3.782   3.543 -0.3032  0.8111 -0.3075
 6224SOL    HW130305   1.316   3.738   3.530 -0.8960  0.1914 -1.9370
 6224SOL    HW230306   1.246   3.862   3.492 -0.3342  0.1048 -1.4149
 6225SOL     OW30307   0.592   0.648   2.315 -0.1232  0.4049  0.1060
 6225SOL    HW130308   0.646   0.688   2.247  2.5116 -0.1333  1.8873
 6225SOL    HW230309   0.644   0.664   2.393  0.3378 -1.2075  0.1411
 6226SOL     OW30310   0.098   0.903   2.383 -0.1582  0.2471 -0.2168
 6226SOL    HW130311   0.110   0.813   2.413  3.1449 -0.2312 -3.0459
 6226SOL    HW230312   0.036   0.929   2.452  0.7927 -1.0257  1.0941
 6227SOL     OW30313   0.408   1.929  15.088  0.0776 -0.3279 -0.2321
 6227SOL    HW130314   0.330   1.940  15.033 -0.0403 -0.1994 -0.0410
 6227SOL    HW230315   0.407   2.017  15.127  0.4677  0.1045 -1.1927
 6228SOL     OW30316   1.605   0.464  16.044 -0.3504  0.2753  0.5212
 6228SOL    HW130317   1.688   0.425  16.020 -0.3944  0.5180 -0.0392
 6228SOL    HW230318   1.639   0.532  16.102 -1.6722  2.4808 -1.2769
 6229SOL     OW30319   0.532   1.237   9.033  0.2705  0.1765 -0.0427
 6229SOL    HW130320   0.581   1.268   8.957 -3.7812 -0.7558 -3.0231
 6229SOL    HW230321   0.439   1.254   9.017  0.2668  0.4443  0.2565
 6230SOL     OW30322   0.855   3.626   4.660  0.1303 -0.6741  0.9901
 6230SOL    HW130323   0.812   3.670   4.587 -0.0221 -0.2880  1.3095
 6230SOL    HW230324   0.928   3.568   4.637  0.7223  0.5065 -0.1146
 6231SOL     OW30325   0.150   3.191   4.994 -0.0951  0.0662  0.4589
 6231SOL    HW130326   0.063   3.197   4.953 -0.4695  2.6460  1.6239
 6231SOL    HW230327   0.138   3.229   5.081 -1.2551  0.5904  0.0853
 6232SOL     OW30328   1.310   2.488   5.711 -0.0026  0.3186 -0.2402
 6232SOL    HW130329   1.289   2.429   5.638 -1.2262 -0.1007  0.4408
 6232SOL    HW230330   1.247   2.469   5.781  0.3247  0.3786  0.0714
 6233SOL     OW30331   1.299   3.168   8.113  0.4755  0.2550  0.7693
 6233SOL    HW130332   1.260   3.254   8.096 -0.6822 -0.4082  0.1138
 6233SOL    HW230333   1.328   3.134   8.028 -0.0451 -0.2148  0.7833
 6234SOL     OW30334   1.714   3.661   2.274 -0.0261  0.1143 -0.0436
 6234SOL    HW130335   1.647   3.727   2.289  2.6430  2.6915  0.6459
 6234SOL    HW230336   1.664   3.584   2.299 -0.3976  0.1807 -0.5888
 6235SOL     OW30337   2.041   3.738   5.649  0.5137  0.3984 -0.3875
 6235SOL    HW130338   2.107   3.779   5.704  3.4768 -2.6192 -1.6573
 6235SOL    HW230339   2.106   3.707   5.586 -0.3978  0.3494 -1.2926
 6236SOL     OW30340   2.890   4.434   0.959 -0.1750  0.2179  0.5461
 6236SOL    HW130341   2.965   4.484   0.990  1.1232  0.4944 -3.0005
 6236SOL    HW230342   2.842   4.414   1.039  1.6426  0.9324  1.8090
 6237SOL     OW30343   0.899   3.006   6.021 -0.0040 -0.2837  0.2847
 6237SOL    HW130344   0.923   2.917   5.994 -0.2292 -1.0178  2.4747
 6237SOL    HW230345   0.980   3.040   5.982  0.4707  1.7545  3.0571
 6238SOL     OW30346   3.799   3.349   5.855  0.1126  0.8802  0.5008
 6238SOL    HW130347   3.838   3.430   5.887 -0.4788  2.4001 -2.6680
 6238SOL    HW230348   3.773   3.315   5.941  0.9784 -0.7724  0.0953
 6239SOL     OW30349   2.589   2.133   4.557 -0.3754  0.2346  0.3491
 6239SOL    HW130350   2.671   2.172   4.588 -1.6031  2.3981  0.8674
 6239SOL    HW230351   2.605   2.039   4.557 -0.4378  0.2156  1.5123
 6240SOL     OW30352   2.161   0.237   5.126 -0.0810  0.0815 -0.6322
 6240SOL    HW130353   2.141   0.285   5.046 -0.0213  1.3206  0.0912
 6240SOL    HW230354   2.076   0.198   5.146  0.7363 -1.4852 -0.1772
 6241SOL     OW30355   1.487   1.003   6.845  0.0519  0.6522 -0.1408
 6241SOL    HW130356   1.525   0.917   6.866  0.1675  1.1199  1.6009
 6241SOL    HW230357   1.400   0.987   6.883  0.2621  1.3651  0.6507
 6242SOL     OW30358   1.318   1.909   8.310  0.3622 -0.0847 -0.0673
 6242SOL    HW130359   1.267   1.984   8.339 -1.1697 -0.9210 -0.5741
 6242SOL    HW230360   1.238   1.857   8.297  1.3685 -1.7238  0.2173
 6243SOL     OW30361   0.257   0.675   3.341 -0.6183  0.2434 -0.0721
 6243SOL    HW130362   0.190   0.701   3.277  1.3776  2.5278 -1.2516
 6243SOL    HW230363   0.330   0.644   3.288  1.6605  3.4362  1.2112
 6244SOL     OW30364   0.756   0.500   3.450  0.0650  0.2869 -0.1185
 6244SOL    HW130365   0.682   0.477   3.506  0.4550 -1.9792 -0.5335
 6244SOL    HW230366   0.805   0.418   3.446  0.4666  0.6205 -2.1571
 6245SOL     OW30367   0.916   4.334   8.036 -0.6014  0.6502 -0.2283
 6245SOL    HW130368   0.998   4.332   7.986  0.6111  1.0539  1.7039
 6245SOL    HW230369   0.942   4.348   8.128 -1.7796  2.5302 -0.1895
 6246SOL     OW30370   4.562   1.425   3.254  0.2665  0.1165 -0.3628
 6246SOL    HW130371   4.546   1.422   3.348 -1.4379 -0.9204 -0.6682
 6246SOL    HW230372   4.480   1.404   3.208  0.0429  0.9928 -0.3625
 6247SOL     OW30373   0.155   0.297  17.412  0.2225 -0.0776  0.0340
 6247SOL    HW130374   0.072   0.330  17.378  0.3496  0.3499  0.1449
 6247SOL    HW230375   0.223   0.317  17.348  1.1001 -0.4286  0.8615
 6248SOL     OW30376   0.904   2.933  16.415  0.3313 -0.4026 -0.4656
 6248SOL    HW130377   0.821   2.899  16.385  0.5114 -0.2821 -1.0940
 6248SOL    HW230378   0.947   2.933  16.330 -1.8255  0.1174 -1.5466
 6249SOL     OW30379   2.968   1.004   7.721 -0.1234  0.5607 -0.8603
 6249SOL    HW130380   2.910   0.927   7.722  1.6375 -0.7378  1.8167
 6249SOL    HW230381   3.032   0.966   7.781 -1.4076  1.1137  0.8360
 6250SOL     OW30382   0.217   1.599   2.805 -0.9055  0.0413  0.0136
 6250SOL    HW130383   0.191   1.574   2.717  0.1389 -1.0507  0.0205
 6250SOL    HW230384   0.190   1.525   2.859  1.1391 -0.6103  0.1390
 6251SOL     OW30385   0.851   4.117  14.988  0.1620 -0.7751 -0.1244
 6251SOL    HW130386   0.937   4.129  15.027 -0.2199  1.9080 -0.1140
 6251SOL    HW230387   0.871   4.088  14.899 -1.8465 -0.0293 -0.8206
 6252SOL     OW30388   0.147   2.755   7.357 -0.6573 -0.4408  0.0864
 6252SOL    HW130389   0.132   2.847   7.334  1.4809  0.1230  0.9492
 6252SOL    HW230390   0.242   2.747   7.344 -0.5239  0.6649  0.3889
 6253SOL     OW30391   3.441   1.191   4.917 -0.4142 -0.1165 -0.1983
 6253SOL    HW130392   3.400   1.260   4.969 -0.7169  1.1049 -2.0345
 6253SOL    HW230393   3.430   1.120   4.980  2.9049 -1.0985 -0.7180
 6254SOL     OW30394   3.122   3.763   4.119  0.6329 -0.3560  0.2828
 6254SOL    HW130395   3.064   3.698   4.079  0.1445 -0.4833  1.2015
 6254SOL    HW230396   3.101   3.741   4.210 -2.1209  1.9537  0.1993
 6255SOL     OW30397   0.388   2.764   3.714 -0.5362 -0.2446  0.6886
 6255SOL    HW130398   0.429   2.710   3.646 -1.9598  0.0260 -0.4020
 6255SOL    HW230399   0.414   2.850   3.681 -1.9736 -1.4456 -3.5842
 6256SOL     OW30400   2.329   3.791  16.548  0.5884 -0.1520 -1.0710
 6256SOL    HW130401   2.410   3.842  16.543  0.1624  0.4196 -2.1327
 6256SOL    HW230402   2.271   3.852  16.593  1.1730 -1.0011  0.8391
 6257SOL     OW30403   3.843   3.889  16.908 -0.3938 -0.0286  0.2094
 6257SOL    HW130404   3.875   3.864  16.821 -1.0525 -2.1716  0.5963
 6257SOL    HW230405   3.759   3.929  16.887 -0.3365 -0.1613 -0.2823
 6258SOL     OW30406   2.004   1.992   9.962 -0.0468 -0.0603  0.1509
 6258SOL    HW130407   1.963   1.981  10.048 -0.3486 -1.4984 -0.1804
 6258SOL    HW230408   2.059   1.914   9.964 -0.2388 -0.1751  0.9946
 6259SOL     OW30409   4.139   1.751   6.455 -0.3989  0.0440  0.4547
 6259SOL    HW130410   4.127   1.822   6.518  0.3938  0.7914 -0.2307
 6259SOL    HW230411   4.087   1.685   6.500  0.1854 -0.3857  0.5100
 6260SOL     OW30412   0.388   0.330   0.111 -0.1972  0.4814 -0.1141
 6260SOL    HW130413   0.406   0.424   0.112  0.7753  0.3129 -2.2605
 6260SOL    HW230414   0.467   0.292   0.149  0.7523  0.1692 -2.4063
 6261SOL     OW30415   3.976   1.179  13.908  0.2122 -0.1283 -0.1104
 6261SOL    HW130416   3.905   1.243  13.900  0.3304 -0.0770 -0.7853
 6261SOL    HW230417   4.049   1.240  13.914  0.3108 -0.4277  1.6929
 6262SOL     OW30418   0.059   1.387   8.408 -0.3270 -0.5150  0.1030
 6262SOL    HW130419   4.715   1.360   8.361 -0.5650 -1.5092  1.0806
 6262SOL    HW230420   0.095   1.445   8.341 -1.1870 -1.6665 -1.3434
 6263SOL     OW30421   4.689   4.328   4.405  0.7062 -0.1288 -0.1747
 6263SOL    HW130422   4.691   4.261   4.336  1.8873 -0.6730  0.3926
 6263SOL    HW230423   4.632   4.395   4.367  0.2343 -0.8475 -0.7352
 6264SOL     OW30424   2.162   4.238   1.767 -0.1017 -0.3472 -0.1884
 6264SOL    HW130425   2.137   4.326   1.739 -1.9334  0.1489  2.9727
 6264SOL    HW230426   2.079   4.205   1.801  1.4291 -1.9541  2.0115
 6265SOL     OW30427   0.525   1.536   6.697  0.2563  0.3003  0.2870
 6265SOL    HW130428   0.567   1.621   6.688 -0.6483  0.4871 -2.0849
 6265SOL    HW230429   0.542   1.506   6.607  0.0090  0.7921  0.0771
 6266SOL     OW30430   1.034   3.261   1.789 -0.1055 -0.0863 -0.5481
 6266SOL    HW130431   0.976   3.285   1.862 -0.3051 -1.5170 -0.2473
 6266SOL    HW230432   1.001   3.172   1.782  0.0812 -0.2318  0.4468
 6267SOL     OW30433   2.434   1.962   5.531  0.4816  0.3322 -0.9153
 6267SOL    HW130434   2.482   2.044   5.544  0.1833  0.4968 -0.8329
 6267SOL    HW230435   2.500   1.895   5.517 -2.2497 -2.5976  0.1276
 6268SOL     OW30436   4.313   3.009   8.041  0.0497  0.8069  0.2932
 6268SOL    HW130437   4.290   2.979   8.129 -1.1143  0.9541  0.0396
 6268SOL    HW230438   4.306   3.104   8.049 -1.7841  0.8898 -2.4837
 6269SOL     OW30439   3.084   1.673   8.649 -0.1872 -0.2719  0.1496
 6269SOL    HW130440   3.148   1.731   8.690 -0.3658 -0.4955  0.7496
 6269SOL    HW230441   3.096   1.701   8.558 -0.1642  0.3910  0.3560
 6270SOL     OW30442   3.084   1.699   3.879  0.0385 -0.0333 -0.4869
 6270SOL    HW130443   3.122   1.660   3.957 -0.7690 -1.0744 -0.6095
 6270SOL    HW230444   3.020   1.763   3.910  0.4607  0.4374 -0.6024
 6271SOL     OW30445   0.605   3.423   3.965  0.6558  0.0277 -0.2852
 6271SOL    HW130446   0.519   3.461   3.978 -0.1966 -0.9256 -3.0215
 6271SOL    HW230447   0.600   3.341   4.015 -0.8134 -0.4636 -1.2272
 6272SOL     OW30448   2.964   0.843  13.425 -0.4562 -0.1597  0.2220
 6272SOL    HW130449   2.947   0.934  13.400  2.7589  0.5040  0.4463
 6272SOL    HW230450   2.878   0.802  13.419  0.1702 -1.4375 -0.0541
 6273SOL     OW30451   4.405   2.638   5.198  0.0425  0.7330  0.1991
 6273SOL    HW130452   4.472   2.619   5.132  3.6247  0.7398  3.8055
 6273SOL    HW230453   4.428   2.590   5.278 -1.2269 -0.0340  0.1065
 6274SOL     OW30454   4.070   3.700  13.729 -0.1647 -0.1032 -0.3368
 6274SOL    HW130455   4.065   3.624  13.672 -1.7379 -1.4432  1.6134
 6274SOL    HW230456   4.048   3.769  13.666 -1.4393 -0.6658 -0.4956
 6275SOL     OW30457   1.041   4.656   0.484  0.1117 -0.0353  0.9498
 6275SOL    HW130458   1.007   0.004   0.518 -1.4223 -0.2845  0.0387
 6275SOL    HW230459   1.023   4.593   0.554  0.0172 -1.3838 -0.2834
 6276SOL     OW30460   3.274   2.684   4.345 -0.3011 -0.3980 -0.1380
 6276SOL    HW130461   3.362   2.679   4.381 -0.2940  2.6822  0.2568
 6276SOL    HW230462   3.266   2.600   4.299  2.3709 -0.4732 -0.4495
 6277SOL     OW30463   4.491   3.849   2.924  0.3404  0.0650 -0.0804
 6277SOL    HW130464   4.462   3.940   2.930 -1.1406 -0.4612  0.7519
 6277SOL    HW230465   4.434   3.814   2.855 -0.9521  0.2968  0.8608
 6278SOL     OW30466   3.759   2.314   1.373  0.3673 -0.0936 -0.5881
 6278SOL    HW130467   3.690   2.313   1.306 -0.5405  0.0738  0.3419
 6278SOL    HW230468   3.706   2.346   1.446  3.1324  0.6396  1.0927
 6279SOL     OW30469   1.406   3.541   5.924 -0.1180  0.6324 -0.0172
 6279SOL    HW130470   1.451   3.472   5.972 -3.1608  0.2705  2.2881
 6279SOL    HW230471   1.424   3.531   5.831  1.2435 -0.5003  0.3764
 6280SOL     OW30472   0.417   2.139   3.598 -0.2439 -0.0380  0.1668
 6280SOL    HW130473   0.423   2.066   3.537  1.2055 -1.3587  1.8854
 6280SOL    HW230474   0.339   2.177   3.557  0.5391  1.3257 -0.0622
 6281SOL     OW30475   4.363   3.665  10.158  0.1592 -0.3000  0.5287
 6281SOL    HW130476   4.387   3.639  10.070 -0.4181 -1.9940  0.8793
 6281SOL    HW230477   4.445   3.709  10.180 -0.0078  0.3031 -0.0672
 6282SOL     OW30478   4.528   3.746   6.616 -0.2414  0.2137  0.1728
 6282SOL    HW130479   4.437   3.739   6.587 -0.0048 -0.3909 -0.3959
 6282SOL    HW230480   4.515   3.757   6.711 -0.5788  2.7953 -0.1657
 6283SOL     OW30481   4.479   2.368  15.325  0.0148 -0.1738  0.0267
 6283SOL    HW130482   4.564   2.325  15.325 -1.4208 -3.0146  0.9937
 6283SOL    HW230483   4.503   2.446  15.275 -1.9191  1.9708  2.3917
 6284SOL     OW30484   1.234   0.480   6.575 -0.1507  0.1906  0.1321
 6284SOL    HW130485   1.239   0.552   6.638 -0.0955 -0.7621  1.2337
 6284SOL    HW230486   1.172   0.523   6.516 -1.4902 -0.3651  1.1354
 6285SOL     OW30487   3.880   1.109  17.489 -0.3692 -0.3157 -0.0014
 6285SOL    HW130488   3.875   1.047  17.562  0.1523 -1.6796 -1.1179
 6285SOL    HW230489   3.975   1.118  17.480 -0.6559  0.5884 -1.9501
 6286SOL     OW30490   2.601   4.479   2.364 -0.1518  0.1097 -0.1210
 6286SOL    HW130491   2.519   4.453   2.322  0.2069  1.1303 -1.4516
 6286SOL    HW230492   2.661   4.487   2.289 -0.8364  1.6042 -0.4960
 6287SOL     OW30493   1.297   1.573  14.130  0.3057  0.1655 -0.2842
 6287SOL    HW130494   1.272   1.482  14.150 -0.9467  0.7109  0.6012
 6287SOL    HW230495   1.220   1.601  14.081  0.1487 -3.0959 -1.9503
 6288SOL     OW30496   2.958   4.696  11.897  0.4100 -0.0337  0.9225
 6288SOL    HW130497   2.902   4.619  11.904 -1.3006  1.2124  0.7030
 6288SOL    HW230498   2.885   0.022  11.886  0.2998 -0.3601 -0.1048
 6289SOL     OW30499   0.093   0.773   8.225 -0.5661 -0.3744  0.5077
 6289SOL    HW130500   0.078   0.820   8.308  2.0363  1.6241 -0.1349
 6289SOL    HW230501   0.143   0.699   8.260 -0.9440 -0.7560  0.2353
 6290SOL     OW30502   0.791   3.935   9.389  0.6001  0.5491 -0.1238
 6290SOL    HW130503   0.807   3.841   9.386 -0.1915  0.4580 -1.6252
 6290SOL    HW230504   0.696   3.938   9.373  0.2354  0.9509  2.1757
 6291SOL     OW30505   2.484   2.483   4.616 -0.5481 -0.4385  0.0975
 6291SOL    HW130506   2.482   2.387   4.609 -3.3130 -0.4545  0.9686
 6291SOL    HW230507   2.391   2.507   4.619 -1.0373 -2.0134 -2.1781
 6292SOL     OW30508   2.541   3.483  15.608 -0.1359 -0.0535  0.5448
 6292SOL    HW130509   2.622   3.482  15.659 -0.2817  1.4528  0.8156
 6292SOL    HW230510   2.574   3.505  15.521 -1.0677  3.0211  0.9609
 6293SOL     OW30511   0.745   1.986  11.744  0.0073 -0.0483  0.4229
 6293SOL    HW130512   0.652   2.006  11.734  0.6141  3.3037  1.6604
 6293SOL    HW230513   0.741   1.890  11.742 -0.5618  0.0179 -1.9484
 6294SOL     OW30514   4.663   0.744   7.774 -0.9845  0.6853 -0.4133
 6294SOL    HW130515   0.020   0.762   7.753 -1.4592  1.3636 -1.9386
 6294SOL    HW230516   4.640   0.815   7.834 -1.9479  0.6338 -0.7077
 6295SOL     OW30517   3.524   0.876   6.525 -0.1378  0.0049 -0.3978
 6295SOL    HW130518   3.587   0.872   6.453 -1.4470 -0.6350 -1.5230
 6295SOL    HW230519   3.541   0.793   6.568 -0.8254 -0.5116 -1.1201
 6296SOL     OW30520   1.839   3.687   8.181 -0.0361 -0.0671 -0.4488
 6296SOL    HW130521   1.818   3.715   8.270  0.9259 -0.4998 -0.0794
 6296SOL    HW230522   1.808   3.762   8.131 -0.1374 -0.5526 -1.1190
 6297SOL     OW30523   0.009   4.149   5.799  0.6149 -0.1236 -0.9952
 6297SOL    HW130524   4.670   4.111   5.847  0.5606 -0.5344 -1.4033
 6297SOL    HW230525   4.715   4.110   5.716 -0.5225 -0.0385 -0.6390
 6298SOL     OW30526   1.133   1.698  12.836 -0.4047 -0.1552 -0.4825
 6298SOL    HW130527   1.092   1.641  12.771  0.7455 -0.1502 -1.2068
 6298SOL    HW230528   1.118   1.786  12.799  2.9003  0.2172 -0.8843
 6299SOL     OW30529   3.813   2.050   1.504  0.5557  0.2226 -0.2650
 6299SOL    HW130530   3.773   2.130   1.471 -2.2256 -0.3889  1.6859
 6299SOL    HW230531   3.739   1.991   1.499  0.1282  0.8478 -1.3158
 6300SOL     OW30532   3.311   3.512   6.842 -0.2236  0.2887  0.1993
 6300SOL    HW130533   3.303   3.460   6.762 -0.0705  1.0853 -0.3365
 6300SOL    HW230534   3.378   3.577   6.821  0.1542 -0.1506  0.0424
 6301SOL     OW30535   1.838   0.710   1.473  0.3436 -0.4994 -0.6610
 6301SOL    HW130536   1.891   0.784   1.446 -0.2467  0.0614 -0.2846
 6301SOL    HW230537   1.761   0.762   1.499 -0.1917 -2.1227  1.0128
 6302SOL     OW30538   0.206   1.052   7.409 -0.9328 -0.4217  0.1567
 6302SOL    HW130539   0.171   0.997   7.339 -1.8128  0.6929 -0.2832
 6302SOL    HW230540   0.195   1.139   7.370  2.6614 -0.5409 -1.1025
 6303SOL     OW30541   0.489   2.926   2.967 -0.6163 -0.1747  0.3764
 6303SOL    HW130542   0.444   2.897   2.888  0.4809  1.6599 -0.8982
 6303SOL    HW230543   0.577   2.898   2.941 -1.0037 -2.1277  1.1113
 6304SOL     OW30544   2.719   1.324   8.962 -0.1464  0.0917 -0.0800
 6304SOL    HW130545   2.742   1.411   8.997  1.5791 -0.1716 -0.5672
 6304SOL    HW230546   2.722   1.345   8.869 -2.3013 -0.1024 -0.1917
 6305SOL     OW30547   4.446   3.370  13.510  0.1494  0.8170 -0.1624
 6305SOL    HW130548   4.379   3.314  13.471  1.2699 -0.5620 -0.0831
 6305SOL    HW230549   4.409   3.458  13.497 -0.8875  0.3095 -0.5997
 6306SOL     OW30550   2.786   0.540   9.390 -0.2626 -0.2342 -0.3557
 6306SOL    HW130551   2.778   0.575   9.478 -0.7201 -1.4147  0.0721
 6306SOL    HW230552   2.794   0.445   9.398  1.8736 -0.2838 -2.9816
 6307SOL     OW30553   0.361   0.971  16.635 -0.2071 -0.4609  0.5958
 6307SOL    HW130554   0.280   0.920  16.632 -0.5276  0.1941 -1.9707
 6307SOL    HW230555   0.428   0.903  16.627  0.2581 -0.2725  2.9183
 6308SOL     OW30556   1.047   0.256   7.718  0.0110  0.3559  0.1652
 6308SOL    HW130557   1.115   0.303   7.765 -0.3258  2.3904 -1.3968
 6308SOL    HW230558   1.022   0.327   7.659 -0.1256  0.9127  0.8993
 6309SOL     OW30559   4.098   2.466  10.284 -0.1700  0.1371 -0.7102
 6309SOL    HW130560   4.121   2.491  10.195  1.3016 -0.8983 -0.6028
 6309SOL    HW230561   4.020   2.411  10.278  1.3295 -2.0096 -0.3231
 6310SOL     OW30562   0.249   2.216   2.452  0.1868 -0.3399  0.1553
 6310SOL    HW130563   0.199   2.139   2.477  1.9730 -1.6456 -0.3529
 6310SOL    HW230564   0.188   2.258   2.392  1.3022  1.0751  0.0026
 6311SOL     OW30565   3.307   4.591   6.567 -0.8022  0.1102  0.0528
 6311SOL    HW130566   3.276   4.551   6.649  1.4192 -0.6849  0.5214
 6311SOL    HW230567   3.401   4.605   6.583 -0.7708  0.9887 -0.9465
 6312SOL     OW30568   1.932   4.632   2.817  0.3534  0.0434  0.5525
 6312SOL    HW130569   1.988   4.701   2.779 -2.8138  1.0045 -2.3861
 6312SOL    HW230570   1.968   4.550   2.783 -1.3523 -0.5482  0.1675
 6313SOL     OW30571   0.906   3.694   6.961  0.4624  0.4408  0.2515
 6313SOL    HW130572   0.821   3.700   6.917  0.4043  0.9361  0.4247
 6313SOL    HW230573   0.899   3.768   7.022  0.1317 -0.5921  1.4786
 6314SOL     OW30574   1.817   3.128   5.116  0.1532  0.1612 -0.0828
 6314SOL    HW130575   1.774   3.112   5.032  0.1228 -1.9738  0.3392
 6314SOL    HW230576   1.861   3.213   5.109  3.0281 -1.2320  1.0587
 6315SOL     OW30577   0.614   1.844  17.211 -0.0835 -0.3622 -0.6215
 6315SOL    HW130578   0.617   1.881  17.299  1.5974 -0.5174 -0.6165
 6315SOL    HW230579   0.695   1.871  17.167 -0.0289  1.8687  0.8358
 6316SOL     OW30580   3.626   3.511  13.434  0.5089 -0.4918  0.1165
 6316SOL    HW130581   3.542   3.555  13.417  0.4749 -0.0904  1.2938
 6316SOL    HW230582   3.617   3.431  13.383  0.1321 -0.1060 -0.4227
 6317SOL     OW30583   0.824   2.979  13.140 -0.1630 -0.1236  0.2148
 6317SOL    HW130584   0.905   2.938  13.170  1.1921  0.8987 -2.0207
 6317SOL    HW230585   0.863   3.047  13.085  1.3506  0.0254  1.4530
 6318SOL     OW30586   2.211   2.516   6.982  0.8243 -0.5726 -0.2472
 6318SOL    HW130587   2.261   2.565   7.047 -1.2809  2.1459 -0.6892
 6318SOL    HW230588   2.140   2.475   7.031  2.2104 -1.9388  0.6501
 6319SOL     OW30589   0.216   2.647   9.162 -0.3794 -0.4672  0.2699
 6319SOL    HW130590   0.296   2.644   9.214  0.3518 -1.4176 -0.9091
 6319SOL    HW230591   0.223   2.570   9.106 -0.4988  0.8190 -1.5191
 6320SOL     OW30592   3.673   3.958   7.297  0.1371  0.0202  0.5723
 6320SOL    HW130593   3.701   4.043   7.264  0.2327 -0.5566 -0.8484
 6320SOL    HW230594   3.615   3.995   7.364 -0.8317 -0.6583  0.1054
 6321SOL     OW30595   4.415   0.080   2.657 -0.7253 -0.7575 -0.5299
 6321SOL    HW130596   4.443   4.728   2.626 -0.4363 -0.5346 -0.8952
 6321SOL    HW230597   4.494   0.131   2.638 -1.8854  1.4777  0.7124
 6322SOL     OW30598   4.678   0.292  14.404  0.5307  0.0606 -0.0701
 6322SOL    HW130599   4.606   0.355  14.414  0.8123  0.4829 -0.7770
 6322SOL    HW230600   4.685   0.253  14.491 -1.8648  1.2276  0.6695
 6323SOL     OW30601   3.364   3.499   7.090 -0.4884 -0.3728 -0.2461
 6323SOL    HW130602   3.279   3.458   7.110 -1.7438  1.4541 -1.8858
 6323SOL    HW230603   3.366   3.491   6.995  0.9780 -0.3977 -0.2196
 6324SOL     OW30604   2.396   4.330   8.904 -0.2631  0.3372  0.7457
 6324SOL    HW130605   2.410   4.259   8.967 -0.1300 -1.2575 -1.1136
 6324SOL    HW230606   2.358   4.392   8.967  2.3100 -0.6317  3.2804
 6325SOL     OW30607   2.655   2.757   7.272 -0.6526  0.4212 -0.6532
 6325SOL    HW130608   2.728   2.811   7.304 -1.3021  1.1832 -0.4529
 6325SOL    HW230609   2.686   2.736   7.184 -3.7322 -2.4356 -1.0503
 6326SOL     OW30610   0.027   4.124  15.366 -0.7508 -0.5652  0.7479
 6326SOL    HW130611   0.057   4.213  15.350  0.1040 -1.3413 -2.0385
 6326SOL    HW230612   4.687   4.108  15.309  1.1177 -4.1528 -0.7287
 6327SOL     OW30613   1.170   3.747   8.704  0.3387  0.3307 -0.7137
 6327SOL    HW130614   1.147   3.812   8.771 -0.2923  1.2227 -1.7871
 6327SOL    HW230615   1.231   3.695   8.755 -1.5616 -1.9309 -0.7723
 6328SOL     OW30616   1.610   3.937   3.468  0.3586 -0.4187 -0.1561
 6328SOL    HW130617   1.696   3.894   3.465  1.7380  2.1384  3.0383
 6328SOL    HW230618   1.633   4.018   3.423 -0.0141 -0.7762 -0.9993
 6329SOL     OW30619   0.554   0.759  14.914 -0.3369  0.4695 -0.0309
 6329SOL    HW130620   0.517   0.765  15.002  1.2611  2.6023  0.5044
 6329SOL    HW230621   0.527   0.848  14.889  1.1565  0.9793  0.1867
 6330SOL     OW30622   0.828   2.427   6.572  0.1053  0.4413  0.0315
 6330SOL    HW130623   0.749   2.374   6.567 -0.0980  0.7544 -0.0811
 6330SOL    HW230624   0.833   2.453   6.480 -1.4276 -1.4379 -0.5649
 6331SOL     OW30625   0.547   1.060  14.975  0.4181  0.3457 -0.0615
 6331SOL    HW130626   0.537   1.122  15.047  0.5550  0.7336 -0.3703
 6331SOL    HW230627   0.458   1.049  14.943  0.7085  0.9515 -1.1026
 6332SOL     OW30628   0.446   1.005   7.528  0.0029 -0.3451 -0.0793
 6332SOL    HW130629   0.365   1.038   7.488  2.0087  2.1024 -2.1420
 6332SOL    HW230630   0.425   1.021   7.620  3.2466 -1.4408  0.8547
 6333SOL     OW30631   4.090   1.241  13.100 -0.0110  0.2848 -0.1954
 6333SOL    HW130632   4.111   1.275  13.012  0.2994 -0.8102 -0.5365
 6333SOL    HW230633   4.012   1.188  13.088 -0.8996  1.5904 -0.2378
 6334SOL     OW30634   1.004   3.773  15.624 -0.0289  0.3510  0.4707
 6334SOL    HW130635   0.919   3.800  15.658  1.2314  2.7349  1.6781
 6334SOL    HW230636   0.986   3.783  15.531  0.4647  0.2473  0.3613
 6335SOL     OW30637   0.191   3.310   8.836 -0.4400  0.1136 -0.1565
 6335SOL    HW130638   0.119   3.346   8.887  1.6742  3.2432  0.6547
 6335SOL    HW230639   0.149   3.283   8.754 -1.0390  2.6969 -0.6939
 6336SOL     OW30640   2.660   4.270  11.850 -0.0920  0.3389 -0.4687
 6336SOL    HW130641   2.638   4.321  11.773  0.8421 -0.8321 -1.5101
 6336SOL    HW230642   2.730   4.332  11.873  0.0785  0.1175 -0.3808
 6337SOL     OW30643   1.471   2.583   6.411 -0.4431 -0.4332  0.5828
 6337SOL    HW130644   1.379   2.561   6.425 -0.7567  0.0921 -0.6549
 6337SOL    HW230645   1.466   2.671   6.374  1.7214 -0.9515 -0.9283
 6338SOL     OW30646   3.698   4.497   4.286 -0.3479 -0.0770 -0.1345
 6338SOL    HW130647   3.747   4.427   4.329  0.2741 -0.6490 -1.8117
 6338SOL    HW230648   3.766   4.557   4.256 -1.4970  2.8411  3.0573
 6339SOL     OW30649   0.655   1.125   8.345 -0.5606  0.2864  0.3044
 6339SOL    HW130650   0.620   1.097   8.260 -0.1374 -1.7055  0.7910
 6339SOL    HW230651   0.748   1.108   8.329 -0.6925  0.0014 -0.1728
 6340SOL     OW30652   0.030   1.424   7.196  0.2777  0.4000 -0.1533
 6340SOL    HW130653   4.686   1.468   7.165 -0.1237  0.2656  0.6790
 6340SOL    HW230654   0.012   1.342   7.151  0.1756 -0.6766  1.8337
 6341SOL     OW30655   1.561   1.590  14.172 -0.2798  0.3736  0.3167
 6341SOL    HW130656   1.475   1.552  14.152  0.8351 -1.3467 -1.2480
 6341SOL    HW230657   1.532   1.675  14.205 -1.0207  0.1014  0.3780
 6342SOL     OW30658   1.276   3.461  12.069 -0.6581 -0.2527  0.2751
 6342SOL    HW130659   1.319   3.412  12.139 -0.2275 -0.1447  0.0875
 6342SOL    HW230660   1.215   3.400  12.030 -2.4522  1.4885  0.3294
 6343SOL     OW30661   2.811   2.603  10.368 -0.7304  0.0477 -0.2343
 6343SOL    HW130662   2.849   2.556  10.293  1.6421  1.9079 -0.1882
 6343SOL    HW230663   2.814   2.693  10.335 -0.0359  0.1902  0.2260
 6344SOL     OW30664   4.558   1.400  12.904  0.1159 -0.1112  0.1122
 6344SOL    HW130665   4.634   1.419  12.958 -1.2863  1.0901  1.6773
 6344SOL    HW230666   4.483   1.410  12.962 -0.9435 -0.4473 -1.1874
 6345SOL     OW30667   2.298   2.510   1.693 -0.2752  0.1487  0.3014
 6345SOL    HW130668   2.271   2.462   1.771  0.7710 -1.3199 -0.2483
 6345SOL    HW230669   2.211   2.525   1.656 -0.1040 -0.3787 -0.3249
 6346SOL     OW30670   0.453   4.562   8.810 -0.6269  0.3466  0.1754
 6346SOL    HW130671   0.475   4.643   8.857  1.2922 -0.1435  0.1302
 6346SOL    HW230672   0.407   4.592   8.732 -1.8287 -0.7222  0.4775
 6347SOL     OW30673   2.758   1.500  17.026 -0.4075 -0.6134 -0.2067
 6347SOL    HW130674   2.669   1.464  17.032 -0.3416 -0.3568  2.2111
 6347SOL    HW230675   2.756   1.541  17.112  0.5126  0.6505 -0.7803
 6348SOL     OW30676   1.105   4.181  12.883  0.3914 -0.0094 -0.4949
 6348SOL    HW130677   1.109   4.264  12.835 -3.2688  1.1564  1.2075
 6348SOL    HW230678   1.032   4.186  12.945  0.5339  1.5795 -0.4643
 6349SOL     OW30679   1.398   2.095   4.802 -0.4144  0.5542 -0.5883
 6349SOL    HW130680   1.486   2.062   4.784 -1.1751 -0.9149 -1.6256
 6349SOL    HW230681   1.378   2.059   4.888  0.5498  0.4282 -0.4139
 6350SOL     OW30682   3.058   1.590   7.340  0.2190  0.9570  0.0930
 6350SOL    HW130683   3.024   1.677   7.360 -1.8351  0.6311 -1.9358
 6350SOL    HW230684   2.992   1.531   7.377  0.6348  0.7371  0.4714
 6351SOL     OW30685   0.585   0.485   1.529  0.0901 -0.2825 -0.3746
 6351SOL    HW130686   0.593   0.580   1.518 -0.7226 -0.3146 -1.3015
 6351SOL    HW230687   0.520   0.457   1.465 -1.0167 -0.7372  0.9360
 6352SOL     OW30688   0.963   3.424   4.275  1.1131 -0.5763  0.7743
 6352SOL    HW130689   0.923   3.353   4.225  0.6837  0.1807  0.0326
 6352SOL    HW230690   0.968   3.492   4.207 -0.2002 -0.7152  0.5263
 6353SOL     OW30691   0.163   0.952  12.166  0.4511 -0.2920 -0.7178
 6353SOL    HW130692   0.249   0.911  12.173  0.5897 -0.0576 -1.0380
 6353SOL    HW230693   0.101   0.891  12.207  0.6729 -0.3178 -0.4220
 6354SOL     OW30694   0.051   4.412   5.879  0.2245  0.0566 -0.2769
 6354SOL    HW130695   4.702   4.390   5.919  0.5185 -3.3487 -1.4870
 6354SOL    HW230696   0.064   4.329   5.832  0.5165  1.0730 -1.9740
 6355SOL     OW30697   3.499   0.634   1.337  0.3032 -0.1202  0.6043
 6355SOL    HW130698   3.558   0.611   1.409  0.3655  0.0264  0.5988
 6355SOL    HW230699   3.435   0.563   1.347 -0.7435  0.9160  1.3588
 6356SOL     OW30700   2.812   0.007  16.147  0.1029  0.1254 -0.4976
 6356SOL    HW130701   2.879   0.036  16.086 -0.7802  0.4934 -1.2850
 6356SOL    HW230702   2.741   0.060  16.111 -0.1399  1.2380  1.6256
 6357SOL     OW30703   0.299   1.543  15.989 -0.1980 -0.0645  0.7127
 6357SOL    HW130704   0.311   1.626  16.034 -1.1060  0.1744  0.5028
 6357SOL    HW230705   0.296   1.571  15.897 -2.3972 -2.3727  0.0776
 6358SOL     OW30706   4.157   4.321   8.287 -0.0734  0.1118 -0.2682
 6358SOL    HW130707   4.100   4.375   8.232  1.2977  0.4083 -1.4148
 6358SOL    HW230708   4.236   4.375   8.293 -0.6554  0.9611 -0.2098
 6359SOL     OW30709   0.901   1.592  13.598  0.5767 -0.3180 -0.2166
 6359SOL    HW130710   0.914   1.579  13.692 -0.6625  1.1240  0.1417
 6359SOL    HW230711   0.900   1.500  13.570 -1.1877  1.2527 -5.2032
 6360SOL     OW30712   4.128   2.768   5.807  0.0648 -0.2682  0.7121
 6360SOL    HW130713   4.108   2.830   5.877 -1.0796 -0.1812  0.3134
 6360SOL    HW230714   4.222   2.784   5.800 -0.2289  1.6570  1.1953
 6361SOL     OW30715   3.096   4.595   9.066  0.6213  0.3348  0.3801
 6361SOL    HW130716   3.106   4.661   9.134 -1.9522  2.0400 -0.9112
 6361SOL    HW230717   3.003   4.578   9.080  0.8025 -1.8691 -0.9813
 6362SOL     OW30718   0.059   4.475   2.014  0.2915  0.4003 -0.1939
 6362SOL    HW130719   0.073   4.395   1.963 -2.0712 -0.6739  0.8280
 6362SOL    HW230720   4.706   4.506   1.989  1.0018  3.2397  0.8293
 6363SOL     OW30721   3.450   2.551  13.604 -0.1298  0.5865  0.1750
 6363SOL    HW130722   3.379   2.487  13.593  0.1312  0.2137  0.6771
 6363SOL    HW230723   3.389   2.619  13.633  0.8336  1.2150  0.7422
 6364SOL     OW30724   4.377   3.427   9.457 -0.0974 -0.1952 -0.3946
 6364SOL    HW130725   4.378   3.348   9.403  1.7863 -1.0269  0.8832
 6364SOL    HW230726   4.447   3.405   9.518 -0.2293  0.9611  0.1816
 6365SOL     OW30727   2.040   1.854   4.443 -1.0995 -0.2582 -0.9352
 6365SOL    HW130728   1.957   1.827   4.404 -1.1546  1.1350 -1.8034
 6365SOL    HW230729   2.083   1.772   4.467 -0.9055  0.0416 -0.2618
 6366SOL     OW30730   3.344   1.590   2.905  0.5764  0.4154 -0.4459
 6366SOL    HW130731   3.290   1.526   2.859 -0.1141  0.5198  0.2228
 6366SOL    HW230732   3.334   1.662   2.843  1.3145 -1.8256 -3.1727
 6367SOL     OW30733   1.796   0.682   6.195 -0.0250 -0.7982  0.2204
 6367SOL    HW130734   1.783   0.666   6.102 -2.6537 -4.6663  1.2660
 6367SOL    HW230735   1.772   0.602   6.241 -0.7971 -1.6389 -1.6465
 6368SOL     OW30736   4.248   1.567   8.508 -0.0672 -1.0852  0.6576
 6368SOL    HW130737   4.246   1.578   8.603  0.2943  0.2512  0.5054
 6368SOL    HW230738   4.194   1.640   8.478  1.6608 -0.4439 -0.8805
 6369SOL     OW30739   4.538   4.554   3.532 -0.3582  0.4003 -0.0463
 6369SOL    HW130740   4.618   4.520   3.572 -1.0021 -0.8927  0.1478
 6369SOL    HW230741   4.525   4.631   3.588 -1.7261 -0.3451  0.6561
 6370SOL     OW30742   0.871   3.880   7.167 -0.0829  0.0704  0.0540
 6370SOL    HW130743   0.944   3.942   7.175  0.8744 -1.1712  0.8500
 6370SOL    HW230744   0.876   3.840   7.253 -0.8250  1.5945  0.8140
 6371SOL     OW30745   4.299   3.563  16.286 -0.1800  0.7016  0.1114
 6371SOL    HW130746   4.268   3.528  16.203 -0.9908  0.4909  0.5082
 6371SOL    HW230747   4.393   3.570  16.267 -0.1419  0.2901  0.1576
 6372SOL     OW30748   2.887   2.973   4.550 -1.0779 -0.1379  0.2606
 6372SOL    HW130749   2.981   2.967   4.536 -0.9189  2.8612 -0.0808
 6372SOL    HW230750   2.870   2.915   4.623 -1.6305 -0.3066  0.0034
 6373SOL     OW30751   2.995   4.343   8.085 -0.7527  0.0657 -0.1751
 6373SOL    HW130752   3.086   4.372   8.090 -0.1565 -1.6733 -1.0520
 6373SOL    HW230753   2.992   4.300   8.170  2.5785 -1.0236 -0.6294
 6374SOL     OW30754   2.730   3.716   2.447 -0.2869  0.1488  0.2107
 6374SOL    HW130755   2.760   3.629   2.473  0.0260 -0.2516 -1.4737
 6374SOL    HW230756   2.763   3.728   2.358  1.3132  2.8205  1.1524
 6375SOL     OW30757   1.717   1.440   4.582  0.2399 -0.3640  0.2508
 6375SOL    HW130758   1.733   1.459   4.675 -2.6994  1.5257  0.3743
 6375SOL    HW230759   1.638   1.491   4.564  0.4272  0.0700  0.6505
 6376SOL     OW30760   1.404   3.947   4.474  0.4248 -0.3348 -0.4447
 6376SOL    HW130761   1.471   3.986   4.418  1.6180 -0.5122  0.8666
 6376SOL    HW230762   1.398   3.855   4.447 -1.3109 -0.9105  1.8515
 6377SOL     OW30763   3.049   3.293   8.923  0.0737 -0.0699 -0.3566
 6377SOL    HW130764   3.086   3.205   8.925  0.7705  0.2114 -0.5896
 6377SOL    HW230765   2.991   3.287   8.998  0.3806 -3.3095 -0.3898
 6378SOL     OW30766   1.935   1.942   3.962  0.3081  0.2471  0.3508
 6378SOL    HW130767   1.850   1.939   3.917  0.0426 -1.4718  0.9481
 6378SOL    HW230768   1.924   1.858   4.007 -2.6551 -0.6757 -2.0889
 6379SOL     OW30769   0.752   1.683  14.980  0.4906  0.4358 -0.2536
 6379SOL    HW130770   0.667   1.657  15.017  0.2072 -0.9698 -1.8784
 6379SOL    HW230771   0.800   1.687  15.063  0.4035 -0.2401 -0.1686
 6380SOL     OW30772   1.462   3.361   4.864  0.1079  0.2901  0.1120
 6380SOL    HW130773   1.484   3.411   4.785 -0.1535  1.0181  0.5030
 6380SOL    HW230774   1.378   3.329   4.831  0.6800  1.3225 -2.3712
 6381SOL     OW30775   0.025   0.168   2.826  0.0743  0.2661  0.0552
 6381SOL    HW130776   0.047   0.198   2.914 -1.0973  2.5378 -0.4362
 6381SOL    HW230777   0.064   0.081   2.831  0.6153  0.6539  2.8651
 6382SOL     OW30778   1.826   3.359   9.322 -0.1065 -0.0572 -0.2073
 6382SOL    HW130779   1.776   3.403   9.253 -0.9615  1.4086  1.3374
 6382SOL    HW230780   1.878   3.433   9.355  0.0858 -0.1681 -0.2618
 6383SOL     OW30781   3.253   2.118   8.058  0.1676  0.0026 -0.1134
 6383SOL    HW130782   3.238   2.176   8.133 -0.1162  0.8282 -0.8048
 6383SOL    HW230783   3.265   2.170   7.978 -1.0420  0.8057  0.2337
 6384SOL     OW30784   4.446   3.983   9.048 -0.5282 -0.2433 -0.4474
 6384SOL    HW130785   4.355   3.960   9.031 -0.0688 -2.9452  0.6777
 6384SOL    HW230786   4.444   4.008   9.141 -1.3247 -1.9266 -0.0174
 6385SOL     OW30787   2.833   0.165  13.888  0.3317 -0.2129  0.1172
 6385SOL    HW130788   2.847   0.124  13.973  2.0348  0.2052  0.0485
 6385SOL    HW230789   2.834   0.091  13.826 -0.3507  0.2274 -0.4088
 6386SOL     OW30790   0.988   2.761  12.427  0.0731 -0.2935  0.7249
 6386SOL    HW130791   1.027   2.834  12.378 -2.1051 -0.0738 -0.6641
 6386SOL    HW230792   0.895   2.778  12.436 -0.1167  0.2407 -2.3034
 6387SOL     OW30793   0.236   3.441   6.798 -0.2834  0.3658 -0.2560
 6387SOL    HW130794   0.147   3.475   6.789 -0.3556  0.0383 -0.7612
 6387SOL    HW230795   0.233   3.422   6.892  0.9599 -2.2699 -0.7661
 6388SOL     OW30796   0.687   2.444   9.341  0.5434 -0.0200  0.5200
 6388SOL    HW130797   0.747   2.426   9.413  1.0603 -1.4352 -0.2686
 6388SOL    HW230798   0.682   2.360   9.296 -1.4156  0.6231 -0.4682
 6389SOL     OW30799   4.067   1.092   0.798  0.1151 -0.6383 -0.0408
 6389SOL    HW130800   4.010   1.020   0.826 -1.4625  0.9035  0.7008
 6389SOL    HW230801   4.065   1.159   0.867  1.2991 -0.7131  0.0537
 6390SOL     OW30802   1.695   2.584   7.142 -0.4651 -0.2170  0.0559
 6390SOL    HW130803   1.706   2.543   7.057 -0.7853 -0.0644 -0.0559
 6390SOL    HW230804   1.674   2.673   7.113 -0.0292 -0.0670  0.1898
 6391SOL     OW30805   3.248   2.470   4.166 -0.2294  0.2174 -0.1004
 6391SOL    HW130806   3.246   2.420   4.085 -0.0142  0.0363  0.0072
 6391SOL    HW230807   3.268   2.396   4.223 -0.6666 -0.7703 -1.2259
 6392SOL     OW30808   4.517   2.525  16.084  0.1434 -0.3273 -0.0394
 6392SOL    HW130809   4.458   2.598  16.105 -0.0908 -0.8611  1.1399
 6392SOL    HW230810   4.510   2.519  15.989 -1.7055  0.8725  0.0343
 6393SOL     OW30811   0.774   1.041  15.660 -0.1948 -0.4903 -0.5199
 6393SOL    HW130812   0.828   0.986  15.603 -1.2284  0.2701 -2.2273
 6393SOL    HW230813   0.777   1.123  15.611  0.8289  0.7146  1.5516
 6394SOL     OW30814   3.215   0.431  13.625  0.1658 -0.0283 -0.4549
 6394SOL    HW130815   3.136   0.450  13.575  0.5946 -1.7996 -1.8155
 6394SOL    HW230816   3.181   0.398  13.708 -0.1269 -1.7867 -1.2707
 6395SOL     OW30817   3.433   3.633   9.270  0.1352  0.1543 -0.5362
 6395SOL    HW130818   3.490   3.608   9.343 -1.7715  0.2635  1.0017
 6395SOL    HW230819   3.491   3.629   9.194 -0.5909 -0.0191 -1.0802
 6396SOL     OW30820   3.041   4.084  16.430 -0.2755 -0.4636 -0.2834
 6396SOL    HW130821   3.130   4.098  16.461  0.1276  0.6103 -1.9826
 6396SOL    HW230822   3.052   3.995  16.399  1.6652  0.1124 -1.2217
 6397SOL     OW30823   2.809   0.670   2.773  0.1285 -1.1094  0.2437
 6397SOL    HW130824   2.902   0.651   2.765  0.7287  1.0980  2.0411
 6397SOL    HW230825   2.804   0.675   2.869 -0.5075 -4.9949  0.4380
 6398SOL     OW30826   4.127   4.155  15.097 -0.3795  0.2055  0.5432
 6398SOL    HW130827   4.051   4.188  15.145 -2.6043 -1.4309 -1.8625
 6398SOL    HW230828   4.162   4.092  15.159  0.4063 -1.0069 -1.1395
 6399SOL     OW30829   2.613   3.512   7.226  0.0772 -0.0094  0.3555
 6399SOL    HW130830   2.680   3.534   7.162  0.2245  1.3067  0.9537
 6399SOL    HW230831   2.623   3.417   7.227  0.4362  0.0248 -1.9969
 6400SOL     OW30832   4.203   2.515   5.018  0.0373 -0.0215 -0.5972
 6400SOL    HW130833   4.297   2.531   5.012  0.1768 -0.2195  0.9056
 6400SOL    HW230834   4.186   2.453   5.090  1.8002  0.4133  0.2060
 6401SOL     OW30835   0.009   4.030   2.311  0.6358 -0.0064  0.4584
 6401SOL    HW130836   0.103   4.036   2.291  0.8862 -0.6360  1.4309
 6401SOL    HW230837   0.008   4.090   2.386  1.2963  1.4482 -0.6809
 6402SOL     OW30838   2.468   2.645   6.097 -0.3305  0.3002 -0.0448
 6402SOL    HW130839   2.560   2.634   6.122 -0.7832 -0.9063  1.1076
 6402SOL    HW230840   2.440   2.615   6.183 -3.2688 -1.5050 -1.6266
 6403SOL     OW30841   0.457   1.025   7.799  0.1036  0.0535 -0.1181
 6403SOL    HW130842   0.445   0.979   7.882 -0.7136 -0.7505 -0.6773
 6403SOL    HW230843   0.544   1.065   7.804  0.6200 -0.8491 -1.8077
 6404SOL     OW30844   0.650   4.433   4.731 -0.3252 -0.8135  0.3489
 6404SOL    HW130845   0.609   4.473   4.808 -1.2684 -1.2184  0.0564
 6404SOL    HW230846   0.731   4.405   4.773 -0.6160  0.8269  2.0106
 6405SOL     OW30847   2.324   4.403   7.040  0.0136 -0.4962 -0.6921
 6405SOL    HW130848   2.238   4.360   7.043 -0.5812  0.7286 -0.2005
 6405SOL    HW230849   2.304   4.495   7.059 -3.8078 -1.2860 -0.8094
 6406SOL     OW30850   2.762   3.977   2.261  0.6569  0.7045  0.2487
 6406SOL    HW130851   2.689   4.012   2.211 -0.0676 -1.3143 -0.1361
 6406SOL    HW230852   2.774   4.041   2.330 -0.2568 -0.0155  1.0711
 6407SOL     OW30853   3.709   1.416  17.482 -0.1054  0.3256  0.2063
 6407SOL    HW130854   3.752   1.395  17.399  2.9561  1.3121  1.5429
 6407SOL    HW230855   3.677   1.327  17.498 -0.5219 -0.2383 -3.7030
 6408SOL     OW30856   1.122   2.706   6.735 -0.9168 -0.1089 -0.0662
 6408SOL    HW130857   1.139   2.795   6.705  2.9234 -1.0712 -0.7195
 6408SOL    HW230858   1.108   2.716   6.830 -2.5967 -0.1851 -0.3073
 6409SOL     OW30859   2.344   1.140  14.164  0.1644  0.4612  0.3272
 6409SOL    HW130860   2.399   1.079  14.115 -0.6953  0.4722 -0.6461
 6409SOL    HW230861   2.289   1.081  14.217 -1.5363  0.7298 -1.1434
 6410SOL     OW30862   4.554   0.882   1.096  0.0888  0.0035  0.6256
 6410SOL    HW130863   4.554   0.943   1.022 -1.6921 -1.8225 -0.8744
 6410SOL    HW230864   4.533   0.928   1.177  0.9558  1.4963  0.0154
 6411SOL     OW30865   1.571   1.631   1.578 -0.3447 -0.4484 -0.4554
 6411SOL    HW130866   1.661   1.661   1.596 -1.2084 -0.6817  4.1903
 6411SOL    HW230867   1.531   1.689   1.643  2.9666  0.7634  0.5009
 6412SOL     OW30868   2.419   4.280   4.364 -0.1693 -0.2652  0.6093
 6412SOL    HW130869   2.427   4.189   4.336 -0.1748 -0.2515  0.5620
 6412SOL    HW230870   2.468   4.282   4.446  0.0536  0.0282  0.4691
 6413SOL     OW30871   0.119   3.460  16.049 -0.4019 -0.1461  0.1225
 6413SOL    HW130872   0.189   3.415  16.001  1.8395  0.1260  3.0973
 6413SOL    HW230873   0.067   3.489  15.975  0.6873 -2.8738 -1.7186
 6414SOL     OW30874   2.901   2.431   1.128 -0.4302  0.0223  0.1536
 6414SOL    HW130875   2.820   2.472   1.156 -0.3393 -0.4002  1.0349
 6414SOL    HW230876   2.943   2.414   1.212  0.7362 -1.3150 -0.6928
 6415SOL     OW30877   1.745   1.566   5.674 -0.1268 -0.2512 -0.1488
 6415SOL    HW130878   1.752   1.473   5.694 -0.4611  0.2302  2.2256
 6415SOL    HW230879   1.692   1.550   5.595  0.7153  0.2008 -0.7994
 6416SOL     OW30880   3.015   0.127  16.003 -0.3833 -0.5313 -0.2010
 6416SOL    HW130881   3.064   0.204  16.030  0.0549 -0.4319 -1.2986
 6416SOL    HW230882   2.970   0.149  15.922 -0.8929  0.4925  0.3590
 6417SOL     OW30883   2.796   4.029  14.442 -0.0946 -0.0252 -0.3944
 6417SOL    HW130884   2.730   4.091  14.474  0.3120 -1.2662  2.9153
 6417SOL    HW230885   2.855   4.077  14.384  0.9956 -0.2809  0.4929
 6418SOL     OW30886   2.394   0.947   9.566  0.0156 -0.1892  0.2960
 6418SOL    HW130887   2.408   0.855   9.543  2.4085 -0.2860  2.1870
 6418SOL    HW230888   2.436   0.993   9.494 -0.1189  0.6604  0.7630
 6419SOL     OW30889   1.603   0.445   2.161  0.1549 -0.6732 -0.3676
 6419SOL    HW130890   1.612   0.538   2.182 -3.0744 -0.5129  0.2866
 6419SOL    HW230891   1.533   0.448   2.096 -0.3547 -0.6330  0.1846
 6420SOL     OW30892   0.399   0.089  14.662 -0.1465 -0.3166  0.1669
 6420SOL    HW130893   0.453   0.010  14.656  1.5972  0.9243 -0.1594
 6420SOL    HW230894   0.313   0.064  14.628 -0.4988  0.9480  0.1515
 6421SOL     OW30895   0.919   2.778   2.528  0.1696 -0.5651  0.4273
 6421SOL    HW130896   0.912   2.833   2.606  0.1922 -1.2794  0.9396
 6421SOL    HW230897   0.828   2.785   2.499  0.9296 -0.1372 -1.8469
 6422SOL     OW30898   2.054   2.530   9.025  0.1913  0.3703  0.6040
 6422SOL    HW130899   2.047   2.468   8.953 -0.5893  0.1655  0.8650
 6422SOL    HW230900   2.054   2.613   8.977  6.0783 -0.1644 -0.3705
 6423SOL     OW30901   4.048   1.276   3.449 -0.0397  0.1175  0.3816
 6423SOL    HW130902   4.085   1.336   3.384 -1.1612 -0.5167 -0.8420
 6423SOL    HW230903   3.990   1.340   3.490 -0.4829 -0.5008  0.7324
 6424SOL     OW30904   1.155   1.807   7.526 -0.0033  0.2493  0.0874
 6424SOL    HW130905   1.100   1.758   7.587 -0.7897  0.0000 -0.8154
 6424SOL    HW230906   1.163   1.738   7.460 -1.3524 -1.1848  1.4296
 6425SOL     OW30907   2.494   1.732   6.564 -0.2576 -0.5768 -0.2439
 6425SOL    HW130908   2.432   1.715   6.493 -0.7241  0.3436 -0.0602
 6425SOL    HW230909   2.468   1.671   6.632  3.1529  0.3294  1.8964
 6426SOL     OW30910   4.145   2.391   8.358 -0.9594  0.3549  0.2383
 6426SOL    HW130911   4.050   2.384   8.347 -1.0609  1.4725  0.4145
 6426SOL    HW230912   4.165   2.305   8.394  0.5594  0.1103 -1.1936
 6427SOL     OW30913   0.233   0.087   1.904  0.6506 -0.4253  0.2138
 6427SOL    HW130914   0.203   0.166   1.860  1.5618 -0.5906 -0.7055
 6427SOL    HW230915   0.313   0.062   1.857 -0.2954 -0.3865 -1.4118
 6428SOL     OW30916   4.546   2.565   3.382 -0.1725 -0.2705  0.2607
 6428SOL    HW130917   4.460   2.574   3.340 -0.1239 -0.0981  0.1994
 6428SOL    HW230918   4.519   2.593   3.470  0.9276 -0.8912  0.7905
 6429SOL     OW30919   3.671   2.951   3.059 -0.3743  1.3092 -0.2699
 6429SOL    HW130920   3.731   2.880   3.083  0.4837  1.7347 -1.1394
 6429SOL    HW230921   3.673   2.998   3.142  0.4012 -0.0974  0.5178
 6430SOL     OW30922   0.919   2.653   9.132  0.5928 -0.0746  0.6167
 6430SOL    HW130923   0.947   2.585   9.193 -0.4131 -0.6163  0.4683
 6430SOL    HW230924   0.890   2.717   9.197 -1.2902 -0.4553  0.1363
 6431SOL     OW30925   3.508   3.373   3.096 -0.4129  0.0897  0.4530
 6431SOL    HW130926   3.455   3.365   3.017  1.0025 -0.0973 -0.4886
 6431SOL    HW230927   3.551   3.456   3.073 -2.4439  0.7623 -0.9262
 6432SOL     OW30928   0.278   1.560   9.553 -0.3282  0.3684  0.2710
 6432SOL    HW130929   0.209   1.521   9.499 -0.9845  0.4596  1.0479
 6432SOL    HW230930   0.213   1.607   9.606  1.9921  0.8057  2.6937
 6433SOL     OW30931   0.242   4.065   5.619 -0.0094  0.4605 -0.2712
 6433SOL    HW130932   0.151   4.038   5.613  0.5255 -1.3450 -0.2007
 6433SOL    HW230933   0.273   4.030   5.703 -0.8975  2.1486  0.7538
 6434SOL     OW30934   4.417   2.059   8.233  0.4126 -0.2788  0.3263
 6434SOL    HW130935   4.479   1.988   8.217 -1.1888 -1.9643  1.5704
 6434SOL    HW230936   4.429   2.074   8.327  0.7171  1.5863 -0.0010
 6435SOL     OW30937   0.357   2.014  16.388  0.2722 -0.1333 -0.6921
 6435SOL    HW130938   0.345   2.109  16.397  0.2587 -0.3601  1.7215
 6435SOL    HW230939   0.270   1.977  16.372 -0.6105  1.3679  0.5453
 6436SOL     OW30940   2.019   4.345   2.812  0.2240 -0.1271  0.6349
 6436SOL    HW130941   2.100   4.295   2.819  0.1926 -0.0874  1.3215
 6436SOL    HW230942   1.964   4.290   2.757  0.5358  0.4127 -0.2163
 6437SOL     OW30943   1.641   3.166   6.522 -0.0749 -0.0893  0.1794
 6437SOL    HW130944   1.671   3.121   6.443 -2.0445  0.8544 -1.1079
 6437SOL    HW230945   1.722   3.155   6.572 -0.6389 -0.8715  0.9337
 6438SOL     OW30946   1.967   3.648  16.742 -0.1609 -0.0896  0.6151
 6438SOL    HW130947   2.021   3.726  16.728  1.0613 -0.8410  1.0786
 6438SOL    HW230948   2.031   3.582  16.768  0.4510  0.1962 -0.1421
 6439SOL     OW30949   0.493   2.910   6.924 -0.0250 -0.0562  0.0757
 6439SOL    HW130950   0.586   2.934   6.921 -0.0877  0.0694 -0.9433
 6439SOL    HW230951   0.512   2.834   6.979  1.4852 -0.4167 -0.9350
 6440SOL     OW30952   4.664   0.855   5.620 -0.1968 -0.1284  0.2195
 6440SOL    HW130953   4.723   0.784   5.646 -0.6178 -0.2331  0.8881
 6440SOL    HW230954   4.704   0.883   5.538  1.3722  1.0022  1.3852
 6441SOL     OW30955   0.568   0.685  11.658 -0.1377  0.7176 -0.6927
 6441SOL    HW130956   0.529   0.637  11.731 -1.6463  0.7604 -1.4796
 6441SOL    HW230957   0.602   0.768  11.693 -0.7519  1.1343 -1.0771
 6442SOL     OW30958   0.523   0.248  10.164 -0.0400  0.0698  0.0365
 6442SOL    HW130959   0.481   0.208  10.240  3.7339 -2.3462  0.8391
 6442SOL    HW230960   0.525   0.336  10.201  0.5292 -0.1239  0.4594
 6443SOL     OW30961   3.105   0.305   6.454  0.2348 -0.2505 -0.5222
 6443SOL    HW130962   3.196   0.292   6.431  0.5445  0.1685  0.4578
 6443SOL    HW230963   3.079   0.215   6.471  0.9342 -0.2661  0.4021
 6444SOL     OW30964   4.653   0.377   6.839 -0.5151 -0.2169 -0.2300
 6444SOL    HW130965   4.562   0.353   6.822 -1.2034  1.0356  1.7139
 6444SOL    HW230966   4.659   0.460   6.793  1.0963 -1.3031 -1.9972
 6445SOL     OW30967   2.444   3.520   4.662 -0.6433 -0.0045 -0.4530
 6445SOL    HW130968   2.512   3.554   4.721  0.6259 -0.8870 -1.4125
 6445SOL    HW230969   2.495   3.516   4.581 -0.2539  0.2706 -0.2242
 6446SOL     OW30970   0.734   1.256   6.418  0.5864  0.6443  0.0190
 6446SOL    HW130971   0.781   1.185   6.374 -1.4088 -0.3012 -0.6328
 6446SOL    HW230972   0.677   1.208   6.478  2.6083 -0.4270  1.0879
 6447SOL     OW30973   4.130   4.153  17.463  0.5069  0.4739  0.0601
 6447SOL    HW130974   4.100   4.217  17.399 -2.8019 -0.2442  0.8489
 6447SOL    HW230975   4.099   4.187  17.547 -0.8636  0.1766 -0.3245
 6448SOL     OW30976   4.396   0.905  17.550  0.1238 -0.0695  0.5357
 6448SOL    HW130977   4.379   0.987  17.596 -3.5351  0.2332 -1.3967
 6448SOL    HW230978   4.418   0.853  17.627  4.3637 -1.6400 -1.7364
 6449SOL     OW30979   2.460   0.700   2.614 -0.0068  0.3915 -0.3497
 6449SOL    HW130980   2.519   0.758   2.662  0.3889 -1.2256  1.1036
 6449SOL    HW230981   2.453   0.745   2.530 -1.2847 -0.6901 -0.8378
 6450SOL     OW30982   2.670   2.705   5.122 -0.0705  0.0174  0.1407
 6450SOL    HW130983   2.612   2.750   5.060 -0.1274  1.1941  1.0349
 6450SOL    HW230984   2.738   2.773   5.126  1.7206 -1.7969  0.3231
 6451SOL     OW30985   4.171   0.441   1.357 -0.2475  0.3510 -0.1493
 6451SOL    HW130986   4.169   0.428   1.452 -2.9569  0.6170 -0.1711
 6451SOL    HW230987   4.078   0.437   1.336 -0.5289 -0.5185  1.2611
 6452SOL     OW30988   1.378   1.634   6.969 -0.0809 -0.0333 -0.5751
 6452SOL    HW130989   1.449   1.592   6.920  1.5000  2.1376 -0.1445
 6452SOL    HW230990   1.407   1.725   6.963  2.4951 -0.8584 -0.4289
 6453SOL     OW30991   3.834   3.981   3.013 -0.0924 -0.1189 -0.5603
 6453SOL    HW130992   3.824   3.933   3.095 -2.6729 -0.9347 -1.3422
 6453SOL    HW230993   3.762   3.939   2.966  1.2323 -1.1539 -1.6536
 6454SOL     OW30994   3.068   3.994   7.347  0.2131 -0.0890  0.0653
 6454SOL    HW130995   2.980   3.960   7.367 -0.2162 -0.0427 -1.7945
 6454SOL    HW230996   3.127   3.921   7.368 -0.2874 -0.1610  1.2526
 6455SOL     OW30997   3.961   0.526  12.811  0.4666  0.1503  0.0464
 6455SOL    HW130998   3.869   0.540  12.789 -0.3277 -2.5620  1.6647
 6455SOL    HW230999   3.954   0.444  12.859 -0.9896 -0.3495 -1.0220
 6456SOL     OW31000   0.295   3.304   1.237  0.2389  0.6915  0.0643
 6456SOL    HW131001   0.263   3.214   1.233 -0.4327  0.9059  0.5859
 6456SOL    HW231002   0.387   3.294   1.215  0.3160  1.8874 -0.1670
 6457SOL     OW31003   1.195   4.720  17.398  0.3637 -0.6298 -0.3926
 6457SOL    HW131004   1.170   0.001  17.307 -0.4230 -1.0473 -0.2538
 6457SOL    HW231005   1.283   0.021  17.411  0.8039 -1.8229 -0.0728
 6458SOL     OW31006   4.305   1.568   4.246 -0.0325  0.5704 -0.6838
 6458SOL    HW131007   4.232   1.507   4.235 -1.4377  1.8800  1.3161
 6458SOL    HW231008   4.355   1.509   4.303 -0.1205  2.2392  1.1337
 6459SOL     OW31009   2.838   3.866   3.660 -0.2237 -0.1627  0.4817
 6459SOL    HW131010   2.821   3.812   3.737  0.0277  0.4050  0.9476
 6459SOL    HW231011   2.804   3.948   3.696 -0.2707 -0.7876  1.8608
 6460SOL     OW31012   4.693   3.201   7.164  0.7803 -0.3051 -0.3848
 6460SOL    HW131013   4.655   3.282   7.130 -1.6731 -0.6102  1.5210
 6460SOL    HW231014   4.706   3.214   7.258 -1.3995  0.0812 -0.1362
 6461SOL     OW31015   3.450   3.214   6.741 -0.2399 -0.2626  0.0832
 6461SOL    HW131016   3.418   3.244   6.826 -1.0788  1.9515 -0.9943
 6461SOL    HW231017   3.370   3.215   6.688  0.0108 -1.5407 -0.3022
 6462SOL     OW31018   1.633   2.008   4.715 -0.1188 -0.3862  0.0747
 6462SOL    HW131019   1.656   1.928   4.761 -0.3868 -0.0785  0.7338
 6462SOL    HW231020   1.714   2.028   4.668 -1.2508  1.1553 -1.2232
 6463SOL     OW31021   2.836   2.573   7.424  0.6763 -0.3541  0.4522
 6463SOL    HW131022   2.806   2.629   7.352  0.6576 -2.8556 -1.4689
 6463SOL    HW231023   2.863   2.500   7.369  3.1122 -0.0766  1.3100
 6464SOL     OW31024   1.697   1.672  11.550 -0.2812  0.5471  0.2410
 6464SOL    HW131025   1.644   1.747  11.575 -0.3829  0.6221 -0.1883
 6464SOL    HW231026   1.752   1.660  11.627  1.0733 -1.7010 -1.0555
 6465SOL     OW31027   2.346   3.319   8.281  0.6020  0.2229  0.1149
 6465SOL    HW131028   2.250   3.315   8.283  0.6207 -0.8285 -0.7089
 6465SOL    HW231029   2.348   3.320   8.185  1.0601 -0.3194  0.1194
 6466SOL     OW31030   1.460   3.909   9.060  0.4362 -0.1472  0.8700
 6466SOL    HW131031   1.479   3.911   8.966  0.1399 -0.1225  0.8113
 6466SOL    HW231032   1.518   3.978   9.093  2.0567  0.1523 -2.6012
 6467SOL     OW31033   1.764   3.265   2.500  0.6582 -0.2189  0.2799
 6467SOL    HW131034   1.669   3.266   2.490  0.9453 -2.5852 -2.3594
 6467SOL    HW231035   1.786   3.244   2.409  0.7062  3.0092 -0.4717
 6468SOL     OW31036   2.458   2.549  17.295  0.2453 -0.0073  0.0784
 6468SOL    HW131037   2.363   2.545  17.307  0.0793  1.8821 -0.5906
 6468SOL    HW231038   2.474   2.634  17.336 -0.0591  0.0648  0.0523
 6469SOL     OW31039   1.085   1.110  10.692  0.6885 -0.0838  0.0335
 6469SOL    HW131040   1.076   1.166  10.615  1.5595 -1.2772 -0.9383
 6469SOL    HW231041   1.067   1.028  10.645  0.7595 -0.0451 -0.0614
 6470SOL     OW31042   3.612   1.521   0.500 -0.0766  0.1943 -0.0566
 6470SOL    HW131043   3.522   1.546   0.479 -0.1793 -0.2522 -0.1535
 6470SOL    HW231044   3.609   1.432   0.467 -1.0842 -0.0820  0.7852
 6471SOL     OW31045   4.347   3.271   3.945  0.1405  0.1345  0.1718
 6471SOL    HW131046   4.414   3.309   4.001  1.5876 -2.8043  0.4343
 6471SOL    HW231047   4.369   3.178   3.946  2.5148  0.6995  1.1222
 6472SOL     OW31048   0.781   1.316   6.884  0.0474  0.4382 -0.2982
 6472SOL    HW131049   0.751   1.231   6.851 -0.2308  0.7553 -0.8621
 6472SOL    HW231050   0.765   1.306   6.978 -1.3725  2.0538 -0.3714
 6473SOL     OW31051   4.342   4.166   7.759  0.3938  0.4718 -0.8397
 6473SOL    HW131052   4.323   4.073   7.768  1.3812  0.3090 -0.3885
 6473SOL    HW231053   4.312   4.185   7.670  1.0079 -1.6002 -1.4915
 6474SOL     OW31054   4.210   2.383   2.416 -0.1683 -0.2636  0.4407
 6474SOL    HW131055   4.219   2.372   2.321 -3.1890 -1.0070  0.2433
 6474SOL    HW231056   4.155   2.309   2.441 -0.8631  0.8867  2.3265
 6475SOL     OW31057   0.655   1.272   1.861  0.0089 -0.2269  0.1017
 6475SOL    HW131058   0.574   1.304   1.901 -1.0341 -2.6346 -0.0749
 6475SOL    HW231059   0.697   1.357   1.856 -1.9836  0.8096  1.2210
 6476SOL     OW31060   0.758   1.651   9.376  0.2600 -0.4761  0.2188
 6476SOL    HW131061   0.817   1.605   9.316  2.4862 -0.1473  2.1388
 6476SOL    HW231062   0.689   1.585   9.384  3.2254 -3.6669 -0.8110
 6477SOL     OW31063   1.116   0.458   4.966 -0.1175  0.2295  0.4219
 6477SOL    HW131064   1.111   0.439   4.872  0.4360  1.4163  0.1544
 6477SOL    HW231065   1.165   0.540   4.970 -1.0414  0.8741 -1.8446
 6478SOL     OW31066   1.145   4.727   6.647  0.2003  0.1708 -0.7161
 6478SOL    HW131067   1.130   4.718   6.741  0.0606  1.5047 -0.6127
 6478SOL    HW231068   1.062   4.699   6.608 -0.6786  0.4449  0.9689
 6479SOL     OW31069   2.033   2.126   8.948  0.3510  0.2702 -0.0248
 6479SOL    HW131070   2.117   2.118   8.993  0.5799 -1.2821 -0.7272
 6479SOL    HW231071   2.038   2.218   8.923  1.6370  0.1019 -0.3705
 6480SOL     OW31072   3.385   2.761  14.743  0.1985  0.3158  0.0278
 6480SOL    HW131073   3.444   2.836  14.734  1.9477 -1.0675 -0.0720
 6480SOL    HW231074   3.353   2.741  14.655  1.4182 -1.2915 -0.0500
 6481SOL     OW31075   4.215   2.127   6.550 -0.3727  0.3691  0.4858
 6481SOL    HW131076   4.201   2.186   6.476  0.9241  0.4199  0.2892
 6481SOL    HW231077   4.188   2.181   6.624 -0.8685 -0.8244  1.1698
 6482SOL     OW31078   3.094   1.853   5.602 -0.4788  0.7506 -0.1518
 6482SOL    HW131079   3.115   1.931   5.653 -1.1959  0.8019  0.0687
 6482SOL    HW231080   3.009   1.869   5.562  0.2292  0.3488 -1.8240
 6483SOL     OW31081   0.611   2.691   2.671  0.4360 -0.4999  0.3013
 6483SOL    HW131082   0.633   2.644   2.591  0.8891  1.8346 -0.9269
 6483SOL    HW231083   0.518   2.703   2.654  0.5663 -0.7494 -0.5804
 6484SOL     OW31084   0.959   3.919   6.357  0.2638  0.1621  0.1914
 6484SOL    HW131085   1.028   3.985   6.363  1.7069 -1.2949 -0.4018
 6484SOL    HW231086   0.980   3.874   6.275  0.8229 -0.5101  0.7039
 6485SOL     OW31087   4.151   1.992   2.930  0.2639 -0.0147  0.6685
 6485SOL    HW131088   4.087   1.974   2.862 -0.2849 -0.7055  1.3602
 6485SOL    HW231089   4.142   2.087   2.928  1.9795  0.1612  0.7820
 6486SOL     OW31090   0.552   1.630   4.079 -0.6605 -0.1858  0.5782
 6486SOL    HW131091   0.479   1.680   4.044  0.4289 -0.1481 -1.6296
 6486SOL    HW231092   0.544   1.552   4.024 -1.9654 -0.2947  0.9175
 6487SOL     OW31093   2.160   2.680   4.562  0.2439 -0.3946  0.3037
 6487SOL    HW131094   2.251   2.689   4.535 -0.6537  1.4241 -2.1231
 6487SOL    HW231095   2.166   2.741   4.636 -0.2989 -0.0925  0.1025
 6488SOL     OW31096   3.293   1.840   5.290 -0.2581  0.6836  0.3462
 6488SOL    HW131097   3.272   1.912   5.230 -1.6706  0.7027  0.8701
 6488SOL    HW231098   3.272   1.760   5.241 -0.6713  0.4754  0.8625
 6489SOL     OW31099   3.552   0.119  11.456  0.0929  0.1576 -0.3046
 6489SOL    HW131100   3.479   0.128  11.518 -0.8081 -0.9347 -1.2131
 6489SOL    HW231101   3.532   0.192  11.398  1.9398  1.0129  0.1541
 6490SOL     OW31102   2.720   4.240   9.858 -0.0701 -0.5395  0.9219
 6490SOL    HW131103   2.706   4.155   9.901  0.5562 -0.2319  1.7147
 6490SOL    HW231104   2.660   4.288   9.915 -2.2215  0.4079 -2.1527
 6491SOL     OW31105   3.267   3.860   3.619  0.5740 -0.2291 -0.3872
 6491SOL    HW131106   3.191   3.914   3.637 -0.2336 -0.2227 -3.7596
 6491SOL    HW231107   3.327   3.881   3.691 -2.8114  2.5140  1.5985
 6492SOL     OW31108   3.729   2.857   4.094  0.5819 -0.6356 -0.3364
 6492SOL    HW131109   3.809   2.806   4.103  0.2618 -0.9140  0.8704
 6492SOL    HW231110   3.765   2.944   4.079  0.5765 -0.4905  0.5073
 6493SOL     OW31111   2.229   4.049   3.427 -0.4594  0.0185  0.3937
 6493SOL    HW131112   2.218   4.129   3.479 -1.7155  0.4209 -0.4773
 6493SOL    HW231113   2.289   4.018   3.495  0.3827 -0.8352 -0.7515
 6494SOL     OW31114   1.269   2.777  10.334  0.2760  0.3573 -0.4995
 6494SOL    HW131115   1.318   2.752  10.256  4.7367  2.7891  1.5172
 6494SOL    HW231116   1.344   2.802  10.389  2.0151  0.7854 -3.0787
 6495SOL     OW31117   0.131   0.677   8.814 -0.1410  0.3188 -0.2299
 6495SOL    HW131118   0.106   0.687   8.906  1.0703  1.6033 -0.0356
 6495SOL    HW231119   0.190   0.752   8.802  0.7045 -0.0969  1.3222
 6496SOL     OW31120   3.110   2.520  11.353 -0.0491 -0.3449  0.1850
 6496SOL    HW131121   3.045   2.468  11.305  0.0806  1.7905 -2.2866
 6496SOL    HW231122   3.065   2.598  11.386  0.9679  0.3391 -0.0753
 6497SOL     OW31123   0.339   1.643   7.058  0.2085  0.4862 -0.6433
 6497SOL    HW131124   0.260   1.598   7.088  0.1383 -0.0805 -1.6901
 6497SOL    HW231125   0.387   1.572   7.016 -0.0361 -1.0110  1.5714
 6498SOL     OW31126   3.839   2.714   8.996 -0.1857 -0.3176 -0.0779
 6498SOL    HW131127   3.862   2.647   8.931  1.2491 -0.9428  1.0821
 6498SOL    HW231128   3.761   2.760   8.963 -0.2349  0.3032  0.8954
 6499SOL     OW31129   0.669   2.820   7.318 -0.5505 -0.2154  0.4491
 6499SOL    HW131130   0.648   2.911   7.337  0.7740 -0.4940  3.1438
 6499SOL    HW231131   0.754   2.807   7.359 -0.7785 -1.3108  0.5932
 6500SOL     OW31132   3.042   3.247   3.937  0.7688 -0.3062  0.1987
 6500SOL    HW131133   3.094   3.292   4.004  1.4974  1.3038 -1.4377
 6500SOL    HW231134   3.099   3.171   3.921  0.3227 -0.8043  1.0124
 6501SOL     OW31135   2.175   0.271   6.803 -0.0405  0.2939  0.3974
 6501SOL    HW131136   2.201   0.179   6.803 -0.3554  0.2156  1.4546
 6501SOL    HW231137   2.081   0.262   6.785 -0.0143 -0.1455  0.4721
 6502SOL     OW31138   0.865   0.912   6.744  0.1350  0.0868  0.4350
 6502SOL    HW131139   0.798   0.980   6.755  2.3140  2.2520  0.1699
 6502SOL    HW231140   0.923   0.928   6.818 -0.1235 -0.0668  0.6704
 6503SOL     OW31141   1.639   3.548  16.335 -0.4643  0.7271 -0.1401
 6503SOL    HW131142   1.553   3.517  16.361  0.7962 -1.7463  1.0403
 6503SOL    HW231143   1.662   3.614  16.400 -3.0936 -0.1523  1.6841
 6504SOL     OW31144   3.588   1.631   1.018 -0.5913 -0.1012 -0.5484
 6504SOL    HW131145   3.594   1.705   0.958  3.1491 -0.1283 -0.2250
 6504SOL    HW231146   3.652   1.651   1.087  1.3445  0.7530 -2.5903
 6505SOL     OW31147   3.756   2.799   0.376 -0.4073  0.3991 -0.1769
 6505SOL    HW131148   3.757   2.785   0.470 -0.5963 -0.0537 -0.2453
 6505SOL    HW231149   3.837   2.850   0.366  0.7416 -1.5832 -0.9639
 6506SOL     OW31150   3.438   1.927   6.539 -0.2415  0.1277 -0.0690
 6506SOL    HW131151   3.480   1.925   6.624  0.1360  0.6711 -0.2426
 6506SOL    HW231152   3.396   2.013   6.543 -3.9477 -1.7136  0.1671
 6507SOL     OW31153   3.115   1.035  15.295 -0.1450 -0.0077  0.4117
 6507SOL    HW131154   3.127   1.093  15.220  0.1011  1.1124  1.3095
 6507SOL    HW231155   3.207   1.030  15.322  0.0244 -1.3308 -0.4234
 6508SOL     OW31156   2.736   0.307   4.402  0.4477  0.5634 -0.2782
 6508SOL    HW131157   2.781   0.391   4.414  0.8018  1.0136 -4.6756
 6508SOL    HW231158   2.815   0.252   4.405  0.7803  1.0252 -0.4622
 6509SOL     OW31159   4.043   0.690  12.112 -0.0330 -0.0362  0.6560
 6509SOL    HW131160   4.046   0.750  12.187 -1.8050 -0.1431  0.8105
 6509SOL    HW231161   4.028   0.608  12.159  0.4255  0.0345  0.9249
 6510SOL     OW31162   2.774   0.545   3.498 -0.0261 -0.1665 -0.8128
 6510SOL    HW131163   2.809   0.572   3.583 -1.0686  1.1875 -0.8235
 6510SOL    HW231164   2.729   0.464   3.524  0.5807 -0.5224 -0.8777
 6511SOL     OW31165   3.171   0.432   8.286 -0.0551  0.4143  0.2466
 6511SOL    HW131166   3.237   0.385   8.336 -0.6228  0.2625  0.8543
 6511SOL    HW231167   3.224   0.473   8.218  0.6941 -0.2775  0.4110
 6512SOL     OW31168   3.152   1.994   7.434 -0.0528 -0.3730  0.1442
 6512SOL    HW131169   3.224   1.938   7.463  1.3810  1.1077 -0.5541
 6512SOL    HW231170   3.083   1.937   7.467 -1.4360  0.3178 -1.5769
 6513SOL     OW31171   1.917   0.572   9.800 -0.6792  0.6294 -0.0944
 6513SOL    HW131172   1.980   0.515   9.757 -2.0336 -0.4208 -0.6742
 6513SOL    HW231173   1.978   0.644   9.817 -1.4148  0.7953  1.8554
 6514SOL     OW31174   3.501   3.699   0.302 -0.6046 -0.3037  0.1976
 6514SOL    HW131175   3.595   3.697   0.316 -0.8481  0.7570  1.9131
 6514SOL    HW231176   3.501   3.662   0.213  0.7409  1.3459 -0.4794
 6515SOL     OW31177   0.809   4.025  10.627 -0.1809  0.3189 -0.4399
 6515SOL    HW131178   0.896   3.993  10.605  0.4973  1.2978  0.8251
 6515SOL    HW231179   0.782   3.956  10.688  2.9007 -1.2587 -0.8770
 6516SOL     OW31180   4.540   0.201  11.091  0.7243  0.0852  0.2672
 6516SOL    HW131181   4.552   0.296  11.092 -1.4892  0.3896 -0.8315
 6516SOL    HW231182   4.472   0.191  11.158  0.4078  0.6583  0.0297
 6517SOL     OW31183   1.692   2.383   3.626 -0.0127 -0.1499 -0.3410
 6517SOL    HW131184   1.651   2.307   3.586 -1.2801  0.6058 -0.4826
 6517SOL    HW231185   1.662   2.461   3.579 -1.5512  0.3128  1.4103
 6518SOL     OW31186   0.854   1.178   8.108 -0.1194 -0.1776 -0.1128
 6518SOL    HW131187   0.882   1.088   8.095  1.2312  0.0514  1.1665
 6518SOL    HW231188   0.766   1.174   8.070 -0.6481 -0.2415  1.1255
 6519SOL     OW31189   2.933   0.826  15.394 -0.3418  0.1330 -0.3868
 6519SOL    HW131190   2.996   0.897  15.406 -1.0331  0.1127  3.2276
 6519SOL    HW231191   2.990   0.750  15.379  0.6413  0.3129  2.5209
 6520SOL     OW31192   0.866   3.055   3.969 -0.1987 -0.3077  0.6529
 6520SOL    HW131193   0.820   2.971   3.966  2.4018 -1.7537  0.6070
 6520SOL    HW231194   0.933   3.041   3.902 -0.0677  0.5501  0.6130
 6521SOL     OW31195   4.394   4.640   4.849  0.6159 -0.1286  0.2200
 6521SOL    HW131196   4.415   4.726   4.886 -2.1008  0.8513 -0.5477
 6521SOL    HW231197   4.328   4.667   4.786  0.5248  2.0485  1.2373
 6522SOL     OW31198   2.576   3.946   7.590 -0.1775 -0.1288  0.0037
 6522SOL    HW131199   2.497   3.940   7.643 -0.1937  0.2576  0.0272
 6522SOL    HW231200   2.616   4.027   7.624  1.8282 -1.0210 -0.2460
 6523SOL     OW31201   4.163   0.537   5.342  0.0675 -0.4248 -0.0301
 6523SOL    HW131202   4.182   0.444   5.336  1.5214 -0.2365  1.7478
 6523SOL    HW231203   4.239   0.579   5.383  1.5767 -1.2149 -2.0100
 6524SOL     OW31204   0.768   1.281   7.214 -0.1548 -0.0875  0.1758
 6524SOL    HW131205   0.743   1.217   7.281  1.3151 -1.4190 -0.5346
 6524SOL    HW231206   0.682   1.321   7.209 -0.1391  0.0539  1.0206
 6525SOL     OW31207   0.324   2.501   2.771  0.4651 -0.0547  0.4173
 6525SOL    HW131208   0.339   2.407   2.778 -2.2022 -0.5386 -0.5496
 6525SOL    HW231209   0.344   2.518   2.679  0.0963  0.5475  0.4449
 6526SOL     OW31210   4.063   4.363  11.777 -0.1202  0.7195 -0.4258
 6526SOL    HW131211   4.008   4.394  11.705 -1.1983 -0.1874  0.0152
 6526SOL    HW231212   3.993   4.340  11.838 -0.1873  1.9447 -0.0444
 6527SOL     OW31213   3.032   3.335  12.158  0.3357  0.6026  0.0068
 6527SOL    HW131214   3.100   3.268  12.159  2.0079  2.2748 -0.2867
 6527SOL    HW231215   2.974   3.301  12.226  3.3069 -1.0527  1.7230
 6528SOL     OW31216   4.136   0.312   4.657 -0.0573 -1.4150 -0.0124
 6528SOL    HW131217   4.091   0.281   4.736 -0.0167 -1.0235  0.1678
 6528SOL    HW231218   4.206   0.248   4.656 -0.5324 -1.8561 -3.7087
 6529SOL     OW31219   0.502   1.128   6.533 -0.5364  0.1530 -0.3925
 6529SOL    HW131220   0.458   1.051   6.567  0.5016 -0.2029  0.1355
 6529SOL    HW231221   0.425   1.182   6.515 -1.0364 -0.7063 -0.8273
 6530SOL     OW31222   3.406   4.110   8.016  0.3021 -0.4604 -0.1562
 6530SOL    HW131223   3.380   4.035   8.071  0.9371 -0.7086 -0.1930
 6530SOL    HW231224   3.364   4.090   7.933 -2.2885  0.1181  1.0054
 6531SOL     OW31225   4.527   1.904   7.526 -0.5040  0.1929 -0.2710
 6531SOL    HW131226   4.464   1.975   7.511 -0.1487  0.5738  0.0730
 6531SOL    HW231227   4.469   1.830   7.506 -0.6542  0.8425 -2.3096
 6532SOL     OW31228   3.842   1.427   3.545 -0.0061 -0.7482 -0.0726
 6532SOL    HW131229   3.875   1.497   3.489  0.9693 -2.9325 -2.2161
 6532SOL    HW231230   3.846   1.470   3.630 -1.9874  0.9834 -0.8373
 6533SOL     OW31231   2.334   1.290   6.221 -0.6071  0.4394 -0.2030
 6533SOL    HW131232   2.318   1.338   6.140 -1.5185 -1.1250 -0.9593
 6533SOL    HW231233   2.337   1.358   6.289 -0.7905 -2.1426  2.4147
 6534SOL     OW31234   4.642   4.507  17.180  0.0719  0.1504 -0.1050
 6534SOL    HW131235   4.655   4.559  17.260  1.0324 -3.8696  2.3270
 6534SOL    HW231236   4.549   4.486  17.187  0.7229 -2.4315  0.4532
 6535SOL     OW31237   1.610   1.041   8.797 -0.2771 -0.7346 -0.0192
 6535SOL    HW131238   1.543   0.973   8.789  1.2456 -2.2214 -0.0541
 6535SOL    HW231239   1.572   1.109   8.740  1.2064  1.6563  1.8214
 6536SOL     OW31240   3.845   1.603   7.143  0.0032  0.0604  0.2942
 6536SOL    HW131241   3.755   1.582   7.169  0.4883 -1.6338  0.6341
 6536SOL    HW231242   3.895   1.541   7.197  2.6592  0.2562 -1.9659
 6537SOL     OW31243   0.861   2.141   2.446 -0.0457  0.1783  0.1415
 6537SOL    HW131244   0.783   2.098   2.412  0.8214  0.5921 -2.3672
 6537SOL    HW231245   0.845   2.130   2.540  3.5165 -0.8804  0.6345
 6538SOL     OW31246   0.807   3.005   2.678 -0.1136  0.3580  0.7525
 6538SOL    HW131247   0.793   2.985   2.770  2.4207 -0.6619  0.8950
 6538SOL    HW231248   0.733   3.066   2.670 -0.3685  0.0837  1.0270
 6539SOL     OW31249   0.395   3.235   4.690  0.6889  0.1707  0.2982
 6539SOL    HW131250   0.472   3.288   4.712  0.4034  0.6514  0.1484
 6539SOL    HW231251   0.427   3.145   4.694 -1.9203 -0.7196  1.3440
 6540SOL     OW31252   4.534   1.032  11.389  0.2851 -0.0796  0.3781
 6540SOL    HW131253   4.514   0.940  11.373  1.6018  0.2590 -3.3229
 6540SOL    HW231254   4.595   1.042  11.315  0.7773 -0.0517  0.7904
 6541SOL     OW31255   0.314   0.523  17.166 -0.0687  0.3171  0.5919
 6541SOL    HW131256   0.396   0.568  17.187 -0.2932  0.8152  0.3837
 6541SOL    HW231257   0.345   0.432  17.162 -0.1036  0.2798  1.1818
 6542SOL     OW31258   3.413   4.546   3.277  0.1128  0.3408 -0.4910
 6542SOL    HW131259   3.326   4.569   3.309  0.7434  1.5509  0.3770
 6542SOL    HW231260   3.402   4.451   3.274 -0.1798  0.3456  0.2819
 6543SOL     OW31261   1.394   0.175   3.330  0.3857  0.1631 -0.0057
 6543SOL    HW131262   1.323   0.239   3.336  1.1269  1.0921 -0.9720
 6543SOL    HW231263   1.374   0.115   3.402  0.2307  1.0450  0.6862
 6544SOL     OW31264   1.294   0.239   6.900  0.3628 -0.2952  0.2196
 6544SOL    HW131265   1.199   0.243   6.891  0.5301 -1.4568 -2.0981
 6544SOL    HW231266   1.322   0.330   6.888 -0.8380  0.3086  2.1054
 6545SOL     OW31267   3.889   2.261   7.178 -0.7507 -0.1598 -0.2021
 6545SOL    HW131268   3.943   2.198   7.227 -2.8464 -1.3671  0.5456
 6545SOL    HW231269   3.931   2.261   7.092  0.4755  0.3509  0.3833
 6546SOL     OW31270   0.969   4.365   2.160  0.3908 -0.2236  0.6287
 6546SOL    HW131271   1.007   4.277   2.156 -2.0694 -1.2104 -2.0480
 6546SOL    HW231272   0.957   4.381   2.253  1.4054 -0.4268  0.7937
 6547SOL     OW31273   2.166   4.098   9.764 -0.5509 -0.4115  0.5223
 6547SOL    HW131274   2.123   4.121   9.682  1.7125  3.7567  0.5335
 6547SOL    HW231275   2.188   4.188   9.788  1.2554 -1.1827  1.7489
 6548SOL     OW31276   2.653   4.043   2.841  0.1087 -0.3182  0.8159
 6548SOL    HW131277   2.704   4.039   2.760  1.3359 -0.5629  1.6014
 6548SOL    HW231278   2.720   3.991   2.884  1.4221  0.3876 -0.3993
 6549SOL     OW31279   4.424   4.102   7.301 -0.0210 -0.6841 -0.0634
 6549SOL    HW131280   4.343   4.146   7.328  0.8802  0.4134  0.8684
 6549SOL    HW231281   4.483   4.166   7.260 -0.9520  0.1835 -0.0609
 6550SOL     OW31282   1.635   1.948   1.534  0.4877 -0.0647  0.3967
 6550SOL    HW131283   1.612   1.886   1.603  2.2391  0.8782  1.8175
 6550SOL    HW231284   1.568   1.944   1.466  0.2136  1.1870  0.5983
 6551SOL     OW31285   0.085   0.917  10.226  0.1810 -0.6712  0.3743
 6551SOL    HW131286   0.140   0.996  10.233 -0.0677 -0.4931  0.3206
 6551SOL    HW231287   0.002   0.946  10.264 -0.5604  1.3109 -2.7710
 6552SOL     OW31288   0.895   3.303   3.027 -0.0983  0.0699  0.6789
 6552SOL    HW131289   0.989   3.292   3.037 -0.1110 -0.0046  0.7136
 6552SOL    HW231290   0.858   3.218   3.051  1.9918 -0.6520  1.2997
 6553SOL     OW31291   3.954   0.829   5.093  0.2433  0.4791  0.2458
 6553SOL    HW131292   3.930   0.785   5.012  0.8659  0.9834 -0.2100
 6553SOL    HW231293   3.946   0.921   5.071 -0.8217  0.8489  2.1639
 6554SOL     OW31294   2.023   3.848   4.004 -0.3663  0.3079  0.2020
 6554SOL    HW131295   2.070   3.929   4.022 -0.0650 -0.0956  1.2138
 6554SOL    HW231296   1.942   3.884   3.968 -0.8573 -0.4582  0.5507
 6555SOL     OW31297   1.995   2.674  15.255 -0.3510 -0.7384 -0.2371
 6555SOL    HW131298   1.983   2.648  15.164  1.5141  0.0303 -0.6949
 6555SOL    HW231299   1.939   2.611  15.300 -0.1752 -0.8952 -0.2378
 6556SOL     OW31300   4.362   1.854   6.395  0.4068 -0.2495  0.1836
 6556SOL    HW131301   4.276   1.813   6.396 -0.4158  1.4809 -1.3646
 6556SOL    HW231302   4.344   1.922   6.331 -2.6282 -0.6933  0.5916
 6557SOL     OW31303   2.416   0.407   8.370  0.1170 -0.4577 -0.0978
 6557SOL    HW131304   2.366   0.479   8.410 -3.0959 -1.2910 -2.5753
 6557SOL    HW231305   2.357   0.366   8.307  1.8210 -0.9238 -1.3704
 6558SOL     OW31306   1.143   4.277   4.684  0.1205  0.3958  0.0319
 6558SOL    HW131307   1.104   4.275   4.597 -1.1747  0.7399  0.6110
 6558SOL    HW231308   1.192   4.196   4.668  0.5120  0.6283  0.0505
 6559SOL     OW31309   2.587   1.511   7.675 -0.3382  0.2050  0.7943
 6559SOL    HW131310   2.566   1.424   7.640 -3.0914  1.1628  0.0112
 6559SOL    HW231311   2.624   1.554   7.598 -2.8432  0.4016 -0.3158
 6560SOL     OW31312   0.463   1.436   6.950 -0.0414  0.4716 -0.0139
 6560SOL    HW131313   0.486   1.347   6.977  0.2265  0.9227  1.2231
 6560SOL    HW231314   0.489   1.444   6.858 -0.3997 -0.0317 -0.1547
 6561SOL     OW31315   0.300   4.710  16.578  0.0324  0.0767  0.2489
 6561SOL    HW131316   0.389   4.708  16.615  0.7178  2.7305 -1.2076
 6561SOL    HW231317   0.256   4.647  16.634 -0.8352 -1.7633 -2.5203
 6562SOL     OW31318   1.162   1.613   2.001 -0.3551 -0.0586  0.3368
 6562SOL    HW131319   1.227   1.554   1.964 -1.9184 -1.6732  0.1569
 6562SOL    HW231320   1.155   1.578   2.090  1.4472 -0.7250  0.1962
 6563SOL     OW31321   3.108   3.041   6.221  0.5348  1.2203 -0.2335
 6563SOL    HW131322   3.187   3.090   6.197  0.5419 -0.4003 -3.4776
 6563SOL    HW231323   3.064   3.025   6.138 -1.4210  1.4968  0.7547
 6564SOL     OW31324   4.130   3.373   3.119  0.5847 -0.1430  0.0957
 6564SOL    HW131325   4.056   3.404   3.171 -0.5123  0.8102 -2.0037
 6564SOL    HW231326   4.202   3.383   3.182  0.0752 -1.7772  0.9361
 6565SOL     OW31327   0.138   1.533   8.188  0.6636  0.3616 -0.1144
 6565SOL    HW131328   0.063   1.496   8.143  0.2108  1.9194 -0.6503
 6565SOL    HW231329   0.174   1.604   8.133 -0.8776  0.3324 -1.1617
 6566SOL     OW31330   4.008   1.406  12.857 -0.0649 -0.3778  0.0142
 6566SOL    HW131331   3.926   1.420  12.904 -0.5016 -0.9091 -0.5763
 6566SOL    HW231332   3.959   1.366  12.785 -2.1412 -0.4158  1.4478
 6567SOL     OW31333   0.191   1.200  17.169  0.5404 -0.0775 -0.0491
 6567SOL    HW131334   0.221   1.109  17.164 -1.6218 -0.6688 -1.6108
 6567SOL    HW231335   0.241   1.227  17.247  0.2437 -1.5729  0.6568
 6568SOL     OW31336   4.372   2.310  17.670 -0.0856 -0.1926 -0.2359
 6568SOL    HW131337   4.459   2.287  17.701  2.2213  5.9568 -2.1638
 6568SOL    HW231338   4.394   2.381  17.609  1.7644  1.0297  1.8826
 6569SOL     OW31339   3.681   3.572   2.993 -0.4171  0.3483  0.1114
 6569SOL    HW131340   3.669   3.667   2.997  1.0650  0.6836 -2.6827
 6569SOL    HW231341   3.687   3.559   2.898 -0.1870 -1.6130  0.3944
 6570SOL     OW31342   0.872   2.958   5.112  0.8433 -0.5679  0.0784
 6570SOL    HW131343   0.783   2.928   5.128  0.2810 -0.5914 -3.0832
 6570SOL    HW231344   0.917   2.894   5.056  2.4910  1.7654 -1.2482
 6571SOL     OW31345   0.923   2.452   9.502 -0.2817 -0.1783 -0.3035
 6571SOL    HW131346   0.948   2.544   9.509 -0.5481  0.0713 -2.7465
 6571SOL    HW231347   0.908   2.429   9.594  0.3169  0.4380 -0.0509
 6572SOL     OW31348   4.069   3.522   8.536 -0.1581  0.2471 -0.1485
 6572SOL    HW131349   4.119   3.586   8.588  0.1403 -0.0125 -0.1148
 6572SOL    HW231350   4.038   3.580   8.466 -2.0051 -0.2852  0.2268
 6573SOL     OW31351   3.116   1.652   3.625 -0.7107  0.2631  0.3687
 6573SOL    HW131352   3.077   1.564   3.622 -0.7261  0.2356  1.4755
 6573SOL    HW231353   3.087   1.674   3.713  0.4039 -0.9379  1.0447
 6574SOL     OW31354   1.581   2.654   5.459  0.2697  0.4220  0.4236
 6574SOL    HW131355   1.499   2.686   5.422 -0.3591 -1.7700 -0.1230
 6574SOL    HW231356   1.646   2.643   5.389 -1.4229 -0.1791 -1.0515
 6575SOL     OW31357   1.384   2.261   3.225  0.6601 -0.6085 -0.2134
 6575SOL    HW131358   1.364   2.190   3.164  1.5370 -1.4046  0.4313
 6575SOL    HW231359   1.456   2.303   3.179  0.2539  0.6218  0.2498
 6576SOL     OW31360   1.592   2.220   2.661 -0.0408  0.3897  0.1896
 6576SOL    HW131361   1.585   2.181   2.574  2.2155  1.5343 -0.4877
 6576SOL    HW231362   1.520   2.178   2.709  0.1801 -0.8515 -0.5685
 6577SOL     OW31363   0.327   0.163   1.266  0.2484 -1.0123  0.0283
 6577SOL    HW131364   0.329   0.200   1.178 -1.9273 -0.1109  0.3777
 6577SOL    HW231365   0.340   0.069   1.251  0.0558 -0.7117 -1.9931
 6578SOL     OW31366   2.469   0.197  17.717  0.1206  0.0609  0.4975
 6578SOL    HW131367   2.394   0.151  17.679  0.7264 -1.0604  0.6845
 6578SOL    HW231368   2.486   0.268  17.654 -0.5966  1.9320  2.4130
 6579SOL     OW31369   2.681   2.927   6.863 -0.2346  0.6428  0.1003
 6579SOL    HW131370   2.588   2.905   6.854 -0.5810  2.4671 -0.9195
 6579SOL    HW231371   2.714   2.858   6.805 -3.4930 -0.4656 -0.4411
 6580SOL     OW31372   1.909   1.206   5.195  0.1646  0.9524  0.3280
 6580SOL    HW131373   1.924   1.137   5.130 -1.2551  1.0487 -0.1177
 6580SOL    HW231374   1.921   1.150   5.272  1.1834  2.5025  1.2858
 6581SOL     OW31375   3.618   2.678   6.742 -0.6335 -0.6390 -0.1159
 6581SOL    HW131376   3.711   2.700   6.737 -0.9664  1.1693  1.6764
 6581SOL    HW231377   3.582   2.765   6.762 -0.2996 -0.4707 -0.2543
 6582SOL     OW31378   0.029   3.763  16.150 -0.0513  0.5996  0.2821
 6582SOL    HW131379   0.005   3.855  16.140  0.8777  0.5495 -2.4359
 6582SOL    HW231380   4.680   3.717  16.162  1.8348 -2.7316  0.7582
 6583SOL     OW31381   2.541   3.955   1.572  0.1787 -0.1038 -0.0978
 6583SOL    HW131382   2.537   3.939   1.666  0.6879  0.5103  0.0284
 6583SOL    HW231383   2.568   4.047   1.565  1.2422 -0.5595 -2.1924
 6584SOL     OW31384   2.430   3.130   1.964 -0.2038 -0.4615  0.5309
 6584SOL    HW131385   2.446   3.051   2.016  1.5869 -0.9242 -0.7478
 6584SOL    HW231386   2.353   3.096   1.919 -0.3326 -0.6312  0.8749
 6585SOL     OW31387   0.474   1.163   2.538  0.4023  0.3965 -0.5211
 6585SOL    HW131388   0.421   1.085   2.551 -0.7116  1.3841  0.7399
 6585SOL    HW231389   0.469   1.194   2.628  0.4348 -2.3304  0.4067
 6586SOL     OW31390   0.523   3.706  16.561 -0.1309  0.1832  0.3746
 6586SOL    HW131391   0.595   3.671  16.613 -1.7643 -2.0760  1.1329
 6586SOL    HW231392   0.454   3.697  16.626  0.3954  0.8192  1.0212
 6587SOL     OW31393   2.015   2.063  10.447  0.5744 -0.0048 -0.5058
 6587SOL    HW131394   2.057   2.141  10.412  1.7292 -0.3894 -0.0109
 6587SOL    HW231395   2.078   2.001  10.410  1.2956  1.9143 -2.4210
 6588SOL     OW31396   2.108   1.389   7.032  0.5327  0.0586 -0.5486
 6588SOL    HW131397   2.048   1.454   7.068  1.1521 -0.3656  1.2411
 6588SOL    HW231398   2.116   1.403   6.937 -0.2377 -0.4189 -0.6855
 6589SOL     OW31399   3.709   0.836   8.571  0.1795 -0.2714  0.3133
 6589SOL    HW131400   3.698   0.780   8.495  0.4334  0.1936 -0.0704
 6589SOL    HW231401   3.640   0.902   8.560 -0.5601 -0.5900  3.1117
 6590SOL     OW31402   0.350   0.198   0.998 -0.0616  0.5252 -0.0636
 6590SOL    HW131403   0.271   0.218   0.948 -1.5989 -0.3076  2.0083
 6590SOL    HW231404   0.350   0.104   0.979 -0.4554  0.2574  1.2907
 6591SOL     OW31405   2.530   4.298  10.497  0.1662 -0.1308  0.0579
 6591SOL    HW131406   2.535   4.392  10.515  3.2059 -0.3302  0.2987
 6591SOL    HW231407   2.508   4.269  10.586  0.5926  0.4929  0.3698
 6592SOL     OW31408   0.675   1.609   6.936 -0.2859  0.1882  0.5068
 6592SOL    HW131409   0.606   1.576   6.878  1.1354 -1.7365 -0.0881
 6592SOL    HW231410   0.755   1.564   6.909  0.0793  0.6353  0.8517
 6593SOL     OW31411   0.764   1.122   0.808  0.0440  0.4737  0.3186
 6593SOL    HW131412   0.732   1.032   0.821  1.8219 -0.3686 -1.0949
 6593SOL    HW231413   0.742   1.132   0.716  0.3416 -0.7538  0.1076
 6594SOL     OW31414   4.665   3.526   8.616 -0.2173 -0.3422  0.1546
 6594SOL    HW131415   4.690   3.580   8.541  0.5643  0.0077  0.6713
 6594SOL    HW231416   4.622   3.594   8.667  0.4770  1.3941 -1.5649
 6595SOL     OW31417   4.296   1.293   3.961 -0.3401 -0.1358 -0.3361
 6595SOL    HW131418   4.362   1.362   3.967  0.3482 -0.6031 -2.8223
 6595SOL    HW231419   4.332   1.227   4.022 -1.2212  0.2810  0.6298
 6596SOL     OW31420   2.746   4.135   6.487 -0.4141 -0.3592  0.4553
 6596SOL    HW131421   2.768   4.083   6.410 -0.6493  1.8080 -1.0437
 6596SOL    HW231422   2.802   4.209   6.467  1.5422 -1.9529  0.1163
 6597SOL     OW31423   3.166   3.157   3.639 -0.7686 -0.4307  0.0440
 6597SOL    HW131424   3.079   3.187   3.662 -0.8006  0.3863 -1.1250
 6597SOL    HW231425   3.152   3.136   3.547  0.9584 -0.7892 -0.1515
 6598SOL     OW31426   0.824   2.338   8.806 -1.0058 -0.1578  0.0931
 6598SOL    HW131427   0.784   2.417   8.841  0.7637  0.0051  1.7221
 6598SOL    HW231428   0.763   2.268   8.828 -1.8660  0.1969 -1.1492
 6599SOL     OW31429   2.489   0.030   7.757  0.5930  0.7502 -0.3758
 6599SOL    HW131430   2.566   4.730   7.801  0.4463  0.5321 -0.2931
 6599SOL    HW231431   2.478   4.708   7.680  0.2017  0.3235 -0.0005
 6600SOL     OW31432   2.797   4.071   1.303 -0.0575 -0.1654  0.3806
 6600SOL    HW131433   2.773   3.992   1.255 -0.0297 -0.4969  0.9071
 6600SOL    HW231434   2.846   4.025   1.372  1.9852 -0.1155 -1.0301
 6601SOL     OW31435   1.337   2.436   4.504  0.1410  0.1954 -0.3873
 6601SOL    HW131436   1.272   2.507   4.498  0.6527  0.6842 -0.1033
 6601SOL    HW231437   1.332   2.406   4.595  1.1176 -1.7656 -0.9775
 6602SOL     OW31438   1.904   4.678   1.689 -0.1368 -0.2067  0.6665
 6602SOL    HW131439   1.906   4.733   1.767 -0.2976 -0.6698  0.9960
 6602SOL    HW231440   1.810   4.658   1.684  0.2016 -1.8639  0.7680
 6603SOL     OW31441   3.727   3.533   4.707  0.3627  0.3206 -0.1790
 6603SOL    HW131442   3.635   3.530   4.680  0.8300 -0.7347 -1.6868
 6603SOL    HW231443   3.775   3.516   4.626 -0.7146  1.1045 -0.9838
 6604SOL     OW31444   4.549   3.335   9.667 -0.9357  0.1169  0.0223
 6604SOL    HW131445   4.560   3.356   9.760  1.8923  2.6485 -0.8904
 6604SOL    HW231446   4.509   3.247   9.672 -2.2240  0.5805 -2.4315
 6605SOL     OW31447   3.179   1.111   4.701  0.2258 -0.0870  0.0783
 6605SOL    HW131448   3.218   1.141   4.620 -1.2298  0.6130 -0.3710
 6605SOL    HW231449   3.230   1.161   4.765  0.8761 -1.9668  1.0302
 6606SOL     OW31450   0.887   1.315   1.478 -0.0287 -0.4405 -0.3224
 6606SOL    HW131451   0.923   1.229   1.456  0.4498 -0.1992 -0.4756
 6606SOL    HW231452   0.941   1.334   1.554  0.4804 -1.5500 -0.4065
 6607SOL     OW31453   0.433   2.460   9.551  0.5504 -1.0743 -0.2046
 6607SOL    HW131454   0.419   2.533   9.491 -0.3015  0.9019  2.3923
 6607SOL    HW231455   0.485   2.495   9.623  0.1691  0.0383 -0.4761
 6608SOL     OW31456   3.899   2.970   0.551 -0.4682  0.7532  0.3424
 6608SOL    HW131457   3.956   2.971   0.627 -0.9688 -1.3423  0.7368
 6608SOL    HW231458   3.816   2.971   0.600  0.6094 -1.0848  2.1899
 6609SOL     OW31459   0.301   2.886  13.331 -0.0795  1.0206 -0.4589
 6609SOL    HW131460   0.224   2.917  13.377  1.2582  1.5489  1.4033
 6609SOL    HW231461   0.275   2.798  13.304 -1.6826  0.5028  2.8851
 6610SOL     OW31462   1.627   4.718   9.033 -0.5172 -0.0413 -0.1894
 6610SOL    HW131463   1.660   0.070   9.011 -0.2128 -0.0002  0.4451
 6610SOL    HW231464   1.646   4.708   9.126 -1.0845 -2.1184 -0.2958
 6611SOL     OW31465   1.120   2.055  10.241 -0.0856  0.2336  0.0525
 6611SOL    HW131466   1.077   2.048  10.156  1.7212  2.2200 -1.0381
 6611SOL    HW231467   1.208   2.077  10.210 -0.8828  1.1297 -1.5631
 6612SOL     OW31468   0.667   3.052   5.854 -0.2633 -0.1901 -0.0456
 6612SOL    HW131469   0.755   3.054   5.893 -0.0497  4.2886 -0.7734
 6612SOL    HW231470   0.621   3.011   5.928 -1.1091 -0.3156 -0.6437
 6613SOL     OW31471   3.664   0.903   6.278  1.0651 -0.1369  0.6845
 6613SOL    HW131472   3.758   0.887   6.280  1.0748  0.0162  1.2115
 6613SOL    HW231473   3.664   0.984   6.227 -4.2366  0.8757  2.3239
 6614SOL     OW31474   2.043   3.071  15.558 -0.2647 -0.2338 -0.1858
 6614SOL    HW131475   1.996   2.999  15.515 -0.6799 -0.1158  0.0772
 6614SOL    HW231476   1.989   3.073  15.637 -0.0722 -1.1070 -0.0313
 6615SOL     OW31477   1.208   1.150   8.103 -0.4206 -0.2042 -0.4385
 6615SOL    HW131478   1.302   1.161   8.117 -0.2486 -1.7541 -0.3638
 6615SOL    HW231479   1.187   1.079   8.164 -1.2636 -0.9068 -1.5388
 6616SOL     OW31480   3.555   3.455   3.664 -0.3984 -0.5480 -0.2606
 6616SOL    HW131481   3.499   3.407   3.603 -1.6933 -1.0418  1.2988
 6616SOL    HW231482   3.484   3.510   3.697 -0.5060 -1.7484  1.5403
 6617SOL     OW31483   3.969   4.284   1.375 -0.3482 -0.0140  0.0305
 6617SOL    HW131484   4.002   4.218   1.314 -0.2483 -0.7714  0.8997
 6617SOL    HW231485   3.951   4.358   1.317  2.8713  2.4585  2.2338
 6618SOL     OW31486   4.066   3.871   3.577 -0.2317 -0.1722  0.3954
 6618SOL    HW131487   4.067   3.960   3.611 -1.0747 -0.5632  1.4434
 6618SOL    HW231488   4.155   3.849   3.548 -0.8629 -0.8502 -1.0487
 6619SOL     OW31489   3.062   0.424   9.161 -0.1179  0.2631  0.5842
 6619SOL    HW131490   3.013   0.480   9.100 -0.9116 -0.9351  0.1285
 6619SOL    HW231491   3.011   0.344   9.152 -2.4563  1.7708  0.3708
 6620SOL     OW31492   4.710   1.202  15.323  0.3293  0.3319  0.5539
 6620SOL    HW131493   0.052   1.156  15.289 -1.1040 -0.2914 -1.8066
 6620SOL    HW231494   0.011   1.291  15.331 -0.9932  1.0629 -1.7296
 6621SOL     OW31495   0.484   1.299   7.258 -0.2019 -0.5044 -0.2614
 6621SOL    HW131496   0.400   1.302   7.304  0.3144  1.4682  0.5508
 6621SOL    HW231497   0.495   1.204   7.257 -1.4666 -0.6485 -0.2541
 6622SOL     OW31498   1.753   3.253  13.491 -0.3898  0.3698  0.7832
 6622SOL    HW131499   1.829   3.304  13.465  0.8370 -0.9199  1.8763
 6622SOL    HW231500   1.748   3.273  13.585 -1.7024  0.3951  0.7170
 6623SOL     OW31501   2.671   1.583  16.409  0.1417  0.2123 -0.0047
 6623SOL    HW131502   2.697   1.558  16.320 -1.8432  0.5906 -0.6924
 6623SOL    HW231503   2.656   1.677  16.397  3.1746  0.5745 -1.0171
 6624SOL     OW31504   2.398   3.714   1.588  0.6914  0.1194  0.2841
 6624SOL    HW131505   2.424   3.799   1.553  2.1987  0.1215  1.3877
 6624SOL    HW231506   2.473   3.685   1.640 -2.9469 -4.2208  3.1881
 6625SOL     OW31507   1.129   2.316  17.446 -0.4318  0.1568  0.5277
 6625SOL    HW131508   1.169   2.391  17.403  1.6783 -1.2542  0.0597
 6625SOL    HW231509   1.062   2.359  17.500  0.2605  0.9496  0.7525
 6626SOL     OW31510   1.530   0.037   9.365 -0.4453 -0.4471  0.2099
 6626SOL    HW131511   1.556   4.694   9.416 -0.2339  0.4932  1.5305
 6626SOL    HW231512   1.615   0.080   9.364 -1.2876  1.2318  1.0722
 6627SOL     OW31513   2.578   2.657   1.154  0.3044 -0.2860 -0.4513
 6627SOL    HW131514   2.507   2.721   1.144  0.6371  0.0785 -0.4792
 6627SOL    HW231515   2.533   2.584   1.196 -1.3592  0.7199 -0.4633
 6628SOL     OW31516   0.267   4.379   3.635  0.3410  0.3418 -0.9007
 6628SOL    HW131517   0.334   4.420   3.690 -1.1960 -1.7101  2.5642
 6628SOL    HW231518   0.256   4.294   3.678 -3.6115  1.6567  0.7432
 6629SOL     OW31519   1.359   1.370   4.728  0.2032  0.2172 -0.0167
 6629SOL    HW131520   1.266   1.353   4.742  0.3100 -0.7990 -0.5584
 6629SOL    HW231521   1.375   1.317   4.650 -1.8596  2.6591 -2.0919
 6630SOL     OW31522   4.571   2.010   3.349  0.1129 -0.0616 -0.4750
 6630SOL    HW131523   4.572   2.103   3.369 -1.3373 -0.8923  3.6613
 6630SOL    HW231524   4.645   1.984   3.404 -1.9670 -2.6375  1.1185
 6631SOL     OW31525   1.344   4.169  11.560  0.3093 -0.6725  0.4370
 6631SOL    HW131526   1.289   4.230  11.609 -0.2139 -0.0742 -0.8944
 6631SOL    HW231527   1.392   4.235  11.509 -0.3747  0.5757  1.4255
 6632SOL     OW31528   4.133   1.905   2.114 -0.0728  0.0221  0.4326
 6632SOL    HW131529   4.180   1.852   2.050  1.1787  0.2054  1.2099
 6632SOL    HW231530   4.203   1.901   2.180  1.0749  0.3563 -0.7745
 6633SOL     OW31531   0.470   4.506   3.748 -0.5049  0.4805  0.1847
 6633SOL    HW131532   0.450   4.594   3.717  1.0091  0.9588  0.5265
 6633SOL    HW231533   0.561   4.519   3.778  0.0832 -0.5858 -1.1479
 6634SOL     OW31534   0.225   2.511   6.350 -0.4239  0.0344  0.7771
 6634SOL    HW131535   0.185   2.596   6.371  0.4654  0.2479  1.6190
 6634SOL    HW231536   0.153   2.449   6.341 -0.2259  0.0849 -1.1050
 6635SOL     OW31537   1.234   1.471  16.090 -0.1168  0.5659  0.3274
 6635SOL    HW131538   1.193   1.557  16.103  0.1971  0.7270  0.2505
 6635SOL    HW231539   1.318   1.487  16.048  0.9698  1.3901  2.8139
 6636SOL     OW31540   0.600   0.987  11.480 -0.1315 -1.1290 -0.1038
 6636SOL    HW131541   0.651   1.067  11.472 -0.5620 -0.7710  0.6847
 6636SOL    HW231542   0.602   0.990  11.576 -1.2070 -1.5156 -0.0679
 6637SOL     OW31543   4.336   0.112  15.148  0.0579  0.4226  0.2974
 6637SOL    HW131544   4.343   0.115  15.053  3.6296 -0.6852  0.5092
 6637SOL    HW231545   4.279   0.036  15.159 -0.3042  0.4141 -1.5841
 6638SOL     OW31546   4.506   1.545  12.575  0.5093  0.5951 -0.1345
 6638SOL    HW131547   4.530   1.456  12.601 -1.4754  0.4103  1.0781
 6638SOL    HW231548   4.571   1.559  12.507  1.5068  1.0922  0.9264
 6639SOL     OW31549   3.753   2.467  17.559 -0.5079  0.8701  0.7134
 6639SOL    HW131550   3.764   2.423  17.475  1.1243  0.6486  1.0515
 6639SOL    HW231551   3.783   2.399  17.619 -0.8747  1.4792  1.5888
 6640SOL     OW31552   4.118   3.177  16.207  0.2508 -0.6827 -0.2824
 6640SOL    HW131553   4.175   3.224  16.146  1.6218  0.4570  1.8855
 6640SOL    HW231554   4.060   3.132  16.145  0.2746  1.4307 -1.8292
 6641SOL     OW31555   1.082   3.867   2.501  0.2756  0.4495  0.3988
 6641SOL    HW131556   0.986   3.861   2.501  0.2524  0.8737 -0.5204
 6641SOL    HW231557   1.095   3.891   2.593  1.9121 -0.2533  0.3500
 6642SOL     OW31558   2.177   2.121   5.183  0.8083 -0.3134 -0.3858
 6642SOL    HW131559   2.240   2.183   5.148  0.3940 -0.5893 -1.5998
 6642SOL    HW231560   2.104   2.175   5.212 -0.6213 -1.7002 -1.3641
 6643SOL     OW31561   2.183   4.584   4.918 -0.1403  0.0743  0.4052
 6643SOL    HW131562   2.157   4.619   4.833  1.2176  2.7727  1.0995
 6643SOL    HW231563   2.256   4.530   4.888  0.2669 -0.2038  1.8589
 6644SOL     OW31564   1.101   3.821   3.786 -0.3604 -0.3782 -0.2285
 6644SOL    HW131565   1.144   3.807   3.702 -1.8863  1.7721 -1.3721
 6644SOL    HW231566   1.178   3.848   3.836  0.9809 -0.4405 -2.2826
 6645SOL     OW31567   0.861   3.161  13.578  0.2389  0.0695  0.3011
 6645SOL    HW131568   0.775   3.121  13.590  0.5807 -0.1858  1.9841
 6645SOL    HW231569   0.842   3.223  13.508 -1.4799  0.6381  1.2604
 6646SOL     OW31570   1.442   2.247   3.769 -0.2092  0.1795 -0.2943
 6646SOL    HW131571   1.478   2.248   3.858 -0.6097  0.3195 -0.1311
 6646SOL    HW231572   1.469   2.335   3.742 -0.6636 -0.2500 -2.1262
 6647SOL     OW31573   2.419   2.135  14.937  0.0121 -0.4341 -0.3463
 6647SOL    HW131574   2.457   2.053  14.904  2.5559 -0.6117  3.0007
 6647SOL    HW231575   2.331   2.107  14.963  0.9604 -1.2768  1.9341
 6648SOL     OW31576   1.627   3.487   8.355  0.0115 -0.1950  0.6664
 6648SOL    HW131577   1.659   3.544   8.425 -1.1038  2.5396 -1.0322
 6648SOL    HW231578   1.707   3.478   8.303 -0.4218 -1.7668  0.2805
 6649SOL     OW31579   0.156   1.296   4.106 -0.3212  0.0440  0.4554
 6649SOL    HW131580   0.182   1.361   4.041  0.6624 -0.9679 -0.1529
 6649SOL    HW231581   0.188   1.219   4.060 -0.6813  0.8371 -1.1025
 6650SOL     OW31582   3.302   2.406  15.804 -0.3280  1.0033 -0.1683
 6650SOL    HW131583   3.283   2.312  15.810 -0.1915  0.9931  0.1188
 6650SOL    HW231584   3.397   2.405  15.791 -0.5075 -3.5000 -1.2099
 6651SOL     OW31585   1.701   0.988  14.512 -0.2206 -0.4860 -0.0259
 6651SOL    HW131586   1.772   0.983  14.447  0.6978  0.3317  0.9204
 6651SOL    HW231587   1.618   0.982  14.466 -0.2216 -1.3068  0.0715
 6652SOL     OW31588   4.282   1.263   1.344 -0.2187 -0.3274 -0.3299
 6652SOL    HW131589   4.349   1.309   1.293 -1.3304  0.0904 -1.4084
 6652SOL    HW231590   4.279   1.328   1.414  0.2706 -0.7271  0.0569
 6653SOL     OW31591   1.177   3.255   3.096  0.3416  0.0803 -0.0932
 6653SOL    HW131592   1.248   3.287   3.041 -0.2273  0.8897 -0.3638
 6653SOL    HW231593   1.211   3.169   3.119 -2.1177 -0.7399  0.4418
 6654SOL     OW31594   3.072   4.118   8.821  0.3148  0.4124 -0.4580
 6654SOL    HW131595   3.092   4.140   8.912 -1.7411 -1.0394  0.3253
 6654SOL    HW231596   3.146   4.157   8.773 -0.0471  2.2965  0.5209
 6655SOL     OW31597   4.603   0.857  12.282 -0.2207  0.1285 -0.0081
 6655SOL    HW131598   4.512   0.827  12.289 -0.1823  0.6238  2.5884
 6655SOL    HW231599   4.656   0.781  12.306  0.8744  0.6383 -0.8572
 6656SOL     OW31600   1.007   1.834   7.016  0.1302  0.5587  0.0478
 6656SOL    HW131601   0.932   1.874   7.059 -0.6017  1.6887 -2.2850
 6656SOL    HW231602   1.030   1.749   7.053  0.4549  1.8460  2.8358
 6657SOL     OW31603   1.143   2.135   6.516 -0.3988 -0.1465 -0.3723
 6657SOL    HW131604   1.140   2.179   6.601  1.3169  0.7005 -0.7569
 6657SOL    HW231605   1.148   2.210   6.457  0.7185  1.0321  1.2306
 6658SOL     OW31606   0.294   2.723   8.297  0.1539 -0.2029  0.0704
 6658SOL    HW131607   0.279   2.684   8.383  0.2586 -3.1462 -1.2126
 6658SOL    HW231608   0.230   2.672   8.248  1.6836 -0.7106 -1.4093
 6659SOL     OW31609   2.881   3.321   6.555  0.3659 -1.2641  0.3589
 6659SOL    HW131610   2.877   3.323   6.460 -0.9867 -3.2485  0.3643
 6659SOL    HW231611   2.789   3.328   6.579  0.2484  1.4564 -0.8872
 6660SOL     OW31612   0.177   0.346   1.821  0.5269 -0.3968 -0.0024
 6660SOL    HW131613   0.237   0.415   1.794  1.0361 -1.4422 -1.5562
 6660SOL    HW231614   0.152   0.301   1.740  1.2121  1.4561 -1.2446
 6661SOL     OW31615   0.040   2.917   8.460  0.0291  1.0200  0.3941
 6661SOL    HW131616   0.063   2.826   8.445 -1.0015  0.7101  0.7149
 6661SOL    HW231617   4.680   2.921   8.452 -0.0920  1.1127  1.7934
 6662SOL     OW31618   1.721   4.448   8.587  0.4537 -0.1823 -0.1639
 6662SOL    HW131619   1.765   4.484   8.510 -0.2354 -1.2356 -1.0488
 6662SOL    HW231620   1.752   4.498   8.662 -0.4463 -1.1953  0.8789
 6663SOL     OW31621   3.048   1.178   4.419 -0.0984 -0.2352  0.4643
 6663SOL    HW131622   2.979   1.151   4.480 -0.0892  1.7852  1.3708
 6663SOL    HW231623   2.995   1.240   4.367 -2.4061 -2.1759  0.4977
 6664SOL     OW31624   2.462   2.339  15.297 -0.0133  0.4621 -0.3628
 6664SOL    HW131625   2.472   2.306  15.386 -0.5494 -0.3428 -0.6029
 6664SOL    HW231626   2.390   2.402  15.301  0.7492  1.3124  0.1667
 6665SOL     OW31627   2.942   0.516   4.435  0.6241  0.1764  0.5144
 6665SOL    HW131628   2.918   0.594   4.484  2.5486  0.5637  0.8255
 6665SOL    HW231629   2.944   0.533   4.341 -0.6454 -0.5686  0.3488
 6666SOL     OW31630   0.543   3.000  14.798  0.0190  0.3815  0.1087
 6666SOL    HW131631   0.482   2.927  14.804  0.4646 -0.0929 -0.9910
 6666SOL    HW231632   0.537   3.017  14.704 -0.8306 -0.0370  0.0912
 6667SOL     OW31633   1.684   1.274  12.893  0.1738 -0.1650  0.1820
 6667SOL    HW131634   1.720   1.201  12.944  0.6705 -1.8416 -2.5377
 6667SOL    HW231635   1.608   1.226  12.860  0.7274 -1.5374  0.8699
 6668SOL     OW31636   4.274   2.465   3.150  0.5041  0.1688  0.2738
 6668SOL    HW131637   4.293   2.559   3.155  2.2113 -0.1833  0.6193
 6668SOL    HW231638   4.188   2.462   3.110  1.0604  1.3795 -0.9985
 6669SOL     OW31639   0.381   4.634   9.151  0.1635 -0.0648  0.2567
 6669SOL    HW131640   0.317   4.564   9.162 -0.2955  0.0427 -1.8389
 6669SOL    HW231641   0.343   4.664   9.069  0.6998 -1.5734 -0.5258
 6670SOL     OW31642   3.465   0.985  12.901 -0.0391 -0.0907  0.3256
 6670SOL    HW131643   3.502   0.984  12.989  0.5462  1.2745  0.0835
 6670SOL    HW231644   3.444   0.892  12.889  0.7132 -0.2981  0.6317
 6671SOL     OW31645   1.995   2.470  13.348 -0.1082  0.1599 -0.2085
 6671SOL    HW131646   1.906   2.470  13.384 -0.3791  0.7614 -0.8853
 6671SOL    HW231647   2.009   2.564  13.339 -1.2801  0.4322  0.8515
 6672SOL     OW31648   4.231   2.473  11.595 -0.5773 -0.2559  0.1838
 6672SOL    HW131649   4.220   2.532  11.520 -0.6817 -1.5705 -0.8361
 6672SOL    HW231650   4.315   2.437  11.567 -0.0751  0.4663  0.7534
 6673SOL     OW31651   2.904   2.718   9.274 -0.2862 -0.3573  0.1274
 6673SOL    HW131652   2.825   2.769   9.259  0.7821  0.5875 -2.2614
 6673SOL    HW231653   2.900   2.681   9.362 -0.6645 -1.4550 -0.3546
 6674SOL     OW31654   1.576   0.809   6.566  0.4633 -0.1256 -0.1976
 6674SOL    HW131655   1.580   0.900   6.535  1.2397  0.3171  1.1921
 6674SOL    HW231656   1.670   0.794   6.575  1.1045  3.7388 -0.3066
 6675SOL     OW31657   2.575   0.701   4.977  0.0494 -0.0079 -0.1498
 6675SOL    HW131658   2.621   0.769   4.928 -1.7235 -0.3072 -2.2397
 6675SOL    HW231659   2.629   0.623   4.971 -0.7814 -0.5851 -0.1939
 6676SOL     OW31660   3.299   0.529   6.680 -0.3770 -0.2426  0.2779
 6676SOL    HW131661   3.298   0.620   6.712 -0.8271 -0.0102 -0.3991
 6676SOL    HW231662   3.325   0.542   6.589  0.5423 -1.9632  0.2927
 6677SOL     OW31663   4.199   3.300   8.049  0.6298 -0.2496  0.6044
 6677SOL    HW131664   4.124   3.306   8.109  0.0142  0.7411 -0.2632
 6677SOL    HW231665   4.153   3.303   7.965  1.7629  0.4777  0.0183
 6678SOL     OW31666   0.783   4.053  16.195  0.2279  0.5270 -0.4638
 6678SOL    HW131667   0.752   4.133  16.237 -1.2320  0.3475 -1.2228
 6678SOL    HW231668   0.699   4.021  16.163  0.4138  1.1396 -1.5773
 6679SOL     OW31669   3.676   4.461   8.826 -0.0752  0.3365 -0.1034
 6679SOL    HW131670   3.611   4.461   8.896  0.1460 -0.0765  0.1029
 6679SOL    HW231671   3.761   4.447   8.868  0.0851  3.7898  0.7268
 6680SOL     OW31672   0.773   2.651  17.096 -0.1816 -0.2051  0.4851
 6680SOL    HW131673   0.736   2.566  17.073 -1.0595  0.8196 -1.8128
 6680SOL    HW231674   0.691   2.694  17.119  0.7244  1.0038  1.4551
 6681SOL     OW31675   4.616   0.548   3.450  0.3638 -0.6931  0.2071
 6681SOL    HW131676   4.525   0.519   3.452  0.4558 -0.9635  0.4942
 6681SOL    HW231677   4.652   0.474   3.401  2.6917  1.2370 -1.0130
 6682SOL     OW31678   3.154   1.978   3.431 -0.7265 -0.2791 -0.7205
 6682SOL    HW131679   3.196   1.895   3.412 -2.4032 -0.8204 -2.0596
 6682SOL    HW231680   3.070   1.932   3.430 -1.2846  0.7498 -1.4544
 6683SOL     OW31681   2.245   3.232   6.342 -0.0632 -0.1440 -0.1207
 6683SOL    HW131682   2.248   3.167   6.412  1.4267 -0.7230 -0.7247
 6683SOL    HW231683   2.192   3.185   6.278 -0.1517  1.2150 -1.0476
 6684SOL     OW31684   1.043   1.382  17.147 -0.2560  0.0598  0.7533
 6684SOL    HW131685   1.109   1.451  17.158 -1.3341  1.4948 -1.9078
 6684SOL    HW231686   1.095   1.318  17.099  0.4074  1.7698 -0.8216
 6685SOL     OW31687   3.646   1.765   1.522 -0.4122 -0.1698 -0.5877
 6685SOL    HW131688   3.582   1.779   1.452 -0.5046  0.6961 -0.3281
 6685SOL    HW231689   3.585   1.770   1.596 -0.6958 -0.6076 -0.7910
 6686SOL     OW31690   0.327   3.486   3.954  0.3627  0.1624  0.0379
 6686SOL    HW131691   0.246   3.467   4.001 -0.6847  2.2730 -0.8752
 6686SOL    HW231692   0.342   3.579   3.972 -2.8167  0.9793 -1.4422
 6687SOL     OW31693   3.822   1.114  10.944  0.1921 -0.2561 -0.3213
 6687SOL    HW131694   3.881   1.187  10.923  0.2929  0.2543  1.8101
 6687SOL    HW231695   3.804   1.113  11.037  0.7169 -1.6350 -0.2263
 6688SOL     OW31696   1.689   1.234   6.242  0.1152  0.2813  0.1205
 6688SOL    HW131697   1.720   1.145   6.260  0.4649  0.0156 -1.7466
 6688SOL    HW231698   1.675   1.227   6.147 -0.4529 -3.8724  0.5308
 6689SOL     OW31699   1.656   1.931   7.636 -0.0747  0.5794  0.3915
 6689SOL    HW131700   1.622   1.896   7.554 -1.5625  3.1748 -0.0902
 6689SOL    HW231701   1.569   1.926   7.677 -0.0899  0.5485  0.3553
 6690SOL     OW31702   0.841   1.059   4.415 -0.6790 -0.4435 -0.1891
 6690SOL    HW131703   0.748   1.046   4.396 -0.7881  0.6341 -0.3897
 6690SOL    HW231704   0.854   1.125   4.347  2.5533 -0.0254  0.8500
 6691SOL     OW31705   3.158   3.090   2.239  0.0192 -0.0502 -0.0418
 6691SOL    HW131706   3.223   3.118   2.304 -2.6211 -1.9223  3.4561
 6691SOL    HW231707   3.206   3.119   2.162 -0.3182 -2.2428 -1.0847
 6692SOL     OW31708   3.787   0.285   6.543  0.1664 -0.0787 -0.7045
 6692SOL    HW131709   3.817   0.331   6.622 -1.7845 -2.7733  1.5986
 6692SOL    HW231710   3.701   0.252   6.568  1.4156 -3.5192 -0.9383
 6693SOL     OW31711   4.537   4.608   4.593 -0.2632  0.5421  0.4337
 6693SOL    HW131712   4.543   4.618   4.688  2.2886 -0.4597  0.3689
 6693SOL    HW231713   4.628   4.594   4.568 -0.6034  0.1293 -0.5736
 6694SOL     OW31714   4.385   1.740  12.728  0.0114  0.5661  0.0514
 6694SOL    HW131715   4.439   1.676  12.681 -0.0316  1.4991 -1.2604
 6694SOL    HW231716   4.451   1.777  12.786  1.2266 -2.3462  0.5474
 6695SOL     OW31717   3.185   0.933  11.102  0.4989 -0.5325 -0.1931
 6695SOL    HW131718   3.196   0.983  11.021  0.7847 -0.8446 -0.3488
 6695SOL    HW231719   3.230   0.850  11.086  0.5209 -0.3956 -0.8536
 6696SOL     OW31720   0.645   1.356  13.138 -0.0549 -0.0238  0.3277
 6696SOL    HW131721   0.712   1.386  13.201  0.6733  2.0074 -1.4389
 6696SOL    HW231722   0.641   1.262  13.159 -1.2021  0.0144  0.2700
 6697SOL     OW31723   2.226   3.830   0.491  0.4231  0.1534  0.0952
 6697SOL    HW131724   2.164   3.782   0.547 -0.4449  0.9594 -0.1790
 6697SOL    HW231725   2.253   3.758   0.433 -0.3420  0.3633 -0.5222
 6698SOL     OW31726   0.897   2.277  12.180  0.2632  0.0697  0.4106
 6698SOL    HW131727   0.838   2.203  12.165  1.1150 -0.7207  0.9322
 6698SOL    HW231728   0.850   2.332  12.243 -2.1840 -2.1893  0.5552
 6699SOL     OW31729   3.142   1.812  12.197  0.2228 -0.6778 -0.3142
 6699SOL    HW131730   3.201   1.838  12.126  0.6380  3.7442  1.6863
 6699SOL    HW231731   3.102   1.736  12.155  1.8906 -2.2056  0.8524
 6700SOL     OW31732   0.828   2.010   6.703  0.0792  0.1062  0.4951
 6700SOL    HW131733   0.846   2.086   6.648  0.1567 -0.1715  0.1330
 6700SOL    HW231734   0.906   1.955   6.699 -0.9185 -1.3424  0.6154
 6701SOL     OW31735   2.415   1.920  10.100 -0.0455  0.2629  0.8607
 6701SOL    HW131736   2.463   1.970  10.034 -0.7937 -1.0868 -0.7030
 6701SOL    HW231737   2.467   1.840  10.111  1.4146  1.0077 -0.6630
 6702SOL     OW31738   1.607   2.597   3.472  0.1593 -0.3098  0.5454
 6702SOL    HW131739   1.637   2.686   3.456  0.6285 -0.8369 -1.5078
 6702SOL    HW231740   1.513   2.609   3.485 -0.0910  0.1584 -1.6927
 6703SOL     OW31741   4.492   0.774   8.523 -0.7176 -0.3835  0.2190
 6703SOL    HW131742   4.437   0.804   8.596  0.6328 -1.2633  1.6157
 6703SOL    HW231743   4.431   0.732   8.463 -0.8239  1.6177 -1.0581
 6704SOL     OW31744   4.513   0.223   7.906 -0.5828 -0.2133 -0.5090
 6704SOL    HW131745   4.589   0.215   7.963  0.1568 -0.4772 -1.5415
 6704SOL    HW231746   4.512   0.319   7.910  0.4093 -0.1837 -1.0682
 6705SOL     OW31747   3.662   3.696   7.747  0.5888 -0.0765 -0.4809
 6705SOL    HW131748   3.605   3.620   7.758  0.8190 -0.4977 -2.2179
 6705SOL    HW231749   3.681   3.704   7.841 -1.8841  1.5300 -0.1415
 6706SOL     OW31750   1.411   0.330   8.846 -0.1155 -0.3488 -0.2441
 6706SOL    HW131751   1.415   0.309   8.940 -1.0544  0.4251 -0.0302
 6706SOL    HW231752   1.318   0.310   8.836 -0.1674  0.2354 -0.9251
 6707SOL     OW31753   3.886   3.742  11.516 -0.2156 -0.7940 -0.1644
 6707SOL    HW131754   3.880   3.834  11.542 -1.8575 -0.9695  0.0551
 6707SOL    HW231755   3.967   3.709  11.554 -1.6030 -2.7215  1.1371
 6708SOL     OW31756   2.486   0.711   5.793  0.6323 -0.1763  0.1019
 6708SOL    HW131757   2.430   0.785   5.769  1.3857  0.6585  0.8743
 6708SOL    HW231758   2.469   0.659   5.715 -0.5439  0.2095  0.1085
 6709SOL     OW31759   3.895   1.460  12.409  0.1726  0.0484  0.1012
 6709SOL    HW131760   3.828   1.405  12.367  0.8977 -2.0005  1.6167
 6709SOL    HW231761   3.888   1.539  12.356  0.1104  1.2590  1.9346
 6710SOL     OW31762   2.493   4.372  13.995 -0.3923 -0.3598  0.3278
 6710SOL    HW131763   2.532   4.329  14.072  1.7238  0.8350 -0.0707
 6710SOL    HW231764   2.411   4.406  14.030  2.0191  1.4764  4.2077
 6711SOL     OW31765   3.467   3.906   8.814  0.8940  0.3201 -0.1178
 6711SOL    HW131766   3.378   3.936   8.796  0.9087  1.1949  1.2467
 6711SOL    HW231767   3.482   3.833   8.753 -0.2823  1.4967 -1.8126
 6712SOL     OW31768   4.227   2.844   5.242 -0.1051  0.0632  0.2186
 6712SOL    HW131769   4.265   2.931   5.231  1.0079 -0.2054  1.9585
 6712SOL    HW231770   4.310   2.797   5.241 -0.3641 -0.3662 -2.0212
 6713SOL     OW31771   1.408   1.531   3.374 -0.3269  0.2166  0.5470
 6713SOL    HW131772   1.394   1.471   3.302 -2.1661  0.3998  0.7614
 6713SOL    HW231773   1.369   1.477   3.442  1.6406  1.2627  2.5434
 6714SOL     OW31774   3.975   4.702   7.208 -0.0740  0.2661  0.4450
 6714SOL    HW131775   3.893   4.681   7.164 -1.0827  0.3610  2.2661
 6714SOL    HW231776   3.996   0.058   7.186  0.3305 -0.3387 -1.6517
 6715SOL     OW31777   1.428   2.609   8.294 -0.2498 -0.3364  1.2386
 6715SOL    HW131778   1.407   2.670   8.223  1.3691 -1.1072  0.0969
 6715SOL    HW231779   1.357   2.624   8.356 -1.5854  1.3295 -0.7111
 6716SOL     OW31780   2.032   1.055   6.371  0.0176  0.2381  0.1838
 6716SOL    HW131781   1.954   0.999   6.376 -0.9572  1.4888 -0.9667
 6716SOL    HW231782   2.079   1.024   6.294  0.9258  0.0288  0.8280
 6717SOL     OW31783   0.068   0.917   0.015 -0.4791  0.1093 -0.2424
 6717SOL    HW131784   0.035   0.965  17.677  0.1516  1.3010  0.2324
 6717SOL    HW231785   0.005   0.947   0.080  1.8386  0.2807  1.9405
 6718SOL     OW31786   2.845   3.763   4.412  0.0864 -0.1329 -0.4988
 6718SOL    HW131787   2.796   3.799   4.339 -2.7365 -0.6173  1.1382
 6718SOL    HW231788   2.855   3.842   4.466  0.1901 -1.2477  1.1247
 6719SOL     OW31789   3.994   3.556   7.933  0.2927 -0.1127  0.2484
 6719SOL    HW131790   3.927   3.530   7.871  1.7250 -1.5958 -0.6924
 6719SOL    HW231791   4.013   3.479   7.987  0.6159  0.5304  1.0553
 6720SOL     OW31792   1.492   3.721  11.523  0.0008  0.0253 -0.1328
 6720SOL    HW131793   1.549   3.718  11.600  0.2915 -0.2671 -0.3593
 6720SOL    HW231794   1.546   3.784  11.475 -1.1976  0.4235 -0.9829
 6721SOL     OW31795   4.166   2.914  12.634 -0.3794  0.9235  0.4187
 6721SOL    HW131796   4.201   2.925  12.722  3.0553 -1.0811 -0.7001
 6721SOL    HW231797   4.247   2.885  12.592 -0.1740 -1.0183  2.1858
 6722SOL     OW31798   1.634   1.027   7.173 -0.1111  0.6218 -0.0511
 6722SOL    HW131799   1.667   0.996   7.257 -0.9886  3.5097  1.3765
 6722SOL    HW231800   1.714   1.002   7.127 -0.4153  0.7036 -0.6237
 6723SOL     OW31801   0.476   3.812   8.422 -0.1711 -0.4609 -0.6219
 6723SOL    HW131802   0.419   3.754   8.473 -1.3111  0.0709 -1.2858
 6723SOL    HW231803   0.557   3.806   8.473 -1.0398  1.0228  0.9387
 6724SOL     OW31804   3.359   0.991   3.627  0.3143  0.2405 -0.2493
 6724SOL    HW131805   3.278   0.956   3.589  0.6102 -1.0861  0.3322
 6724SOL    HW231806   3.377   1.066   3.570  0.8251  1.8520  2.0505
 6725SOL     OW31807   2.945   3.201   4.780  0.5049  0.3632 -0.3646
 6725SOL    HW131808   2.955   3.291   4.748 -0.0462  1.3379  2.2156
 6725SOL    HW231809   3.033   3.170   4.759  0.2662 -1.4986  1.4712
 6726SOL     OW31810   2.246   1.200   9.350 -0.5084 -0.4773 -0.0499
 6726SOL    HW131811   2.322   1.143   9.344  0.6438  1.2445 -1.7682
 6726SOL    HW231812   2.250   1.265   9.280 -0.2706 -0.7936 -0.3308
 6727SOL     OW31813   0.806   0.990   5.475  0.3918 -0.5107  0.1656
 6727SOL    HW131814   0.812   1.006   5.381 -0.1185 -2.8746 -0.2670
 6727SOL    HW231815   0.780   1.075   5.509  1.8006  0.1881 -0.5034
 6728SOL     OW31816   1.176   4.042   9.952  0.7246 -0.2860  0.5387
 6728SOL    HW131817   1.098   4.064   9.901  0.8420  0.7563  0.8110
 6728SOL    HW231818   1.217   4.124   9.923  3.4259 -1.9409 -0.3088
 6729SOL     OW31819   1.862   2.742   9.512 -0.3042 -0.2288  0.3693
 6729SOL    HW131820   1.865   2.695   9.428  0.0207  2.4940 -1.1482
 6729SOL    HW231821   1.934   2.700   9.560 -0.6133  0.4590  1.4408
 6730SOL     OW31822   3.506   1.815  17.248  0.3464  0.5829  0.4267
 6730SOL    HW131823   3.441   1.769  17.194  0.1489  1.1358  0.1838
 6730SOL    HW231824   3.588   1.793  17.205 -0.1394 -0.1459 -0.1293
 6731SOL     OW31825   0.080   0.036   3.803 -0.2126  0.6678  0.6921
 6731SOL    HW131826   0.030   0.066   3.878 -1.7137 -1.5984  0.6089
 6731SOL    HW231827   0.092   4.678   3.826  2.4439  0.2783 -2.1540
 6732SOL     OW31828   2.399   4.445  14.484  0.0924 -0.6298 -0.3627
 6732SOL    HW131829   2.315   4.456  14.441 -0.4762 -0.2950  0.8519
 6732SOL    HW231830   2.378   4.505  14.555  1.6691 -2.7566  1.9239
 6733SOL     OW31831   2.680   4.659   7.947 -0.5653  1.0825 -0.5417
 6733SOL    HW131832   2.733   4.595   7.900 -0.7963  1.2566 -1.0333
 6733SOL    HW231833   2.754   4.714   7.973 -3.1179  3.0711  2.4826
 6734SOL     OW31834   3.542   3.642   6.819 -0.1034 -0.0346 -0.0467
 6734SOL    HW131835   3.572   3.698   6.891  1.0231  0.0193 -0.5518
 6734SOL    HW231836   3.610   3.660   6.754  2.0921 -1.5459  1.8196
 6735SOL     OW31837   0.961   3.843  15.381  0.2887  0.4294 -0.0782
 6735SOL    HW131838   0.915   3.830  15.298  0.6846  1.6306 -0.4960
 6735SOL    HW231839   0.953   3.939  15.379  1.2613  0.4780 -1.5218
 6736SOL     OW31840   1.642   0.044  12.526  0.0080  0.2626 -0.1653
 6736SOL    HW131841   1.723   0.046  12.475 -0.6309 -3.6113 -1.2900
 6736SOL    HW231842   1.626   0.136  12.549  0.8111  0.3030  0.2125
 6737SOL     OW31843   3.195   2.752   5.120 -0.1376  0.4034 -0.8263
 6737SOL    HW131844   3.249   2.685   5.161 -3.1658 -0.1017  2.3840
 6737SOL    HW231845   3.182   2.718   5.032  1.7808 -0.6918 -0.6645
 6738SOL     OW31846   3.990   0.334   6.978 -0.0814  0.0070  0.5297
 6738SOL    HW131847   3.930   0.377   7.038  0.3197  1.4202 -0.0876
 6738SOL    HW231848   4.028   0.267   7.035  0.0071 -1.8198 -1.6537
 6739SOL     OW31849   0.892   0.864   6.112 -0.6810 -0.2039 -0.0089
 6739SOL    HW131850   0.946   0.787   6.093 -2.7154 -1.6762  0.2292
 6739SOL    HW231851   0.808   0.825   6.134 -0.3419 -1.0099 -0.1252
 6740SOL     OW31852   0.693   4.658   1.501  0.0322 -0.0975 -0.0000
 6740SOL    HW131853   0.616   4.711   1.482  0.1228 -0.3121 -0.9746
 6740SOL    HW231854   0.751   4.734   1.494  0.1401 -0.1307  0.5577
 6741SOL     OW31855   1.260   4.150   8.083  0.5795 -0.3142  0.0230
 6741SOL    HW131856   1.179   4.119   8.043  0.7984 -0.3451 -0.3973
 6741SOL    HW231857   1.331   4.110   8.032  0.5983 -2.1196  1.4609
 6742SOL     OW31858   4.317   0.302   5.334 -0.4046  0.3626 -0.6589
 6742SOL    HW131859   4.287   0.239   5.268 -0.9647  1.3894 -1.3826
 6742SOL    HW231860   4.411   0.288   5.328 -0.4347 -0.1463  0.0137
 6743SOL     OW31861   1.959   4.303  15.454 -0.1078 -0.1160  0.8446
 6743SOL    HW131862   2.011   4.304  15.374 -0.3272  0.7855  0.7161
 6743SOL    HW231863   1.997   4.381  15.494 -1.6254  0.1724  1.7299
 6744SOL     OW31864   2.807   1.489  10.113 -0.0064 -0.5637  0.0543
 6744SOL    HW131865   2.889   1.519  10.153 -0.3702  0.7665 -0.2263
 6744SOL    HW231866   2.770   1.577  10.116  1.0066 -0.1129 -0.7727
 6745SOL     OW31867   1.945   1.156   4.721  0.3431 -0.5536 -0.1833
 6745SOL    HW131868   1.905   1.149   4.634 -0.1632  2.1313 -0.1539
 6745SOL    HW231869   2.037   1.176   4.700  0.1126 -0.7663 -1.3769
 6746SOL     OW31870   0.773   0.763   7.723  0.2599 -0.3207 -0.3741
 6746SOL    HW131871   0.840   0.698   7.744  1.5406  0.7020 -1.2862
 6746SOL    HW231872   0.821   0.839   7.692  0.2494 -0.0402  0.3005
 6747SOL     OW31873   2.988   3.520   8.255  0.6442  0.1929  0.9776
 6747SOL    HW131874   3.010   3.601   8.300  0.9703  2.3833 -3.0580
 6747SOL    HW231875   2.966   3.470   8.334  0.0922 -0.0242  0.6890
 6748SOL     OW31876   1.812   4.452  16.181  0.6286  0.0350 -0.6492
 6748SOL    HW131877   1.906   4.451  16.201 -0.1602 -1.5026  3.1138
 6748SOL    HW231878   1.785   4.467  16.272  0.5820 -1.6414 -0.3872
 6749SOL     OW31879   3.966   1.024   8.339  0.0516 -0.1408  0.2434
 6749SOL    HW131880   3.969   0.964   8.413 -2.4564  2.1784  2.2038
 6749SOL    HW231881   3.959   1.106   8.387  0.6635  0.4289 -0.6272
 6750SOL     OW31882   2.514   1.145   3.053  0.0904  0.3119 -0.2931
 6750SOL    HW131883   2.488   1.235   3.073  2.5476  1.3014 -1.4229
 6750SOL    HW231884   2.604   1.149   3.020  1.0405 -1.9921  2.0234
 6751SOL     OW31885   1.944   3.505   7.486 -0.1397 -0.1961 -0.1819
 6751SOL    HW131886   1.942   3.600   7.492 -0.3363 -0.3778  2.6524
 6751SOL    HW231887   1.850   3.495   7.471 -0.4578  0.0655  1.5831
 6752SOL     OW31888   1.472   2.765   9.098 -0.3837 -0.1856  0.2079
 6752SOL    HW131889   1.384   2.739   9.126 -0.9719 -0.9958 -2.3917
 6752SOL    HW231890   1.525   2.715   9.161  0.5066  0.6323  0.1057
 6753SOL     OW31891   2.131   1.499  11.725  0.0931  0.3296  0.2581
 6753SOL    HW131892   2.211   1.522  11.678 -1.2737  3.2237 -0.5974
 6753SOL    HW231893   2.159   1.499  11.817 -0.2316 -0.3368  0.3627
 6754SOL     OW31894   0.671   1.233   7.528 -0.0599 -0.0257 -0.2262
 6754SOL    HW131895   0.617   1.156   7.509 -1.7106  1.2363 -0.7271
 6754SOL    HW231896   0.603   1.296   7.556  0.9078  1.2967 -0.8342
 6755SOL     OW31897   3.106   2.989  14.339 -0.5546 -0.0466 -1.2577
 6755SOL    HW131898   3.064   3.065  14.379  0.1679 -0.2341 -0.1323
 6755SOL    HW231899   3.037   2.960  14.280  0.8558 -0.8934 -2.4948
 6756SOL     OW31900   2.394   3.620   7.825  0.2696 -0.2011 -0.0739
 6756SOL    HW131901   2.398   3.692   7.762 -1.3482  0.2761  0.3681
 6756SOL    HW231902   2.301   3.599   7.813  0.0487  1.5521 -1.4247
 6757SOL     OW31903   0.508   4.667  16.734 -0.4967  0.1195  0.0384
 6757SOL    HW131904   0.519   4.581  16.693 -1.6241  1.1164 -2.3398
 6757SOL    HW231905   0.496   4.642  16.825 -0.3898 -1.5694 -0.4137
 6758SOL     OW31906   2.886   4.259   1.584  0.0765  0.4440  0.4190
 6758SOL    HW131907   2.927   4.205   1.652 -0.5185  0.9075  1.1395
 6758SOL    HW231908   2.907   4.345   1.619  0.3736  0.6101 -0.1664
 6759SOL     OW31909   3.662   4.725   8.978 -0.4830  0.4429  0.2692
 6759SOL    HW131910   3.674   0.074   9.023  3.3314  0.4548 -0.7355
 6759SOL    HW231911   3.752   4.703   8.952 -0.0527  0.0877  2.0897
 6760SOL     OW31912   0.349   0.231   5.838  0.1651 -0.4900  0.4831
 6760SOL    HW131913   0.328   0.259   5.749 -0.6698  0.2829  0.9159
 6760SOL    HW231914   0.364   0.138   5.822 -0.2796  0.0604 -3.0701
 6761SOL     OW31915   3.259   4.070  17.613 -0.5726 -0.0881  0.3241
 6761SOL    HW131916   3.348   4.102  17.619 -0.9353  1.2968 -1.8313
 6761SOL    HW231917   3.213   4.110  17.687 -2.8153 -1.1174 -0.4989
 6762SOL     OW31918   4.313   1.488   6.090  0.8533 -0.2062  0.6250
 6762SOL    HW131919   4.383   1.547   6.118  0.8931  0.9858 -1.9363
 6762SOL    HW231920   4.238   1.545   6.108  0.1722  0.0802 -3.0971
 6763SOL     OW31921   4.241   0.779   6.706 -0.3637  0.4239 -0.2486
 6763SOL    HW131922   4.227   0.830   6.786 -1.0629  4.0475 -2.6880
 6763SOL    HW231923   4.251   0.695   6.750  1.2899 -0.8811 -3.1419
 6764SOL     OW31924   4.677   0.876   5.173 -0.1273  0.1568  0.2767
 6764SOL    HW131925   4.618   0.855   5.100  2.1955  0.5215 -1.7038
 6764SOL    HW231926   4.709   0.965   5.155  0.1398  0.0358  0.1569
 6765SOL     OW31927   3.739   1.160   3.408 -0.5297 -0.0951 -0.1690
 6765SOL    HW131928   3.742   1.064   3.409  2.4943  0.0105  0.6030
 6765SOL    HW231929   3.810   1.194   3.463  1.0386 -1.9759 -0.9949
 6766SOL     OW31930   4.067   4.714  14.386 -0.3754 -0.6715  0.3478
 6766SOL    HW131931   4.145   4.731  14.438  0.3825  0.2785 -1.1052
 6766SOL    HW231932   4.110   4.685  14.305 -2.3578 -1.1923 -0.5361
 6767SOL     OW31933   1.684   2.069   1.783  0.1540 -0.5707 -0.0566
 6767SOL    HW131934   1.639   2.072   1.699 -1.4841  1.1637  0.8902
 6767SOL    HW231935   1.738   1.996   1.754 -1.4861 -1.0744 -1.8290
 6768SOL     OW31936   4.090   3.537   6.715 -0.1997  0.4458 -0.6717
 6768SOL    HW131937   4.013   3.530   6.772 -0.3302 -1.7779 -1.1133
 6768SOL    HW231938   4.074   3.461   6.659 -1.8154  0.9746 -0.9463
 6769SOL     OW31939   1.714   4.139   3.300  0.0104  0.6973  0.0585
 6769SOL    HW131940   1.719   4.156   3.206  0.6525 -0.1231 -0.0528
 6769SOL    HW231941   1.641   4.196   3.324  1.5718  2.4048  0.8433
 6770SOL     OW31942   1.149   1.269   8.829  0.0712  0.0606 -0.0091
 6770SOL    HW131943   1.080   1.327   8.797 -0.4573  0.0216  1.0519
 6770SOL    HW231944   1.175   1.207   8.760 -1.7035  0.9073 -1.4421
 6771SOL     OW31945   3.329   4.671   2.337  0.0641  0.0706 -0.0237
 6771SOL    HW131946   3.412   4.715   2.353 -0.9497  1.1479  2.3549
 6771SOL    HW231947   3.302   4.646   2.425 -0.9594  0.7102 -0.1513
 6772SOL     OW31948   4.385   3.577   3.423 -0.1091  1.0658  0.3293
 6772SOL    HW131949   4.370   3.669   3.444 -0.3397  0.9978  0.4650
 6772SOL    HW231950   4.328   3.537   3.489 -3.4358 -0.0730 -3.1804
 6773SOL     OW31951   3.614   0.024   2.361  0.3875 -0.0644 -0.3244
 6773SOL    HW131952   3.700   0.064   2.350  0.7206 -1.3911 -2.5854
 6773SOL    HW231953   3.626   4.714   2.445 -0.5610  1.7477  0.7585
 6774SOL     OW31954   1.400   1.198   9.268 -0.0588  0.0174  0.6644
 6774SOL    HW131955   1.335   1.131   9.289  0.9177 -1.4782 -1.0012
 6774SOL    HW231956   1.403   1.193   9.173  0.5390 -2.8679  0.8314
 6775SOL     OW31957   3.703   3.082   7.752  0.0061 -0.6632  0.0311
 6775SOL    HW131958   3.698   3.015   7.685 -2.2591  1.0958 -1.5492
 6775SOL    HW231959   3.698   3.037   7.836 -1.7555  0.0102  0.2772
 6776SOL     OW31960   0.797   2.073   5.484 -0.5065  0.7811 -0.3321
 6776SOL    HW131961   0.789   2.165   5.508  0.7611  0.7773  0.1174
 6776SOL    HW231962   0.813   2.077   5.389 -1.0488  3.0048 -0.3230
 6777SOL     OW31963   0.474   1.782   6.325 -0.0073 -0.6242 -0.2870
 6777SOL    HW131964   0.541   1.802   6.390 -0.3200  3.7174 -1.2820
 6777SOL    HW231965   0.523   1.791   6.243 -1.5382 -0.4724 -1.1966
 6778SOL     OW31966   4.142   1.086  12.120 -0.1485  0.3618 -0.1576
 6778SOL    HW131967   4.143   1.154  12.052  3.4039 -0.1439 -0.5866
 6778SOL    HW231968   4.198   1.123  12.188  0.5865  0.1487 -0.6464
 6779SOL     OW31969   0.958   1.330  14.266 -0.7123  0.4331  0.2255
 6779SOL    HW131970   0.948   1.267  14.338 -0.6522  0.1422 -0.0198
 6779SOL    HW231971   1.048   1.300  14.251 -1.2864 -0.7914 -0.7457
 6780SOL     OW31972   3.595   2.088   8.121 -0.3725  0.6098  0.1421
 6780SOL    HW131973   3.549   2.146   8.060 -0.9969  0.6597  0.6549
 6780SOL    HW231974   3.532   2.018   8.138  0.0148  0.3958  0.6905
 6781SOL     OW31975   1.801   0.179   7.574  0.1986  0.3700  0.6592
 6781SOL    HW131976   1.710   0.169   7.546  1.1967 -0.5736 -2.2166
 6781SOL    HW231977   1.805   0.105   7.635 -1.8441 -0.3262 -0.0525
 6782SOL     OW31978   0.056   1.479   9.390  0.3712  0.0387 -0.1359
 6782SOL    HW131979   0.053   1.399   9.337 -0.0551  0.3421 -0.5716
 6782SOL    HW231980   4.698   1.494   9.409  0.8466 -0.3680  2.5351
 6783SOL     OW31981   0.407   2.819   3.373 -1.0386 -0.5052 -0.0004
 6783SOL    HW131982   0.450   2.887   3.426 -2.9521 -0.2764  1.2494
 6783SOL    HW231983   0.321   2.856   3.357  0.1925  2.0312 -0.8184
 6784SOL     OW31984   4.447   4.732  10.930 -0.6417 -0.0617 -0.4861
 6784SOL    HW131985   4.501   0.068  10.965  0.7905 -2.6012  2.3902
 6784SOL    HW231986   4.362   0.023  10.966  0.1696  2.5908 -0.4881
 6785SOL     OW31987   3.128   1.372   5.673 -0.2864 -0.0795 -0.3525
 6785SOL    HW131988   3.034   1.389   5.678 -0.1303  0.8033 -0.4883
 6785SOL    HW231989   3.170   1.456   5.655  0.0469 -0.3920 -1.0405
 6786SOL     OW31990   2.678   0.205  16.023  0.2705  0.9736 -0.5317
 6786SOL    HW131991   2.583   0.206  16.015  0.4463  0.8848 -2.7265
 6786SOL    HW231992   2.710   0.212  15.933 -0.7937  1.1445 -0.8833
 6787SOL     OW31993   1.408   2.023   5.879  0.2420  0.3502 -0.5063
 6787SOL    HW131994   1.350   2.056   5.948 -0.1689  1.2985 -1.2917
 6787SOL    HW231995   1.497   2.018   5.914  0.2715  0.0429 -0.6260
 6788SOL     OW31996   4.146   1.315   8.473  0.4765  0.8524  0.6775
 6788SOL    HW131997   4.179   1.404   8.478  0.9488  0.8318 -2.2952
 6788SOL    HW231998   4.104   1.315   8.559 -1.2766 -0.8066 -0.1839
 6789SOL     OW31999   0.241   4.414   7.260 -0.0341  0.4508 -0.3806
 6789SOL    HW132000   0.283   4.464   7.330  0.7189 -0.7976  0.0577
 6789SOL    HW232001   0.216   4.487   7.203  0.6572 -0.8370 -2.3211
 6790SOL     OW32002   2.026   3.758  12.678 -0.1354  0.3207 -0.1409
 6790SOL    HW132003   1.996   3.801  12.758  2.5468  0.3630  0.8410
 6790SOL    HW232004   1.966   3.684  12.686  0.3384  0.1292  1.5283
 6791SOL     OW32005   2.592   0.712   3.901 -0.5693 -0.9805  0.3978
 6791SOL    HW132006   2.670   0.762   3.926 -2.2015  1.6821  0.0991
 6791SOL    HW232007   2.614   0.628   3.942 -2.7857 -0.7802  2.0053
 6792SOL     OW32008   2.467   2.131   3.741  0.8641 -0.8831  0.5241
 6792SOL    HW132009   2.464   2.061   3.676 -2.1721 -0.1487 -0.1398
 6792SOL    HW232010   2.494   2.089   3.823  1.0664  0.2185  1.0279
 6793SOL     OW32011   2.748   3.071   9.453 -0.1761 -0.8245 -0.0139
 6793SOL    HW132012   2.679   3.012   9.484 -2.3152  1.4605 -0.3660
 6793SOL    HW232013   2.791   3.095   9.534  1.6718 -0.7669 -1.0075
 6794SOL     OW32014   4.573   1.661  11.931 -0.2673  0.2179 -0.0603
 6794SOL    HW132015   4.499   1.716  11.906 -2.2069 -1.8218  1.2081
 6794SOL    HW232016   4.625   1.644  11.852 -1.2712  2.8017 -1.2573
 6795SOL     OW32017   0.782   0.340   4.277 -0.5746  0.4246 -0.4329
 6795SOL    HW132018   0.827   0.296   4.349  2.0246  1.3966 -1.4508
 6795SOL    HW232019   0.850   0.403   4.251 -1.4266  1.4593 -0.1257
 6796SOL     OW32020   2.633   1.838   6.307 -0.2817  0.6537  0.2393
 6796SOL    HW132021   2.721   1.816   6.338 -0.9533 -0.4965  1.3426
 6796SOL    HW232022   2.581   1.761   6.328 -0.8513  1.2857  1.1794
 6797SOL     OW32023   3.118   3.621   5.444  0.1188  0.2698 -0.0645
 6797SOL    HW132024   3.109   3.658   5.531 -1.0561  2.0238 -0.9292
 6797SOL    HW232025   3.159   3.536   5.463 -0.2961  0.4822  1.7785
 6798SOL     OW32026   3.821   1.097   9.179 -0.0564  0.4034 -0.3713
 6798SOL    HW132027   3.772   1.023   9.216  0.0103  0.6407  0.1981
 6798SOL    HW232028   3.874   1.050   9.115 -0.1257  0.1136 -0.2153
 6799SOL     OW32029   2.748   4.514   1.447 -0.4656 -0.5879  0.3630
 6799SOL    HW132030   2.762   4.481   1.535  1.3092  2.8018  1.3400
 6799SOL    HW232031   2.731   4.607   1.462  2.3297  0.0303 -0.3598
 6800SOL     OW32032   3.496   4.718   1.944  0.8862 -0.2108 -0.1964
 6800SOL    HW132033   3.568   4.680   1.995 -0.9718 -3.5433 -0.0706
 6800SOL    HW232034   3.464   4.646   1.890 -0.7460 -0.4311  1.0532
 6801SOL     OW32035   0.053   0.577   5.459  0.4442 -0.3710 -0.2524
 6801SOL    HW132036   4.713   0.594   5.401 -1.0745  0.9265  2.0917
 6801SOL    HW232037   0.108   0.524   5.401 -0.0835  0.2906 -1.3673
 6802SOL     OW32038   1.212   0.171   7.145  0.2873  0.0001 -0.2251
 6802SOL    HW132039   1.136   0.193   7.091  0.0790 -2.0201 -0.7324
 6802SOL    HW232040   1.271   0.181   7.071  0.9455 -1.8926  0.0562
 6803SOL     OW32041   4.267   4.723   3.533  0.4721 -0.1048  0.2217
 6803SOL    HW132042   4.328   0.050   3.573 -0.4222  1.3880 -0.7278
 6803SOL    HW232043   4.248   4.667   3.608  0.0425 -0.7349 -0.3576
 6804SOL     OW32044   1.720   0.326   5.116  0.5863 -0.3551 -0.6810
 6804SOL    HW132045   1.725   0.380   5.195  1.6391 -0.2091 -0.8375
 6804SOL    HW232046   1.638   0.349   5.074 -0.8068 -1.7014  1.3058
 6805SOL     OW32047   1.462   2.026  16.248 -0.0297  0.2502  0.2171
 6805SOL    HW132048   1.477   2.113  16.212  0.5396  0.7893  1.7453
 6805SOL    HW232049   1.502   2.041  16.334 -0.2613 -0.4573  0.4495
 6806SOL     OW32050   4.528   0.392   4.976  0.2830 -0.2528  0.2495
 6806SOL    HW132051   4.508   0.418   4.886 -0.3327 -2.9184 -0.3866
 6806SOL    HW232052   4.489   0.465   5.025 -0.9728 -1.0604  0.4574
 6807SOL     OW32053   0.623   4.641   4.945  0.0089 -0.5132  0.0869
 6807SOL    HW132054   0.718   4.652   4.947  0.0276 -0.7388  0.4717
 6807SOL    HW232055   0.597   4.692   4.869 -0.4836  1.5980  1.6565
 6808SOL     OW32056   2.743   2.410  15.307 -0.4855  0.5427  0.0293
 6808SOL    HW132057   2.655   2.410  15.271 -1.0487 -0.3672  1.4284
 6808SOL    HW232058   2.727   2.443  15.395  1.3229  0.9321  0.2259
 6809SOL     OW32059   2.528   1.441   3.058  0.0794 -0.3989  0.2302
 6809SOL    HW132060   2.619   1.436   3.087  1.0405 -1.1952 -2.9473
 6809SOL    HW232061   2.490   1.510   3.113 -0.1445 -1.3306  1.2474
 6810SOL     OW32062   2.950   2.717   1.266  0.2889  0.1087 -0.3896
 6810SOL    HW132063   2.890   2.660   1.314 -0.0987  1.5269  0.8221
 6810SOL    HW232064   2.896   2.728   1.188  0.0979  1.4019 -0.0808
 6811SOL     OW32065   3.436   2.776   4.697 -0.0714 -0.0107 -0.2944
 6811SOL    HW132066   3.465   2.767   4.787 -0.5577  2.1076  0.0788
 6811SOL    HW232067   3.482   2.708   4.648 -0.9412  0.1504 -1.3618
 6812SOL     OW32068   0.874   0.262   4.904  0.3299  0.0934 -0.3640
 6812SOL    HW132069   0.881   0.167   4.913 -1.2460 -0.1658 -1.9793
 6812SOL    HW232070   0.818   0.285   4.978  1.0257 -0.6466  0.3968
 6813SOL     OW32071   2.151   4.661   4.658  0.1378  0.3125  0.2083
 6813SOL    HW132072   2.238   4.643   4.621 -0.0614  1.4439 -0.8458
 6813SOL    HW232073   2.106   4.583   4.626  0.9651  0.2797 -0.8941
 6814SOL     OW32074   1.520   1.506   8.241 -0.3446  0.5001  0.4931
 6814SOL    HW132075   1.439   1.463   8.264 -0.8589  1.0742 -0.2268
 6814SOL    HW232076   1.568   1.434   8.199 -1.6069  0.1050 -0.2771
 6815SOL     OW32077   3.123   2.251   5.589  0.9470  0.3449 -0.1003
 6815SOL    HW132078   3.217   2.236   5.593  0.7215 -1.2292 -0.5395
 6815SOL    HW232079   3.118   2.277   5.497 -2.6872  0.0058 -0.0076
 6816SOL     OW32080   3.749   0.592   0.809  0.5309  0.1119  0.2091
 6816SOL    HW132081   3.810   0.578   0.881 -1.3032  0.0263  1.7697
 6816SOL    HW232082   3.789   0.537   0.742 -2.0395  0.2057 -1.4015
 6817SOL     OW32083   4.199   4.231   9.303  0.2704 -0.7834 -0.1282
 6817SOL    HW132084   4.177   4.297   9.368 -0.1601  0.5023 -1.5813
 6817SOL    HW232085   4.223   4.283   9.227  0.4825 -0.0445  0.4442
 6818SOL     OW32086   2.408   3.334   4.394 -0.4668  0.2029  0.0888
 6818SOL    HW132087   2.350   3.273   4.441  0.4881 -0.3088  0.6034
 6818SOL    HW232088   2.356   3.414   4.390 -0.2599  0.3088 -0.3979
 6819SOL     OW32089   2.180   3.956   9.985  0.6696  0.6191 -0.2149
 6819SOL    HW132090   2.175   3.985   9.895 -5.3113  3.0946  0.9184
 6819SOL    HW232091   2.115   4.014  10.024 -1.1651 -1.4674 -0.1249
 6820SOL     OW32092   0.976   4.119  16.448  0.3627  0.1103 -0.1410
 6820SOL    HW132093   1.005   4.161  16.528 -0.0474  0.3527 -0.1226
 6820SOL    HW232094   0.909   4.179  16.416 -0.6603 -0.4540  0.9393
 6821SOL     OW32095   2.338   0.884   7.547 -0.5154  0.0260  0.5534
 6821SOL    HW132096   2.381   0.829   7.613  2.9626  0.8240 -1.0875
 6821SOL    HW232097   2.343   0.819   7.477 -1.7243 -0.8698  1.2949
 6822SOL     OW32098   1.389   3.830   3.901 -0.1449 -0.1676 -0.5362
 6822SOL    HW132099   1.399   3.747   3.854  0.6909 -0.3176 -0.0843
 6822SOL    HW232100   1.449   3.887   3.853  1.4439 -2.1768 -0.9365
 6823SOL     OW32101   4.561   2.279   3.483  1.1234 -0.0982 -0.1956
 6823SOL    HW132102   4.522   2.250   3.565 -1.2603  0.0813 -1.2663
 6823SOL    HW232103   4.537   2.372   3.476  1.7184 -0.0783 -2.0199
 6824SOL     OW32104   1.033   4.099   7.213 -0.3289  0.7607 -0.2352
 6824SOL    HW132105   0.947   4.135   7.236  0.7209  1.1187  3.1477
 6824SOL    HW232106   1.039   4.090   7.118 -1.2608  1.8039 -0.4015
 6825SOL     OW32107   0.991   4.585   8.774 -0.0108 -0.0813 -0.3784
 6825SOL    HW132108   1.067   4.625   8.733  0.1097  0.2900  0.2003
 6825SOL    HW232109   1.030   4.537   8.848  2.9446  1.1400 -1.1431
 6826SOL     OW32110   4.728   1.963   2.957  0.4120 -0.3401 -0.1605
 6826SOL    HW132111   0.016   2.042   2.908  2.0599 -0.6045  0.1839
 6826SOL    HW232112   4.640   1.940   2.928 -0.4083 -0.1913  2.1681
 6827SOL     OW32113   0.419   3.512   9.081  0.5069  0.3385 -0.1084
 6827SOL    HW132114   0.371   3.451   9.136  1.2284 -0.8658 -0.8066
 6827SOL    HW232115   0.351   3.549   9.024 -1.0620 -0.4958  1.2345
 6828SOL     OW32116   1.571   0.608   5.492  0.3500  0.6126 -0.7077
 6828SOL    HW132117   1.510   0.679   5.510 -0.6845  0.0106 -1.8630
 6828SOL    HW232118   1.552   0.550   5.566  0.3718  0.0667 -1.1309
 6829SOL     OW32119   1.868   1.915   1.139 -0.4586 -0.0860  0.1172
 6829SOL    HW132120   1.908   1.840   1.095 -1.5268  0.9288 -2.5903
 6829SOL    HW232121   1.935   1.983   1.132  0.6417 -1.1808  0.0959
 6830SOL     OW32122   1.584   4.430   9.227  0.1585  0.4174 -0.2941
 6830SOL    HW132123   1.509   4.465   9.178 -2.3900 -0.3161  3.0439
 6830SOL    HW232124   1.576   4.462   9.317  2.1284  0.2243 -0.0511
 6831SOL     OW32125   1.275   4.208   6.967  0.1955  0.4220 -0.1882
 6831SOL    HW132126   1.367   4.203   6.940  0.6288  0.1429  1.3488
 6831SOL    HW232127   1.254   4.295   6.932  1.2099  0.9865  0.5712
 6832SOL     OW32128   3.981   1.835   2.762 -0.2952 -1.0497 -0.3657
 6832SOL    HW132129   3.919   1.762   2.762 -0.4410 -0.9225 -2.3362
 6832SOL    HW232130   4.002   1.842   2.669 -0.5322  2.2216 -0.1677
 6833SOL     OW32131   0.920   0.811   5.709  0.3115  0.0997  0.0176
 6833SOL    HW132132   1.014   0.820   5.698  0.2645  0.5120 -0.0433
 6833SOL    HW232133   0.889   0.871   5.641 -0.7695  0.0977  0.5028
 6834SOL     OW32134   1.988   4.532   9.246 -0.0035 -0.8052 -0.0961
 6834SOL    HW132135   1.997   4.463   9.180  1.0699 -0.5333 -0.2295
 6834SOL    HW232136   2.019   4.609   9.198  1.4112 -0.6167  1.1309
 6835SOL     OW32137   0.303   3.680   6.402 -0.2104 -0.0137  0.1732
 6835SOL    HW132138   0.324   3.736   6.477 -0.7786  0.6113 -0.1350
 6835SOL    HW232139   0.208   3.673   6.401 -0.1118 -1.3430 -0.4757
 6836SOL     OW32140   4.226   0.266   8.095 -0.1286  0.0397  0.0391
 6836SOL    HW132141   4.218   0.188   8.040  0.9293 -1.0998  1.5172
 6836SOL    HW232142   4.236   0.333   8.028  0.4795  2.7893  2.8849
 6837SOL     OW32143   2.025   2.431   7.179 -0.0287  0.5184 -0.8550
 6837SOL    HW132144   1.965   2.411   7.251 -1.0206  1.7607 -1.3328
 6837SOL    HW232145   2.068   2.346   7.173  1.1776  1.2396 -2.1981
 6838SOL     OW32146   1.404   1.695  12.068 -0.1696 -0.3699  0.2026
 6838SOL    HW132147   1.395   1.789  12.051 -0.9646 -0.4029  0.4286
 6838SOL    HW232148   1.313   1.674  12.089 -0.9849  0.7855 -2.2525
 6839SOL     OW32149   4.421   3.117  13.802 -0.8284  0.3935  0.0426
 6839SOL    HW132150   4.377   3.192  13.841 -0.2931  1.4062 -1.3208
 6839SOL    HW232151   4.350   3.055  13.820  0.2191 -0.6292  0.6556
 6840SOL     OW32152   1.778   0.815  15.773 -0.2912 -0.1806 -0.0651
 6840SOL    HW132153   1.773   0.857  15.687 -0.6461  0.6615  0.3763
 6840SOL    HW232154   1.758   0.728  15.736 -0.6317  0.4833 -1.4464
 6841SOL     OW32155   4.702   0.083   3.565 -0.0910  0.6493 -0.9506
 6841SOL    HW132156   0.029   0.035   3.510  0.0777  0.0272 -0.2108
 6841SOL    HW232157   0.017   0.097   3.645 -1.6109 -1.1011  0.2844
 6842SOL     OW32158   3.402   4.329   1.483 -0.3876  0.3333 -0.3020
 6842SOL    HW132159   3.489   4.367   1.495 -0.8821  1.4645 -0.2975
 6842SOL    HW232160   3.397   4.250   1.537  2.2591  2.3277  2.8316
 6843SOL     OW32161   2.913   0.933   0.159  0.9296 -0.3044 -0.1763
 6843SOL    HW132162   2.868   0.855   0.193  0.4230  0.4433  0.8987
 6843SOL    HW232163   2.972   0.943   0.234 -0.9155  0.9804  1.1108
 6844SOL     OW32164   0.149   1.514   7.833 -0.1646 -0.8672 -0.4470
 6844SOL    HW132165   0.119   1.447   7.895  0.2212  0.2243  0.9127
 6844SOL    HW232166   0.166   1.588   7.891  1.1046  0.1879 -2.1601
 6845SOL     OW32167   3.096   0.028   6.513 -0.4176 -0.1132  0.3612
 6845SOL    HW132168   3.178   4.717   6.533 -0.4531 -0.4000 -0.1475
 6845SOL    HW232169   3.040   4.696   6.472  1.2757 -0.2625 -1.6858
 6846SOL     OW32170   2.030   3.264  15.310 -0.2041 -0.2611 -0.5880
 6846SOL    HW132171   1.942   3.267  15.272  0.2953 -1.4886 -1.8197
 6846SOL    HW232172   2.036   3.182  15.359 -0.2542 -0.5470 -1.0616
 6847SOL     OW32173   2.916   2.106   0.011 -0.3789 -0.1378  0.3848
 6847SOL    HW132174   2.944   2.187  17.705 -0.7444 -0.6364 -0.7940
 6847SOL    HW232175   2.968   2.115   0.091 -0.0918  0.1531  0.1631
 6848SOL     OW32176   0.944   0.512   5.588  0.1637  0.0156 -0.2621
 6848SOL    HW132177   0.944   0.451   5.662 -0.7920  0.5009  0.1376
 6848SOL    HW232178   0.965   0.596   5.628 -0.9862  0.5952 -0.8534
 6849SOL     OW32179   2.996   3.602   7.533 -0.1172 -0.1696 -0.1174
 6849SOL    HW132180   2.936   3.675   7.548 -0.1230 -0.0240 -0.8400
 6849SOL    HW232181   2.937   3.529   7.512  0.3157 -1.1603  2.0911
 6850SOL     OW32182   3.553   0.968   4.517 -0.3833 -0.3826 -0.1717
 6850SOL    HW132183   3.543   1.058   4.548  0.8589 -0.5405  0.7165
 6850SOL    HW232184   3.523   0.909   4.587 -2.5913 -1.7440 -2.3016
 6851SOL     OW32185   4.615   1.914   4.317 -0.2125 -0.1887 -0.0130
 6851SOL    HW132186   4.633   2.005   4.341 -1.8711  0.8522 -2.7375
 6851SOL    HW232187   4.525   1.904   4.286 -0.7298  0.2594  1.3258
 6852SOL     OW32188   0.831   2.479   7.283 -0.2783  0.1249 -0.1670
 6852SOL    HW132189   0.883   2.503   7.206 -0.2424  0.5797  0.0007
 6852SOL    HW232190   0.743   2.506   7.259 -0.0037  1.9985  0.8783
 6853SOL     OW32191   1.787   1.023   1.976 -0.9944  0.3295 -0.3411
 6853SOL    HW132192   1.883   1.027   1.970 -0.8847  1.3690  1.8486
 6853SOL    HW232193   1.776   0.928   1.974  1.3283 -0.0068  2.1017
 6854SOL     OW32194   2.819   2.498   0.752 -0.2943  0.3020  0.3382
 6854SOL    HW132195   2.742   2.532   0.707  0.6856 -0.0767 -1.6304
 6854SOL    HW232196   2.784   2.456   0.830  3.2336 -1.1711  1.1304
 6855SOL     OW32197   0.983   3.330  10.165 -0.6660  0.1351  0.0219
 6855SOL    HW132198   0.997   3.254  10.221 -0.2584 -0.0540 -0.3338
 6855SOL    HW232199   1.008   3.299  10.077  2.4317  2.1868  0.1980
 6856SOL     OW32200   4.628   1.649   5.054  0.5991 -0.7304  1.0810
 6856SOL    HW132201   4.589   1.586   4.993  0.6912  0.8122 -0.5532
 6856SOL    HW232202   4.563   1.651   5.125  0.2089  3.2379  0.6190
 6857SOL     OW32203   3.341   3.166   6.160  0.2579 -0.2524  0.1468
 6857SOL    HW132204   3.294   3.230   6.107  0.5644 -1.2695 -1.3390
 6857SOL    HW232205   3.399   3.125   6.096  1.8973  0.8243  0.9314
 6858SOL     OW32206   3.510   3.065   9.569  0.3723  0.1743  0.0140
 6858SOL    HW132207   3.420   3.035   9.581  0.3467  0.3817  0.3541
 6858SOL    HW232208   3.537   3.021   9.489 -0.2964 -0.7952  0.3213
 6859SOL     OW32209   0.253   3.738  11.668 -0.2526  0.4105 -0.0872
 6859SOL    HW132210   0.266   3.731  11.763  0.7054 -0.4862 -0.2734
 6859SOL    HW232211   0.332   3.789  11.648 -0.9089  0.1875 -3.1980
 6860SOL     OW32212   4.733   0.159   4.033 -0.3068 -0.1225  0.7495
 6860SOL    HW132213   4.701   0.249   4.040 -0.1618 -0.1413  1.6010
 6860SOL    HW232214   4.692   0.134   4.115  0.6439 -0.6966  1.0469
 6861SOL     OW32215   0.070   2.038   3.575 -0.2516  0.3015 -0.4128
 6861SOL    HW132216   0.098   2.064   3.663 -0.3300  2.6446 -1.0766
 6861SOL    HW232217   0.095   2.117   3.526  2.0690 -0.6547 -0.7782
 6862SOL     OW32218   1.313   2.249   9.373  0.1012  0.1774 -0.0163
 6862SOL    HW132219   1.252   2.268   9.301 -1.4111 -0.9043  0.9685
 6862SOL    HW232220   1.314   2.337   9.411  0.4821  0.1312  0.0819
 6863SOL     OW32221   2.268   0.895   6.269  0.4717  0.1695  0.3568
 6863SOL    HW132222   2.255   0.823   6.208 -3.0558  0.5731  0.6258
 6863SOL    HW232223   2.355   0.923   6.242  1.0865  0.3016  2.4413
 6864SOL     OW32224   2.289   3.112   9.231  0.2271  0.8662 -0.2235
 6864SOL    HW132225   2.291   3.171   9.306 -1.7725  3.5189 -2.2305
 6864SOL    HW232226   2.282   3.026   9.272  1.5135  1.0877  0.4520
 6865SOL     OW32227   0.093   3.691   8.462  0.0334  0.3973  0.0505
 6865SOL    HW132228   0.105   3.773   8.510  1.1995  0.5081 -0.4300
 6865SOL    HW232229   0.022   3.708   8.399  0.0243  1.4754  0.3541
 6866SOL     OW32230   1.653   1.815   1.223 -0.0014 -0.3216 -0.4344
 6866SOL    HW132231   1.563   1.835   1.197 -0.2377 -3.3035 -1.9786
 6866SOL    HW232232   1.709   1.879   1.179 -0.3269  0.0405 -0.3168
 6867SOL     OW32233   2.705   3.719  11.566 -0.3919  0.2458  0.3518
 6867SOL    HW132234   2.781   3.681  11.610  1.7230  1.5840 -2.1364
 6867SOL    HW232235   2.746   3.806  11.569  0.9521 -0.3664 -0.4758
 6868SOL     OW32236   2.453   0.598   6.732 -0.1783  0.6417  0.3119
 6868SOL    HW132237   2.508   0.590   6.654  3.3638  1.8134  2.6582
 6868SOL    HW232238   2.365   0.591   6.696 -0.5344  2.1403  0.9093
 6869SOL     OW32239   0.349   2.163   6.610  0.2417  0.2384  0.2207
 6869SOL    HW132240   0.322   2.188   6.522  0.0221 -0.6234  0.0375
 6869SOL    HW232241   0.332   2.068   6.609  0.4405  0.1793  2.4767
 6870SOL     OW32242   2.470   3.982  17.037  0.6603  0.2801 -0.4675
 6870SOL    HW132243   2.396   3.928  17.065  0.6695  0.4249 -0.1596
 6870SOL    HW232244   2.426   4.040  16.975 -0.3875 -3.8147 -3.5359
 6871SOL     OW32245   0.741   3.688   5.544 -0.3685 -0.3687  0.3721
 6871SOL    HW132246   0.760   3.779   5.521 -2.1704  0.3503  1.6368
 6871SOL    HW232247   0.735   3.683   5.640 -0.8791 -1.1967  0.2965
 6872SOL     OW32248   3.104   2.638   2.163 -0.5824  0.6433  0.1586
 6872SOL    HW132249   3.011   2.626   2.184  0.1506 -0.5893  2.5953
 6872SOL    HW232250   3.131   2.579   2.233 -3.3939  1.5451  2.0039
 6873SOL     OW32251   0.091   0.486   2.201  0.3370  0.3382  0.0895
 6873SOL    HW132252   0.074   0.573   2.165  1.0923  0.9194  1.1290
 6873SOL    HW232253   0.186   0.477   2.191  0.4021  1.8825 -0.5997
 6874SOL     OW32254   3.289   2.448   1.471  0.0963  0.5992  0.6484
 6874SOL    HW132255   3.364   2.506   1.459  0.4639 -0.6273 -3.1126
 6874SOL    HW232256   3.285   2.431   1.565  1.5045  0.1145  0.6268
 6875SOL     OW32257   1.504   4.425   5.563 -0.1761 -0.4885  0.0133
 6875SOL    HW132258   1.415   4.391   5.551 -1.3447  3.2882 -2.2271
 6875SOL    HW232259   1.516   4.401   5.655  2.8350 -1.9049 -0.7708
 6876SOL     OW32260   2.940   1.445   8.583 -0.1388 -0.7447 -0.2924
 6876SOL    HW132261   3.024   1.408   8.555 -0.3572 -1.5393  0.1023
 6876SOL    HW232262   2.965   1.536   8.597  1.6169 -1.7464  3.1659
 6877SOL     OW32263   4.386   3.630   3.076 -0.3849  0.2218 -0.1125
 6877SOL    HW132264   4.338   3.678   3.144  0.4840  1.0225 -0.0692
 6877SOL    HW232265   4.436   3.692   3.023  1.5737 -0.5372  0.8815
 6878SOL     OW32266   1.775   0.458   6.446  0.2404  0.1084 -0.2827
 6878SOL    HW132267   1.808   0.497   6.527  0.2416  1.2783 -0.8454
 6878SOL    HW232268   1.686   0.430   6.467  0.1226  0.2000 -0.6533
 6879SOL     OW32269   3.387   0.925   4.101  0.3126 -0.4126 -0.5670
 6879SOL    HW132270   3.298   0.962   4.106 -0.2744 -1.7037 -1.5367
 6879SOL    HW232271   3.400   0.880   4.184  0.0090  2.2144  0.9074
 6880SOL     OW32272   3.295   1.127   2.779  0.4397  0.5580 -0.7029
 6880SOL    HW132273   3.325   1.136   2.689  0.8694  1.2531 -0.4862
 6880SOL    HW232274   3.376   1.151   2.823  0.8593  0.8486 -1.6415
 6881SOL     OW32275   0.794   0.082   8.640 -0.2843  0.6229 -0.2009
 6881SOL    HW132276   0.727   0.137   8.600  0.4456  1.2609 -0.5623
 6881SOL    HW232277   0.859   0.086   8.570  0.0659 -0.6777  0.0555
 6882SOL     OW32278   3.149   2.465   2.374 -0.6247  0.2558 -0.0977
 6882SOL    HW132279   3.204   2.469   2.452  2.1593 -2.0670 -1.9055
 6882SOL    HW232280   3.066   2.433   2.409 -0.5331  1.8332  1.5138
 6883SOL     OW32281   2.990   0.279   2.850  0.4533  0.0823  0.5508
 6883SOL    HW132282   2.936   0.323   2.915  1.0174 -0.5051  1.4262
 6883SOL    HW232283   3.062   0.245   2.904  0.0252 -3.1355 -0.9187
 6884SOL     OW32284   3.292   2.804   2.273  0.6307  0.4517  0.0027
 6884SOL    HW132285   3.215   2.754   2.244  2.0251 -1.0947 -1.0557
 6884SOL    HW232286   3.286   2.881   2.216 -0.8738  0.2995 -0.0445
 6885SOL     OW32287   2.014   0.262  10.293 -0.0612 -0.3865  0.4411
 6885SOL    HW132288   2.106   0.233  10.294 -0.7329 -2.5447  0.1436
 6885SOL    HW232289   2.018   0.326  10.365 -0.3097 -0.9674  0.9716
 6886SOL     OW32290   2.225   4.643   7.916  0.8472 -0.0212  0.0243
 6886SOL    HW132291   2.315   4.675   7.904  0.7367  1.0077  2.0276
 6886SOL    HW232292   2.219   4.563   7.967  0.1654  0.4630  0.6929
 6887SOL     OW32293   0.128   1.999  13.913 -0.0067 -0.0253 -0.9916
 6887SOL    HW132294   0.182   2.077  13.902 -1.0785  0.6958 -1.0600
 6887SOL    HW232295   0.151   1.948  13.835  1.5838 -0.3867 -0.2857
 6888SOL     OW32296   3.538   0.579   6.389 -0.0323  0.0052 -0.0110
 6888SOL    HW132297   3.489   0.631   6.325 -2.5156 -0.6087  1.4304
 6888SOL    HW232298   3.604   0.545   6.327  0.6209  0.0248  0.6801
 6889SOL     OW32299   4.531   1.474  16.284  0.0668 -0.1587 -0.3047
 6889SOL    HW132300   4.502   1.504  16.198  0.4646  1.3186  0.0894
 6889SOL    HW232301   4.625   1.489  16.279  0.1242 -0.8379 -1.5172
 6890SOL     OW32302   0.027   2.099   4.072  0.1502 -0.3641  0.7501
 6890SOL    HW132303   4.696   2.033   4.097  2.3082 -3.0543 -0.6923
 6890SOL    HW232304   0.104   2.044   4.086  0.5789  0.7015  2.6448
 6891SOL     OW32305   4.110   4.060   7.185 -0.5625  0.1069  0.1315
 6891SOL    HW132306   4.071   4.141   7.219  0.8249  0.0402  1.8989
 6891SOL    HW232307   4.180   4.099   7.132 -0.0651  2.4307  2.4692
 6892SOL     OW32308   4.591   1.652   1.379  0.7427  0.2432  0.1251
 6892SOL    HW132309   4.592   1.743   1.348 -2.3759  0.5731  0.9919
 6892SOL    HW232310   4.534   1.613   1.313 -1.1190  0.0449  1.8507
 6893SOL     OW32311   3.872   2.793   3.180 -0.4942 -0.5700  0.7718
 6893SOL    HW132312   3.840   2.707   3.208 -0.3409 -1.0194 -0.4272
 6893SOL    HW232313   3.945   2.764   3.125  0.0057 -0.4769  1.3757
 6894SOL     OW32314   1.421   3.454   6.339  0.7653  0.2817  0.1347
 6894SOL    HW132315   1.406   3.527   6.279 -3.4269 -0.3829  0.3845
 6894SOL    HW232316   1.515   3.444   6.328  0.7131 -0.1128  0.0305
 6895SOL     OW32317   0.750   1.903   9.585  0.2592  0.1262  0.0588
 6895SOL    HW132318   0.665   1.883   9.625 -0.7733 -0.9442 -2.6438
 6895SOL    HW232319   0.769   1.823   9.537  0.8326  0.8784 -0.9619
 6896SOL     OW32320   2.307   0.220   3.342 -0.1317 -0.0361 -0.3182
 6896SOL    HW132321   2.370   0.154   3.372  0.8531 -0.5045 -3.4083
 6896SOL    HW232322   2.244   0.228   3.414 -0.6868  1.7181 -1.0237
 6897SOL     OW32323   2.460   3.212   3.420 -0.4532  0.3148 -0.1817
 6897SOL    HW132324   2.500   3.292   3.387  0.5219  0.0797  0.4443
 6897SOL    HW232325   2.473   3.226   3.514  1.6507  4.0028 -1.0301
 6898SOL     OW32326   1.080   1.733   9.381  0.5017 -0.3156 -0.4009
 6898SOL    HW132327   1.055   1.650   9.420  0.2983 -0.0607  0.0074
 6898SOL    HW232328   1.156   1.760   9.431 -1.0403  0.4503  1.5305
 6899SOL     OW32329   1.936   2.681  12.218 -0.4170 -0.6702  0.2250
 6899SOL    HW132330   2.006   2.686  12.153 -1.2254 -2.5246 -0.8103
 6899SOL    HW232331   1.854   2.673  12.168 -0.0835  1.1239 -0.5983
 6900SOL     OW32332   4.038   1.567   5.286  0.1058  0.3696 -0.1204
 6900SOL    HW132333   4.085   1.503   5.339  1.6855  3.0741  1.7057
 6900SOL    HW232334   3.988   1.607   5.358  0.5322  1.0712 -0.2151
 6901SOL     OW32335   2.720   2.617   2.941 -0.0281  0.0775  0.0440
 6901SOL    HW132336   2.724   2.564   2.862  0.6917 -0.6408  0.5589
 6901SOL    HW232337   2.629   2.647   2.940 -0.0457 -0.0210 -1.2038
 6902SOL     OW32338   0.616   4.288   1.771  0.4546 -0.0752  0.3994
 6902SOL    HW132339   0.676   4.293   1.846 -0.5730 -1.7267  1.3280
 6902SOL    HW232340   0.532   4.304   1.813 -0.4289  0.7292 -1.6557
 6903SOL     OW32341   2.082   2.288   2.265 -0.0999 -0.4448 -0.5867
 6903SOL    HW132342   2.005   2.296   2.208 -0.2836  0.7148 -0.1583
 6903SOL    HW232343   2.156   2.322   2.215 -0.3920  0.0716 -0.6605
 6904SOL     OW32344   0.164   3.410   8.009 -0.2053  0.2381 -0.0420
 6904SOL    HW132345   0.159   3.322   7.972  0.3164 -0.3318  1.2484
 6904SOL    HW232346   0.108   3.401   8.086 -1.2536 -0.8220 -0.9250
 6905SOL     OW32347   0.000   1.447   3.055  0.1629 -0.3588 -0.4042
 6905SOL    HW132348   4.664   1.431   3.116  0.7799 -1.7159 -0.0517
 6905SOL    HW232349   0.072   1.471   3.114 -1.6605  1.4297  1.1062
 6906SOL     OW32350   4.046   1.268   4.065 -0.2206 -0.0531 -0.1441
 6906SOL    HW132351   4.126   1.285   4.014 -0.6003  0.8841 -0.4297
 6906SOL    HW232352   4.069   1.315   4.145  1.1014 -0.6606 -0.1589
 6907SOL     OW32353   4.044   3.329   4.738 -0.1147  0.2696 -0.4209
 6907SOL    HW132354   4.006   3.399   4.686 -1.7134 -1.3083 -1.3589
 6907SOL    HW232355   3.975   3.297   4.797  0.2392  0.8958  0.3408
 6908SOL     OW32356   1.789   0.523   7.255 -0.0080 -0.1011  0.4778
 6908SOL    HW132357   1.848   0.450   7.271 -0.6602 -0.2676  2.0942
 6908SOL    HW232358   1.722   0.514   7.323  0.6800  0.4695  1.2292
 6909SOL     OW32359   1.989   1.617   7.160 -0.2149 -0.1039 -0.3682
 6909SOL    HW132360   2.070   1.594   7.206  0.4919  3.1625  0.0428
 6909SOL    HW232361   1.926   1.597   7.229 -0.2047 -1.7774 -0.8555
 6910SOL     OW32362   4.543   3.601  16.151 -0.0509  0.1434  0.6770
 6910SOL    HW132363   4.585   3.523  16.186  0.9912 -0.2187 -1.3955
 6910SOL    HW232364   4.536   3.576  16.059 -0.9372  0.5499  0.6284
 6911SOL     OW32365   2.664   4.616   2.110 -0.3448  0.3955 -0.1225
 6911SOL    HW132366   2.713   4.696   2.089 -0.7465 -0.4166 -4.2018
 6911SOL    HW232367   2.586   4.630   2.057 -1.2235  1.4217  1.4263
 6912SOL     OW32368   3.967   3.084   6.055 -0.3019  0.7218  0.4417
 6912SOL    HW132369   4.018   3.026   6.112 -1.1876 -0.2250  0.2708
 6912SOL    HW232370   3.885   3.035   6.050 -1.1643  2.1302  0.6755
 6913SOL     OW32371   1.192   0.859   5.697 -0.1425 -0.3933 -0.5508
 6913SOL    HW132372   1.181   0.833   5.605 -1.8573 -1.2456 -0.0940
 6913SOL    HW232373   1.202   0.775   5.742  0.8284  0.4332  0.7617
 6914SOL     OW32374   1.291   1.070   3.399  0.1737  0.2127  0.5909
 6914SOL    HW132375   1.205   1.029   3.404 -0.2788  0.8920 -1.4801
 6914SOL    HW232376   1.335   1.016   3.464  1.4146 -0.7773 -1.0741
 6915SOL     OW32377   3.820   4.058   9.650 -0.6289  0.3134  0.1168
 6915SOL    HW132378   3.741   4.016   9.614  1.3779 -1.0546 -2.6744
 6915SOL    HW232379   3.825   4.009   9.732 -0.1426  1.5944  0.8411
 6916SOL     OW32380   2.371   1.987   3.051 -0.0461 -0.3091  0.4132
 6916SOL    HW132381   2.327   1.906   3.027  0.2108 -0.1968 -0.4411
 6916SOL    HW232382   2.358   2.039   2.972  0.7998 -2.8070 -1.3654
 6917SOL     OW32383   0.526   4.321  12.717  0.0141  0.2996  0.0789
 6917SOL    HW132384   0.620   4.312  12.733 -0.0832  0.7665  0.9246
 6917SOL    HW232385   0.509   4.328  12.623  1.9148  0.9116 -0.2149
 6918SOL     OW32386   0.939   3.023   8.508 -0.6298  0.1977 -0.3016
 6918SOL    HW132387   0.930   3.118   8.497  1.0726  0.2655 -1.1533
 6918SOL    HW232388   0.976   3.014   8.596  2.7997  1.9931 -1.5672
 6919SOL     OW32389   2.221   3.594   9.106  0.4247 -0.2445 -0.1364
 6919SOL    HW132390   2.140   3.545   9.092  0.3018  0.2569 -1.1369
 6919SOL    HW232391   2.282   3.541   9.054  2.0221  1.4759  0.0074
 6920SOL     OW32392   3.451   4.041   1.527  0.1835  0.4528  0.3809
 6920SOL    HW132393   3.361   4.053   1.495 -0.1060 -0.7546  0.7451
 6920SOL    HW232394   3.495   4.008   1.449 -0.3469 -0.1532  0.3392
 6921SOL     OW32395   1.308   1.967  13.162 -0.3048  0.2498 -0.2444
 6921SOL    HW132396   1.265   2.041  13.120 -0.8622 -1.3483 -2.5184
 6921SOL    HW232397   1.231   1.938  13.211 -1.0893  0.6143 -1.2579
 6922SOL     OW32398   1.357   3.025   8.331 -0.0375  0.1673 -0.0600
 6922SOL    HW132399   1.435   3.066   8.369  0.0515  0.4613 -0.5616
 6922SOL    HW232400   1.323   3.085   8.265  1.6668  1.1633 -0.0277
 6923SOL     OW32401   1.441   4.630   3.211  0.2435 -0.1284 -0.1533
 6923SOL    HW132402   1.421   4.720   3.236 -0.5352 -0.4069  0.2345
 6923SOL    HW232403   1.359   4.584   3.230 -0.9243  2.2945  0.6129
 6924SOL     OW32404   2.795   4.389   6.094  0.3173 -0.4974 -0.0392
 6924SOL    HW132405   2.853   4.408   6.020 -0.1481  0.5934 -0.1203
 6924SOL    HW232406   2.764   4.299   6.085  0.0450 -0.4532  0.4878
 6925SOL     OW32407   0.080   3.800   5.887  0.5687 -0.1396 -0.5206
 6925SOL    HW132408   0.118   3.742   5.953 -1.0845 -0.0105  0.5462
 6925SOL    HW232409   0.155   3.854   5.863 -0.3821  1.3122 -0.2223
 6926SOL     OW32410   2.862   1.473   2.116 -0.2644 -0.0639 -0.1859
 6926SOL    HW132411   2.840   1.380   2.111 -0.8949  0.1941 -2.0697
 6926SOL    HW232412   2.783   1.504   2.159 -0.2569 -2.6281  1.6966
 6927SOL     OW32413   1.166   2.941  10.050 -0.3988  0.1347 -0.0751
 6927SOL    HW132414   1.122   2.858  10.034  0.2325 -0.6335  2.1598
 6927SOL    HW232415   1.241   2.931   9.992  0.4227  0.5546  0.9216
 6928SOL     OW32416   3.585   2.170   4.189  0.8348  0.1883  0.0399
 6928SOL    HW132417   3.546   2.101   4.136  1.8513  0.5254 -1.1639
 6928SOL    HW232418   3.538   2.174   4.272 -0.6902  0.4208 -0.8441
 6929SOL     OW32419   0.581   0.805   1.946 -0.0911  0.6999  0.5133
 6929SOL    HW132420   0.495   0.823   1.909 -0.5357  0.7858  1.5661
 6929SOL    HW232421   0.586   0.710   1.934  0.8746  0.7673  0.3918
 6930SOL     OW32422   2.247   2.534   2.704 -0.4662 -0.3143 -0.1845
 6930SOL    HW132423   2.213   2.485   2.629  0.5092 -1.4163  0.0971
 6930SOL    HW232424   2.164   2.551   2.748 -0.6755 -3.9684  0.8129
 6931SOL     OW32425   2.383   0.433   5.207 -0.2717  0.2763 -0.4711
 6931SOL    HW132426   2.389   0.503   5.142 -0.4012  0.4577 -0.2897
 6931SOL    HW232427   2.297   0.395   5.189 -1.2558  1.6425  1.3264
 6932SOL     OW32428   1.942   3.007   2.456  0.4840 -0.5038 -0.0184
 6932SOL    HW132429   1.935   3.092   2.412  1.6557  0.3219  1.4049
 6932SOL    HW232430   2.032   2.986   2.431  0.1747 -0.5230 -1.1087
 6933SOL     OW32431   2.437   2.650   5.455 -0.0634  0.2085  0.0511
 6933SOL    HW132432   2.398   2.629   5.540  1.8577 -1.8119  0.4330
 6933SOL    HW232433   2.393   2.730   5.426 -0.9907 -0.6621 -0.9318
 6934SOL     OW32434   2.274   0.648   2.810 -0.2119 -0.0028  0.2840
 6934SOL    HW132435   2.336   0.643   2.737 -0.0194 -1.6442  0.5714
 6934SOL    HW232436   2.262   0.556   2.831 -1.2699  0.5491  2.1000
 6935SOL     OW32437   4.703   2.864   8.035 -0.2303  0.6802 -0.6006
 6935SOL    HW132438   4.619   2.819   8.022 -1.0746  1.4213  2.3905
 6935SOL    HW232439   4.699   2.928   7.964  0.2006 -0.1777 -1.4054
 6936SOL     OW32440   0.293   0.782   0.088  0.2632 -0.1079 -0.1067
 6936SOL    HW132441   0.201   0.808   0.085  0.4530  0.7407  1.2670
 6936SOL    HW232442   0.337   0.863   0.065 -0.0423  0.0757 -0.0389
 6937SOL     OW32443   1.867   0.405   3.457  0.2619  0.7450  0.5247
 6937SOL    HW132444   1.868   0.322   3.503  3.4932 -1.0093 -2.6813
 6937SOL    HW232445   1.905   0.471   3.515  1.2497  0.8987 -0.2857
 6938SOL     OW32446   3.699   2.085   6.589 -0.3849 -0.2194  0.5131
 6938SOL    HW132447   3.705   1.991   6.606 -0.8916 -0.0860  1.4520
 6938SOL    HW232448   3.655   2.082   6.504  0.7976  0.5608 -0.1273
 6939SOL     OW32449   0.268   1.189   8.355  0.1078 -0.3077  0.3746
 6939SOL    HW132450   0.183   1.233   8.361  0.6295  0.7648 -0.0481
 6939SOL    HW232451   0.309   1.241   8.286 -0.4660  0.1128  0.3523
 6940SOL     OW32452   0.885   3.086   4.361  0.6643 -0.1276  0.5369
 6940SOL    HW132453   0.806   3.105   4.413 -0.3278  1.1777 -1.4691
 6940SOL    HW232454   0.868   3.143   4.286  1.1689 -0.4831  0.1562
 6941SOL     OW32455   1.928   0.954  15.965  0.8133  0.2791  0.2541
 6941SOL    HW132456   1.876   0.897  15.907 -0.2900  1.7772 -0.2132
 6941SOL    HW232457   1.964   0.885  16.021 -0.2403 -0.5346 -0.0607
 6942SOL     OW32458   4.078   1.383   4.564 -0.8651 -0.1110 -0.3847
 6942SOL    HW132459   3.987   1.356   4.570 -0.5334 -1.5508 -1.6183
 6942SOL    HW232460   4.099   1.392   4.657  1.2930  1.0085 -0.9700
 6943SOL     OW32461   2.209   3.549  16.557  0.4024  0.3425  0.1355
 6943SOL    HW132462   2.186   3.544  16.464  1.9663  2.3626 -0.3533
 6943SOL    HW232463   2.261   3.627  16.540  0.4220  0.1054 -0.9195
 6944SOL     OW32464   3.788   3.337   6.127  0.3064 -0.5196 -0.2082
 6944SOL    HW132465   3.882   3.329   6.115  0.4428  1.6908 -0.6316
 6944SOL    HW232466   3.779   3.297   6.213  0.4063  1.5269  0.7393
 6945SOL     OW32467   0.084   0.658   2.494  0.5392 -0.4888  0.3859
 6945SOL    HW132468   0.049   0.587   2.441 -1.8484  0.8928  0.1267
 6945SOL    HW232469   0.079   0.621   2.583 -0.1860 -0.9404  0.1602
 6946SOL     OW32470   1.635   1.463  17.607 -0.0483  0.2417 -0.0173
 6946SOL    HW132471   1.682   1.386  17.575 -0.0835  1.7974 -3.8051
 6946SOL    HW232472   1.545   1.443  17.581 -0.8831  1.3066  2.0315
 6947SOL     OW32473   0.969   1.250   5.889  0.1086 -0.1809  0.9690
 6947SOL    HW132474   0.972   1.345   5.878 -1.5720 -0.3053 -0.5271
 6947SOL    HW232475   1.035   1.232   5.821 -0.4610  0.5888  0.2043
 6948SOL     OW32476   3.425   0.903   8.960  0.3128 -0.5053 -0.6451
 6948SOL    HW132477   3.427   0.993   8.929 -1.2696  0.0366  0.8734
 6948SOL    HW232478   3.355   0.901   9.026  2.8734  1.1845  2.1045
 6949SOL     OW32479   4.520   0.206  15.337  0.3893  1.0015  0.8739
 6949SOL    HW132480   4.444   0.207  15.279  0.4650  0.2412  0.7552
 6949SOL    HW232481   4.597   0.190  15.282  1.4711  1.3135  2.2747
 6950SOL     OW32482   2.468   0.701  11.137  0.7248 -0.1497 -0.3513
 6950SOL    HW132483   2.384   0.672  11.174  1.0371 -0.3706  0.1742
 6950SOL    HW232484   2.503   0.759  11.204 -3.3262 -0.8477  2.3585
 6951SOL     OW32485   0.629   2.516   7.737 -0.2178  0.9913 -0.3290
 6951SOL    HW132486   0.654   2.454   7.805  2.7821  0.9741 -1.4800
 6951SOL    HW232487   0.699   2.501   7.674  0.5370  0.7424  0.5754
 6952SOL     OW32488   4.149   4.360   4.283  0.0582 -0.0541  0.7125
 6952SOL    HW132489   4.206   4.302   4.232 -1.9863 -2.2415  0.9675
 6952SOL    HW232490   4.099   4.380   4.204  0.5479 -0.8863  0.1977
 6953SOL     OW32491   4.657   3.393   9.965 -0.1749 -0.3622 -0.1144
 6953SOL    HW132492   4.648   3.321  10.028 -2.3363  1.4110  1.5760
 6953SOL    HW232493   0.012   3.406   9.997 -0.3727 -1.0934  0.7430
 6954SOL     OW32494   3.470   0.569   9.089  0.0481 -0.1559  0.1746
 6954SOL    HW132495   3.490   0.475   9.087  0.0833 -0.1430 -0.0896
 6954SOL    HW232496   3.463   0.584   9.183  0.5479 -3.3364  0.7069
 6955SOL     OW32497   1.171   4.160   4.343  0.1346  0.2440  0.1089
 6955SOL    HW132498   1.265   4.144   4.354 -0.1405 -0.1550  1.8752
 6955SOL    HW232499   1.132   4.073   4.349  0.6709  0.1244  1.9473
 6956SOL     OW32500   1.452   1.255   6.962 -0.4766  0.2146 -0.5413
 6956SOL    HW132501   1.401   1.226   7.038 -2.0212  3.8562 -0.1595
 6956SOL    HW232502   1.482   1.173   6.925  1.1782  1.6266 -2.3046
 6957SOL     OW32503   1.308   1.570   2.581 -0.0214 -0.3602  0.5998
 6957SOL    HW132504   1.270   1.483   2.570  0.2308 -0.5322  1.0444
 6957SOL    HW232505   1.285   1.609   2.497  1.6493 -1.4864 -0.3875
 6958SOL     OW32506   1.087   1.529   5.297 -0.1761 -0.5857  0.3112
 6958SOL    HW132507   1.124   1.441   5.284 -0.1128 -0.5904  0.5253
 6958SOL    HW232508   1.093   1.564   5.208  0.8432 -2.1221 -0.2375
 6959SOL     OW32509   1.464   4.323   9.632  0.1460  0.1479  0.2293
 6959SOL    HW132510   1.437   4.385   9.700  0.5963  1.1533 -0.5163
 6959SOL    HW232511   1.390   4.263   9.636 -0.9272  1.4609  0.1300
 6960SOL     OW32512   3.650   0.094   5.466  0.2388  0.4876 -0.2209
 6960SOL    HW132513   3.570   0.049   5.491  0.4820  0.9271  1.3037
 6960SOL    HW232514   3.620   0.164   5.408 -2.3293  0.9709  1.7117
 6961SOL     OW32515   0.081   4.424   0.779  0.2716  0.2813 -0.0914
 6961SOL    HW132516   4.726   4.444   0.805 -0.1499 -1.6182 -0.0903
 6961SOL    HW232517   0.079   4.329   0.786 -2.2707  0.3166 -0.2961
 6962SOL     OW32518   1.309   1.182   4.144 -0.2952 -0.5291  0.5566
 6962SOL    HW132519   1.349   1.229   4.071 -1.3454 -1.9743 -0.9295
 6962SOL    HW232520   1.248   1.253   4.162  0.3433  0.4394 -1.1338
 6963SOL     OW32521   1.188   1.491   2.235 -0.0610 -0.4200  0.5039
 6963SOL    HW132522   1.103   1.462   2.267  0.4922 -0.8313  1.5835
 6963SOL    HW232523   1.238   1.411   2.253 -1.3720 -1.2734  0.3122
 6964SOL     OW32524   4.124   0.593   4.807 -0.3879  0.0554 -0.1411
 6964SOL    HW132525   4.104   0.508   4.767 -0.2081  0.0951 -0.3101
 6964SOL    HW232526   4.090   0.567   4.893 -1.2125  3.1349  0.4582
 6965SOL     OW32527   4.389   3.672  12.944 -0.0934 -0.4083  0.1184
 6965SOL    HW132528   4.455   3.706  12.883 -1.2997 -0.1423 -1.0435
 6965SOL    HW232529   4.307   3.703  12.906 -1.2531 -0.0855  2.8569
 6966SOL     OW32530   0.600   4.456  17.631 -0.1184 -0.7988  0.0967
 6966SOL    HW132531   0.689   4.424  17.649  0.2000 -1.8517 -3.2444
 6966SOL    HW232532   0.552   4.430  17.709  2.1360 -2.6815  0.8719
 6967SOL     OW32533   1.623   1.947  10.374  0.8009  0.1182  0.4485
 6967SOL    HW132534   1.693   1.945  10.438  1.2316 -0.7405 -0.0408
 6967SOL    HW232535   1.625   1.857  10.340  0.2885 -0.3133  1.5756
 6968SOL     OW32536   1.401   1.279   6.248  0.2089 -0.3550 -0.3396
 6968SOL    HW132537   1.496   1.279   6.238  0.2391  0.2553 -0.0531
 6968SOL    HW232538   1.369   1.211   6.189 -1.9088  0.4989 -0.1708
 6969SOL     OW32539   3.936   3.969   6.232  0.1067  0.6132  0.0575
 6969SOL    HW132540   3.842   3.950   6.230 -0.3986  3.1015 -0.1438
 6969SOL    HW232541   3.935   4.047   6.177  2.0689  1.0941  0.7352
 6970SOL     OW32542   0.436   4.122   5.989  0.6693 -0.0337  0.3669
 6970SOL    HW132543   0.405   4.213   5.990 -0.0107 -0.2513 -0.8866
 6970SOL    HW232544   0.529   4.145   5.981  1.1186 -1.9163  0.2003
 6971SOL     OW32545   0.332   2.636  16.051  0.5394  0.3696  0.9915
 6971SOL    HW132546   0.319   2.557  16.102 -2.7137  0.7583  0.7473
 6971SOL    HW232547   0.280   2.702  16.097  0.5954  1.3618 -0.3458
 6972SOL     OW32548   2.348   1.992   7.317 -0.0092  0.2784  0.0442
 6972SOL    HW132549   2.294   2.062   7.281 -1.7842  0.9205  3.9279
 6972SOL    HW232550   2.438   2.024   7.323  1.0361 -2.4398 -1.0622
 6973SOL     OW32551   1.451   0.205   7.391 -0.1371  0.7136  0.3847
 6973SOL    HW132552   1.365   0.169   7.370  1.6438 -3.4447  0.2402
 6973SOL    HW232553   1.472   0.255   7.313 -1.5050  0.1320 -0.3520
 6974SOL     OW32554   4.235   0.764   7.770  0.1967  0.0704 -0.0020
 6974SOL    HW132555   4.294   0.832   7.737 -0.7502  1.4658  1.1862
 6974SOL    HW232556   4.251   0.700   7.701  1.4024 -0.6932  0.9887
 6975SOL     OW32557   1.471   1.056  17.031 -0.2508  0.3226 -0.4551
 6975SOL    HW132558   1.449   1.093  17.117  3.7022 -0.7336  1.0322
 6975SOL    HW232559   1.441   1.127  16.974 -2.3315 -0.9931 -0.9942
 6976SOL     OW32560   4.496   4.479  12.786 -0.0095  0.1228 -0.0895
 6976SOL    HW132561   4.530   4.463  12.874  3.0706  0.0946 -1.2881
 6976SOL    HW232562   4.545   4.557  12.761  1.7766 -1.5789 -1.8894
 6977SOL     OW32563   4.487   2.161   7.309  0.0493 -0.6764  0.1856
 6977SOL    HW132564   4.423   2.127   7.247 -0.7314  1.1619 -0.0180
 6977SOL    HW232565   4.570   2.183   7.266 -1.2092  1.9472 -0.8860
 6978SOL     OW32566   0.261   3.587   8.900 -0.1291 -0.4986 -0.2111
 6978SOL    HW132567   0.189   3.645   8.875  0.1573  1.0335  2.4089
 6978SOL    HW232568   0.237   3.499   8.875  0.6970 -0.5879 -0.7056
 6979SOL     OW32569   1.869   0.791   6.582  0.2085 -0.2398 -0.1745
 6979SOL    HW132570   1.959   0.802   6.554  1.1833 -0.1459  3.0207
 6979SOL    HW232571   1.844   0.882   6.604  0.4585  0.1040 -1.3174
 6980SOL     OW32572   1.374   1.328   3.196  0.0984 -0.5075  0.3307
 6980SOL    HW132573   1.280   1.319   3.180 -0.2044  0.8457  1.3628
 6980SOL    HW232574   1.417   1.247   3.168 -0.5607 -0.3028 -1.2318
 6981SOL     OW32575   2.709   3.178   4.666  0.5265 -0.2541 -0.0206
 6981SOL    HW132576   2.782   3.176   4.728  0.2749  2.8733  0.3553
 6981SOL    HW232577   2.725   3.089   4.634  0.9957  0.5193 -1.9942
 6982SOL     OW32578   1.817   4.079   9.000  0.2414  0.3645  0.9960
 6982SOL    HW132579   1.885   4.090   9.066 -1.0556  2.5821  1.9916
 6982SOL    HW232580   1.734   4.092   9.046  0.6374 -0.6141  1.9663
 6983SOL     OW32581   4.352   0.419  17.061  0.3863  0.8152 -0.7282
 6983SOL    HW132582   4.444   0.395  17.070  0.2061 -1.0944 -3.8605
 6983SOL    HW232583   4.313   0.333  17.048 -0.1917  1.2616 -2.0139
 6984SOL     OW32584   3.620   0.205   7.123  0.4275 -0.0263  0.1163
 6984SOL    HW132585   3.529   0.182   7.143  0.1701  0.8593 -0.0323
 6984SOL    HW232586   3.665   0.120   7.120 -0.1567 -0.2961 -1.2565
 6985SOL     OW32587   4.267   1.262   2.757  0.0795  0.1738  0.2432
 6985SOL    HW132588   4.288   1.331   2.694 -0.9333  0.4140  0.1640
 6985SOL    HW232589   4.199   1.296   2.816 -1.9758 -4.4966  0.5566
 6986SOL     OW32590   0.748   0.050   3.315 -0.2277 -0.0565  0.1339
 6986SOL    HW132591   0.767   0.134   3.357  0.5456 -1.0526  1.7693
 6986SOL    HW232592   0.655   0.066   3.300 -0.4274 -1.0550  0.3238
 6987SOL     OW32593   2.424   1.812  10.456  0.2800 -0.3558 -0.0594
 6987SOL    HW132594   2.394   1.833  10.545 -1.5940 -2.9148 -0.0792
 6987SOL    HW232595   2.377   1.878  10.404 -1.0362 -0.7748  0.5864
 6988SOL     OW32596   4.151   3.708   3.237 -0.1212 -0.1784 -0.0904
 6988SOL    HW132597   4.062   3.694   3.206 -0.3926  0.9385  0.1636
 6988SOL    HW232598   4.149   3.646   3.310 -2.0942  0.1797  0.1625
 6989SOL     OW32599   0.315   2.302   7.198  0.0078  0.0073  0.7623
 6989SOL    HW132600   0.375   2.252   7.142  0.8838  1.7549  0.1391
 6989SOL    HW232601   0.308   2.248   7.277 -2.1071 -4.1723 -2.2667
 6990SOL     OW32602   2.463   2.688   2.905 -0.2233 -0.2575 -0.1547
 6990SOL    HW132603   2.382   2.738   2.908  0.6883  1.3227 -1.8756
 6990SOL    HW232604   2.446   2.625   2.835 -0.6767  0.2455 -0.5025
 6991SOL     OW32605   0.058   1.795   8.532 -0.2069  0.0907  0.3411
 6991SOL    HW132606   0.089   1.858   8.468 -0.1700 -1.2420 -0.9452
 6991SOL    HW232607   0.055   1.850   8.611  2.4080  0.7121 -0.0046
 6992SOL     OW32608   4.242   0.463  10.550  0.1637 -0.1362  0.0476
 6992SOL    HW132609   4.154   0.494  10.571  0.8534  1.0674  1.0866
 6992SOL    HW232610   4.229   0.446  10.456  0.3488 -2.0885  0.3708
 6993SOL     OW32611   4.266   4.511   5.636  0.3332 -0.4537  0.4763
 6993SOL    HW132612   4.176   4.520   5.668 -0.0008 -0.1149 -0.5647
 6993SOL    HW232613   4.250   4.474   5.549  0.2475  3.0782 -1.0225
 6994SOL     OW32614   3.248   2.298   3.955  0.2199 -0.1345  0.2470
 6994SOL    HW132615   3.321   2.337   3.907 -0.1652  0.5696  0.2453
 6994SOL    HW232616   3.242   2.211   3.915  1.0883  0.4996 -1.2656
 6995SOL     OW32617   4.391   0.555   6.121 -0.2957  0.0304  0.0458
 6995SOL    HW132618   4.398   0.460   6.137 -1.3690  0.2150  1.6413
 6995SOL    HW232619   4.399   0.590   6.210 -0.2269  0.4580 -0.1291
 6996SOL     OW32620   2.956   1.717   5.333 -0.1989  0.1100 -0.4027
 6996SOL    HW132621   2.977   1.681   5.420 -0.0016 -0.2363 -0.5951
 6996SOL    HW232622   2.927   1.805   5.359 -4.0367 -0.4790 -2.7371
 6997SOL     OW32623   1.838   0.853  16.309  0.2041  0.1092 -0.0381
 6997SOL    HW132624   1.848   0.827  16.400 -2.2348 -1.9033 -0.3623
 6997SOL    HW232625   1.921   0.822  16.271  0.9640  1.0177  0.8786
 6998SOL     OW32626   3.580   4.715   1.044  0.0973 -0.1574 -0.3188
 6998SOL    HW132627   3.584   0.070   1.077  0.5271  0.4885 -2.1276
 6998SOL    HW232628   3.488   4.710   1.021  0.3246  0.1266 -1.2766
 6999SOL     OW32629   1.752   4.498   3.385 -0.3173 -0.2703 -0.3529
 6999SOL    HW132630   1.708   4.461   3.308  0.2439 -1.6941  0.0200
 6999SOL    HW232631   1.675   4.520   3.437  0.7283  0.0897  1.0354
 7000SOL     OW32632   3.000   2.773   5.330  0.4859 -0.5131  0.1526
 7000SOL    HW132633   2.915   2.797   5.293  1.5869  2.0156 -0.7419
 7000SOL    HW232634   3.055   2.748   5.255 -1.2400 -0.5484 -1.1050
 7001SOL     OW32635   0.672   2.531  14.774 -0.5501 -0.0163 -0.4222
 7001SOL    HW132636   0.579   2.512  14.784 -0.5969  1.6143  2.5426
 7001SOL    HW232637   0.678   2.622  14.805  0.3155 -0.7771  1.6398
 7002SOL     OW32638   1.415   2.962  16.784  0.1856  0.6112  0.0757
 7002SOL    HW132639   1.484   3.024  16.808 -2.0436  3.3392 -0.5080
 7002SOL    HW232640   1.421   2.964  16.688  1.3738  0.2906  0.1493
 7003SOL     OW32641   0.453   2.164   4.431  0.3821  0.1519  0.7326
 7003SOL    HW132642   0.526   2.224   4.418 -0.9015  1.6024  0.1765
 7003SOL    HW232643   0.408   2.172   4.346  1.9861  0.5616 -0.0871
 7004SOL     OW32644   3.767   1.313   1.255 -0.0718  0.1131 -0.2547
 7004SOL    HW132645   3.730   1.228   1.230 -0.9335 -0.0495  1.5607
 7004SOL    HW232646   3.854   1.293   1.289 -0.6538 -0.7994  0.7031
 7005SOL     OW32647   3.872   1.067   3.690 -0.1225 -0.6706 -0.6598
 7005SOL    HW132648   3.833   0.993   3.734 -1.4038 -0.2777 -1.1270
 7005SOL    HW232649   3.809   1.133   3.718 -0.0411 -0.9769  0.2147
 7006SOL     OW32650   4.733   2.232   6.047  0.6808  0.1211 -0.6417
 7006SOL    HW132651   0.057   2.156   6.053  1.8185  1.0380 -0.2116
 7006SOL    HW232652   4.650   2.187   6.033  0.4271 -0.1782  1.7262
 7007SOL     OW32653   1.373   3.657   1.928  0.1833  0.5308 -0.1122
 7007SOL    HW132654   1.318   3.655   2.006 -1.9447  0.8573 -1.6095
 7007SOL    HW232655   1.423   3.576   1.942 -0.1020  0.7933  2.3352
 7008SOL     OW32656   3.994   1.219   7.113 -0.4399 -0.7068  0.2601
 7008SOL    HW132657   3.942   1.154   7.067 -0.5141 -0.6142  0.2151
 7008SOL    HW232658   4.068   1.225   7.052 -0.9423 -2.1429 -0.4845
 7009SOL     OW32659   2.499   4.301   4.643 -0.3783  0.4769 -0.3049
 7009SOL    HW132660   2.494   4.207   4.659 -1.6103  0.6996  0.6376
 7009SOL    HW232661   2.454   4.345   4.716  0.2090  1.7591 -0.7280
 7010SOL     OW32662   2.925   0.608   8.979  0.0560 -0.2999  0.4435
 7010SOL    HW132663   2.969   0.682   8.938 -0.1935  0.0045  0.7213
 7010SOL    HW232664   2.914   0.638   9.070 -2.0185  1.7231 -0.4862
 7011SOL     OW32665   1.700   3.003   4.040 -0.1580 -0.2697 -0.0589
 7011SOL    HW132666   1.627   3.054   4.075 -0.6828  0.9558 -2.9125
 7011SOL    HW232667   1.712   2.962   4.126  0.0878  1.0500  0.5369
 7012SOL     OW32668   0.172   2.927   4.646  0.0929  0.6311 -0.0333
 7012SOL    HW132669   0.261   2.948   4.617 -0.0197 -0.8970 -1.4439
 7012SOL    HW232670   0.162   2.835   4.621  0.0458  1.0579 -1.5832
 7013SOL     OW32671   4.205   1.512  14.417 -0.1437 -0.2731  0.0591
 7013SOL    HW132672   4.134   1.459  14.452 -2.1368  2.0440 -0.4554
 7013SOL    HW232673   4.240   1.451  14.352  2.6807  2.1502 -0.7511
 7014SOL     OW32674   4.532   0.518   4.721  0.3559 -0.2360 -0.3099
 7014SOL    HW132675   4.537   0.445   4.658 -0.5372 -0.3319 -0.2637
 7014SOL    HW232676   4.622   0.541   4.743  0.8826 -1.9436 -0.6465
 7015SOL     OW32677   2.157   2.127   3.831  0.3245 -0.5447 -0.4058
 7015SOL    HW132678   2.067   2.161   3.829  0.2818 -0.6112  0.3021
 7015SOL    HW232679   2.161   2.075   3.911  3.4066 -0.2238 -0.3750
 7016SOL     OW32680   0.354   2.800   8.913  0.2942 -0.3675  0.4376
 7016SOL    HW132681   0.294   2.760   8.976  0.5547 -3.0736 -1.0171
 7016SOL    HW232682   0.301   2.873   8.881 -0.3881 -0.1180  2.1324
 7017SOL     OW32683   1.289   1.156   7.153 -0.6660  0.2364  0.0899
 7017SOL    HW132684   1.197   1.157   7.127 -0.3855 -1.9470 -0.9772
 7017SOL    HW232685   1.286   1.161   7.249 -1.6393  1.8679 -0.0176
 7018SOL     OW32686   1.050   4.073   6.938  0.0085  0.2177 -0.5270
 7018SOL    HW132687   1.081   3.993   6.894 -1.9087 -1.4664  1.1551
 7018SOL    HW232688   1.134   4.118   6.938 -0.2625  0.7110 -1.9098
 7019SOL     OW32689   1.930   2.354   9.849 -0.0371 -0.1950  0.7287
 7019SOL    HW132690   1.996   2.370   9.916 -1.7376  3.3921  1.5319
 7019SOL    HW232691   1.979   2.279   9.816  0.4991  0.8418 -0.8249
 7020SOL     OW32692   0.275   3.120   3.289 -0.4152 -0.1278 -0.2634
 7020SOL    HW132693   0.270   3.208   3.326  0.9555 -0.7808  1.5031
 7020SOL    HW232694   0.203   3.077   3.334 -0.1497 -0.4953 -0.1877
 7021SOL     OW32695   1.320   2.975   7.360  0.3761 -0.0192 -0.2573
 7021SOL    HW132696   1.336   2.961   7.454  0.6856  2.8326  0.1213
 7021SOL    HW232697   1.250   2.915   7.335  0.5318  0.6633 -2.2748
 7022SOL     OW32698   0.067   4.264   5.403 -0.1787 -0.0603 -0.0341
 7022SOL    HW132699   0.006   4.281   5.475 -0.7818 -1.0501 -0.3056
 7022SOL    HW232700   0.139   4.309   5.446  0.4011  1.3042 -2.3920
 7023SOL     OW32701   1.108   0.074  15.550  0.6711 -0.0001 -0.2736
 7023SOL    HW132702   1.050   0.110  15.618  2.1843 -1.3310  1.6955
 7023SOL    HW232703   1.130   0.154  15.503  0.0324 -1.4843 -3.0775
 7024SOL     OW32704   1.824   2.905   0.492 -0.3372 -0.0156 -0.2202
 7024SOL    HW132705   1.862   2.957   0.562  1.0876 -0.7476 -0.4562
 7024SOL    HW232706   1.770   2.847   0.546  0.1413 -1.1285 -0.9232
 7025SOL     OW32707   2.506   1.389   9.334 -0.0286  0.2113 -0.0509
 7025SOL    HW132708   2.541   1.331   9.267 -3.9154 -1.2678 -0.7906
 7025SOL    HW232709   2.585   1.440   9.315 -1.9618  1.9871 -3.2319
 7026SOL     OW32710   0.499   3.451  10.589  0.1873  0.5205  0.6076
 7026SOL    HW132711   0.519   3.536  10.551  0.7606  0.0019 -0.2484
 7026SOL    HW232712   0.437   3.475  10.658 -1.3668  0.3728 -0.7166
 7027SOL     OW32713   4.219   4.016   9.941 -0.0958  0.1477 -0.1629
 7027SOL    HW132714   4.177   3.933   9.918  3.0827 -1.3111 -0.6467
 7027SOL    HW232715   4.191   4.068   9.865 -0.9892  0.6125  0.4800
 7028SOL     OW32716   4.659   3.940   1.797  0.0935  0.0804  0.5203
 7028SOL    HW132717   4.663   3.952   1.892  3.0495 -2.4085  0.7018
 7028SOL    HW232718   4.720   3.874   1.766  0.1498  0.0062  0.7883
 7029SOL     OW32719   1.497   3.083  10.026  0.3358  0.2816  0.5139
 7029SOL    HW132720   1.579   3.131  10.017  0.5301  0.2935  2.2682
 7029SOL    HW232721   1.434   3.153  10.044  0.7254  0.3212  1.7705
 7030SOL     OW32722   3.324   0.379  11.116 -0.3059  0.2175 -0.0661
 7030SOL    HW132723   3.237   0.419  11.110 -0.5094  0.2955  3.0665
 7030SOL    HW232724   3.323   0.397  11.210 -0.5858  0.8549 -0.1867
 7031SOL     OW32725   2.761   1.238  13.483  0.2298  0.4284  0.2650
 7031SOL    HW132726   2.745   1.326  13.449 -0.4309 -0.1447 -0.9073
 7031SOL    HW232727   2.833   1.256  13.543 -0.5870  0.4101  1.2393
 7032SOL     OW32728   2.967   3.110  12.477  0.3277 -0.0890 -0.0186
 7032SOL    HW132729   2.923   3.139  12.397 -1.6603  0.3215  1.2209
 7032SOL    HW232730   2.897   3.127  12.540 -1.7592 -2.9850 -1.5273
 7033SOL     OW32731   0.312   3.301  15.923 -0.3261  0.0109 -0.1790
 7033SOL    HW132732   0.322   3.344  15.838  1.4618  0.5997  0.3293
 7033SOL    HW232733   0.366   3.225  15.902  0.9701  1.4143 -1.9659
 7034SOL     OW32734   1.992   0.288   9.068  0.0195  0.2406  0.0156
 7034SOL    HW132735   2.029   0.340   8.997  2.3978 -0.7797  0.4897
 7034SOL    HW232736   2.037   0.333   9.139  0.9659  1.5647 -1.4256
 7035SOL     OW32737   2.790   1.203   2.101 -0.0555  0.5841 -0.7244
 7035SOL    HW132738   2.790   1.171   2.191  0.1908 -0.1393 -0.9829
 7035SOL    HW232739   2.864   1.152   2.066  0.5410  0.9738 -0.0243
 7036SOL     OW32740   2.882   2.903   4.254 -0.6808  0.3850 -0.3566
 7036SOL    HW132741   2.914   2.845   4.323  1.2823  2.0447  0.1477
 7036SOL    HW232742   2.947   2.972   4.268 -1.0357  0.5828  0.3095
 7037SOL     OW32743   1.266   1.891   7.911 -0.9825 -0.4250  0.1444
 7037SOL    HW132744   1.206   1.821   7.938 -1.4974  0.1621  0.5190
 7037SOL    HW232745   1.218   1.973   7.899  0.5506  0.4190 -0.1836
 7038SOL     OW32746   1.976   4.574  16.783 -0.5039  0.2731  0.4877
 7038SOL    HW132747   2.039   4.645  16.773 -0.0811 -0.2671 -0.8267
 7038SOL    HW232748   1.902   4.608  16.733 -1.3588  0.5749  1.9564
 7039SOL     OW32749   3.055   0.879   2.533 -0.2413 -0.0258  0.6191
 7039SOL    HW132750   3.038   0.902   2.625  0.7372 -1.4357  1.1515
 7039SOL    HW232751   3.143   0.913   2.515  0.8944 -1.8605  2.7536
 7040SOL     OW32752   3.985   3.312   8.383 -0.0833  0.1414  0.4286
 7040SOL    HW132753   4.010   3.372   8.453 -0.9090 -0.4884  1.2546
 7040SOL    HW232754   4.034   3.237   8.415  0.9286 -0.0910 -1.7047
 7041SOL     OW32755   0.928   0.522   2.708  0.4456 -0.0320  0.1862
 7041SOL    HW132756   0.916   0.593   2.645 -4.1061 -0.1784  0.9162
 7041SOL    HW232757   0.952   0.449   2.650  0.9904  0.7597 -0.5872
 7042SOL     OW32758   3.250   2.208  17.090 -0.2148 -0.0956  0.0248
 7042SOL    HW132759   3.198   2.288  17.078 -1.0940 -0.3577  2.0909
 7042SOL    HW232760   3.334   2.239  17.056  1.1492 -2.5354  1.1843
 7043SOL     OW32761   1.858   2.711   2.917  0.6763  0.2124 -0.4480
 7043SOL    HW132762   1.901   2.744   2.838 -0.3616  0.7495 -0.7830
 7043SOL    HW232763   1.910   2.632   2.937 -1.9009 -0.9676  1.5056
 7044SOL     OW32764   2.216   0.642   3.327 -0.2691 -0.3504  0.2656
 7044SOL    HW132765   2.228   0.720   3.274 -2.6410  1.3393  2.1913
 7044SOL    HW232766   2.251   0.570   3.276 -1.5750 -0.9337  0.1905
 7045SOL     OW32767   0.467   3.696   9.550 -0.1926  1.1817 -0.4685
 7045SOL    HW132768   0.488   3.707   9.457 -0.2718  1.6192 -0.4335
 7045SOL    HW232769   0.527   3.625   9.574 -2.5978 -0.3690  0.9238
 7046SOL     OW32770   0.228   0.811   6.290 -0.6585  0.0524  0.1209
 7046SOL    HW132771   0.155   0.789   6.349  0.0801 -1.1099  0.5992
 7046SOL    HW232772   0.281   0.732   6.299 -0.4167  0.3844  1.7774
 7047SOL     OW32773   0.430   0.832   2.439  0.1338  0.1561 -0.1024
 7047SOL    HW132774   0.455   0.755   2.389  0.5360  1.3089 -1.6616
 7047SOL    HW232775   0.513   0.834   2.487 -0.1157  1.8773  0.2718
 7048SOL     OW32776   4.111   4.700   6.044 -0.2625 -0.4773 -0.2007
 7048SOL    HW132777   4.084   0.055   6.064  0.7048 -0.0071 -1.0426
 7048SOL    HW232778   4.206   4.707   6.052 -0.4167  1.4770 -0.2669
 7049SOL     OW32779   3.998   3.633   9.197 -0.3719  0.2511 -0.1943
 7049SOL    HW132780   4.052   3.571   9.246  1.7546  1.4853 -0.9484
 7049SOL    HW232781   3.920   3.638   9.252  0.4610  0.9912  0.9251
 7050SOL     OW32782   4.353   4.004   6.684 -0.3440 -0.0487 -0.5497
 7050SOL    HW132783   4.351   3.935   6.751 -0.2109 -0.2961 -0.7985
 7050SOL    HW232784   4.374   4.087   6.727 -0.5369  0.3209 -1.1743
 7051SOL     OW32785   0.116   2.749   6.353  0.4318  0.1884 -0.1991
 7051SOL    HW132786   0.040   2.736   6.296  0.3850  1.0501 -0.3403
 7051SOL    HW232787   0.085   2.785   6.436  2.4973 -0.7993  1.0060
 7052SOL     OW32788   4.150   0.129  14.896  0.4795 -0.1724 -0.4855
 7052SOL    HW132789   4.055   0.126  14.889  0.4253 -0.1048  0.2335
 7052SOL    HW232790   4.178   0.200  14.837 -0.2156 -1.1463 -1.9778
 7053SOL     OW32791   2.136   4.379   5.701 -0.4127  0.4348  0.5128
 7053SOL    HW132792   2.083   4.336   5.768 -1.5655  0.2857 -0.4967
 7053SOL    HW232793   2.078   4.398   5.627 -0.3669  1.9528  0.8610
 7054SOL     OW32794   1.877   0.327   6.944 -0.0492  0.5694 -0.2116
 7054SOL    HW132795   1.886   0.287   6.858  0.1033 -1.8965  0.9703
 7054SOL    HW232796   1.786   0.308   6.966 -0.6599  1.0683 -2.2821
 7055SOL     OW32797   3.624   3.689   3.860 -0.4851  0.7408  0.1128
 7055SOL    HW132798   3.706   3.709   3.815 -0.3803  1.3503  0.5710
 7055SOL    HW232799   3.643   3.712   3.951 -1.1530  0.3514  0.3535
 7056SOL     OW32800   4.278   0.626   9.111  0.5517 -0.7038 -0.8021
 7056SOL    HW132801   4.236   0.564   9.051  1.1767 -3.0386  1.1967
 7056SOL    HW232802   4.329   0.556   9.153 -2.6436 -2.2089  0.5974
 7057SOL     OW32803   1.686   0.165   4.331 -0.4684  0.1321 -0.2488
 7057SOL    HW132804   1.715   0.233   4.393  1.0226 -0.8503  0.1332
 7057SOL    HW232805   1.667   0.091   4.389 -0.5909  0.9374  0.7458
 7058SOL     OW32806   3.293   4.200   2.897  0.2463 -0.3583  0.0177
 7058SOL    HW132807   3.341   4.158   2.969 -0.8355 -0.3268  0.7437
 7058SOL    HW232808   3.358   4.202   2.827 -0.7480  0.4306 -0.8811
 7059SOL     OW32809   3.159   2.742   2.937 -0.0468 -0.0812 -0.3560
 7059SOL    HW132810   3.161   2.741   3.032  0.9300  2.6732 -0.3610
 7059SOL    HW232811   3.253   2.741   2.920 -0.3949  1.1152 -2.3750
 7060SOL     OW32812   3.192   3.957   6.985  0.2286 -0.2005 -0.3279
 7060SOL    HW132813   3.228   4.038   7.022 -1.0711 -1.1436  3.0210
 7060SOL    HW232814   3.250   3.893   7.026  0.0366  0.2474  0.6433
 7061SOL     OW32815   2.493   0.360   6.444 -0.2203 -0.2980  0.0470
 7061SOL    HW132816   2.501   0.279   6.493 -0.1729 -0.7401 -0.6980
 7061SOL    HW232817   2.538   0.425   6.498 -0.0594  1.0690 -1.7276
 7062SOL     OW32818   2.122   4.297  16.882  0.4144  0.8169  0.2505
 7062SOL    HW132819   2.033   4.332  16.885 -0.8587 -2.4143  1.0128
 7062SOL    HW232820   2.154   4.347  16.957 -1.0527  2.0931  0.0169
 7063SOL     OW32821   4.730   0.274   1.232  0.1714  0.4135 -0.3599
 7063SOL    HW132822   4.709   0.344   1.170  1.3527  1.8811  0.9276
 7063SOL    HW232823   0.040   0.319   1.303  1.8636 -0.6998 -0.6930
 7064SOL     OW32824   2.871   0.316   6.251  0.2580 -0.3301 -0.9633
 7064SOL    HW132825   2.840   0.388   6.197  0.6002  1.1255  0.7731
 7064SOL    HW232826   2.877   0.362   6.335  0.1471 -1.0209 -0.5688
 7065SOL     OW32827   0.283   0.651   6.670 -0.0480 -1.0517 -0.1253
 7065SOL    HW132828   0.306   0.629   6.760  0.2679  2.1042  0.5733
 7065SOL    HW232829   0.312   0.575   6.620 -0.8434 -1.9627  0.7868
 7066SOL     OW32830   2.485   2.488   6.707 -0.8264 -0.7373 -0.5428
 7066SOL    HW132831   2.415   2.423   6.707 -1.7905  0.3116  0.9078
 7066SOL    HW232832   2.556   2.451   6.760 -0.1513  1.0965 -0.1694
 7067SOL     OW32833   2.983   0.292   4.612  0.1963 -0.6993 -0.2564
 7067SOL    HW132834   3.077   0.275   4.598  1.1025  1.4376  3.2868
 7067SOL    HW232835   2.968   0.367   4.553 -0.3689 -2.6338 -2.5580
 7068SOL     OW32836   0.049   2.694   1.378  0.0876  0.1861  0.2768
 7068SOL    HW132837   0.081   2.647   1.454  2.2453  2.1432  0.5686
 7068SOL    HW232838   0.118   2.676   1.315 -0.4615 -0.3824 -0.1605
 7069SOL     OW32839   1.574   1.797  12.852 -0.3006 -0.2687  0.3206
 7069SOL    HW132840   1.524   1.716  12.852  0.7940 -0.9397  0.3250
 7069SOL    HW232841   1.517   1.870  12.825 -0.6043  0.4391  2.8824
 7070SOL     OW32842   0.599   3.464   7.218 -0.2584 -0.6596  0.0001
 7070SOL    HW132843   0.661   3.535   7.231 -0.7165 -0.0089 -1.3937
 7070SOL    HW232844   0.586   3.476   7.124 -1.8858 -0.3376  0.2759
 7071SOL     OW32845   4.105   0.054  11.397  0.6199  0.1400 -0.4993
 7071SOL    HW132846   4.115   4.697  11.420 -0.3117  0.7175  2.1664
 7071SOL    HW232847   4.012   0.075  11.393  0.4262  0.1250  3.8777
 7072SOL     OW32848   3.163   0.898  10.224 -0.2715 -0.1464 -0.2606
 7072SOL    HW132849   3.174   0.937  10.311 -1.2805 -1.8734  0.6444
 7072SOL    HW232850   3.132   0.976  10.177 -0.4993 -0.2794 -0.3280
 7073SOL     OW32851   2.063   1.015  16.858 -0.2125  0.3523 -0.3542
 7073SOL    HW132852   2.087   1.083  16.922  0.4500 -2.1290  2.0620
 7073SOL    HW232853   1.968   1.022  16.856 -0.1937  0.5805 -0.4274
 7074SOL     OW32854   3.458   3.595   8.324  0.4109 -0.9439 -0.0258
 7074SOL    HW132855   3.376   3.631   8.289  1.0232  1.1769  0.7833
 7074SOL    HW232856   3.465   3.656   8.397  0.5558  0.2645 -1.0576
 7075SOL     OW32857   0.538   4.574  11.914 -0.4748 -0.6315 -0.1020
 7075SOL    HW132858   0.543   4.608  12.003 -1.2569  0.1288 -0.3420
 7075SOL    HW232859   0.460   4.621  11.884 -0.0085 -0.7907 -1.5296
 7076SOL     OW32860   4.414   2.997  16.217 -0.3480 -0.0942 -0.1946
 7076SOL    HW132861   4.381   2.948  16.293  0.5745  1.0262  0.9215
 7076SOL    HW232862   4.505   2.967  16.217 -0.1306  0.5784 -1.9602
 7077SOL     OW32863   1.908   4.597   9.510  0.6221  0.0513  0.3279
 7077SOL    HW132864   1.841   4.539   9.547 -0.5512 -1.3814 -4.0298
 7077SOL    HW232865   1.926   4.550   9.428 -1.5613  2.1321 -1.3386
 7078SOL     OW32866   4.440   1.608   5.764  0.3046  0.1824 -0.4898
 7078SOL    HW132867   4.521   1.579   5.806 -0.4606 -1.0172  0.1787
 7078SOL    HW232868   4.386   1.529   5.758  2.2812 -1.2328  0.3237
 7079SOL     OW32869   2.075   2.083   1.074 -0.2003 -0.1088  0.1141
 7079SOL    HW132870   2.035   2.155   1.123  2.5571  1.8801 -0.5930
 7079SOL    HW232871   2.120   2.133   1.006 -0.2218  0.7781  0.7479
 7080SOL     OW32872   3.164   3.124   2.828  0.0146  0.7128 -0.2825
 7080SOL    HW132873   3.088   3.066   2.833  0.4949  0.1197  0.1324
 7080SOL    HW232874   3.196   3.112   2.917  0.5591  2.2070 -0.2875
 7081SOL     OW32875   0.368   1.927   5.542  0.8035  0.6762  0.6280
 7081SOL    HW132876   0.454   1.888   5.559  0.1255 -0.4605  1.4183
 7081SOL    HW232877   0.334   1.891   5.460 -0.6277  0.3584  1.3614
 7082SOL     OW32878   2.707   4.512   5.786 -0.3146 -0.2494 -0.2218
 7082SOL    HW132879   2.775   4.447   5.804  0.8242  0.7495 -0.9671
 7082SOL    HW232880   2.762   4.589   5.799  1.4790 -1.6959  0.9174
 7083SOL     OW32881   1.094   0.792   2.984  0.1638  0.0705 -0.4407
 7083SOL    HW132882   1.149   0.831   3.052 -1.7693  0.0662  1.1187
 7083SOL    HW232883   1.155   0.721   2.965 -2.0091 -1.0265 -3.2762
 7084SOL     OW32884   3.581   1.225  12.521 -0.7114  0.2620  0.6905
 7084SOL    HW132885   3.567   1.318  12.505  2.1138  0.9052  2.1071
 7084SOL    HW232886   3.608   1.204  12.431 -1.6026  2.1804 -0.0444
 7085SOL     OW32887   4.156   4.182   2.136 -0.6585  0.1865  0.1596
 7085SOL    HW132888   4.133   4.250   2.073 -1.3148 -1.4300 -1.3191
 7085SOL    HW232889   4.251   4.181   2.131 -0.5745  1.9513  1.2933
 7086SOL     OW32890   0.540   3.227   1.181  0.0442  0.6035 -0.7668
 7086SOL    HW132891   0.589   3.304   1.210 -0.7197  0.8942 -0.2493
 7086SOL    HW232892   0.595   3.158   1.217 -1.7523 -0.0228  0.7576
 7087SOL     OW32893   2.293   3.110   2.520  0.0849  0.0829  0.5171
 7087SOL    HW132894   2.316   3.019   2.503 -0.0822 -0.3185  2.3529
 7087SOL    HW232895   2.368   3.145   2.569  0.8440 -1.3816  0.3931
 7088SOL     OW32896   4.395   3.933  14.794  0.5139 -0.4711 -0.3809
 7088SOL    HW132897   4.319   3.939  14.852  2.6805  0.1561  2.4351
 7088SOL    HW232898   4.349   3.974  14.721  2.8147  1.5130 -0.7226
 7089SOL     OW32899   2.889   2.934   5.060  0.3186  0.0894  0.2518
 7089SOL    HW132900   2.960   2.957   4.999 -0.3375 -1.2222 -1.0077
 7089SOL    HW232901   2.885   3.014   5.111  3.5389  0.0139  0.6372
 7090SOL     OW32902   2.337   3.304   3.081 -0.5434 -0.2683 -0.2289
 7090SOL    HW132903   2.411   3.319   3.140 -0.4349 -0.4014 -0.3320
 7090SOL    HW232904   2.333   3.209   3.071 -1.2748 -0.3442  0.7228
 7091SOL     OW32905   4.707   0.647  10.631  0.2039 -0.0409  0.2373
 7091SOL    HW132906   0.003   0.562  10.602  1.8050  1.3630 -2.1372
 7091SOL    HW232907   4.648   0.670  10.559  0.8047 -1.1093 -0.5960
 7092SOL     OW32908   1.298   1.179   0.997 -0.7408  0.3038  0.2902
 7092SOL    HW132909   1.290   1.274   0.991 -2.4008  0.1817  0.4847
 7092SOL    HW232910   1.216   1.151   0.956 -0.1377 -0.5976 -0.3118
 7093SOL     OW32911   0.175   3.035   2.977 -0.2167  0.5707  0.7388
 7093SOL    HW132912   0.265   3.011   2.956 -0.1349 -0.4586  2.2489
 7093SOL    HW232913   0.128   2.954   2.959 -0.6841  0.8255  0.8069
 7094SOL     OW32914   0.903   4.714   4.981 -0.1040 -0.4650  0.3823
 7094SOL    HW132915   0.952   4.685   4.903  0.4268 -1.2290  1.0019
 7094SOL    HW232916   0.982   4.715   5.035 -1.1371  0.7210  1.8791
 7095SOL     OW32917   3.687   4.441   6.898 -0.0856 -0.0349  0.8063
 7095SOL    HW132918   3.631   4.410   6.827  0.8472  2.1168 -0.8554
 7095SOL    HW232919   3.663   4.379   6.967 -2.1411  1.8406  1.7532
 7096SOL     OW32920   0.423   3.982   2.152  0.8836  0.0505  0.2912
 7096SOL    HW132921   0.393   4.028   2.230 -1.5441 -0.3145 -0.4530
 7096SOL    HW232922   0.428   3.890   2.178 -1.2761 -0.4988 -1.3099
 7097SOL     OW32923   1.264   4.514   6.939 -0.1000 -0.5220 -0.2692
 7097SOL    HW132924   1.358   4.504   6.951 -0.0814 -2.5381 -2.0710
 7097SOL    HW232925   1.240   4.567   7.015  0.0849 -1.5927  0.5305
 7098SOL     OW32926   2.396   2.690   9.728  0.4063 -0.5758 -0.2211
 7098SOL    HW132927   2.413   2.639   9.808 -0.6644 -0.8526 -0.1776
 7098SOL    HW232928   2.372   2.619   9.668 -0.8443 -0.4563  0.1360
 7099SOL     OW32929   4.407   1.741  14.159  0.4993 -0.9652 -0.2883
 7099SOL    HW132930   4.487   1.702  14.193 -0.0911 -1.4970  0.4996
 7099SOL    HW232931   4.425   1.789  14.078 -1.4595  0.8730  0.3715
 7100SOL     OW32932   3.260   1.108   0.874 -0.1006  0.2100 -0.2014
 7100SOL    HW132933   3.226   1.072   0.956 -1.1397 -0.0389 -0.7415
 7100SOL    HW232934   3.347   1.126   0.909 -0.3229  0.8136  0.0422
 7101SOL     OW32935   3.332   3.239   7.254  0.2129 -0.6251  0.9716
 7101SOL    HW132936   3.358   3.278   7.338 -0.3289  0.5674  0.5964
 7101SOL    HW232937   3.247   3.283   7.242 -0.2369 -1.9096 -0.5685
 7102SOL     OW32938   1.387   0.440   1.062  0.5207 -0.0989  0.0237
 7102SOL    HW132939   1.325   0.373   1.089 -0.3746 -0.0375 -1.8710
 7102SOL    HW232940   1.329   0.515   1.048 -0.7923 -0.7442  2.0917
 7103SOL     OW32941   3.203   1.538   1.017  0.8296 -0.5102  0.0401
 7103SOL    HW132942   3.169   1.453   0.987 -1.5492  0.9184 -1.4037
 7103SOL    HW232943   3.244   1.568   0.935 -3.6263 -0.3039 -2.1321
 7104SOL     OW32944   0.310   1.563   0.454  0.6013  0.5884 -0.3188
 7104SOL    HW132945   0.396   1.521   0.450 -0.3072 -1.1014 -2.4566
 7104SOL    HW232946   0.327   1.646   0.499  1.4046  0.2301  0.0363
 7105SOL     OW32947   2.614   2.452   8.991  0.5245  0.2357 -0.1201
 7105SOL    HW132948   2.535   2.454   8.937  0.3695  2.1903  0.1888
 7105SOL    HW232949   2.627   2.545   9.011  2.1529 -0.0845  0.3170
 7106SOL     OW32950   2.547   2.348   7.531  0.2647  0.4693 -0.1498
 7106SOL    HW132951   2.640   2.326   7.528  0.7201  2.3641  0.1140
 7106SOL    HW232952   2.554   2.442   7.514 -0.6340  0.5030 -0.3212
 7107SOL     OW32953   1.510   3.110   0.957 -0.5162  0.0554  0.3896
 7107SOL    HW132954   1.532   3.167   0.884  0.2237  0.5454  0.9896
 7107SOL    HW232955   1.547   3.163   1.029  0.4548  0.5427 -0.4661
 7108SOL     OW32956   2.657   2.772  15.772 -0.0102 -0.6360 -0.0884
 7108SOL    HW132957   2.600   2.776  15.695 -0.1973 -1.8366 -0.0121
 7108SOL    HW232958   2.738   2.813  15.741  0.5960 -1.9120 -0.2048
 7109SOL     OW32959   0.380   0.213   5.137 -0.2125  0.0147  0.9357
 7109SOL    HW132960   0.361   0.144   5.201 -0.2347  0.6007  1.5704
 7109SOL    HW232961   0.296   0.227   5.092 -0.3379 -2.4176  0.4126
 7110SOL     OW32962   3.958   1.174   5.785  0.3030 -0.0955  0.9353
 7110SOL    HW132963   4.022   1.154   5.717 -0.8757  0.5306 -0.3445
 7110SOL    HW232964   4.023   1.198   5.851 -0.2693  0.3933  1.3251
 7111SOL     OW32965   1.087   2.402  15.907  0.7094 -0.0330  0.1635
 7111SOL    HW132966   1.084   2.331  15.842  0.4585 -1.3264  1.5826
 7111SOL    HW232967   1.086   2.478  15.848  0.7646  0.4460  0.7855
 7112SOL     OW32968   3.980   4.533   6.867 -0.3778 -0.1395  0.6855
 7112SOL    HW132969   4.027   4.450   6.880  1.8611  1.2584  1.4726
 7112SOL    HW232970   3.890   4.508   6.886 -0.6220 -0.3073 -0.6634
 7113SOL     OW32971   0.136   2.789   3.926  0.6319 -0.5054  0.3892
 7113SOL    HW132972   0.094   2.875   3.918 -0.2015 -1.0836 -1.5426
 7113SOL    HW232973   0.200   2.792   3.855  0.7205  0.2012  0.4937
 7114SOL     OW32974   0.975   0.702   1.532  0.1404  0.5265  0.3859
 7114SOL    HW132975   0.919   0.676   1.605  0.9159 -0.8358  0.5002
 7114SOL    HW232976   1.061   0.688   1.572 -1.0864  0.4341  2.9510
 7115SOL     OW32977   1.489   0.654   7.129 -0.0702 -0.6149 -0.6626
 7115SOL    HW132978   1.579   0.660   7.161  0.7940 -0.9641 -3.0654
 7115SOL    HW232979   1.457   0.742   7.152 -0.5186 -0.6939 -0.9782
 7116SOL     OW32980   0.844   1.068  15.254  0.4658  0.0270 -0.0392
 7116SOL    HW132981   0.884   1.064  15.341 -0.4302  2.2867  0.4852
 7116SOL    HW232982   0.792   1.148  15.262  0.8601  0.3118 -0.3465
 7117SOL     OW32983   0.090   1.283  16.261 -0.4597  0.0226  0.0239
 7117SOL    HW132984   0.061   1.372  16.240 -1.3117 -0.4099 -0.6748
 7117SOL    HW232985   0.177   1.284  16.221 -0.4904 -1.4176 -0.1038
 7118SOL     OW32986   0.489   4.303   4.304 -0.0426  0.1014  0.3146
 7118SOL    HW132987   0.490   4.322   4.398  3.0967  1.8363 -0.0676
 7118SOL    HW232988   0.419   4.361   4.272 -1.6541 -0.7750  2.1824
 7119SOL     OW32989   2.405   2.262  17.188  0.0214  0.4500  0.0716
 7119SOL    HW132990   2.405   2.255  17.093  1.0770  1.0568  0.0203
 7119SOL    HW232991   2.396   2.357  17.196 -0.3608  0.5762 -1.8409
 7120SOL     OW32992   1.533   3.485   2.370  0.1854  0.2057  0.1020
 7120SOL    HW132993   1.511   3.437   2.450 -0.3540  0.2128 -0.0416
 7120SOL    HW232994   1.450   3.502   2.326  0.6939 -0.9565 -1.3368
 7121SOL     OW32995   2.696   3.491   2.893  0.4973 -0.2045 -0.7219
 7121SOL    HW132996   2.629   3.423   2.890  0.9953 -0.7151 -0.1966
 7121SOL    HW232997   2.751   3.463   2.820  1.8361 -0.0175  0.2240
 7122SOL     OW32998   2.156   4.072   4.624 -0.4168 -0.7624 -0.0848
 7122SOL    HW132999   2.147   4.148   4.681 -2.6278  0.3347 -1.8899
 7122SOL    HW233000   2.134   3.995   4.677 -0.9221 -1.4289 -1.2574
 7123SOL     OW33001   1.747   2.595   2.588 -0.0305 -0.7441  0.0417
 7123SOL    HW133002   1.780   2.513   2.624  1.4890 -0.7627 -1.4077
 7123SOL    HW233003   1.769   2.593   2.495 -1.4063  1.9011 -0.3392
 7124SOL     OW33004   0.389   3.388   9.354 -0.1694  0.1550  0.1212
 7124SOL    HW133005   0.392   3.479   9.384 -2.9667  0.6399 -1.0290
 7124SOL    HW233006   0.483   3.372   9.353  0.1103  1.7282  0.9106
 7125SOL     OW33007   3.097   4.544  17.020 -0.1939  0.4809 -0.1601
 7125SOL    HW133008   3.058   4.575  17.102 -1.4719  0.0535 -0.5948
 7125SOL    HW233009   3.164   4.493  17.064 -1.5155 -2.4749 -1.5855
 7126SOL     OW33010   2.109   3.297  17.728 -0.1132  0.1562  0.0135
 7126SOL    HW133011   2.151   3.383  17.723 -0.1867  0.1049 -1.5829
 7126SOL    HW233012   2.173   3.249  17.675  0.2296  1.7546 -1.0322
 7127SOL     OW33013   0.508   1.000   5.927  0.4571  0.2956 -0.1926
 7127SOL    HW133014   0.473   1.007   5.838 -1.3029 -1.9351  0.3144
 7127SOL    HW233015   0.598   1.029   5.914  0.9936 -0.1854  2.4270
 7128SOL     OW33016   1.780   0.767   7.413 -0.3216 -0.8567  0.3418
 7128SOL    HW133017   1.858   0.823   7.410  0.5658 -2.0920  0.0103
 7128SOL    HW233018   1.809   0.700   7.350 -0.8935 -0.1393 -0.6898
 7129SOL     OW33019   3.319   0.628   8.849 -0.5212  0.3956  0.2268
 7129SOL    HW133020   3.304   0.717   8.880 -0.0045  0.8592 -0.8387
 7129SOL    HW233021   3.373   0.602   8.923 -0.9213  2.5504  1.2514
 7130SOL     OW33022   0.544   2.638   2.213 -0.2217  0.5247  0.5784
 7130SOL    HW133023   0.613   2.619   2.277 -0.1249 -0.0714  0.2983
 7130SOL    HW233024   0.492   2.709   2.251 -1.6826 -1.6094  2.5701
 7131SOL     OW33025   2.949   3.818  10.349  0.5631  0.5883  0.2597
 7131SOL    HW133026   2.868   3.846  10.392  0.1679 -3.1744  1.9357
 7131SOL    HW233027   3.007   3.883  10.388  0.8184  0.0974  0.7006
 7132SOL     OW33028   0.895   1.250  12.531 -0.4155  0.6199 -0.8315
 7132SOL    HW133029   0.826   1.285  12.588  1.1881  0.5489  1.1689
 7132SOL    HW233030   0.846   1.248  12.449  0.1348 -0.6427 -1.1181
 7133SOL     OW33031   2.818   4.021  11.892 -0.2044  0.2833  0.3336
 7133SOL    HW133032   2.804   4.100  11.840  2.0182  1.2626  1.2150
 7133SOL    HW233033   2.730   3.983  11.888 -0.7471  1.4371  1.2935
 7134SOL     OW33034   4.436   0.248   8.431  0.5342  0.2728 -0.5594
 7134SOL    HW133035   4.348   0.279   8.453 -0.2371 -0.5169 -2.4676
 7134SOL    HW233036   4.437   0.219   8.339  0.6337 -0.8093 -0.2140
 7135SOL     OW33037   4.287   3.958  15.212 -0.7564  0.0263  0.1711
 7135SOL    HW133038   4.269   3.903  15.136  2.9776 -0.6307 -0.2238
 7135SOL    HW233039   4.230   3.914  15.275 -1.0824  0.0504 -0.1070
 7136SOL     OW33040   4.345   3.970  15.857 -0.1336 -0.2980  0.1881
 7136SOL    HW133041   4.344   3.960  15.952  0.0458 -0.6461  0.1525
 7136SOL    HW233042   4.434   3.995  15.833  0.1341 -1.3436  0.0899
 7137SOL     OW33043   3.521   0.124   4.448  0.5526  0.1365  0.5182
 7137SOL    HW133044   3.568   0.067   4.509  0.4773 -0.3692  0.1045
 7137SOL    HW233045   3.591   0.189   4.450 -1.1897  2.0137  0.6113
 7138SOL     OW33046   2.617   2.744   9.031 -0.0755 -0.1720  0.1000
 7138SOL    HW133047   2.636   2.726   9.123  0.9912  0.9978  0.1088
 7138SOL    HW233048   2.664   2.824   9.009  1.6427 -1.2182 -0.0699
 7139SOL     OW33049   2.204   0.006  13.001 -0.0456  0.2043 -0.4887
 7139SOL    HW133050   2.117   0.026  12.967 -0.9218  0.4247  1.8909
 7139SOL    HW233051   2.248   4.711  12.922 -0.5023 -1.4850 -0.1037
 7140SOL     OW33052   4.207   3.725  13.377 -0.3743  0.1331  0.6227
 7140SOL    HW133053   4.276   3.695  13.436  0.1612  1.1613  0.5225
 7140SOL    HW233054   4.255   3.732  13.294 -1.6910  0.2333 -0.1333
 7141SOL     OW33055   4.720   3.032   7.830  0.2505 -0.0244  0.4843
 7141SOL    HW133056   0.030   2.975   7.767 -0.5263  0.1922 -0.2663
 7141SOL    HW233057   4.654   3.069   7.771 -0.4639  1.1466  2.0339
 7142SOL     OW33058   2.066   3.298   8.227  0.2734  0.2605  0.5644
 7142SOL    HW133059   1.975   3.316   8.205 -0.0301  0.8478  2.3465
 7142SOL    HW233060   2.061   3.210   8.264 -0.5732 -1.3365 -3.3290
 7143SOL     OW33061   0.291   3.297   6.037 -0.5656  0.0923  1.0827
 7143SOL    HW133062   0.261   3.387   6.043 -1.2582 -0.1497  1.2208
 7143SOL    HW233063   0.356   3.290   6.107  1.0328 -2.3634 -0.6196
 7144SOL     OW33064   2.546   1.464   4.261 -0.2943  1.0900  0.0889
 7144SOL    HW133065   2.530   1.506   4.176 -0.2158  1.6491  0.3455
 7144SOL    HW233066   2.464   1.415   4.262  0.7882 -0.6845  0.8390
 7145SOL     OW33067   1.585   3.779   8.816  0.0536 -1.0376 -0.6579
 7145SOL    HW133068   1.597   3.857   8.763 -2.2026 -0.4542 -0.3052
 7145SOL    HW233069   1.677   3.764   8.836 -0.4683 -2.1324  0.9458
 7146SOL     OW33070   2.804   0.506   2.528 -0.1731  0.0248  0.6114
 7146SOL    HW133071   2.775   0.563   2.599 -0.7248 -0.4611  0.7833
 7146SOL    HW233072   2.898   0.523   2.527  0.0857 -1.5886 -2.7734
 7147SOL     OW33073   4.569   1.877   4.598 -1.1488  0.0983  0.4519
 7147SOL    HW133074   4.661   1.854   4.608 -0.8278  0.4621 -1.6823
 7147SOL    HW233075   4.558   1.867   4.504 -0.2433  0.3363  0.3206
 7148SOL     OW33076   0.663   2.848   5.238 -0.3217  0.2891 -0.6806
 7148SOL    HW133077   0.659   2.823   5.330 -1.7320  1.0118 -0.5457
 7148SOL    HW233078   0.597   2.915   5.218 -0.3488  0.5806  0.4129
 7149SOL     OW33079   2.373   1.282   6.998 -0.3184  0.3614  0.7512
 7149SOL    HW133080   2.432   1.321   7.063  0.3075  1.7895 -0.6555
 7149SOL    HW233081   2.291   1.318   7.029  0.1079  0.6541  1.5492
 7150SOL     OW33082   1.311   4.091   3.117  0.1312 -0.5116 -0.1499
 7150SOL    HW133083   1.272   4.155   3.176 -4.0223 -2.9126 -0.3282
 7150SOL    HW233084   1.249   4.019   3.128 -1.1272  0.2698 -2.2509
 7151SOL     OW33085   0.725   0.285   2.260  0.1611 -0.2881  0.3093
 7151SOL    HW133086   0.648   0.280   2.316 -0.5342  1.0210 -0.5212
 7151SOL    HW233087   0.798   0.233   2.293  0.0337 -1.1085 -0.6871
 7152SOL     OW33088   1.140   1.490   9.084 -0.1594  0.5798 -0.0108
 7152SOL    HW133089   1.081   1.486   9.159  0.8029 -0.5380  0.6869
 7152SOL    HW233090   1.085   1.459   9.011  1.6359 -2.2758 -0.1780
 7153SOL     OW33091   1.952   1.227   2.585  0.0129 -0.3172 -0.5318
 7153SOL    HW133092   2.037   1.193   2.614 -0.8809 -2.5571 -0.5204
 7153SOL    HW233093   1.975   1.303   2.531 -2.8078  0.4906 -0.5559
 7154SOL     OW33094   4.512   2.511   5.400 -0.3389 -0.0358  0.3223
 7154SOL    HW133095   4.574   2.442   5.376  0.0791  1.0486 -1.7587
 7154SOL    HW233096   4.516   2.517   5.495 -0.6835 -1.9992  0.4589
 7155SOL     OW33097   1.917   0.935  10.455  0.8392  0.0363  0.6030
 7155SOL    HW133098   1.869   1.007  10.497  1.4033  0.7264  0.0626
 7155SOL    HW233099   1.924   0.958  10.363 -0.7854 -0.7676  0.2795
 7156SOL     OW33100   0.053   3.999   4.444  0.0498  0.2948  0.3157
 7156SOL    HW133101   0.024   3.910   4.423  1.6995 -0.0504 -0.5523
 7156SOL    HW233102   0.065   4.044   4.360 -0.5519 -0.7136 -0.3146
 7157SOL     OW33103   3.706   3.985   8.225  0.3945 -0.2885 -0.1106
 7157SOL    HW133104   3.610   3.987   8.230  0.4847  1.8438  0.9369
 7157SOL    HW233105   3.732   3.940   8.305 -0.4321  0.2661  0.4777
 7158SOL     OW33106   4.226   3.676   9.536 -0.2245  0.5027 -0.1124
 7158SOL    HW133107   4.259   3.698   9.624 -0.7309  0.8191 -0.0045
 7158SOL    HW233108   4.291   3.609   9.512  2.6216  2.4568  2.0854
 7159SOL     OW33109   2.567   1.818   2.058 -0.8204 -0.1560 -0.2459
 7159SOL    HW133110   2.515   1.873   2.116  0.5418  2.3401 -1.3959
 7159SOL    HW233111   2.550   1.732   2.096  0.5495 -0.0514  0.6022
 7160SOL     OW33112   1.877   2.030   7.435  0.4459  0.2313 -0.3929
 7160SOL    HW133113   1.862   1.968   7.363 -0.8474 -1.0598  0.9920
 7160SOL    HW233114   1.790   2.034   7.473  0.3898 -0.3468 -0.4593
 7161SOL     OW33115   1.745   1.816   6.139  0.3930  0.4268 -0.0589
 7161SOL    HW133116   1.787   1.734   6.164 -0.5434  0.1500  0.6073
 7161SOL    HW233117   1.654   1.794   6.157  0.2438  0.0662 -1.2626
 7162SOL     OW33118   0.975   4.465   4.514 -0.8627 -0.5625 -0.4506
 7162SOL    HW133119   0.969   4.516   4.434  0.2382  0.1229 -0.0831
 7162SOL    HW233120   0.903   4.402   4.505  0.7372 -2.4860  0.1667
 7163SOL     OW33121   0.093   0.264   5.089 -0.0534  0.2250  0.1960
 7163SOL    HW133122   0.055   0.176   5.089 -1.1627  0.7062 -0.2134
 7163SOL    HW233123   0.089   0.296   4.999 -2.8080  1.9934  0.9451
 7164SOL     OW33124   4.161   4.320   6.345 -0.7260  0.1298  0.5180
 7164SOL    HW133125   4.095   4.256   6.319 -1.0217  0.6793 -0.0905
 7164SOL    HW233126   4.120   4.405   6.330  0.2221  0.0197 -2.6237
 7165SOL     OW33127   1.094   2.810   6.978 -0.0226 -0.1191 -0.1484
 7165SOL    HW133128   1.044   2.883   6.942 -1.5038 -0.4112  1.3090
 7165SOL    HW233129   1.107   2.828   7.071  1.3062  1.4721 -0.6483
 7166SOL     OW33130   4.464   0.352   0.417  0.0478  0.3416 -0.4249
 7166SOL    HW133131   4.517   0.284   0.374  0.8371  0.8961 -0.3298
 7166SOL    HW233132   4.477   0.336   0.511  0.3675  1.2454 -0.3122
 7167SOL     OW33133   3.808   3.509  14.153 -0.2993  0.2807  0.1793
 7167SOL    HW133134   3.743   3.504  14.083  0.1601  0.3752 -0.2561
 7167SOL    HW233135   3.794   3.419  14.182 -3.4692  1.0122  0.9539
 7168SOL     OW33136   2.235   0.697   7.382 -0.3682  0.3972 -0.2951
 7168SOL    HW133137   2.181   0.643   7.441 -0.5357 -0.6873 -1.4251
 7168SOL    HW233138   2.312   0.641   7.371 -0.8176 -0.3376  0.3048
 7169SOL     OW33139   0.077   4.429  14.120 -0.3875 -0.1384 -0.2863
 7169SOL    HW133140   0.120   4.355  14.164 -1.9264 -0.2767  0.9873
 7169SOL    HW233141   0.010   4.459  14.182 -1.5224 -1.3798 -0.8971
 7170SOL     OW33142   3.818   0.909   8.150  0.3765 -0.4108 -0.2697
 7170SOL    HW133143   3.875   0.958   8.210  1.0096 -0.1185 -1.1021
 7170SOL    HW233144   3.739   0.962   8.143  0.4926 -0.0647  0.8938
 7171SOL     OW33145   1.158   0.301   5.854  0.3927 -0.1577  0.1018
 7171SOL    HW133146   1.232   0.278   5.910 -1.1651 -0.3571  2.0858
 7171SOL    HW233147   1.115   0.368   5.908 -0.0419  1.1041 -1.8217
 7172SOL     OW33148   2.741   2.492   2.647  0.3864 -0.4846 -0.3419
 7172SOL    HW133149   2.769   2.541   2.570 -0.8005 -1.4794 -1.3908
 7172SOL    HW233150   2.651   2.524   2.645 -0.2109 -2.0353  2.2054
 7173SOL     OW33151   2.879   0.393   8.368 -0.3081 -0.3781 -0.0537
 7173SOL    HW133152   2.962   0.422   8.330  0.5544 -0.8323  1.4697
 7173SOL    HW233153   2.897   0.411   8.460 -1.3874  0.3764  0.0067
 7174SOL     OW33154   3.856   3.030   6.779 -0.3372  0.1741  0.0599
 7174SOL    HW133155   3.906   2.952   6.803  1.1615  1.2351  0.3757
 7174SOL    HW233156   3.924   3.097   6.785 -0.5520  0.5192 -1.2772
 7175SOL     OW33157   0.727   3.602   3.316  0.1569 -0.0119 -0.0347
 7175SOL    HW133158   0.818   3.612   3.344  0.2073 -1.1568  0.2303
 7175SOL    HW233159   0.754   3.554   3.237 -2.1244  0.5282 -1.1287
 7176SOL     OW33160   0.065   1.630   1.082  0.3253  0.1945  0.3070
 7176SOL    HW133161   0.031   1.698   1.024  0.5910 -1.1179 -1.3772
 7176SOL    HW233162   4.727   1.568   1.078 -1.7844  2.6975  0.3769
 7177SOL     OW33163   4.115   0.704  12.676 -0.1898  0.5989 -0.4642
 7177SOL    HW133164   4.111   0.783  12.730 -0.9260  1.9584 -2.5485
 7177SOL    HW233165   4.052   0.647  12.721 -0.1194  1.6683  1.0027
 7178SOL     OW33166   4.122   0.219   7.172 -0.1962 -0.3759  0.2483
 7178SOL    HW133167   4.207   0.180   7.151 -0.1734  0.0148 -0.3673
 7178SOL    HW233168   4.124   0.202   7.266  0.5590  1.8467  0.6280
 7179SOL     OW33169   3.960   1.605   3.378  0.6431  0.0867  0.5328
 7179SOL    HW133170   4.023   1.595   3.307  0.5608 -2.6320  0.8534
 7179SOL    HW233171   3.980   1.696   3.399 -4.4039  1.4407 -0.4467
 7180SOL     OW33172   0.232   1.509   7.576  0.3052  0.0638  0.0663
 7180SOL    HW133173   0.181   1.522   7.656  0.1347  3.2548 -0.5755
 7180SOL    HW233174   0.244   1.598   7.543  1.1404 -0.2463 -0.4573
 7181SOL     OW33175   3.700   0.061  10.205  0.7800 -0.0933 -0.4810
 7181SOL    HW133176   3.786   0.043  10.168 -0.7343 -2.3127 -2.9415
 7181SOL    HW233177   3.718   0.103  10.289 -2.3163  0.4149 -0.0498
 7182SOL     OW33178   0.195   3.065   7.611 -0.0142  0.3763  0.4027
 7182SOL    HW133179   0.278   3.073   7.564 -0.6276 -0.7047 -0.8659
 7182SOL    HW233180   0.219   3.008   7.684 -0.0362  1.5002  1.2826
 7183SOL     OW33181   1.187   4.627   7.174 -0.2256  0.9790 -0.2712
 7183SOL    HW133182   1.210   4.719   7.187  1.9657  0.4783 -0.6107
 7183SOL    HW233183   1.108   4.641   7.122 -1.6369 -1.6655  1.1744
 7184SOL     OW33184   2.685   3.149   4.178  0.4702 -0.4457 -0.8843
 7184SOL    HW133185   2.605   3.154   4.127 -1.6383  0.1972  2.5281
 7184SOL    HW233186   2.739   3.097   4.118 -0.6853  0.0806 -2.3623
 7185SOL     OW33187   0.881   1.153   4.691  0.4962  0.6084 -0.1609
 7185SOL    HW133188   0.790   1.177   4.708 -0.7521 -3.5177 -1.0526
 7185SOL    HW233189   0.883   1.113   4.604 -0.0244  0.7277 -0.2276
 7186SOL     OW33190   0.580   0.767   5.391  0.0671 -0.4049 -0.0682
 7186SOL    HW133191   0.614   0.711   5.321  0.4997  1.1022 -1.0611
 7186SOL    HW233192   0.652   0.829   5.398  0.6590 -1.1445  0.3392
 7187SOL     OW33193   0.946   0.921   8.119  0.6121 -0.0779  0.2282
 7187SOL    HW133194   0.971   0.828   8.117 -2.5377 -0.9464  0.9220
 7187SOL    HW233195   0.894   0.915   8.199 -0.6226 -1.8719 -0.7054
 7188SOL     OW33196   2.996   2.089   2.591 -0.3827  0.3889 -0.1542
 7188SOL    HW133197   2.990   2.181   2.564  0.2002 -0.9023 -4.7387
 7188SOL    HW233198   3.006   2.036   2.512  1.3858 -1.2540  1.1794
 7189SOL     OW33199   3.984   2.623   7.674 -0.2028 -0.4665  0.0486
 7189SOL    HW133200   4.021   2.572   7.602  3.2748 -2.9760  3.5961
 7189SOL    HW233201   4.039   2.700   7.688  0.4802 -0.8747 -0.4057
 7190SOL     OW33202   4.033   2.410   5.744  0.2238  0.1971  0.1963
 7190SOL    HW133203   4.077   2.458   5.674 -0.5696  0.9719  0.2213
 7190SOL    HW233204   3.992   2.335   5.703 -0.0809 -0.1052  1.0465
 7191SOL     OW33205   1.290   0.520   6.884  0.1682 -0.3802  0.0584
 7191SOL    HW133206   1.310   0.596   6.830 -1.4714 -0.0454 -0.0878
 7191SOL    HW233207   1.220   0.549   6.942 -0.0444 -1.8787  0.5674
 7192SOL     OW33208   0.032   0.805  15.682  0.6563 -0.3356  0.4374
 7192SOL    HW133209   0.012   0.835  15.771  0.3752 -0.6294  0.4765
 7192SOL    HW233210   4.687   0.755  15.661  1.7240 -1.6632 -0.4711
 7193SOL     OW33211   2.578   0.309   5.042 -0.1390 -0.0432 -0.3767
 7193SOL    HW133212   2.523   0.277   5.113  2.2821 -1.6958  0.7400
 7193SOL    HW233213   2.663   0.316   5.086 -0.0046  3.1030 -1.1663
 7194SOL     OW33214   3.119   1.027   5.747 -0.1702  0.2115  0.1847
 7194SOL    HW133215   3.212   1.020   5.727  0.1009 -2.1777  2.2938
 7194SOL    HW233216   3.130   1.088   5.820  1.1018 -0.6982  0.7477
 7195SOL     OW33217   0.352   0.713   1.540  0.4375 -0.3963 -0.1976
 7195SOL    HW133218   0.438   0.742   1.511  0.2785 -1.7030 -1.9810
 7195SOL    HW233219   0.294   0.771   1.490 -0.9713  0.7418  2.7938
 7196SOL     OW33220   3.825   1.041   6.993  0.0598 -0.1664  0.2067
 7196SOL    HW133221   3.754   1.091   7.034  0.4927  0.1842  0.5288
 7196SOL    HW233222   3.798   1.055   6.902 -0.7333  1.0265  0.6141
 7197SOL     OW33223   1.239   1.930   6.679 -1.6315  0.0202 -0.7427
 7197SOL    HW133224   1.207   1.992   6.614  0.1289 -0.5659 -2.1781
 7197SOL    HW233225   1.161   1.879   6.700 -1.3802 -0.0560  0.0094
 7198SOL     OW33226   2.667   1.209   9.190 -0.1447 -0.1846 -0.0058
 7198SOL    HW133227   2.698   1.130   9.146  2.0012  0.8600 -0.3591
 7198SOL    HW233228   2.687   1.271   9.119 -1.0502 -0.1589 -0.2375
 7199SOL     OW33229   2.065   3.718  15.264  0.2516 -0.4354  0.5868
 7199SOL    HW133230   1.989   3.665  15.243 -0.2929  1.1192 -1.3699
 7199SOL    HW233231   2.094   3.646  15.320  1.9429  1.2216  1.8451
 7200SOL     OW33232   4.586   0.643  12.086  0.1583  0.2675  0.4546
 7200SOL    HW133233   4.501   0.688  12.089  0.1615  0.4310 -2.7043
 7200SOL    HW233234   4.574   0.560  12.132 -0.2059 -1.1011 -2.1689
 7201SOL     OW33235   3.168   3.476   4.546 -0.5594 -0.0491 -0.3030
 7201SOL    HW133236   3.134   3.438   4.466 -1.1937  0.5248 -0.3039
 7201SOL    HW233237   3.110   3.447   4.616  0.9314 -0.4360  0.7946
 7202SOL     OW33238   0.149   0.505   2.774  0.5623 -0.0381 -0.3320
 7202SOL    HW133239   0.184   0.418   2.793 -0.6086 -0.3487  0.3734
 7202SOL    HW233240   0.129   0.531   2.864  0.1178  0.5164 -0.5960
 7203SOL     OW33241   2.788   0.726   4.539 -0.7382 -0.4086  0.2945
 7203SOL    HW133242   2.740   0.700   4.461 -2.1321 -0.7381  1.2649
 7203SOL    HW233243   2.801   0.819   4.520  2.8135 -1.2107 -1.3105
 7204SOL     OW33244   0.709   2.505  10.959  0.1735 -0.2628  0.1790
 7204SOL    HW133245   0.746   2.515  10.871 -0.9535 -0.6721 -0.3471
 7204SOL    HW233246   0.626   2.461  10.938  0.7395 -1.3425  0.1643
 7205SOL     OW33247   3.784   4.028   3.649  0.3367  0.1080 -0.2957
 7205SOL    HW133248   3.855   4.080   3.686 -1.1299  1.7661  0.1893
 7205SOL    HW233249   3.827   3.965   3.592  1.0412 -0.6044  1.0186
 7206SOL     OW33250   4.683   4.700  15.016 -0.3557 -0.0815 -0.0282
 7206SOL    HW133251   4.698   0.054  15.050  0.8839 -0.0950 -0.5748
 7206SOL    HW233252   4.630   4.710  14.937  2.3952  2.0161 -1.5767
 7207SOL     OW33253   3.075   3.560   7.779  0.0277  0.3863  0.2362
 7207SOL    HW133254   3.039   3.588   7.694  0.4215  1.7163  0.5237
 7207SOL    HW233255   3.003   3.593   7.832  1.5246  1.6238  1.4763
 7208SOL     OW33256   0.605   2.844   9.021 -0.2941  0.5666  0.2185
 7208SOL    HW133257   0.582   2.868   9.111  1.2649 -1.0473  1.0672
 7208SOL    HW233258   0.518   2.847   8.983 -0.7614 -0.1597  1.2314
 7209SOL     OW33259   2.557   0.243   1.870 -0.0018  0.2365  0.4544
 7209SOL    HW133260   2.531   0.318   1.923 -2.4108  0.1412 -0.5820
 7209SOL    HW233261   2.469   0.216   1.843  0.9206 -0.5782 -1.7564
 7210SOL     OW33262   1.960   2.710   6.183 -0.1717 -0.4464  0.3633
 7210SOL    HW133263   2.002   2.626   6.203  0.2692 -0.5605 -1.0495
 7210SOL    HW233264   1.934   2.708   6.091 -0.0987 -0.0732  0.3355
 7211SOL     OW33265   1.538   0.924   2.609 -0.0889  0.1313 -0.2718
 7211SOL    HW133266   1.565   0.833   2.622  0.2487  0.2074 -0.4334
 7211SOL    HW233267   1.446   0.906   2.626  0.5569 -3.5374 -0.6933
 7212SOL     OW33268   3.169   0.388   7.163  0.1388  0.6173 -0.1455
 7212SOL    HW133269   3.131   0.307   7.128  1.1568  0.3036 -0.5270
 7212SOL    HW233270   3.247   0.348   7.203 -0.7785 -0.2769  0.7493
 7213SOL     OW33271   4.397   1.691   7.390 -0.2649  0.2159  0.0532
 7213SOL    HW133272   4.304   1.667   7.399 -0.3521 -0.1537 -1.9911
 7213SOL    HW233273   4.434   1.604   7.400  1.8682  1.0964 -0.3463
 7214SOL     OW33274   0.999   4.455   4.063 -0.3535  0.0660  0.9621
 7214SOL    HW133275   0.927   4.446   4.001  0.4430  0.4186 -0.0143
 7214SOL    HW233276   1.059   4.523   4.033 -0.3654 -0.6129 -0.6407
 7215SOL     OW33277   1.037   4.510   0.712  0.3939 -0.5415  0.2332
 7215SOL    HW133278   1.001   4.432   0.755 -1.2139  1.1951  2.0714
 7215SOL    HW233279   1.060   4.560   0.790 -0.5432  1.4300 -0.7768
 7216SOL     OW33280   3.634   3.848   2.921  0.4137 -0.1835  0.1911
 7216SOL    HW133281   3.539   3.848   2.910  0.5575 -0.1327 -1.0266
 7216SOL    HW233282   3.655   3.803   2.839 -0.7999  2.2244 -1.4261
 7217SOL     OW33283   0.119   0.815   2.934  0.0539  0.5817  0.3527
 7217SOL    HW133284   0.037   0.839   2.977  0.0871  1.5873 -0.1507
 7217SOL    HW233285   0.111   0.886   2.870 -2.7549  1.3297  1.5292
 7218SOL     OW33286   2.416   4.449   4.867  0.2912 -0.0190  0.2105
 7218SOL    HW133287   2.393   4.385   4.935  0.4430 -0.0439  0.2391
 7218SOL    HW233288   2.500   4.483   4.899 -0.2359  0.4073  1.1399
 7219SOL     OW33289   1.091   3.435   9.736 -0.0569  0.2027  0.0858
 7219SOL    HW133290   1.068   3.345   9.759  4.0725 -0.8527  0.1222
 7219SOL    HW233291   1.007   3.471   9.709 -0.8892 -1.3651  0.5318
 7220SOL     OW33292   4.278   0.158  10.576  0.4034 -0.2587 -0.1474
 7220SOL    HW133293   4.286   0.064  10.590 -0.2348 -0.2164  0.5446
 7220SOL    HW233294   4.303   0.176  10.486  0.4122 -0.0010 -0.0923
 7221SOL     OW33295   4.426   0.633   5.021  0.3783  0.2299  0.1973
 7221SOL    HW133296   4.465   0.704   4.971  1.2815 -0.3773  0.0370
 7221SOL    HW233297   4.346   0.679   5.047 -0.5742 -0.5940 -1.2131
 7222SOL     OW33298   4.201   4.089  14.636  0.3755 -0.3833  0.3495
 7222SOL    HW133299   4.276   4.141  14.607  0.8092 -1.9378 -1.3141
 7222SOL    HW233300   4.168   4.154  14.699 -1.0942 -0.0254 -0.7793
 7223SOL     OW33301   2.535   1.706   3.924 -0.0643  0.0235  0.1406
 7223SOL    HW133302   2.538   1.736   3.833 -1.3421  1.4730  0.5866
 7223SOL    HW233303   2.515   1.786   3.971  1.6359 -0.8994  2.4500
 7224SOL     OW33304   3.691   0.235  10.402  0.2601 -0.0783  0.0196
 7224SOL    HW133305   3.720   0.267  10.487 -0.9911  0.2506  0.3212
 7224SOL    HW233306   3.711   0.315  10.354 -2.4389  1.6867  1.8319
 7225SOL     OW33307   0.365   0.949  17.469  0.5291 -0.0955 -0.0558
 7225SOL    HW133308   0.377   0.981  17.559 -1.9045 -0.7966  0.5016
 7225SOL    HW233309   0.273   0.926  17.462  0.7430 -1.1010  0.3575
 7226SOL     OW33310   0.508   0.269   1.737  0.1267  0.3826  0.3486
 7226SOL    HW133311   0.440   0.333   1.716 -0.2345 -0.3619 -0.7793
 7226SOL    HW233312   0.590   0.312   1.712  0.3924 -0.4949 -0.2874
 7227SOL     OW33313   3.455   4.181   4.106  0.3957  0.2134  0.0616
 7227SOL    HW133314   3.541   4.140   4.105  0.6087  0.6138  3.8252
 7227SOL    HW233315   3.401   4.102   4.101  0.3655 -0.0095  3.7648
 7228SOL     OW33316   4.640   1.447  17.548 -0.1929 -0.2870 -0.2265
 7228SOL    HW133317   4.664   1.387  17.478  2.2243  1.8955 -1.2646
 7228SOL    HW233318   4.555   1.470  17.508 -0.5049  0.0862  0.6458
 7229SOL     OW33319   0.752   0.838   3.493 -0.3050  0.6560 -0.0643
 7229SOL    HW133320   0.720   0.862   3.406  0.4484  0.3458 -0.4264
 7229SOL    HW233321   0.799   0.913   3.531  1.1424 -0.6828  0.8029
 7230SOL     OW33322   2.262   2.559   2.112 -0.6042 -0.0444 -0.1602
 7230SOL    HW133323   2.251   2.503   2.036 -1.2562  0.3731 -0.3719
 7230SOL    HW233324   2.171   2.572   2.140 -0.7926 -0.6172 -0.5085
 7231SOL     OW33325   0.151   4.619   6.044  0.2841  0.1005 -0.2385
 7231SOL    HW133326   0.179   4.544   6.096  1.2698  0.0687 -0.8366
 7231SOL    HW233327   0.159   4.575   5.960  0.9243  0.5858 -0.4321
 7232SOL     OW33328   4.646   0.564  14.702  0.0075  0.2103  0.0185
 7232SOL    HW133329   4.628   0.478  14.740  0.3782 -0.0430 -0.3815
 7232SOL    HW233330   4.647   0.542  14.609  0.3361  0.2096  0.0223
 7233SOL     OW33331   2.274   2.051   8.612  0.2593  0.2115  0.1774
 7233SOL    HW133332   2.235   2.130   8.574  0.7104  0.7096  0.7537
 7233SOL    HW233333   2.301   2.014   8.529  1.9545 -2.7640  2.0643
 7234SOL     OW33334   0.826   1.163  14.445  0.0902 -0.1826  0.0179
 7234SOL    HW133335   0.771   1.088  14.422  0.9114 -0.2516 -1.7447
 7234SOL    HW233336   0.803   1.187  14.534 -0.3943 -2.2546  0.4633
 7235SOL     OW33337   4.529   2.209   0.228  0.0888  0.2605  0.2567
 7235SOL    HW133338   4.572   2.233   0.146 -1.3446  1.4935 -0.1404
 7235SOL    HW233339   4.437   2.212   0.205  0.0023 -0.1547  0.5638
 7236SOL     OW33340   3.707   0.671   3.876  0.1029 -0.0111 -0.0088
 7236SOL    HW133341   3.735   0.584   3.904  2.4635  0.8225  0.2697
 7236SOL    HW233342   3.652   0.656   3.799  0.4754 -0.2315 -0.2326
 7237SOL     OW33343   0.827   4.650   9.496  0.0061  0.3549  0.2901
 7237SOL    HW133344   0.774   4.718   9.537 -0.6724 -1.2503  2.1099
 7237SOL    HW233345   0.767   4.624   9.427  1.4015  1.0184 -1.1610
 7238SOL     OW33346   0.510   4.514   2.124  0.2870  0.4447  0.7179
 7238SOL    HW133347   0.600   4.517   2.090 -1.0768  0.4581 -2.9183
 7238SOL    HW233348   0.464   4.508   2.040  1.5914 -1.3230  0.1225
 7239SOL     OW33349   3.991   1.518   0.129  0.0023 -0.4953  0.1591
 7239SOL    HW133350   3.966   1.426   0.129  0.8537 -0.7253  1.1207
 7239SOL    HW233351   3.952   1.539   0.044 -2.9229  1.3412  1.9603
 7240SOL     OW33352   1.040   4.230   5.400  0.1572 -0.0137  0.7276
 7240SOL    HW133353   1.014   4.211   5.310  0.3832 -0.5560  0.7789
 7240SOL    HW233354   0.963   4.198   5.447 -0.5032 -1.7295 -1.5341
 7241SOL     OW33355   4.428   0.578   5.643  1.1000 -0.2498 -0.4912
 7241SOL    HW133356   4.435   0.670   5.621  2.8271 -0.3222 -0.2735
 7241SOL    HW233357   4.471   0.583   5.729  0.0233 -3.0545  0.2205
 7242SOL     OW33358   0.054   1.666   5.529  0.3713  0.6259  0.4992
 7242SOL    HW133359   4.714   1.725   5.523 -0.3410 -0.4500 -1.3029
 7242SOL    HW233360   0.115   1.696   5.462  0.8692  0.5784  0.9272
 7243SOL     OW33361   3.259   3.660   8.123  0.7721  0.0320  0.0388
 7243SOL    HW133362   3.168   3.682   8.107  0.5631 -0.3439  0.7194
 7243SOL    HW233363   3.293   3.750   8.122 -1.0755  0.7396  1.3427
 7244SOL     OW33364   3.155   1.367  15.303 -0.1014 -0.5744  0.3235
 7244SOL    HW133365   3.194   1.448  15.336  1.9503 -0.7284 -1.6957
 7244SOL    HW233366   3.094   1.408  15.242  1.7551  1.5095 -0.1573
 7245SOL     OW33367   3.546   2.558   3.396  0.6875 -0.1080 -0.2815
 7245SOL    HW133368   3.572   2.564   3.488  2.0796  0.6036 -0.7235
 7245SOL    HW233369   3.551   2.466   3.371  0.5116  0.4607 -2.3789
 7246SOL     OW33370   1.115   2.922  13.144 -0.0894 -0.1589 -0.2401
 7246SOL    HW133371   1.197   2.952  13.184 -1.7957  0.5951  2.6902
 7246SOL    HW233372   1.140   2.945  13.054 -2.0868  3.4932  0.1462
 7247SOL     OW33373   0.524   4.391   5.648 -0.0447  0.4810  0.4785
 7247SOL    HW133374   0.576   4.437   5.582 -1.2178  1.1376  0.0252
 7247SOL    HW233375   0.599   4.355   5.696  0.5673  2.1449  0.7696
 7248SOL     OW33376   3.091   0.038  12.109 -0.2547  0.5530  0.5007
 7248SOL    HW133377   3.025   0.081  12.163 -0.2251  0.6748  0.4418
 7248SOL    HW233378   3.045   4.718  12.046 -0.2710  2.0155 -0.7529
 7249SOL     OW33379   2.758   4.653   6.537 -0.4568 -0.6020 -0.1839
 7249SOL    HW133380   2.801   4.646   6.452  1.3208  2.0862  0.5191
 7249SOL    HW233381   2.801   4.584   6.588  0.9105  0.1311 -0.3473
 7250SOL     OW33382   4.347   4.219   4.133 -0.4371 -0.0235 -0.2092
 7250SOL    HW133383   4.374   4.131   4.159  0.3730  0.7867  1.6549
 7250SOL    HW233384   4.428   4.269   4.126  1.2657 -2.4007  2.5737
 7251SOL     OW33385   2.638   3.384   9.068 -0.6204 -0.5592 -0.5157
 7251SOL    HW133386   2.676   3.372   8.981 -0.9868  1.1971 -0.9027
 7251SOL    HW233387   2.549   3.414   9.052 -1.5732 -2.4018  1.2801
 7252SOL     OW33388   0.382   4.020   7.940 -0.2956 -0.2948  0.3822
 7252SOL    HW133389   0.475   4.006   7.959 -0.0749  1.0493  0.2630
 7252SOL    HW233390   0.336   3.964   8.003  0.9902 -0.8890  0.7980
 7253SOL     OW33391   2.400   1.772   8.040 -0.3263 -0.8839 -0.1554
 7253SOL    HW133392   2.332   1.735   8.096 -1.0842  2.3983  1.0930
 7253SOL    HW233393   2.407   1.708   7.970  1.6304 -2.1314  1.1539
 7254SOL     OW33394   0.128   4.267   3.995  0.4493 -0.5256 -0.4228
 7254SOL    HW133395   0.189   4.333   4.029  0.1195 -0.1133 -0.6365
 7254SOL    HW233396   0.190   4.196   3.981 -0.2442 -1.3822  0.8488
 7255SOL     OW33397   3.942   1.576   6.637 -0.3010  0.5148  0.1747
 7255SOL    HW133398   3.965   1.545   6.725 -1.1612 -0.6561 -0.0124
 7255SOL    HW233399   3.861   1.526   6.628  0.0346 -0.0210  0.1416
 7256SOL     OW33400   2.796   4.421  12.160 -0.0631  0.9052  0.2855
 7256SOL    HW133401   2.805   4.332  12.193 -0.3059  0.8016  0.0718
 7256SOL    HW233402   2.774   4.464  12.243  0.0685  0.5103  0.5226
 7257SOL     OW33403   4.032   2.586   4.356 -0.1591  0.2511  0.2494
 7257SOL    HW133404   4.095   2.649   4.391 -0.3550 -0.0593  1.1428
 7257SOL    HW233405   4.045   2.514   4.417 -0.6862  1.0256  1.2621
 7258SOL     OW33406   2.796   1.863   4.942  0.0821  0.0521 -0.4108
 7258SOL    HW133407   2.819   1.929   4.876  3.6881 -1.3632 -0.5705
 7258SOL    HW233408   2.807   1.913   5.023 -1.6377  1.9650 -1.3331
 7259SOL     OW33409   2.422   2.972   7.573 -0.2504  0.4479  0.2774
 7259SOL    HW133410   2.374   2.891   7.589  1.5603 -0.0541  3.1279
 7259SOL    HW233411   2.457   2.951   7.487 -2.2521 -2.6488  0.2287
 7260SOL     OW33412   3.687   3.975   3.256 -0.0251 -0.2988  0.1282
 7260SOL    HW133413   3.759   3.947   3.313  0.0909 -2.1758 -0.9498
 7260SOL    HW233414   3.666   4.058   3.299  0.5549  0.9395 -2.0153
 7261SOL     OW33415   2.663   1.415   0.931 -0.0641  0.1067 -0.0000
 7261SOL    HW133416   2.744   1.430   0.979  0.9384  0.5776 -1.8157
 7261SOL    HW233417   2.694   1.388   0.844 -0.7858 -1.3221  0.1851
 7262SOL     OW33418   1.005   3.743   5.906  0.2449  0.1440 -1.1041
 7262SOL    HW133419   1.042   3.681   5.968 -1.3261  0.4400  0.1076
 7262SOL    HW233420   0.998   3.687   5.828 -0.0556 -0.5932 -0.5369
 7263SOL     OW33421   0.758   3.453  12.649 -0.4062  0.3159 -0.5436
 7263SOL    HW133422   0.707   3.454  12.568 -1.7782  2.1416  0.3469
 7263SOL    HW233423   0.692   3.412  12.705  0.7624 -0.7746  0.0499
 7264SOL     OW33424   2.376   0.900  17.102 -0.2414  0.2703  0.2196
 7264SOL    HW133425   2.385   0.806  17.085 -2.8741 -0.2337  1.4669
 7264SOL    HW233426   2.380   0.944  17.017  1.9467 -1.8077 -0.7329
 7265SOL     OW33427   3.796   3.578   6.400  0.6742 -0.3530  0.2386
 7265SOL    HW133428   3.839   3.492   6.405  0.5595 -0.4539 -0.4539
 7265SOL    HW233429   3.703   3.566   6.422 -0.4036  1.0380 -3.5230
 7266SOL     OW33430   1.770   1.899   6.516  0.1687  0.0403  0.1115
 7266SOL    HW133431   1.741   1.938   6.599 -0.0808 -0.8189  0.4223
 7266SOL    HW233432   1.685   1.859   6.495 -0.1977  0.5754  0.5685
 7267SOL     OW33433   0.299   4.616   0.132 -0.0884 -0.1675 -0.1351
 7267SOL    HW133434   0.347   4.542   0.095 -2.8527 -1.4718 -1.1312
 7267SOL    HW233435   0.261   4.576   0.210  1.0151  0.6600  0.8205
 7268SOL     OW33436   1.111   0.273   6.467 -0.0984 -0.1549  0.5531
 7268SOL    HW133437   1.104   0.288   6.373 -1.7589  0.7452  0.8103
 7268SOL    HW233438   1.169   0.344   6.495 -1.0234  1.5157 -1.7177
 7269SOL     OW33439   0.195   1.326   2.879  0.0721 -0.5941  0.0764
 7269SOL    HW133440   0.126   1.288   2.824 -0.6401 -1.0641  1.2894
 7269SOL    HW233441   0.151   1.335   2.963 -0.3118  2.3479 -0.4420
 7270SOL     OW33442   1.529   0.934   6.218  0.6303  0.2477  0.0688
 7270SOL    HW133443   1.512   0.921   6.124  0.7419 -1.8876  0.3487
 7270SOL    HW233444   1.446   0.926   6.264  0.9864 -3.5023  0.0048
 7271SOL     OW33445   4.240   0.121   9.385  0.2807 -0.3811 -0.4311
 7271SOL    HW133446   4.283   0.040   9.412 -2.9321 -0.8864  3.1192
 7271SOL    HW233447   4.147   0.102   9.397  0.5625 -2.5513 -1.6681
 7272SOL     OW33448   0.730   4.537   8.002  0.0107  0.1915 -0.1955
 7272SOL    HW133449   0.655   4.480   8.015 -1.3050  1.7288 -0.9592
 7272SOL    HW233450   0.796   4.469   8.007 -0.1365  0.0720  0.1478
 7273SOL     OW33451   3.299   1.798   0.253 -0.0190 -0.0076  0.0746
 7273SOL    HW133452   3.324   1.863   0.188 -2.4612 -1.1024 -1.9536
 7273SOL    HW233453   3.205   1.815   0.261  0.4879  1.9856  1.6709
 7274SOL     OW33454   4.497   2.026   4.971 -0.1014  0.2769 -0.3422
 7274SOL    HW133455   4.531   2.003   5.058 -0.4152  0.4039 -0.1854
 7274SOL    HW233456   4.406   2.015   4.998 -0.7371 -1.1979 -3.2004
 7275SOL     OW33457   3.910   3.749   2.528 -0.4345  0.8219 -0.1992
 7275SOL    HW133458   3.965   3.674   2.550  0.7419  1.4309 -1.0582
 7275SOL    HW233459   3.970   3.788   2.465  1.3745 -3.1414 -0.9169
 7276SOL     OW33460   1.257   3.481   5.468 -0.3820  0.1201 -0.7919
 7276SOL    HW133461   1.183   3.541   5.471  0.7517  1.4890 -0.2980
 7276SOL    HW233462   1.220   3.405   5.423 -0.7066 -1.8724  2.8750
 7277SOL     OW33463   2.748   2.034  10.378  0.4789  0.0635 -0.0716
 7277SOL    HW133464   2.699   2.115  10.387  0.7559  0.0841  1.1834
 7277SOL    HW233465   2.739   2.020  10.284  0.2500  2.1271 -0.3470
 7278SOL     OW33466   0.092   2.540   3.998 -0.3578 -0.5529 -0.1024
 7278SOL    HW133467   0.127   2.628   3.992 -0.4301 -0.6130 -1.5036
 7278SOL    HW233468   0.148   2.492   3.937  0.4653 -0.2281  0.4062
 7279SOL     OW33469   2.235   3.661  11.326 -0.0602  0.2782 -0.2334
 7279SOL    HW133470   2.156   3.650  11.379  0.1326 -0.7516 -0.1681
 7279SOL    HW233471   2.292   3.596  11.367  0.8982  0.9998 -0.4203
 7280SOL     OW33472   4.557   4.518   4.291  0.4219 -0.2731  0.2342
 7280SOL    HW133473   4.478   4.505   4.343  0.1360  2.8827  0.5618
 7280SOL    HW233474   4.565   4.613   4.294 -1.1589 -0.2775  4.7552
 7281SOL     OW33475   2.935   4.634   6.291 -0.3480  0.0227  0.5476
 7281SOL    HW133476   2.928   4.569   6.220 -0.3140  0.2985  0.2895
 7281SOL    HW233477   2.976   4.706   6.242  0.2919  0.3194  1.5309
 7282SOL     OW33478   1.665   2.787   9.687 -0.1451 -0.3934  1.1916
 7282SOL    HW133479   1.675   2.707   9.739 -0.3964 -0.2201  1.5077
 7282SOL    HW233480   1.736   2.781   9.624 -0.9829 -1.5522  0.3577
 7283SOL     OW33481   2.345   0.215   3.963  0.8699 -0.1806  0.2043
 7283SOL    HW133482   2.350   0.305   3.996  2.8499 -1.6240  3.8297
 7283SOL    HW233483   2.287   0.177   4.029  1.6478 -2.2561 -0.3057
 7284SOL     OW33484   0.982   4.446  16.470  0.0441 -1.5628  0.0732
 7284SOL    HW133485   0.993   4.382  16.540 -2.6515 -2.5133 -0.3465
 7284SOL    HW233486   1.057   4.422  16.416  0.2290 -0.5125 -0.1353
 7285SOL     OW33487   2.185   1.667   3.520  0.2865 -0.0070  0.2965
 7285SOL    HW133488   2.139   1.635   3.597  0.4648 -2.0961 -0.4447
 7285SOL    HW233489   2.144   1.622   3.446 -3.4684  2.6484  0.7610
 7286SOL     OW33490   3.177   3.057   8.922  0.4730 -0.0486  0.0753
 7286SOL    HW133491   3.170   2.973   8.876  4.6349  0.7690 -2.1019
 7286SOL    HW233492   3.261   3.056   8.967  1.1835  0.7032 -1.2069
 7287SOL     OW33493   4.286   4.532  11.871 -0.9874 -0.1476 -0.3006
 7287SOL    HW133494   4.232   4.462  11.835  0.3604 -0.9276 -0.7974
 7287SOL    HW233495   4.254   4.541  11.960 -0.1892 -1.6962  0.1400
 7288SOL     OW33496   3.990   3.036   0.810  0.6322  0.1840 -0.1349
 7288SOL    HW133497   4.073   3.080   0.830  0.2222  0.8491  0.1244
 7288SOL    HW233498   3.933   3.066   0.881 -0.5807 -1.3732 -0.4787
 7289SOL     OW33499   4.572   2.025   5.232 -0.0611  0.3008  0.3481
 7289SOL    HW133500   4.513   2.059   5.298 -1.1344 -0.5925 -0.1539
 7289SOL    HW233501   4.646   2.084   5.242  1.9789 -1.9781 -1.0298
 7290SOL     OW33502   0.156   1.042  15.156  0.5609  0.6716  0.2814
 7290SOL    HW133503   0.075   0.990  15.160  0.5571  0.5711 -0.9255
 7290SOL    HW233504   0.212   0.987  15.210 -0.0932 -0.8602 -0.5845
 7291SOL     OW33505   0.346   0.023   3.708  0.5720 -0.0074  0.1063
 7291SOL    HW133506   0.252   0.030   3.718  0.3411 -2.9570  0.1552
 7291SOL    HW233507   0.371   0.084   3.777 -1.2743 -0.0081  0.7508
 7292SOL     OW33508   0.123   0.837   9.460 -0.1635  0.3018  0.1213
 7292SOL    HW133509   0.180   0.913   9.474 -2.4448  1.3339  3.8730
 7292SOL    HW233510   0.081   0.828   9.545 -0.4301 -1.0416 -0.1627
 7293SOL     OW33511   1.109   3.697  13.736 -0.0497 -0.3446  0.2016
 7293SOL    HW133512   1.123   3.622  13.678  1.5064  0.0817  0.0138
 7293SOL    HW233513   1.031   3.732  13.694 -0.3562 -0.6474  0.5224
 7294SOL     OW33514   3.782   4.475   0.730 -0.0981  0.0090  0.3178
 7294SOL    HW133515   3.791   4.411   0.659 -2.1427  1.6286 -1.3820
 7294SOL    HW233516   3.707   4.527   0.703 -0.2089 -0.7239 -0.7900
 7295SOL     OW33517   2.566   3.314   0.965 -0.5363  0.3716  0.4633
 7295SOL    HW133518   2.565   3.234   0.912  0.1328  1.5732 -1.3636
 7295SOL    HW233519   2.481   3.307   1.008  0.2377 -1.5664  1.6310
 7296SOL     OW33520   1.026   3.866  11.116 -0.5274  0.3428  0.1791
 7296SOL    HW133521   1.095   3.822  11.166  0.0378  2.2801  1.1025
 7296SOL    HW233522   0.968   3.790  11.110 -1.8237  1.2004  1.9795
 7297SOL     OW33523   4.236   0.506   7.281  0.2585  0.4620 -0.3590
 7297SOL    HW133524   4.191   0.589   7.263 -1.4437 -0.6608 -1.3380
 7297SOL    HW233525   4.196   0.441   7.223  0.3805  0.2565 -0.2122
 7298SOL     OW33526   1.100   2.359   4.214 -0.2440 -0.0391 -0.3647
 7298SOL    HW133527   1.137   2.443   4.241 -0.7248 -0.0583  0.3525
 7298SOL    HW233528   1.165   2.304   4.256  0.1142  0.5772 -0.1116
 7299SOL     OW33529   3.922   0.799   1.301  0.2380  0.1270  0.6533
 7299SOL    HW133530   3.857   0.817   1.234  1.8528 -1.1978 -1.2706
 7299SOL    HW233531   3.984   0.872   1.296 -0.5961  0.8679  1.1139
 7300SOL     OW33532   2.104   1.666   5.494 -0.0305  0.0961 -0.0916
 7300SOL    HW133533   2.129   1.585   5.451 -0.3788 -0.7614  1.3157
 7300SOL    HW233534   2.181   1.696   5.542 -0.1175 -1.0371  0.7591
 7301SOL     OW33535   0.965   1.572  12.254 -0.5015 -0.3312  0.4090
 7301SOL    HW133536   0.956   1.666  12.270  0.5949 -1.0623  5.4607
 7301SOL    HW233537   0.912   1.536  12.326 -0.0159 -3.2465 -0.7076
 7302SOL     OW33538   4.309   0.440   8.718  0.0914 -0.0928  0.3828
 7302SOL    HW133539   4.285   0.401   8.634 -2.2829 -0.7632  1.3531
 7302SOL    HW233540   4.374   0.504   8.690  0.2417 -0.4429 -0.0720
 7303SOL     OW33541   1.606   1.352   1.665  0.7501 -0.7051  0.4730
 7303SOL    HW133542   1.624   1.341   1.572  2.3679 -0.0278  0.7073
 7303SOL    HW233543   1.546   1.426   1.653  0.1965 -1.1253  0.6677
 7304SOL     OW33544   2.599   3.965   7.984  0.2660  0.5813  0.5417
 7304SOL    HW133545   2.567   4.039   7.933 -1.0910 -1.7233 -1.9362
 7304SOL    HW233546   2.562   3.993   8.068 -0.5592 -0.6663  0.5898
 7305SOL     OW33547   4.545   4.677   7.916  0.0712 -0.6590 -0.1864
 7305SOL    HW133548   4.487   0.004   7.871  1.1600  0.5752  0.1291
 7305SOL    HW233549   4.550   4.713   8.004 -0.0134 -1.3176  0.0910
 7306SOL     OW33550   2.495   3.430   5.865 -0.0996 -0.5011  0.7205
 7306SOL    HW133551   2.558   3.358   5.869 -0.6076 -1.0256 -0.6253
 7306SOL    HW233552   2.483   3.466   5.953 -0.7551 -0.0098  0.4325
 7307SOL     OW33553   3.137   4.668  13.152 -0.7450  0.4387 -0.3547
 7307SOL    HW133554   3.075   4.603  13.120 -1.6142  0.2492  1.7381
 7307SOL    HW233555   3.171   4.616  13.225  0.1510  0.2838 -0.8777
 7308SOL     OW33556   2.730   0.811   7.770 -0.3324  0.1180 -0.3068
 7308SOL    HW133557   2.768   0.723   7.768  1.4755  0.8856 -0.2955
 7308SOL    HW233558   2.646   0.785   7.807 -0.3193  1.6369  0.7915
 7309SOL     OW33559   3.330   3.494  10.546 -0.6722 -0.5033  0.0602
 7309SOL    HW133560   3.300   3.584  10.531  2.4857  0.6155  0.3511
 7309SOL    HW233561   3.373   3.507  10.630  0.0927  1.0125 -0.5552
 7310SOL     OW33562   4.111   1.034   2.901  0.0500  0.1513 -0.5354
 7310SOL    HW133563   4.101   1.124   2.871  0.6485  0.2876 -0.3238
 7310SOL    HW233564   4.120   1.045   2.996  1.3596 -0.9125 -0.5311
 7311SOL     OW33565   1.797   2.512   3.177 -0.1976 -0.0414 -0.3831
 7311SOL    HW133566   1.857   2.478   3.244  0.5412 -0.3967 -1.2347
 7311SOL    HW233567   1.800   2.607   3.175  1.0782 -0.0985 -0.8227
 7312SOL     OW33568   1.537   4.409   5.862  0.0272  0.0534  0.0499
 7312SOL    HW133569   1.584   4.489   5.884  0.4362 -1.1269  3.5335
 7312SOL    HW233570   1.606   4.349   5.892 -1.3926 -0.6352  1.9753
 7313SOL     OW33571   2.314   1.813   7.064 -0.7195 -0.3066 -0.0408
 7313SOL    HW133572   2.335   1.846   6.977  1.1045 -1.0129  0.1281
 7313SOL    HW233573   2.220   1.826   7.051 -0.8957 -2.5027 -0.8761
 7314SOL     OW33574   2.944   0.984   8.073 -0.3817 -0.0020  0.0842
 7314SOL    HW133575   3.001   1.060   8.078  1.2540 -1.2699  0.4899
 7314SOL    HW233576   2.988   0.935   8.004 -1.0763  1.4538 -1.3871
 7315SOL     OW33577   1.547   3.254   0.378  0.4494  0.0185  0.1361
 7315SOL    HW133578   1.487   3.201   0.430 -0.3892  1.3324  0.4835
 7315SOL    HW233579   1.632   3.211   0.375  0.6610  0.4814 -0.7102
 7316SOL     OW33580   3.989   0.959  11.198  0.3360  0.4174 -0.8071
 7316SOL    HW133581   3.929   0.918  11.260  0.2300  0.3834 -0.9333
 7316SOL    HW233582   4.010   1.041  11.242 -0.6202  0.1354  0.1797
 7317SOL     OW33583   0.117   2.609   7.587  0.4923 -0.5886  0.2973
 7317SOL    HW133584   0.037   2.640   7.630  0.1130 -1.2349  0.0621
 7317SOL    HW233585   0.130   2.666   7.511  0.8752  1.7151  2.0744
 7318SOL     OW33586   2.220   1.740  14.918  0.4807  0.1326  0.2278
 7318SOL    HW133587   2.274   1.664  14.900 -0.3840 -0.4371  0.0117
 7318SOL    HW233588   2.168   1.720  14.996  1.3242  0.1296  0.7868
 7319SOL     OW33589   2.428   0.478  16.796 -0.3200  0.0167  0.5191
 7319SOL    HW133590   2.351   0.426  16.776 -0.1578  0.6275 -1.6880
 7319SOL    HW233591   2.421   0.555  16.740 -1.5418 -0.7472 -0.3746
 7320SOL     OW33592   1.742   1.036   2.469 -0.2074 -0.1714  0.5513
 7320SOL    HW133593   1.659   1.014   2.511 -0.6861 -0.0395 -0.3498
 7320SOL    HW233594   1.785   1.098   2.528 -3.2039  1.3990  1.0736
 7321SOL     OW33595   2.933   1.413   4.368 -0.2175  0.0536 -0.3122
 7321SOL    HW133596   2.890   1.485   4.414 -1.2862  0.0570 -1.2966
 7321SOL    HW233597   2.985   1.457   4.301 -0.7405 -0.8098 -1.2969
 7322SOL     OW33598   4.667   0.037   6.173  0.0785  0.2915 -0.3913
 7322SOL    HW133599   4.733   4.718   6.130 -2.5410 -2.7018 -0.6653
 7322SOL    HW233600   4.699   0.127   6.166 -0.0755  0.4933  1.6623
 7323SOL     OW33601   2.399   3.732   3.461  0.2808  0.1169  0.1289
 7323SOL    HW133602   2.483   3.763   3.426 -0.4411 -1.0860 -2.7050
 7323SOL    HW233603   2.369   3.814   3.498  2.3411  0.3275  1.3377
 7324SOL     OW33604   1.801   3.109  13.157 -0.1233  0.7047  0.1731
 7324SOL    HW133605   1.780   3.016  13.164 -0.3523  0.6689 -1.1608
 7324SOL    HW233606   1.896   3.119  13.146 -0.2530  1.7837  0.0868
 7325SOL     OW33607   2.779   2.715   4.052  0.0996 -0.1819 -0.1319
 7325SOL    HW133608   2.816   2.782   4.109 -0.5976 -0.6108  0.8302
 7325SOL    HW233609   2.852   2.656   4.034  1.9378  1.5850  1.5741
 7326SOL     OW33610   3.406   0.939   3.274 -0.5624  0.1071 -0.1451
 7326SOL    HW133611   3.487   0.951   3.324 -1.8411  0.4206  1.8173
 7326SOL    HW233612   3.421   0.856   3.228  2.6012  1.0993 -0.8980
 7327SOL     OW33613   0.764   3.197   8.982  0.1507 -0.3574 -0.3552
 7327SOL    HW133614   0.824   3.180   8.909  0.0896 -1.1984 -0.2100
 7327SOL    HW233615   0.813   3.268   9.023 -0.0508 -1.7823  2.3695
 7328SOL     OW33616   0.049   0.294   6.189 -0.1699  0.3207  0.5042
 7328SOL    HW133617   0.119   0.236   6.220 -0.4808 -0.4376 -0.2158
 7328SOL    HW233618   0.097   0.346   6.125  1.5740 -0.6498  1.0229
 7329SOL     OW33619   3.190   3.699  10.124 -0.2791 -0.9802  0.1182
 7329SOL    HW133620   3.239   3.771  10.083 -1.9475  1.0780  1.7963
 7329SOL    HW233621   3.248   3.625  10.104  1.5010  1.2331 -3.0806
 7330SOL     OW33622   2.258   0.754   6.000 -0.2377  0.3869  0.2926
 7330SOL    HW133623   2.187   0.736   5.939 -0.0748  0.9451 -0.0659
 7330SOL    HW233624   2.337   0.765   5.947 -1.1867 -3.1379 -1.8425
 7331SOL     OW33625   1.848   0.669   6.983  0.4569  0.1878 -0.0103
 7331SOL    HW133626   1.852   0.621   7.065 -0.6103 -0.4741 -0.3509
 7331SOL    HW233627   1.937   0.660   6.948  0.0371  0.9292 -1.2672
 7332SOL     OW33628   0.208   3.943   2.795 -0.1700  0.7868  0.3803
 7332SOL    HW133629   0.249   3.873   2.744 -2.6922 -0.6454  0.3271
 7332SOL    HW233630   0.158   3.886   2.853 -1.3625  0.4184 -1.0093
 7333SOL     OW33631   0.286   0.900   8.053 -0.3034 -0.6746 -0.6004
 7333SOL    HW133632   0.250   0.854   8.129 -1.1914  1.9749  0.5879
 7333SOL    HW233633   0.302   0.828   7.993 -1.3847 -1.9285  0.6241
 7334SOL     OW33634   2.539   1.221   8.172 -0.1737  0.6257  0.2804
 7334SOL    HW133635   2.447   1.248   8.174  0.5394  3.1576  0.0154
 7334SOL    HW233636   2.554   1.215   8.266  0.9852 -0.9016 -0.0142
 7335SOL     OW33637   2.671   0.579   6.565 -0.3635 -0.2940  0.2088
 7335SOL    HW133638   2.695   0.616   6.650  2.3117 -2.1026  0.2675
 7335SOL    HW233639   2.721   0.497   6.561  3.1445  1.7790  0.8453
 7336SOL     OW33640   0.974   2.961   8.154  0.6915 -0.2622  0.2001
 7336SOL    HW133641   1.063   2.953   8.187  0.1601  1.0061  1.9772
 7336SOL    HW233642   0.948   3.045   8.192 -1.7061 -0.4815 -0.9686
 7337SOL     OW33643   1.443   2.513   2.406  0.0488 -0.4413 -0.4736
 7337SOL    HW133644   1.455   2.579   2.473  0.3291 -0.6772 -0.2908
 7337SOL    HW233645   1.383   2.453   2.450  0.6364  2.8764  4.7254
 7338SOL     OW33646   1.250   3.546   9.552 -0.2935 -0.3828 -0.0292
 7338SOL    HW133647   1.243   3.453   9.571  1.5124 -0.9900 -2.3693
 7338SOL    HW233648   1.201   3.577   9.629  1.4988  1.9187  0.1792
 7339SOL     OW33649   1.862   3.150   6.271  0.5153 -0.1144 -0.2694
 7339SOL    HW133650   1.824   3.115   6.190 -4.6285 -0.6618  2.3620
 7339SOL    HW233651   1.952   3.126   6.249  1.0339  0.8245  0.8901
 7340SOL     OW33652   0.314   2.494   3.343 -0.6324  0.3966  0.0325
 7340SOL    HW133653   0.269   2.410   3.328  0.5377 -0.1244 -0.5203
 7340SOL    HW233654   0.320   2.529   3.254 -1.8931  2.0454  0.5923
 7341SOL     OW33655   1.065   4.050  17.647 -0.5911 -0.1214 -0.2367
 7341SOL    HW133656   1.135   3.985  17.636  0.4636  0.7351  1.2644
 7341SOL    HW233657   1.108   4.122  17.693 -0.3584 -0.1593 -0.3946
 7342SOL     OW33658   4.697   1.229   2.736 -0.2063 -0.1185 -1.0170
 7342SOL    HW133659   4.647   1.310   2.747  1.8851  0.8711  1.1224
 7342SOL    HW233660   4.622   1.179   2.705 -0.2207 -0.4705 -0.4127
 7343SOL     OW33661   0.406   3.913   7.118  0.1548  0.4818  0.0627
 7343SOL    HW133662   0.398   3.833   7.170 -0.5274  1.0663  0.8516
 7343SOL    HW233663   0.354   3.980   7.162 -0.3282 -0.1798  0.5222
 7344SOL     OW33664   3.370   4.033   6.453 -0.0225 -0.0707  0.3112
 7344SOL    HW133665   3.402   3.959   6.505  0.5477 -1.4603 -2.0310
 7344SOL    HW233666   3.451   4.081   6.439 -0.5590  1.1063  1.2562
 7345SOL     OW33667   2.484   1.091   5.939 -0.0377 -0.0513 -0.3609
 7345SOL    HW133668   2.547   1.020   5.940  1.5289  1.3528  1.1250
 7345SOL    HW233669   2.452   1.098   6.029 -1.0482  0.7218 -0.7778
 7346SOL     OW33670   3.582   1.447   1.401 -0.8189  0.1780 -0.6043
 7346SOL    HW133671   3.530   1.480   1.327  0.5225  2.6662 -0.4130
 7346SOL    HW233672   3.659   1.414   1.355 -0.6951 -0.7975  0.3127
 7347SOL     OW33673   2.918   1.116  17.704 -0.3380  0.7188  0.5589
 7347SOL    HW133674   2.928   1.063   0.046  0.0336  0.6857  0.4877
 7347SOL    HW233675   3.008   1.147  17.698 -0.3316  0.7176  0.6519
 7348SOL     OW33676   1.992   0.947  11.117 -0.3422  0.1780 -0.2952
 7348SOL    HW133677   1.923   0.892  11.079  0.5620 -1.4029  0.3538
 7348SOL    HW233678   2.000   1.023  11.058 -2.2017 -0.0139 -0.8178
 7349SOL     OW33679   0.366   4.413   5.876 -0.3794  0.7968  0.0971
 7349SOL    HW133680   0.422   4.409   5.798  0.0970  0.3035  0.4677
 7349SOL    HW233681   0.277   4.409   5.840 -0.1730 -0.3323 -0.2861
 7350SOL     OW33682   1.299   2.233   1.600 -0.1688  0.0525 -0.8073
 7350SOL    HW133683   1.238   2.290   1.646  0.0234 -1.2988  1.1605
 7350SOL    HW233684   1.375   2.291   1.601 -1.1247  1.3065 -1.9633
 7351SOL     OW33685   3.952   4.565   9.224 -0.0776  0.2700 -0.3173
 7351SOL    HW133686   4.027   4.548   9.281  0.1995 -1.8592 -1.3027
 7351SOL    HW233687   3.914   4.635   9.277  2.2138  0.6436  0.8452
 7352SOL     OW33688   4.527   0.728   0.270 -0.3503  0.2029  0.7294
 7352SOL    HW133689   4.597   0.672   0.302  0.4962  1.7558  1.6021
 7352SOL    HW233690   4.483   0.747   0.353  0.2703  0.2347  1.0492
 7353SOL     OW33691   4.695   1.044  17.501 -0.2252 -0.2602  0.5970
 7353SOL    HW133692   4.699   1.118  17.441  0.7062 -1.0103 -0.2699
 7353SOL    HW233693   4.601   1.026  17.512 -0.1909  0.0680  1.4094
 7354SOL     OW33694   2.545   4.172   0.063 -0.3234  0.5770 -0.2469
 7354SOL    HW133695   2.609   4.199   0.128 -0.8826  1.7137 -0.1791
 7354SOL    HW233696   2.478   4.125   0.114  0.6849 -0.9273 -0.2979
 7355SOL     OW33697   0.583   3.146   2.665  0.7379 -0.0837 -0.0939
 7355SOL    HW133698   0.582   3.240   2.685 -0.1841 -0.0036 -0.5394
 7355SOL    HW233699   0.500   3.118   2.704  0.7785  0.8933  0.7189
 7356SOL     OW33700   3.348   2.679   9.021  0.1792  0.5313 -0.0750
 7356SOL    HW133701   3.378   2.764   9.055  2.5550 -0.2121 -0.3136
 7356SOL    HW233702   3.299   2.709   8.945  1.6102  0.8001 -0.8947
 7357SOL     OW33703   3.536   2.269  16.997 -0.7316  0.1364  0.2388
 7357SOL    HW133704   3.554   2.293  16.906  0.3417 -0.7642  0.2086
 7357SOL    HW233705   3.512   2.354  17.033 -0.1063  0.9511 -1.2625
 7358SOL     OW33706   0.296   4.322   2.139  0.3956 -0.5319 -0.1580
 7358SOL    HW133707   0.294   4.259   2.211  0.0742  0.0964  0.3849
 7358SOL    HW233708   0.320   4.403   2.185 -0.5887 -1.0174  1.1867
 7359SOL     OW33709   1.494   3.638   7.305 -0.6046 -0.2570 -0.4507
 7359SOL    HW133710   1.491   3.720   7.257  1.5805  0.1543  0.1268
 7359SOL    HW233711   1.439   3.584   7.248 -1.9570  0.6380  0.0073
 7360SOL     OW33712   0.632   0.255  17.664 -0.3324 -0.6703 -0.3542
 7360SOL    HW133713   0.660   0.257   0.018 -1.2645  2.5708 -0.1459
 7360SOL    HW233714   0.613   0.162  17.651 -2.1304 -0.5273  1.3523
 7361SOL     OW33715   0.225   3.351   9.567 -0.0631 -0.0543 -0.1472
 7361SOL    HW133716   0.142   3.337   9.523 -0.9312  0.5144  1.2989
 7361SOL    HW233717   0.289   3.381   9.503  1.2484  0.4543  1.3712
 7362SOL     OW33718   4.658   2.510  11.182  0.6708 -0.4630  0.1103
 7362SOL    HW133719   0.016   2.524  11.200  0.7635 -2.9456  1.5456
 7362SOL    HW233720   4.662   2.417  11.204 -1.7746 -0.5585  0.1637
 7363SOL     OW33721   3.966   0.885   6.640  0.0260 -0.2606 -0.2859
 7363SOL    HW133722   4.014   0.803   6.636  0.0698 -0.2588  0.1467
 7363SOL    HW233723   3.961   0.918   6.550 -1.3589  0.3249  0.0058
 7364SOL     OW33724   2.268   0.557   4.725  0.1437  0.0955  0.4209
 7364SOL    HW133725   2.278   0.464   4.708  0.3290  0.1217  0.3832
 7364SOL    HW233726   2.339   0.584   4.666 -0.8572  1.4063 -0.1693
 7365SOL     OW33727   2.652   4.085  13.237 -0.1558 -0.0745  0.1444
 7365SOL    HW133728   2.559   4.067  13.227  0.0302 -1.0034  0.1500
 7365SOL    HW233729   2.667   4.007  13.185  0.6887  0.1055  0.1163
 7366SOL     OW33730   3.884   0.677  16.162 -0.2593 -0.0619 -0.2154
 7366SOL    HW133731   3.844   0.668  16.248  0.9970  1.7442  0.5443
 7366SOL    HW233732   3.964   0.629  16.185 -0.4211 -0.1252  0.2066
 7367SOL     OW33733   1.055   2.609   5.229 -0.0134 -0.7864 -0.3735
 7367SOL    HW133734   0.981   2.634   5.173 -0.0063 -0.0348 -0.0472
 7367SOL    HW233735   1.115   2.682   5.216  0.4719 -0.8651  1.4004
 7368SOL     OW33736   3.127   2.563   4.557  0.4733  0.1365  0.3516
 7368SOL    HW133737   3.179   2.599   4.485  1.3367 -1.3208  0.2451
 7368SOL    HW233738   3.045   2.573   4.509  1.3862 -0.3817 -1.3365
 7369SOL     OW33739   2.568   3.700  11.323 -0.2731 -0.0177 -0.1357
 7369SOL    HW133740   2.531   3.613  11.340  2.9224 -1.4856 -0.4875
 7369SOL    HW233741   2.612   3.704  11.409 -0.7346  3.2496 -0.0793
 7370SOL     OW33742   0.619   2.108   2.290 -0.4924  0.4145  0.2372
 7370SOL    HW133743   0.540   2.061   2.264  0.0670 -0.7690  0.6866
 7370SOL    HW233744   0.571   2.175   2.339  0.9939  2.5802 -1.2726
 7371SOL     OW33745   3.985   1.236   0.145  0.1731  0.2238  0.1532
 7371SOL    HW133746   3.936   1.179   0.085  1.3441  0.2706 -0.8421
 7371SOL    HW233747   3.982   1.176   0.220 -0.2422 -0.0853 -0.1057
 7372SOL     OW33748   3.361   3.631   5.962  0.7854 -0.0711  0.0059
 7372SOL    HW133749   3.433   3.571   5.980  0.6923 -0.0582  0.4183
 7372SOL    HW233750   3.400   3.718   5.964 -0.3350  0.4589 -0.7666
 7373SOL     OW33751   3.526   2.806   7.970  0.0492 -0.6517 -0.2550
 7373SOL    HW133752   3.513   2.819   7.876  0.9917 -3.8996 -0.8320
 7373SOL    HW233753   3.605   2.858   7.985  0.8032 -2.4978  2.0567
 7374SOL     OW33754   1.766   2.779   8.887  0.1004 -0.4046 -0.2698
 7374SOL    HW133755   1.722   2.847   8.836  1.1634  0.9663  0.6495
 7374SOL    HW233756   1.713   2.703   8.864  0.7636 -0.6602 -0.9409
 7375SOL     OW33757   0.413   0.775   2.829  0.4344 -0.0972 -0.4088
 7375SOL    HW133758   0.330   0.762   2.875 -0.2389  0.8967 -1.3430
 7375SOL    HW233759   0.380   0.834   2.762 -2.1429 -2.0073 -0.8255
 7376SOL     OW33760   2.514   0.762   8.886  0.2479 -0.6359 -0.4267
 7376SOL    HW133761   2.466   0.749   8.805 -1.6728  1.6834  0.3183
 7376SOL    HW233762   2.580   0.693   8.887 -1.0981 -1.9133  0.3055
 7377SOL     OW33763   2.785   2.273   7.612 -0.1036  0.0718  0.2515
 7377SOL    HW133764   2.844   2.299   7.683 -2.7345 -0.3379  2.6006
 7377SOL    HW233765   2.774   2.183   7.644  4.0646 -0.9281 -1.1181
 7378SOL     OW33766   4.191   1.971  15.997 -0.2144 -0.5875 -0.6386
 7378SOL    HW133767   4.208   1.880  15.974 -0.0366 -0.4986 -0.8595
 7378SOL    HW233768   4.198   2.010  15.910  0.5298 -1.0092 -0.7653
 7379SOL     OW33769   0.497   3.957   2.574 -0.0401  0.0571 -0.2381
 7379SOL    HW133770   0.541   3.966   2.658  0.0909  0.8318 -0.3837
 7379SOL    HW233771   0.556   4.011   2.520  1.6159 -0.8514  0.6493
 7380SOL     OW33772   0.426   4.309   8.896 -0.0120  0.4695  0.0367
 7380SOL    HW133773   0.429   4.383   8.835 -2.1486  1.9725  1.7637
 7380SOL    HW233774   0.470   4.243   8.842 -1.7572  0.5326 -1.4944
 7381SOL     OW33775   0.290   2.326  11.280  0.3350  0.0618 -0.6042
 7381SOL    HW133776   0.270   2.303  11.189  0.8730  2.7434 -1.3932
 7381SOL    HW233777   0.270   2.419  11.269 -0.1875  0.0188 -0.0091
 7382SOL     OW33778   4.099   3.548   2.552  0.1383 -0.5614  0.2755
 7382SOL    HW133779   4.138   3.506   2.628  2.2403 -1.0837 -1.0939
 7382SOL    HW233780   4.123   3.497   2.475  0.7926 -0.5022  0.4468
 7383SOL     OW33781   3.727   2.520  12.658 -0.3714  0.0798 -0.5640
 7383SOL    HW133782   3.698   2.465  12.731 -1.2402 -0.3751 -1.2452
 7383SOL    HW233783   3.651   2.535  12.601 -1.1120 -1.7523 -0.0638
 7384SOL     OW33784   4.033   0.303   3.671  0.6250 -0.0604 -0.3011
 7384SOL    HW133785   4.030   0.361   3.747  1.2660 -0.7154  0.2309
 7384SOL    HW233786   4.027   0.218   3.715  2.7311 -0.4228 -0.6706
 7385SOL     OW33787   4.319   2.713   6.225  0.5727  0.4010  0.1094
 7385SOL    HW133788   4.327   2.632   6.174  1.1673 -0.0749  0.9535
 7385SOL    HW233789   4.355   2.689   6.311 -2.4536 -0.8960  1.0501
 7386SOL     OW33790   1.876   2.317   7.428  0.4934 -0.4285  0.3795
 7386SOL    HW133791   1.862   2.224   7.408 -1.0312 -0.4590  1.5829
 7386SOL    HW233792   1.871   2.317   7.524 -1.4011  1.2572  0.2757
 7387SOL     OW33793   1.541   1.128   3.604  0.2566  0.3099  0.3079
 7387SOL    HW133794   1.503   1.044   3.579  0.4862  0.1281  0.5743
 7387SOL    HW233795   1.611   1.130   3.539  1.2073 -0.2220  1.3143
 7388SOL     OW33796   0.728   2.007   7.527  0.0161 -0.5242 -0.7541
 7388SOL    HW133797   0.773   2.075   7.477 -1.4839 -0.8551 -2.5392
 7388SOL    HW233798   0.721   1.940   7.459 -0.4704 -1.4045  0.1679
 7389SOL     OW33799   0.308   2.206  13.881 -1.1817  0.2448 -0.0932
 7389SOL    HW133800   0.320   2.240  13.969 -1.1488 -1.8530  0.7307
 7389SOL    HW233801   0.380   2.240  13.827  0.8805 -2.3018  1.0442
 7390SOL     OW33802   2.056   3.281   2.600  0.2099 -0.0927  0.5182
 7390SOL    HW133803   2.113   3.212   2.563 -1.2888 -0.5201 -0.9950
 7390SOL    HW233804   1.986   3.281   2.535 -0.7622 -0.1427  1.5792
 7391SOL     OW33805   1.944   2.147   2.425 -0.3501 -0.3935  0.5930
 7391SOL    HW133806   2.003   2.110   2.491  0.1685 -0.1501  0.2645
 7391SOL    HW233807   1.996   2.185   2.355 -0.3914 -1.4841 -0.0301
 7392SOL     OW33808   0.333   1.051   5.726 -0.1310 -0.6130  0.1156
 7392SOL    HW133809   0.392   1.109   5.678 -1.0037 -0.2673 -0.5491
 7392SOL    HW233810   0.357   0.969   5.682  1.1419 -0.1510 -0.0493
 7393SOL     OW33811   2.386   4.257  17.595  0.4023 -0.1683 -0.0805
 7393SOL    HW133812   2.339   4.176  17.614  2.5086 -1.0071  1.5491
 7393SOL    HW233813   2.455   4.256  17.662 -0.9896  0.5082  1.3876
 7394SOL     OW33814   2.348   2.504   0.657  0.4405 -0.0125 -0.2089
 7394SOL    HW133815   2.378   2.541   0.740 -1.4742 -2.4182  1.5369
 7394SOL    HW233816   2.431   2.473   0.619 -0.1857 -2.5647  0.5207
 7395SOL     OW33817   2.034   2.230  12.048 -0.4895 -0.2458 -0.2616
 7395SOL    HW133818   1.974   2.304  12.047  0.9980  0.9882  0.7394
 7395SOL    HW233819   2.041   2.223  11.953  1.9575 -0.0096 -0.1162
 7396SOL     OW33820   1.475   4.679   5.454  0.1671  0.1682 -0.3272
 7396SOL    HW133821   1.496   4.587   5.471  1.8988  0.5606 -0.2976
 7396SOL    HW233822   1.498   4.724   5.536 -0.0085  0.1310 -0.2580
 7397SOL     OW33823   1.834   3.337   3.327 -0.1082  0.2479  0.3601
 7397SOL    HW133824   1.769   3.266   3.327 -0.5318  0.6534 -4.3924
 7397SOL    HW233825   1.776   3.412   3.341  0.1627  0.7978 -1.5565
 7398SOL     OW33826   0.295   2.743   5.153  0.3211 -0.1088  0.3488
 7398SOL    HW133827   0.326   2.791   5.230 -0.5725 -2.4113  2.1261
 7398SOL    HW233828   0.241   2.809   5.110 -0.6799 -0.8048  0.5380
 7399SOL     OW33829   1.379   1.369   8.979  0.2924  0.4519 -0.0483
 7399SOL    HW133830   1.342   1.406   9.058  1.9332  0.1590  0.8670
 7399SOL    HW233831   1.301   1.330   8.939 -0.2685  2.0344 -0.4843
 7400SOL     OW33832   1.703   2.293   3.010 -0.5036 -0.1837  0.0516
 7400SOL    HW133833   1.792   2.279   2.977 -0.0492  0.3948  1.0542
 7400SOL    HW233834   1.723   2.363   3.072  1.9699 -0.1128 -0.8260
 7401SOL     OW33835   2.740   2.015   7.618 -0.6041  0.5531  0.0925
 7401SOL    HW133836   2.800   1.956   7.664  0.3605  1.4948  0.0559
 7401SOL    HW233837   2.657   1.969   7.614 -0.7297  0.7758  0.1424
 7402SOL     OW33838   4.597   0.856   3.031  0.0372  0.6261  0.3349
 7402SOL    HW133839   4.531   0.905   3.080 -0.3314  0.2028  0.2551
 7402SOL    HW233840   4.554   0.843   2.947 -0.4052 -1.2691  0.8537
 7403SOL     OW33841   2.503   2.983   6.263  0.0857  0.5194  0.4478
 7403SOL    HW133842   2.475   3.070   6.235 -0.5802  0.3040  0.4670
 7403SOL    HW233843   2.424   2.930   6.261  0.2302  0.3126  0.2580
 7404SOL     OW33844   0.372   3.816   3.722  0.2011 -0.3008  0.0896
 7404SOL    HW133845   0.376   3.868   3.642 -1.7890  0.3663  0.4388
 7404SOL    HW233846   0.330   3.740   3.681  1.1966 -0.2942 -0.9609
 7405SOL     OW33847   1.432   2.297   8.249  0.3646 -0.2376 -0.0439
 7405SOL    HW133848   1.491   2.260   8.316  1.4640 -0.4840 -1.1390
 7405SOL    HW233849   1.442   2.391   8.259  0.2958 -0.5076  2.4831
 7406SOL     OW33850   3.308   1.111   7.741 -0.0948  0.3119  0.6000
 7406SOL    HW133851   3.382   1.147   7.792  1.6554 -0.0558 -1.7029
 7406SOL    HW233852   3.261   1.194   7.728  0.4459  0.4581 -0.4150
 7407SOL     OW33853   0.258   2.394   6.069  0.4288 -0.0088  0.0402
 7407SOL    HW133854   0.259   2.458   6.141 -0.1251 -1.4747  1.3619
 7407SOL    HW233855   0.163   2.382   6.069  0.3967  0.2401 -0.2304
 7408SOL     OW33856   4.539   3.167   3.118  0.0313  0.6410 -0.3088
 7408SOL    HW133857   4.586   3.128   3.192 -1.7394 -3.5094 -1.3658
 7408SOL    HW233858   4.491   3.238   3.162 -0.8589 -0.2088  0.0928
 7409SOL     OW33859   4.307   0.432   9.412  0.3152 -0.2553 -0.0459
 7409SOL    HW133860   4.217   0.410   9.388  0.3681 -0.1999 -0.2961
 7409SOL    HW233861   4.349   0.347   9.408  4.9331  2.1183 -1.6272
 7410SOL     OW33862   3.752   0.281   1.479 -0.2429  0.4500  0.1203
 7410SOL    HW133863   3.698   0.360   1.489 -1.1488 -0.0007 -1.2182
 7410SOL    HW233864   3.696   0.210   1.508 -2.5532  2.4709  0.6370
 7411SOL     OW33865   2.521   1.647   7.119  0.5926  0.2594  0.1886
 7411SOL    HW133866   2.442   1.701   7.118  0.9285  0.7371 -1.2061
 7411SOL    HW233867   2.487   1.565   7.154  1.1513  0.0328  0.2009
 7412SOL     OW33868   0.311   3.669   1.852 -0.4658  0.2505  0.3355
 7412SOL    HW133869   0.305   3.763   1.870  0.9987  0.0629  1.9006
 7412SOL    HW233870   0.351   3.668   1.765  0.9106 -0.4031  0.9785
 7413SOL     OW33871   4.470   0.809   3.576  0.3328 -0.1779  0.4363
 7413SOL    HW133872   4.539   0.749   3.606 -0.5253 -1.7486 -0.7294
 7413SOL    HW233873   4.476   0.801   3.480  0.1471 -3.6344  0.6947
 7414SOL     OW33874   2.368   2.657   7.878 -0.1252  0.1164 -0.4041
 7414SOL    HW133875   2.457   2.623   7.878 -0.0098  0.3970  1.4612
 7414SOL    HW233876   2.339   2.610   7.957 -1.4200  2.4832  0.5515
 7415SOL     OW33877   0.591   3.636   6.407 -0.1291 -0.7649  0.2483
 7415SOL    HW133878   0.646   3.643   6.329  0.1863 -0.3082  0.5078
 7415SOL    HW233879   0.508   3.634   6.360  0.6603 -0.0450 -1.1612
 7416SOL     OW33880   2.835   0.163  15.780  0.1154 -0.0159 -0.0324
 7416SOL    HW133881   2.841   0.068  15.794  2.1453  0.4625  2.3237
 7416SOL    HW233882   2.829   0.167  15.684 -0.0146  1.1704  0.0312
 7417SOL     OW33883   1.771   2.013  17.642 -0.3071 -0.5275  0.3696
 7417SOL    HW133884   1.766   1.922  17.612  0.8877 -0.6221  0.4529
 7417SOL    HW233885   1.734   1.998  17.729 -0.8263  3.0436  0.7411
 7418SOL     OW33886   1.697   4.655   3.081  0.1474 -0.1147  0.5752
 7418SOL    HW133887   1.639   4.647   3.156  0.2268  0.0221  0.6502
 7418SOL    HW233888   1.672   4.590   3.015  0.3456 -1.3205  1.6886
 7419SOL     OW33889   3.234   0.586  12.828 -0.2977  0.2296 -0.1596
 7419SOL    HW133890   3.283   0.582  12.746  1.7075 -1.5910  1.1211
 7419SOL    HW233891   3.229   0.494  12.856  1.3409 -0.0431 -0.7513
 7420SOL     OW33892   4.146   1.465  16.633  0.0243  0.3461  0.0277
 7420SOL    HW133893   4.172   1.402  16.700 -1.9205  1.4410  1.7989
 7420SOL    HW233894   4.188   1.427  16.556  1.7275  2.5174 -0.1172
 7421SOL     OW33895   0.034   4.343   2.870 -0.1936 -0.3784  0.2679
 7421SOL    HW133896   0.105   4.296   2.913 -0.6234  1.0312  2.5776
 7421SOL    HW233897   4.727   4.262   2.840 -0.1972 -1.2531  2.6308
 7422SOL     OW33898   4.507   2.715  11.280 -0.4755 -0.1828 -0.0440
 7422SOL    HW133899   4.539   2.651  11.217 -0.4055 -0.3818  0.1962
 7422SOL    HW233900   4.453   2.759  11.214  1.7255  1.6807 -0.6161
 7423SOL     OW33901   2.016   1.746   2.403 -0.0370  0.0915  0.0804
 7423SOL    HW133902   1.955   1.808   2.443 -1.7537 -2.0146  0.7085
 7423SOL    HW233903   2.090   1.806   2.415  0.0172 -0.1980  1.1761
 7424SOL     OW33904   1.496   3.313   2.564 -0.5907 -0.3359 -0.1397
 7424SOL    HW133905   1.441   3.333   2.640 -0.6265  0.6832 -0.4342
 7424SOL    HW233906   1.439   3.255   2.514 -0.4810  0.1107 -0.7786
 7425SOL     OW33907   2.229   2.895   7.950  0.2368  0.2124  0.5093
 7425SOL    HW133908   2.265   2.814   7.914  0.0801  0.5130 -0.3328
 7425SOL    HW233909   2.307   2.948   7.966  1.0945 -0.9305  0.0837
 7426SOL     OW33910   0.979   0.005   3.181  0.0105  0.1087  0.2750
 7426SOL    HW133911   0.895   0.027   3.221 -0.3796 -0.1380 -0.4144
 7426SOL    HW233912   0.947   4.688   3.107 -0.3278  1.1489 -0.2953
 7427SOL     OW33913   3.959   1.313   2.083  0.5001 -0.0830 -0.1447
 7427SOL    HW133914   3.972   1.397   2.041  0.2517  0.3449  0.6331
 7427SOL    HW233915   3.950   1.341   2.174  1.7711 -1.2381  0.3418
 7428SOL     OW33916   0.445   2.740  15.611  0.0796  0.1919  0.5652
 7428SOL    HW133917   0.359   2.778  15.592 -0.2565  0.9444  3.6316
 7428SOL    HW233918   0.467   2.762  15.702 -0.4428  1.3809  0.3938
 7429SOL     OW33919   2.223   3.515   4.086 -0.7416  0.1347 -0.4388
 7429SOL    HW133920   2.145   3.466   4.111  1.2020 -1.8483  1.7307
 7429SOL    HW233921   2.241   3.481   3.998  1.0240 -0.4435  0.1473
 7430SOL     OW33922   1.530   0.352   2.902 -0.4405  0.8536  0.0235
 7430SOL    HW133923   1.591   0.308   2.842 -2.8764 -0.5606 -1.4043
 7430SOL    HW233924   1.559   0.324   2.989 -0.1619 -0.6355 -0.5506
 7431SOL     OW33925   1.600   3.310   3.881  0.4100 -0.0593 -0.4991
 7431SOL    HW133926   1.564   3.224   3.856  2.9544 -0.5620 -2.4508
 7431SOL    HW233927   1.606   3.300   3.976 -0.1934 -2.1501 -0.6737
 7432SOL     OW33928   3.428   0.809  17.363 -0.4339 -0.6086  0.5212
 7432SOL    HW133929   3.341   0.782  17.333 -1.4264  1.6579  1.3669
 7432SOL    HW233930   3.414   0.829  17.455 -3.6791  1.0895 -0.3446
 7433SOL     OW33931   2.454   1.295   9.608  0.4304 -0.0396 -0.0485
 7433SOL    HW133932   2.470   1.310   9.515  0.2608  0.6582  0.0336
 7433SOL    HW233933   2.383   1.230   9.611  1.7481 -1.3543  2.6503
 7434SOL     OW33934   3.744   1.191  10.497 -0.3783  0.1810  0.7934
 7434SOL    HW133935   3.831   1.222  10.522  0.7307 -1.6873 -0.8125
 7434SOL    HW233936   3.723   1.156  10.584 -0.1550  1.3787  1.3351
 7435SOL     OW33937   1.187   3.872   8.270  0.2570  0.2944 -0.0756
 7435SOL    HW133938   1.204   3.906   8.358 -0.9577  1.0281 -0.1317
 7435SOL    HW233939   1.257   3.908   8.215  2.3564  1.1804  3.1991
 7436SOL     OW33940   0.798   1.132  14.902 -0.1306 -0.3239  0.2322
 7436SOL    HW133941   0.789   1.074  14.825  1.1484 -0.0880 -0.0907
 7436SOL    HW233942   0.706   1.122  14.928 -0.0197  0.9026  1.0539
 7437SOL     OW33943   0.458   1.284   4.274  0.0918 -0.1633 -0.1035
 7437SOL    HW133944   0.442   1.368   4.316 -0.3490 -0.3504  0.0999
 7437SOL    HW233945   0.368   1.253   4.274  0.4774 -1.2832 -1.7130
 7438SOL     OW33946   3.216   2.704   7.428  0.4299 -0.1471 -0.1321
 7438SOL    HW133947   3.235   2.707   7.334  0.0321 -0.4089 -0.2203
 7438SOL    HW233948   3.196   2.795   7.446  0.8958  0.0809 -0.7666
 7439SOL     OW33949   2.445   3.437   0.165 -0.1264  0.1944  0.1821
 7439SOL    HW133950   2.524   3.403   0.122  0.8942  1.9181  0.7121
 7439SOL    HW233951   2.444   3.384   0.244  3.1449  1.8093  1.3320
 7440SOL     OW33952   0.960   1.515   5.845 -0.1777 -0.1118  0.0217
 7440SOL    HW133953   1.042   1.556   5.874  0.1626 -0.0089 -1.0786
 7440SOL    HW233954   0.892   1.575   5.876  0.1089  0.1470  0.1553
 7441SOL     OW33955   0.723   2.769   5.499  0.4361 -0.4641 -0.5371
 7441SOL    HW133956   0.702   2.779   5.592 -1.5194 -2.4973 -0.7674
 7441SOL    HW233957   0.785   2.697   5.503  1.7903  0.7175 -0.0708
 7442SOL     OW33958   0.686   0.234   5.123 -0.0373  0.1673  0.1411
 7442SOL    HW133959   0.725   0.281   5.197  0.7527  2.0466 -1.4782
 7442SOL    HW233960   0.592   0.235   5.142 -0.1549  1.6441 -0.5054
 7443SOL     OW33961   1.423   3.819   5.253 -0.4471 -0.1536 -0.2932
 7443SOL    HW133962   1.425   3.784   5.342 -0.6816  0.7864  0.0830
 7443SOL    HW233963   1.440   3.911   5.274 -1.5148 -0.5980  2.4890
 7444SOL     OW33964   3.115   4.575   8.778  0.1645  0.3880  0.0573
 7444SOL    HW133965   3.114   4.550   8.870 -0.0244 -2.7256 -0.8027
 7444SOL    HW233966   3.083   4.664   8.794  0.9565  0.4687  1.1981
 7445SOL     OW33967   0.249   0.948   4.641 -0.7545  0.0359 -0.5370
 7445SOL    HW133968   0.225   0.988   4.558  1.4387 -0.4628 -1.4146
 7445SOL    HW233969   0.204   0.864   4.643  1.6722 -1.2599 -0.5744
 7446SOL     OW33970   2.370   1.151   7.858  0.3728  0.2204 -0.5292
 7446SOL    HW133971   2.416   1.191   7.784  0.6399 -1.0081 -1.0375
 7446SOL    HW233972   2.298   1.213   7.872 -0.3541 -0.4104 -1.4034
 7447SOL     OW33973   2.384   2.888   5.327 -0.1607  0.5703  0.2433
 7447SOL    HW133974   2.456   2.930   5.281  0.2355  0.5805  0.8807
 7447SOL    HW233975   2.322   2.961   5.329 -1.4422 -0.5453  1.5988
 7448SOL     OW33976   3.053   0.551   8.502  0.0036 -0.0053 -0.1110
 7448SOL    HW133977   3.109   0.509   8.437 -0.1850 -0.7245  0.1907
 7448SOL    HW233978   3.109   0.595   8.566 -1.2000  0.0864  0.8741
 7449SOL     OW33979   0.586   2.511   8.549  0.4632 -0.4399 -0.3390
 7449SOL    HW133980   0.521   2.455   8.506 -2.8074  2.0293  1.3470
 7449SOL    HW233981   0.527   2.578   8.583  2.7092  0.3936  1.8854
 7450SOL     OW33982   0.776   4.612  14.318  0.3183  0.0129  0.0063
 7450SOL    HW133983   0.783   4.578  14.407 -1.7811  1.5949  0.7873
 7450SOL    HW233984   0.830   4.692  14.325 -1.3781  1.2245 -0.7214
 7451SOL     OW33985   4.345   3.842  11.915 -0.2715 -0.1835  0.6906
 7451SOL    HW133986   4.276   3.857  11.850  1.8707 -1.6247 -1.9201
 7451SOL    HW233987   4.331   3.747  11.924 -1.0964 -0.1753 -0.4804
 7452SOL     OW33988   3.039   1.875  13.091 -0.0063  0.2247  0.8096
 7452SOL    HW133989   3.050   1.783  13.068 -0.2302  0.5577 -0.6398
 7452SOL    HW233990   3.114   1.924  13.058 -0.2813 -1.9910 -3.1536
 7453SOL     OW33991   2.165   4.171   8.208 -0.0462 -0.6775  0.2966
 7453SOL    HW133992   2.237   4.118   8.243  1.0672 -0.0513 -1.0536
 7453SOL    HW233993   2.192   4.187   8.118  0.5390 -1.6329  0.3059
 7454SOL     OW33994   4.722   0.154  11.377 -0.2380  0.0613 -0.1387
 7454SOL    HW133995   0.033   0.150  11.293 -0.3698  0.3264 -0.2228
 7454SOL    HW233996   4.685   0.067  11.390  1.7993 -0.8023 -0.1262
 7455SOL     OW33997   1.552   2.684   0.157  0.0280  0.4431  0.1738
 7455SOL    HW133998   1.608   2.632   0.099 -1.2242 -0.2218 -0.4544
 7455SOL    HW233999   1.607   2.762   0.164  0.0794  0.3186  1.0971
 7456SOL     OW34000   1.337   2.364   2.627 -0.7591 -0.7708 -0.1489
 7456SOL    HW134001   1.420   2.382   2.672 -1.8711  2.3405  0.6528
 7456SOL    HW234002   1.279   2.434   2.658 -2.2643 -2.2382  0.3614
 7457SOL     OW34003   0.992   1.078  15.488 -0.1011 -0.1125 -0.3193
 7457SOL    HW134004   1.072   1.025  15.495 -0.0723 -0.0764 -0.3743
 7457SOL    HW234005   1.008   1.145  15.554  2.4639 -0.2661 -0.7904
 7458SOL     OW34006   3.884   3.840   5.366  0.1272 -0.4293  0.1267
 7458SOL    HW134007   3.824   3.857   5.294 -0.7563 -1.1202  0.6922
 7458SOL    HW234008   3.951   3.784   5.327 -0.7094 -1.2264 -0.1686
 7459SOL     OW34009   1.768   1.660  10.851  0.2541  0.1316  0.0425
 7459SOL    HW134010   1.756   1.633  10.942 -0.8854 -1.0015 -0.4482
 7459SOL    HW234011   1.774   1.753  10.870  1.7454 -0.0479  0.4683
 7460SOL     OW34012   3.897   3.594   3.158 -0.1590  0.6583 -0.0240
 7460SOL    HW134013   3.833   3.562   3.095  1.2642  0.4546 -1.3677
 7460SOL    HW234014   3.834   3.639   3.215 -0.2195 -1.1058  1.2988
 7461SOL     OW34015   3.752   4.065   0.391 -0.1036 -0.3829  0.3511
 7461SOL    HW134016   3.735   4.085   0.299  0.0118 -0.7154  0.2565
 7461SOL    HW234017   3.838   4.022   0.387 -1.3805 -2.8525 -0.3261
 7462SOL     OW34018   0.684   0.313   1.994  0.4936 -0.0310 -0.1326
 7462SOL    HW134019   0.662   0.301   2.087  0.4401  0.7315 -0.0455
 7462SOL    HW234020   0.655   0.228   1.960 -0.4013  0.6052 -0.9865
 7463SOL     OW34021   4.345   2.522   7.875 -0.6080  0.8087  0.7106
 7463SOL    HW134022   4.424   2.540   7.926  0.3488  1.8673 -1.1868
 7463SOL    HW234023   4.358   2.571   7.795 -1.3466  1.9557  1.2941
 7464SOL     OW34024   0.500   2.508   6.653  0.1439 -0.1370  0.2824
 7464SOL    HW134025   0.572   2.506   6.715  1.2819  0.3411 -1.0084
 7464SOL    HW234026   0.421   2.544   6.693  1.4300  1.3436  1.4819
 7465SOL     OW34027   4.635   3.229   6.647  0.4829 -0.2476  0.2881
 7465SOL    HW134028   4.631   3.250   6.740 -2.8446 -1.1180  0.3268
 7465SOL    HW234029   4.551   3.184   6.637  0.6140 -0.9605  2.3765
 7466SOL     OW34030   0.926   4.181   9.331  0.4103  0.2991 -0.2753
 7466SOL    HW134031   0.893   4.092   9.346 -2.6812  1.7839  1.6295
 7466SOL    HW234032   0.896   4.228   9.408 -1.7327 -1.1753 -0.2073
 7467SOL     OW34033   1.311   1.382   7.824  0.2699 -0.0506  0.1342
 7467SOL    HW134034   1.295   1.399   7.731 -2.1037 -2.8064  0.0377
 7467SOL    HW234035   1.317   1.473   7.852  1.0280 -0.1032  0.1312
 7468SOL     OW34036   4.092   0.986   3.567  0.5527  0.2753  0.1229
 7468SOL    HW134037   4.020   1.035   3.605 -0.1392 -0.1224 -0.6923
 7468SOL    HW234038   4.126   1.045   3.500  1.0986  0.8878  0.9435
 7469SOL     OW34039   2.627   4.208   1.539 -0.0318 -0.4443 -0.1743
 7469SOL    HW134040   2.719   4.224   1.560  0.1698 -1.8363  0.0032
 7469SOL    HW234041   2.586   4.284   1.581  1.8311  0.7002 -0.4179
 7470SOL     OW34042   1.617   3.446   3.089 -0.1203  0.3283  0.0639
 7470SOL    HW134043   1.651   3.536   3.084 -1.4398  0.8885  1.0679
 7470SOL    HW234044   1.686   3.402   3.040 -0.1042  0.9375 -0.4520
 7471SOL     OW34045   4.254   2.555   3.798 -0.3529 -0.8826  0.2817
 7471SOL    HW134046   4.174   2.607   3.797 -0.0556 -0.4460 -0.4048
 7471SOL    HW234047   4.285   2.558   3.889 -0.6772  1.7787  0.3090
 7472SOL     OW34048   0.063   1.313  14.417 -0.3205 -0.5372 -0.6554
 7472SOL    HW134049   0.069   1.397  14.461  0.4133  0.0459 -1.8668
 7472SOL    HW234050   0.089   1.251  14.486  1.0255  0.6271 -0.1191
 7473SOL     OW34051   3.386   4.162  16.699  0.2318  0.1727 -0.7828
 7473SOL    HW134052   3.291   4.168  16.704  0.1511 -0.3191 -1.7296
 7473SOL    HW234053   3.405   4.246  16.659  3.2049  0.5209  1.3478
 7474SOL     OW34054   3.170   0.546   3.160 -0.1347 -0.3294 -0.6225
 7474SOL    HW134055   3.180   0.451   3.155  0.8134 -0.2850  0.5442
 7474SOL    HW234056   3.119   0.561   3.080  0.5306  3.8610 -0.2419
 7475SOL     OW34057   3.214   3.229   4.363 -0.0160  0.3781 -0.2116
 7475SOL    HW134058   3.179   3.140   4.362 -0.5964  0.5713  2.5841
 7475SOL    HW234059   3.197   3.244   4.456 -0.9552  1.5434 -0.5867
 7476SOL     OW34060   3.291   1.556   7.678  0.5798 -0.8797 -0.4322
 7476SOL    HW134061   3.334   1.495   7.618 -0.5577 -0.8582 -1.2653
 7476SOL    HW234062   3.211   1.508   7.701 -0.0626  1.2278  1.7192
 7477SOL     OW34063   0.491   2.792  15.882 -0.5041 -0.9257  0.0432
 7477SOL    HW134064   0.565   2.732  15.878  1.2064  1.2684 -0.6446
 7477SOL    HW234065   0.438   2.742  15.945 -0.4008 -0.9430  0.1155
 7478SOL     OW34066   3.553   0.355   8.777  0.4975 -0.2624  0.4531
 7478SOL    HW134067   3.590   0.299   8.708 -3.2260 -0.6297 -1.2709
 7478SOL    HW234068   3.588   0.442   8.761  1.6380 -1.3997 -3.2810
 7479SOL     OW34069   1.863   2.048   5.755 -0.0604  0.1467 -0.1074
 7479SOL    HW134070   1.798   2.024   5.691 -0.6481  1.4551 -0.0082
 7479SOL    HW234071   1.832   2.137   5.775  0.2369  0.1712  0.2654
 7480SOL     OW34072   2.861   0.280   9.071  0.6460 -0.2936  0.5817
 7480SOL    HW134073   2.774   0.278   9.111  1.3246  0.7609  2.1345
 7480SOL    HW234074   2.845   0.270   8.978  0.9310 -0.0626  0.5083
 7481SOL     OW34075   1.543   3.930  10.837 -0.7373 -0.0429 -0.3298
 7481SOL    HW134076   1.475   3.874  10.874 -0.9458 -0.0217 -0.6727
 7481SOL    HW234077   1.618   3.904  10.890 -2.0110 -0.4419  1.2538
 7482SOL     OW34078   3.518   3.469  12.041 -0.2294  0.1708  0.0399
 7482SOL    HW134079   3.467   3.530  12.093  2.5746  1.7018  0.9960
 7482SOL    HW234080   3.506   3.382  12.080  0.7294 -0.1650 -0.3913
 7483SOL     OW34081   1.126   3.292  11.956  0.2110 -0.2302 -0.0782
 7483SOL    HW134082   1.080   3.218  11.994  0.8424 -1.8020 -2.3518
 7483SOL    HW234083   1.083   3.308  11.872 -2.3259  1.2282  1.5174
 7484SOL     OW34084   2.802   4.005   8.820 -0.3869 -0.0097 -0.2961
 7484SOL    HW134085   2.888   3.963   8.813 -0.2490  0.5689 -2.3271
 7484SOL    HW234086   2.803   4.029   8.912  1.2101  0.1377 -0.3473
 7485SOL     OW34087   4.510   4.247   3.262 -0.1759 -0.3040  0.0154
 7485SOL    HW134088   4.452   4.301   3.208  1.0230 -2.3655 -3.3189
 7485SOL    HW234089   4.581   4.311   3.267  1.9111 -2.6121  0.0429
 7486SOL     OW34090   2.637   3.160   0.278 -0.2766 -0.2083 -0.0182
 7486SOL    HW134091   2.687   3.079   0.270 -0.4980 -0.4760  1.3733
 7486SOL    HW234092   2.705   3.217   0.314  0.1379  0.8482 -2.4265
 7487SOL     OW34093   3.419   1.193   8.988 -0.4060  0.3278 -0.1172
 7487SOL    HW134094   3.345   1.173   9.045 -0.9592  0.3699 -0.8196
 7487SOL    HW234095   3.474   1.239   9.051  0.8280 -0.2500 -0.7829
 7488SOL     OW34096   0.862   2.769  10.972 -0.1763  0.5810  0.8786
 7488SOL    HW134097   0.885   2.711  11.045 -0.2901  0.1690  0.5859
 7488SOL    HW234098   0.771   2.788  10.994 -0.0095  1.4310  0.8496
 7489SOL     OW34099   1.845   0.467   7.634 -0.7119  0.2239 -0.8654
 7489SOL    HW134100   1.917   0.442   7.692 -2.1962  0.1463  0.9645
 7489SOL    HW234101   1.787   0.393   7.655  0.3553  0.4415  2.9904
 7490SOL     OW34102   4.434   0.716   8.173 -0.3317  0.4006  0.0037
 7490SOL    HW134103   4.500   0.654   8.204 -0.5773  0.2038  0.1245
 7490SOL    HW234104   4.353   0.672   8.197 -0.8188  2.0478  1.4043
 7491SOL     OW34105   4.422   3.637   8.064 -0.1401 -0.1511  0.4422
 7491SOL    HW134106   4.347   3.632   8.122 -0.3375  0.8439  0.2786
 7491SOL    HW234107   4.396   3.593   7.983 -0.0496  0.4983  0.0515
 7492SOL     OW34108   1.143   3.485  16.069  0.7932 -0.5274  0.4292
 7492SOL    HW134109   1.141   3.545  15.995  2.6852  1.9756  2.3890
 7492SOL    HW234110   1.222   3.521  16.109 -0.3599  1.5962  0.7891
 7493SOL     OW34111   2.040   1.894  11.687 -0.3219 -0.2142 -0.4659
 7493SOL    HW134112   1.965   1.918  11.742 -1.7697  2.3739 -3.5438
 7493SOL    HW234113   2.114   1.920  11.741 -0.6498  0.4753 -0.3385
 7494SOL     OW34114   1.113   0.090   1.604  0.4257  0.7076 -0.8101
 7494SOL    HW134115   1.028   0.109   1.645 -0.2152 -0.9920 -1.3337
 7494SOL    HW234116   1.136   4.734   1.624 -3.5505  0.1326  1.2949
 7495SOL     OW34117   2.480   0.853   2.383 -0.0556 -0.3870  0.1776
 7495SOL    HW134118   2.504   0.811   2.301  0.3260  1.1815 -0.5204
 7495SOL    HW234119   2.427   0.921   2.342 -0.1479 -1.4929 -1.5442
 7496SOL     OW34120   2.655   0.998   7.564 -0.0662  0.0551 -0.4797
 7496SOL    HW134121   2.639   0.931   7.498  1.9170 -0.5223 -0.3626
 7496SOL    HW234122   2.681   0.944   7.639 -1.5919 -2.0942 -1.4977
 7497SOL     OW34123   0.989   1.308  13.570  0.0064 -0.1549  0.1087
 7497SOL    HW134124   1.070   1.354  13.591 -0.4362  1.0084 -0.7572
 7497SOL    HW234125   1.028   1.223  13.550  1.6883  0.6697 -0.1331
 7498SOL     OW34126   0.446   3.494   7.944 -0.6133  0.2680 -0.1352
 7498SOL    HW134127   0.370   3.507   8.000  1.2506  0.1668  2.4270
 7498SOL    HW234128   0.415   3.433   7.877  1.1440  0.2475 -0.9453
 7499SOL     OW34129   3.099   4.524   2.830 -0.6994  0.2219 -0.0525
 7499SOL    HW134130   3.004   4.530   2.823 -0.9621 -3.5190  0.1878
 7499SOL    HW234131   3.102   4.492   2.920  0.6028  1.1947  0.2536
 7500SOL     OW34132   3.966   3.913  17.400  0.0608  0.1693 -0.7275
 7500SOL    HW134133   3.974   3.922  17.305 -0.5455  0.4494 -0.7533
 7500SOL    HW234134   4.024   3.977  17.441 -1.2929  0.4869  0.7086
 7501SOL     OW34135   4.623   1.784   7.197  0.0555  0.2549  0.2356
 7501SOL    HW134136   4.604   1.849   7.128 -0.6017 -0.6090 -0.3933
 7501SOL    HW234137   4.542   1.766   7.244 -1.4092  0.8604 -2.0607
 7502SOL     OW34138   0.819   2.667   5.113 -0.4683 -0.0963  0.1171
 7502SOL    HW134139   0.765   2.715   5.176 -0.0280  0.2147  0.2585
 7502SOL    HW234140   0.753   2.630   5.054 -0.3369  1.3650 -0.9516
 7503SOL     OW34141   1.338   2.455   8.989 -0.2260 -0.3760 -0.1399
 7503SOL    HW134142   1.244   2.454   8.969 -0.5732 -0.7579  1.5309
 7503SOL    HW234143   1.332   2.468   9.083  1.0103 -0.4948 -0.0484
 7504SOL     OW34144   4.454   2.650   6.745 -0.1214 -0.2917 -0.2064
 7504SOL    HW134145   4.542   2.650   6.782  1.3950  1.8604 -3.7891
 7504SOL    HW234146   4.412   2.717   6.798  0.5987  0.5429 -0.7072
 7505SOL     OW34147   3.196   4.491  16.703  0.4096 -0.4626  0.3328
 7505SOL    HW134148   3.283   4.473  16.667 -1.0159 -1.4430 -2.5946
 7505SOL    HW234149   3.147   4.411  16.686  0.3952 -0.2108 -0.7792
 7506SOL     OW34150   0.516   1.185   5.539  0.3315 -0.2729 -0.3553
 7506SOL    HW134151   0.477   1.139   5.465  0.0910 -1.1121  0.2903
 7506SOL    HW234152   0.487   1.276   5.532 -1.2337 -0.6651  1.1753
 7507SOL     OW34153   4.220   2.708   2.644  0.0138 -0.0003 -0.1391
 7507SOL    HW134154   4.170   2.746   2.716 -0.6514 -1.9882  0.4707
 7507SOL    HW234155   4.280   2.773   2.609  0.1069 -0.6149 -1.1333
 7508SOL     OW34156   1.108   4.612   6.314 -0.5591 -0.3807 -0.2216
 7508SOL    HW134157   1.055   4.629   6.391 -0.4363 -0.1852 -0.1796
 7508SOL    HW234158   1.070   4.530   6.283  0.0142 -0.4462 -0.7679
 7509SOL     OW34159   4.577   2.427  16.614  0.0733  0.5717 -0.0979
 7509SOL    HW134160   4.509   2.446  16.679  0.7691 -0.8144  1.0412
 7509SOL    HW234161   4.643   2.374  16.659  0.1242  0.8989  0.2209
 7510SOL     OW34162   3.310   3.233  11.418  0.2489 -0.5118  0.5156
 7510SOL    HW134163   3.233   3.193  11.457 -0.2063  0.8704  1.0412
 7510SOL    HW234164   3.318   3.311  11.473  0.2589  0.7164 -1.2085
 7511SOL     OW34165   0.184   1.422   6.509  0.0212 -0.2766  0.3143
 7511SOL    HW134166   0.195   1.431   6.414  0.7801 -1.3205  0.3095
 7511SOL    HW234167   0.089   1.431   6.514  0.1293  1.7202 -1.2128
 7512SOL     OW34168   3.093   2.301   7.034 -0.2276 -0.2801 -0.1294
 7512SOL    HW134169   3.149   2.313   6.957 -1.0598  1.0237 -0.5162
 7512SOL    HW234170   3.054   2.215   7.020 -0.5686 -0.6994  3.3187
 7513SOL     OW34171   3.579   3.891   0.603  0.1671  0.5495 -0.0555
 7513SOL    HW134172   3.485   3.904   0.612  0.2757  1.8356 -0.6669
 7513SOL    HW234173   3.604   3.940   0.524  2.4544 -1.6050 -0.6643
 7514SOL     OW34174   3.736   0.928  17.355 -0.1078  0.3475  0.4688
 7514SOL    HW134175   3.659   0.935  17.411 -0.0744 -0.1641  0.5705
 7514SOL    HW234176   3.792   1.001  17.383  0.9316 -0.4654  0.4967
 7515SOL     OW34177   2.554   3.342   7.812  0.5357  0.4335  0.0944
 7515SOL    HW134178   2.531   3.307   7.726  0.4091  1.0687 -0.1347
 7515SOL    HW234179   2.635   3.292   7.826  0.5482  0.5832  0.5762
 7516SOL     OW34180   4.553   0.834  17.313 -1.0652  0.4274  0.3231
 7516SOL    HW134181   4.554   0.742  17.341 -2.4366  0.1552 -0.5255
 7516SOL    HW234182   4.533   0.877  17.396 -0.6320 -1.4763  1.4380
 7517SOL     OW34183   4.675   1.843   3.733 -0.3001  1.0840  0.2218
 7517SOL    HW134184   4.658   1.897   3.656  1.2851  0.8175 -0.2953
 7517SOL    HW234185   0.035   1.853   3.722 -0.2714  0.0004 -0.5484
 7518SOL     OW34186   3.194   4.483   7.562 -0.3446  0.5959 -0.3969
 7518SOL    HW134187   3.129   4.412   7.569 -0.5692  0.9078  0.6770
 7518SOL    HW234188   3.147   4.555   7.604 -2.9519 -0.4603 -1.4877
 7519SOL     OW34189   2.055   2.727   9.249  0.8776 -0.0582 -0.5589
 7519SOL    HW134190   2.027   2.811   9.214  2.4681  0.0555 -1.5290
 7519SOL    HW234191   2.048   2.662   9.179 -2.1009  0.2642 -0.5857
 7520SOL     OW34192   0.521   0.653   8.347  0.8818  0.0444  0.3147
 7520SOL    HW134193   0.544   0.723   8.408  1.6277 -0.9552  1.1708
 7520SOL    HW234194   0.589   0.589   8.368  0.4387 -0.3478  0.5512
 7521SOL     OW34195   0.336   3.701  12.974  0.8015  0.2106  0.2271
 7521SOL    HW134196   0.370   3.746  13.051  2.8803 -1.4385  0.2593
 7521SOL    HW234197   0.317   3.616  13.014  1.5029  0.6957  1.5829
 7522SOL     OW34198   3.262   2.382  16.620  0.2726 -0.2985  0.4976
 7522SOL    HW134199   3.184   2.425  16.655 -0.1260  0.0457 -0.8266
 7522SOL    HW234200   3.232   2.291  16.622  0.2364 -0.3421 -1.9854
 7523SOL     OW34201   3.279   1.193  17.539 -0.0580 -0.4042  0.0202
 7523SOL    HW134202   3.368   1.210  17.570 -0.5046 -1.8724  2.1067
 7523SOL    HW234203   3.237   1.188  17.625 -1.1802  1.4053 -0.4129
 7524SOL     OW34204   3.558   0.743   2.885  0.1378  0.2820  0.0315
 7524SOL    HW134205   3.602   0.818   2.923  0.1164 -0.6978  2.0034
 7524SOL    HW234206   3.591   0.677   2.946 -0.2650  0.2745  0.2444
 7525SOL     OW34207   4.382   0.722  12.579  0.2256 -0.1180  0.5730
 7525SOL    HW134208   4.393   0.815  12.557  2.1808 -0.6413 -0.7529
 7525SOL    HW234209   4.288   0.709  12.592 -0.0065  1.9642  0.8936
 7526SOL     OW34210   3.968   0.443   8.535  0.3563 -0.0576 -0.2117
 7526SOL    HW134211   3.954   0.433   8.440 -1.7374  3.7342 -0.2713
 7526SOL    HW234212   3.928   0.526   8.559 -0.5459 -0.1322 -1.4531
 7527SOL     OW34213   4.342   0.780  12.206  0.3891  0.1223  0.1088
 7527SOL    HW134214   4.275   0.789  12.275  1.4459  0.9345  1.0238
 7527SOL    HW234215   4.282   0.792  12.132  1.8203 -1.0393 -1.2136
 7528SOL     OW34216   3.800   4.413   2.435 -0.7468 -0.9915  0.2986
 7528SOL    HW134217   3.773   4.486   2.491 -0.1466 -1.0955  0.7238
 7528SOL    HW234218   3.862   4.370   2.494  0.3483  0.5593  0.2929
 7529SOL     OW34219   3.635   2.870   4.375  0.1867  0.1119  0.3045
 7529SOL    HW134220   3.666   2.868   4.285 -1.1751 -1.1242 -0.1425
 7529SOL    HW234221   3.711   2.848   4.429  0.0749  1.8368  1.1711
 7530SOL     OW34222   0.800   1.743   4.152  0.7602 -0.2188 -0.1652
 7530SOL    HW134223   0.717   1.702   4.129  0.9799 -0.9239  0.2861
 7530SOL    HW234224   0.826   1.759   4.061 -1.9738 -0.4195 -0.9652
 7531SOL     OW34225   0.394   0.228  17.132 -0.3886  0.4870  0.3609
 7531SOL    HW134226   0.429   0.162  17.192 -0.4861  2.1235  2.2404
 7531SOL    HW234227   0.473   0.280  17.115  0.0976 -0.8694 -1.4959
 7532SOL     OW34228   1.646   3.140   4.888  0.7293  0.2070  0.2443
 7532SOL    HW134229   1.592   3.207   4.929  1.6694  0.4299  1.0841
 7532SOL    HW234230   1.585   3.089   4.834  1.5041  0.6503 -1.0478
 7533SOL     OW34231   2.576   3.603   5.072 -0.1527  0.8714 -0.8636
 7533SOL    HW134232   2.564   3.678   5.132  0.0502  1.1378 -1.1611
 7533SOL    HW234233   2.562   3.546   5.148  4.3082 -1.3377 -1.7302
 7534SOL     OW34234   3.749   4.324   3.451 -0.1285  0.3521 -0.1409
 7534SOL    HW134235   3.828   4.278   3.479  0.3561  1.3372  0.0777
 7534SOL    HW234236   3.789   4.380   3.385 -0.4586  0.9025  0.1341
 7535SOL     OW34237   4.395   4.332   5.823 -0.1405  0.0080 -0.0264
 7535SOL    HW134238   4.408   4.277   5.746 -0.3305 -0.7817  0.5093
 7535SOL    HW234239   4.398   4.419   5.782  2.0541  0.0473  0.2273
 7536SOL     OW34240   1.171   3.612   8.305  0.4103  0.2551  0.1789
 7536SOL    HW134241   1.162   3.708   8.305 -0.9272  0.1280 -0.8873
 7536SOL    HW234242   1.247   3.612   8.246 -0.9062 -2.7718 -1.4816
 7537SOL     OW34243   0.116   3.018  16.408  0.7095 -0.6381 -0.1640
 7537SOL    HW134244   0.118   3.072  16.486 -1.6647 -0.2963 -0.3217
 7537SOL    HW234245   0.162   3.065  16.339 -2.7486 -0.7128 -2.5478
 7538SOL     OW34246   2.164   3.837  13.858 -0.0779  1.1299 -0.5749
 7538SOL    HW134247   2.090   3.778  13.876  2.0862 -1.6051 -0.6064
 7538SOL    HW234248   2.112   3.915  13.841 -0.3130  1.1654  0.3032
 7539SOL     OW34249   1.283   4.499   2.086  0.0122 -0.3910  0.1270
 7539SOL    HW134250   1.309   4.415   2.123  1.2035  0.6906  1.7609
 7539SOL    HW234251   1.308   4.479   1.996 -1.5791  0.2178 -0.4592
 7540SOL     OW34252   1.242   2.984   2.598  0.7267  0.0662 -0.2324
 7540SOL    HW134253   1.277   3.056   2.547 -2.4139  2.4243  0.9784
 7540SOL    HW234254   1.161   3.029   2.621  0.0476 -1.4339  0.3571
 7541SOL     OW34255   0.583   0.589   5.614  0.1235  0.2130 -0.1909
 7541SOL    HW134256   0.588   0.627   5.527 -1.1108  0.0384 -0.3387
 7541SOL    HW234257   0.587   0.494   5.603 -0.9309  0.0954  0.4659
 7542SOL     OW34258   3.914   3.191   5.306 -0.8327  0.8311 -0.2465
 7542SOL    HW134259   3.922   3.258   5.374  3.1530 -1.3649  1.4407
 7542SOL    HW234260   3.840   3.139   5.337 -0.3517 -0.7045 -1.6990
 7543SOL     OW34261   1.972   0.148   3.976  0.1888  0.4180  0.4495
 7543SOL    HW134262   2.047   0.092   3.959 -0.9702 -0.7529 -0.7226
 7543SOL    HW234263   1.934   0.112   4.056  0.2428  0.2238  0.3860
 7544SOL     OW34264   1.812   2.978   7.851  0.2295 -0.0140 -0.4946
 7544SOL    HW134265   1.897   2.961   7.810  0.6802 -2.0053  1.2628
 7544SOL    HW234266   1.830   3.042   7.920  1.0764  1.1622 -1.8082
 7545SOL     OW34267   2.401   1.064   1.055  0.4158 -0.1052  0.1357
 7545SOL    HW134268   2.491   1.041   1.077  0.8332  2.5492  1.2345
 7545SOL    HW234269   2.416   1.056   0.961  1.7296  0.3354  0.3063
 7546SOL     OW34270   0.307   1.929   6.956  0.8423  0.3618  0.4047
 7546SOL    HW134271   0.242   1.996   6.978  0.1173  0.0323 -0.6750
 7546SOL    HW234272   0.284   1.846   6.999  2.2418 -0.9773 -1.4367
 7547SOL     OW34273   3.946   4.677   1.602  0.9042  0.0085  0.2743
 7547SOL    HW134274   3.916   4.630   1.680  0.6081  1.9727  1.3395
 7547SOL    HW234275   4.028   4.630   1.584  2.3902  2.1100  1.5599
 7548SOL     OW34276   0.618   0.781   6.812  0.0061  0.1610  0.3790
 7548SOL    HW134277   0.703   0.808   6.777 -1.7356  1.8892 -2.4988
 7548SOL    HW234278   0.618   0.687   6.796 -0.3809  0.7454 -3.1123
 7549SOL     OW34279   3.848   1.814   4.667 -0.1104 -0.6244  0.2969
 7549SOL    HW134280   3.857   1.723   4.641  1.3778 -0.0919 -1.0679
 7549SOL    HW234281   3.905   1.818   4.744  0.9141 -0.2287 -0.4784
 7550SOL     OW34282   4.576   2.844   4.797  0.0090  0.0858 -0.6124
 7550SOL    HW134283   4.507   2.888   4.847  0.7407  0.0101  0.4778
 7550SOL    HW234284   4.622   2.921   4.763 -0.6173 -0.3000 -2.3436
 7551SOL     OW34285   3.818   2.157   3.049  0.1755 -0.1390  0.1698
 7551SOL    HW134286   3.723   2.154   3.036  0.2434  0.7876 -0.5710
 7551SOL    HW234287   3.835   2.101   3.125  3.1315 -0.1969 -0.5633
 7552SOL     OW34288   1.242   3.148   8.732  0.6010 -0.0953  0.3579
 7552SOL    HW134289   1.169   3.099   8.770 -0.1998  1.6640  1.0594
 7552SOL    HW234290   1.207   3.236   8.741  0.2262 -0.3201  1.1222
 7553SOL     OW34291   0.613   4.053   2.828  0.3613  0.0952 -0.0651
 7553SOL    HW134292   0.543   4.113   2.805  1.2742  0.1190 -2.8723
 7553SOL    HW234293   0.650   4.108   2.896 -1.4917  0.8779  0.3018
 7554SOL     OW34294   2.431   3.758   2.075 -0.1815  0.2503 -0.8941
 7554SOL    HW134295   2.453   3.749   2.168  0.0237  2.1095 -0.7536
 7554SOL    HW234296   2.359   3.820   2.086 -1.6338 -1.5335 -0.2605
 7555SOL     OW34297   3.044   2.596   6.354  0.2096  0.3898  0.0838
 7555SOL    HW134298   2.994   2.676   6.370  0.7325  0.5987  0.6878
 7555SOL    HW234299   3.131   2.626   6.382  0.8820 -0.3733 -1.2210
 7556SOL     OW34300   0.541   1.447   9.606 -0.0995  0.2544  0.3834
 7556SOL    HW134301   0.564   1.499   9.529  1.6603 -0.4298  0.4455
 7556SOL    HW234302   0.450   1.475   9.621 -0.3471  0.4833 -1.4841
 7557SOL     OW34303   0.619   1.826   7.352 -0.1298  0.1094 -0.4927
 7557SOL    HW134304   0.526   1.833   7.331  0.0245 -0.9512 -1.5749
 7557SOL    HW234305   0.643   1.747   7.303  4.3083  0.6468  0.7881
 7558SOL     OW34306   0.227   0.089   2.450  0.0867 -0.1755 -0.8401
 7558SOL    HW134307   0.142   0.046   2.459  0.0809  0.9222  4.6105
 7558SOL    HW234308   0.244   0.074   2.357  0.4033 -3.0317 -0.3158
 7559SOL     OW34309   1.270   3.365   3.710  0.0168 -0.4968  0.0321
 7559SOL    HW134310   1.311   3.304   3.648  2.4144 -0.4276  1.5784
 7559SOL    HW234311   1.337   3.431   3.729  1.4253 -2.0347  0.3881
 7560SOL     OW34312   0.662   2.747  17.492  0.1790  0.1980 -0.0507
 7560SOL    HW134313   0.720   2.812  17.452  1.2440  1.1588  3.0398
 7560SOL    HW234314   0.588   2.805  17.511 -0.8790 -0.9334 -0.7649
 7561SOL     OW34315   3.577   0.958   0.791 -0.4386 -0.1554 -0.3806
 7561SOL    HW134316   3.541   1.035   0.837  2.5523  0.5645  0.7500
 7561SOL    HW234317   3.617   0.999   0.715  2.4730 -2.0696  0.1027
 7562SOL     OW34318   2.416   3.196   5.398  0.5647 -0.1459 -0.0443
 7562SOL    HW134319   2.456   3.141   5.331 -0.7098  3.3097 -3.6026
 7562SOL    HW234320   2.436   3.153   5.482 -0.8159 -1.8242 -0.5702
 7563SOL     OW34321   4.630   2.479   4.438  0.2139 -0.3021 -0.5363
 7563SOL    HW134322   4.702   2.462   4.379  2.2744  0.2386  1.8204
 7563SOL    HW234323   4.649   2.416   4.507 -0.4619 -0.2118 -0.2573
 7564SOL     OW34324   0.188   2.091   3.827  0.1258 -0.5239  0.5408
 7564SOL    HW134325   0.274   2.105   3.865  0.1414  2.0653 -0.4729
 7564SOL    HW234326   0.136   2.121   3.902  0.1135  1.9105 -0.4411
 7565SOL     OW34327   0.799   3.390  10.986  1.1579 -0.6730 -0.2085
 7565SOL    HW134328   0.799   3.305  11.030  1.9862 -0.9289 -0.7107
 7565SOL    HW234329   0.746   3.391  10.906  1.5096 -0.2869 -0.4396
 7566SOL     OW34330   4.596   3.930   3.650 -0.0430  0.4209  0.6192
 7566SOL    HW134331   4.675   3.931   3.705 -0.7631  0.2061  1.6468
 7566SOL    HW234332   4.586   4.024   3.636 -2.4458 -0.1106 -1.0367
 7567SOL     OW34333   4.254   1.336   6.406 -0.3231  0.6016  0.3751
 7567SOL    HW134334   4.322   1.401   6.388  1.4307 -1.0847  0.9200
 7567SOL    HW234335   4.191   1.366   6.341  0.0219 -2.3967 -1.2926
 7568SOL     OW34336   1.120   3.496  13.539 -0.0074 -0.1227  0.4870
 7568SOL    HW134337   1.109   3.552  13.462  0.5553 -0.0235  0.4756
 7568SOL    HW234338   1.123   3.408  13.502 -1.3315  0.1386 -0.2264
 7569SOL     OW34339   0.774   1.752   5.072 -0.1836 -0.9618 -0.2933
 7569SOL    HW134340   0.702   1.787   5.123  1.4508  0.0241  1.3450
 7569SOL    HW234341   0.841   1.749   5.140 -0.9895  2.2230  0.6222
 7570SOL     OW34342   4.531   1.425  15.112  0.5762  0.1131  0.7738
 7570SOL    HW134343   4.603   1.362  15.116  0.1513 -0.4608 -0.5357
 7570SOL    HW234344   4.528   1.443  15.018 -0.6629 -2.0233  0.3978
 7571SOL     OW34345   1.952   1.012   3.361 -0.6524 -0.3968 -0.5248
 7571SOL    HW134346   1.943   0.936   3.303  1.1220 -2.0800  1.3888
 7571SOL    HW234347   2.044   1.017   3.387 -0.8372  0.8910 -0.1357
 7572SOL     OW34348   2.977   2.609   6.875 -0.3544  0.6524  0.0091
 7572SOL    HW134349   3.062   2.647   6.852 -1.0851  2.0741 -0.3343
 7572SOL    HW234350   2.987   2.523   6.833 -4.7029  0.4417 -0.6357
 7573SOL     OW34351   4.641   0.951   9.264 -0.5106  0.4763 -0.1391
 7573SOL    HW134352   4.557   0.947   9.310  0.9459 -1.8015  2.4018
 7573SOL    HW234353   4.697   0.929   9.339 -0.9020  0.5463  0.1751
 7574SOL     OW34354   1.493   0.956  17.651 -0.1248 -0.8812 -0.2916
 7574SOL    HW134355   1.419   0.935  17.594  0.1213  0.1581 -1.0077
 7574SOL    HW234356   1.565   0.935  17.593 -2.3015  1.8073 -4.0148
 7575SOL     OW34357   2.751   4.190   4.629 -0.0047 -0.5747 -0.2937
 7575SOL    HW134358   2.672   4.243   4.617 -0.1617 -0.3502  1.7472
 7575SOL    HW234359   2.775   4.216   4.718 -0.9042 -2.9601  0.6287
 7576SOL     OW34360   0.791   4.435   7.726  0.2601  0.7500 -0.3643
 7576SOL    HW134361   0.818   4.495   7.795 -1.9275  1.2982  0.0310
 7576SOL    HW234362   0.830   4.482   7.653  0.6221  0.5776 -0.2847
 7577SOL     OW34363   0.389   4.238   1.905  0.8079 -0.0500 -0.3353
 7577SOL    HW134364   0.347   4.289   1.974  1.1231 -0.0024 -0.1798
 7577SOL    HW234365   0.314   4.235   1.846  0.5788 -0.5859 -0.0213
 7578SOL     OW34366   2.785   3.827   7.839 -0.2038  0.0495  0.1454
 7578SOL    HW134367   2.802   3.758   7.904 -1.7507 -0.9771 -0.5257
 7578SOL    HW234368   2.704   3.864   7.876 -0.0610  1.9550 -1.5036
 7579SOL     OW34369   1.869   2.355   4.007  0.3580 -0.5569 -0.4802
 7579SOL    HW134370   1.871   2.327   4.098  1.5770  0.8323 -0.0780
 7579SOL    HW234371   1.934   2.426   4.012  1.0486 -1.1937 -0.5215
 7580SOL     OW34372   1.015   3.154   2.620 -0.3667 -0.3340 -0.1404
 7580SOL    HW134373   0.962   3.227   2.651 -3.1484 -2.2942 -0.3257
 7580SOL    HW234374   0.951   3.087   2.642 -0.8827 -0.1817 -1.1699
 7581SOL     OW34375   3.188   2.747   6.762 -0.3330  0.4632  0.0142
 7581SOL    HW134376   3.228   2.766   6.678  2.9439 -1.6801  1.1029
 7581SOL    HW234377   3.230   2.803   6.828 -3.6733  1.1033  1.6472
 7582SOL     OW34378   0.901   3.330  17.218 -0.3923 -0.3631  0.4454
 7582SOL    HW134379   0.923   3.241  17.190  0.9068 -0.9285  3.2545
 7582SOL    HW234380   0.894   3.365  17.129  1.5385  0.8463  0.7667
 7583SOL     OW34381   0.664   4.486   5.430 -0.5699 -0.1106  0.0347
 7583SOL    HW134382   0.672   4.574   5.394  1.0485 -0.5098 -0.6131
 7583SOL    HW234383   0.677   4.443   5.345  2.0030  2.6685 -0.9656
 7584SOL     OW34384   1.981   2.446   3.360 -0.3864 -0.5421 -0.4280
 7584SOL    HW134385   1.959   2.354   3.378 -0.6695 -0.0128  2.0314
 7584SOL    HW234386   2.027   2.480   3.437  0.0106 -0.3262 -0.7648
 7585SOL     OW34387   2.881   1.634   8.315  0.2213 -0.2174 -0.2455
 7585SOL    HW134388   2.896   1.558   8.259 -2.0656 -0.3399 -0.6736
 7585SOL    HW234389   2.795   1.619   8.354 -0.7667  2.4567 -1.4039
 7586SOL     OW34390   2.781   3.180   7.844 -0.2529 -0.2167 -0.0168
 7586SOL    HW134391   2.829   3.121   7.786  1.0658 -0.7029  1.5792
 7586SOL    HW234392   2.837   3.184   7.921  0.5350  0.8520 -0.6378
 7587SOL     OW34393   1.687   3.462   6.056  0.1200 -0.4902  0.4775
 7587SOL    HW134394   1.734   3.524   6.001 -0.1708 -1.0333 -0.3863
 7587SOL    HW234395   1.747   3.399   6.095 -0.2622 -1.4708 -0.4977
 7588SOL     OW34396   3.648   0.281   5.695  0.1001  0.1654  0.2084
 7588SOL    HW134397   3.646   0.234   5.778 -2.1741 -0.2696 -0.1028
 7588SOL    HW234398   3.686   0.220   5.632 -0.2193 -0.1627  0.3404
 7589SOL     OW34399   2.815   0.632   3.039  0.0708  0.2220  0.7961
 7589SOL    HW134400   2.838   0.595   3.124 -0.0681 -1.0721  0.2634
 7589SOL    HW234401   2.720   0.618   3.039 -0.3726  3.2791  1.9833
 7590SOL     OW34402   0.206   2.975   4.188 -0.1965  0.3863 -0.4154
 7590SOL    HW134403   0.191   2.887   4.222  0.8437  0.2809 -0.2283
 7590SOL    HW234404   0.240   3.012   4.269  1.1841  1.8651 -1.6818
 7591SOL     OW34405   0.078   1.093  14.655  0.2104  0.4810 -0.0803
 7591SOL    HW134406   0.069   0.998  14.665 -2.5020  0.7177 -0.3245
 7591SOL    HW234407   4.723   1.124  14.653 -0.3828 -1.1389  1.3335
 7592SOL     OW34408   2.649   4.670   9.888 -0.4462  0.2625 -0.1417
 7592SOL    HW134409   2.672   4.599   9.948 -2.2911 -0.3366 -0.1416
 7592SOL    HW234410   2.555   4.674   9.903 -0.0250  0.6572  2.3797
 7593SOL     OW34411   1.516   2.951   7.892 -0.1228 -0.0065 -0.1062
 7593SOL    HW134412   1.564   3.033   7.905 -2.5272  1.1455  1.7175
 7593SOL    HW234413   1.590   2.895   7.869  0.6644  1.1403 -0.3484
 7594SOL     OW34414   2.332   4.475   8.554 -0.5354  0.1067  0.1882
 7594SOL    HW134415   2.268   4.547   8.558 -1.3408 -0.6995  1.8042
 7594SOL    HW234416   2.392   4.511   8.489  1.1759 -1.3037  0.9980
 7595SOL     OW34417   0.665   3.318   9.369 -0.3236  0.1535  0.2889
 7595SOL    HW134418   0.710   3.396   9.339  1.1601 -0.9226 -0.2582
 7595SOL    HW234419   0.738   3.270   9.407 -1.5856 -0.9467  1.3320
 7596SOL     OW34420   3.815   0.126  11.422 -0.4810  0.2356  0.3624
 7596SOL    HW134421   3.720   0.120  11.437 -0.4146 -0.6958  0.4296
 7596SOL    HW234422   3.828   0.217  11.396 -1.1767  0.0750 -0.5381
 7597SOL     OW34423   2.143   0.732   5.190 -0.7046  0.7285  0.1226
 7597SOL    HW134424   2.217   0.703   5.137  1.1734  1.6916  2.1787
 7597SOL    HW234425   2.106   0.645   5.202  3.4317 -1.1362 -0.3992
 7598SOL     OW34426   2.434   0.930   9.080 -0.1422 -0.1251 -0.2137
 7598SOL    HW134427   2.342   0.940   9.056 -0.3319 -0.0012  0.5420
 7598SOL    HW234428   2.475   0.889   9.005 -1.1171 -0.3739 -0.6140
 7599SOL     OW34429   0.800   3.106   3.542 -0.1775 -0.2271  0.1373
 7599SOL    HW134430   0.767   3.124   3.454  0.2592 -1.7282 -0.3247
 7599SOL    HW234431   0.851   3.182   3.571  0.8198 -1.6562  2.1311
 7600SOL     OW34432   0.379   3.908   0.423 -0.1079  0.0759  0.2211
 7600SOL    HW134433   0.450   3.952   0.470 -0.6310  0.5165  0.5889
 7600SOL    HW234434   0.302   3.907   0.479  0.1983  1.7452  0.6777
 7601SOL     OW34435   3.756   4.228   2.889  0.1633 -0.0855 -0.0028
 7601SOL    HW134436   3.772   4.164   2.959  0.9432  1.1518  0.9610
 7601SOL    HW234437   3.847   4.245   2.868  0.6613 -1.3164  1.1730
 7602SOL     OW34438   4.425   1.414   8.127  0.1991 -0.5762 -0.6685
 7602SOL    HW134439   4.373   1.491   8.149  0.2271  0.2367 -3.4334
 7602SOL    HW234440   4.460   1.432   8.039  1.6994  0.0924  0.0732
 7603SOL     OW34441   3.110   3.616   3.816 -0.2659 -0.5969  0.4423
 7603SOL    HW134442   3.141   3.650   3.732 -0.4850 -0.8023  0.2781
 7603SOL    HW234443   3.193   3.593   3.858  1.1338  0.8758 -1.5456
 7604SOL     OW34444   2.042   1.103  12.219 -0.1128  0.3615 -0.4940
 7604SOL    HW134445   1.965   1.048  12.210  0.9206 -1.0338 -0.8900
 7604SOL    HW234446   2.001   1.179  12.260 -0.5352 -0.5725  0.8278
 7605SOL     OW34447   4.572   4.491   6.795 -0.1816 -0.1420 -0.1343
 7605SOL    HW134448   4.642   4.432   6.767  0.2070  0.5384 -0.5896
 7605SOL    HW234449   4.555   4.534   6.711 -1.0603  1.6362  0.9516
 7606SOL     OW34450   0.629   0.786   6.072 -0.4164  0.3041  0.3599
 7606SOL    HW134451   0.671   0.735   6.002 -0.1818 -1.1669  1.5761
 7606SOL    HW234452   0.597   0.857   6.016 -0.7337  0.3785  0.6353
 7607SOL     OW34453   0.685   1.588   8.820 -0.1917 -0.0148 -0.5808
 7607SOL    HW134454   0.627   1.650   8.864  0.1348 -0.7221  0.8385
 7607SOL    HW234455   0.731   1.652   8.766 -0.2197 -0.5573 -1.2522
 7608SOL     OW34456   1.891   4.476   5.126 -0.8145  0.6904  0.2974
 7608SOL    HW134457   1.836   4.461   5.203  0.0030  0.4048  0.8378
 7608SOL    HW234458   1.908   4.570   5.128 -2.0987  0.8729  2.0425
 7609SOL     OW34459   1.537   4.510   6.956  0.4036  0.2527 -0.1982
 7609SOL    HW134460   1.546   4.605   6.958  0.8563  0.2397 -1.6270
 7609SOL    HW234461   1.613   4.479   7.005  0.9122 -1.5321 -2.1358
 7610SOL     OW34462   2.821   3.086  11.538  0.1435  0.0529 -0.3765
 7610SOL    HW134463   2.833   3.130  11.454 -2.8385 -1.4187 -1.5576
 7610SOL    HW234464   2.775   3.149  11.593  2.1407 -0.2993  1.7318
 7611SOL     OW34465   3.814   0.643   6.832 -0.2341 -0.7182  0.0005
 7611SOL    HW134466   3.872   0.591   6.777  0.6005  1.2703 -1.0062
 7611SOL    HW234467   3.781   0.701   6.763  1.3625  1.2902  0.9399
 7612SOL     OW34468   1.053   4.265  10.825 -0.1414  0.4236  0.2200
 7612SOL    HW134469   1.026   4.279  10.915  0.5913 -1.7479  0.7967
 7612SOL    HW234470   1.074   4.171  10.824  0.1012  0.4722  1.6033
 7613SOL     OW34471   1.799   0.882   0.700  0.5042  0.2098  0.4227
 7613SOL    HW134472   1.872   0.942   0.713 -0.6859  1.9313 -0.8705
 7613SOL    HW234473   1.829   0.804   0.654 -0.1782  0.8452 -1.0702
 7614SOL     OW34474   0.971   0.088  17.120  0.5526  0.8592  0.0718
 7614SOL    HW134475   1.016   0.004  17.110  0.4264  0.8638 -0.4973
 7614SOL    HW234476   1.031   0.153  17.085  0.1990 -0.7583 -3.4782
 7615SOL     OW34477   4.394   1.577   6.385  0.0570 -0.1585 -0.2608
 7615SOL    HW134478   4.490   1.574   6.388  0.1375  0.1032 -2.5664
 7615SOL    HW234479   4.376   1.669   6.403 -0.4597 -0.3967  0.4528
 7616SOL     OW34480   1.499   1.608   4.763 -0.2072  0.4988  0.3596
 7616SOL    HW134481   1.439   1.635   4.832  3.2025  1.2524  3.0530
 7616SOL    HW234482   1.450   1.533   4.728  0.9325 -0.6462  1.2212
 7617SOL     OW34483   2.077   4.072   5.590 -0.0115  0.4668  0.2544
 7617SOL    HW134484   2.144   4.080   5.522  0.4111  1.1549  0.7475
 7617SOL    HW234485   2.099   3.988   5.629 -0.2350  1.0201  1.5568
 7618SOL     OW34486   1.743   3.711   9.800  0.0446  0.8356 -0.3437
 7618SOL    HW134487   1.762   3.803   9.818  0.2193  0.4223  1.5966
 7618SOL    HW234488   1.815   3.658   9.835  1.2321  4.0180  2.0145
 7619SOL     OW34489   2.034   3.194   9.116  0.2058 -0.6096  0.4269
 7619SOL    HW134490   2.003   3.178   9.205  0.0204  2.9422  0.9967
 7619SOL    HW234491   2.128   3.187   9.135  0.6504  0.7426 -1.1991
 7620SOL     OW34492   0.647   0.321   5.559 -0.3732  0.2221 -0.4241
 7620SOL    HW134493   0.658   0.240   5.608  0.9360  0.2659 -0.6497
 7620SOL    HW234494   0.731   0.312   5.514  0.0863 -0.5221  0.5758
 7621SOL     OW34495   1.774   4.180  10.774 -0.0927  0.1214 -0.2138
 7621SOL    HW134496   1.707   4.112  10.773  0.4918 -0.4734  0.4939
 7621SOL    HW234497   1.727   4.250  10.728  1.4473  0.6931 -0.9367
 7622SOL     OW34498   2.811   2.939   3.609 -0.2378 -0.3112  0.8542
 7622SOL    HW134499   2.853   2.874   3.553 -0.7301 -0.9011  1.1618
 7622SOL    HW234500   2.819   3.011   3.547 -2.2838 -1.2702 -0.5289
 7623SOL     OW34501   0.299   0.130   9.313  0.0236 -0.1681 -0.5422
 7623SOL    HW134502   0.338   0.191   9.251  0.1377  1.0320  0.7216
 7623SOL    HW234503   0.335   0.049   9.275 -0.7885 -1.6023  1.7336
 7624SOL     OW34504   2.697   3.639   4.120 -0.2298  0.4086  0.1512
 7624SOL    HW134505   2.782   3.604   4.095 -0.2642  0.7828 -0.4714
 7624SOL    HW234506   2.670   3.589   4.198 -0.6204  0.2073 -0.1116
 7625SOL     OW34507   0.096   0.678  16.838  0.4918  0.4135  0.0154
 7625SOL    HW134508   0.147   0.680  16.757  3.1741  0.4108  1.6965
 7625SOL    HW234509   0.160   0.720  16.895  0.3957 -0.0895  0.4925
 7626SOL     OW34510   1.951   0.105   1.921 -0.3458 -0.2280 -0.1280
 7626SOL    HW134511   1.926   0.147   2.003 -0.0820 -0.5815  0.1356
 7626SOL    HW234512   2.034   0.065   1.948 -0.0330  0.3532 -0.2292
 7627SOL     OW34513   2.005   0.901   1.339  0.2883  0.0193  0.3379
 7627SOL    HW134514   2.095   0.868   1.345  0.6922  0.3488 -3.4960
 7627SOL    HW234515   1.985   0.895   1.245  0.7303  0.3485  0.2232
 7628SOL     OW34516   0.049   2.452   3.223  0.3882 -0.1460 -0.0434
 7628SOL    HW134517   4.721   2.511   3.264  1.4118  1.8116 -1.2960
 7628SOL    HW234518   0.003   2.438   3.140  0.6556 -2.0578  0.1191
 7629SOL     OW34519   4.531   1.472   9.485  0.0731  0.4263 -0.5129
 7629SOL    HW134520   4.469   1.428   9.544 -0.0695  1.5895  0.2112
 7629SOL    HW234521   4.483   1.541   9.439  0.6906 -0.7497 -2.8801
 7630SOL     OW34522   4.636   3.765   7.298 -0.5655 -0.5983 -0.1476
 7630SOL    HW134523   4.581   3.832   7.258 -0.4930  0.3609  1.3667
 7630SOL    HW234524   4.705   3.754   7.232 -1.1350 -0.7359 -0.7128
 7631SOL     OW34525   1.962   1.055   4.990  0.4657 -0.2701 -0.0799
 7631SOL    HW134526   1.947   0.961   4.999 -1.1511 -0.0122  0.0196
 7631SOL    HW234527   1.906   1.064   4.913  0.1219 -0.2286  0.1724
 7632SOL     OW34528   1.538   1.468   2.688  0.7677 -0.5105  0.3642
 7632SOL    HW134529   1.464   1.516   2.650 -1.1987 -2.2687  2.0253
 7632SOL    HW234530   1.604   1.486   2.621  2.6106 -1.1100  2.0096
 7633SOL     OW34531   4.199   2.783  14.357 -0.1993 -0.0356 -0.4053
 7633SOL    HW134532   4.194   2.694  14.322  1.2970 -0.7959  1.3170
 7633SOL    HW234533   4.114   2.817  14.329  0.6185  1.4753 -1.0677
 7634SOL     OW34534   2.232   3.456   3.813 -0.0356  0.1367 -0.2088
 7634SOL    HW134535   2.224   3.386   3.749  0.5854  1.0802 -1.3294
 7634SOL    HW234536   2.283   3.521   3.763  0.3390 -0.1116 -0.1512
 7635SOL     OW34537   0.311   2.782   2.813  0.0066 -0.0116  0.2059
 7635SOL    HW134538   0.289   2.728   2.738 -1.1966  1.7049 -0.6905
 7635SOL    HW234539   0.259   2.745   2.884 -1.1564  0.0146 -0.6390
 7636SOL     OW34540   3.488   3.492   6.360  0.8212  0.0212 -0.4840
 7636SOL    HW134541   3.393   3.480   6.366  0.8448 -1.6939 -3.3405
 7636SOL    HW234542   3.524   3.437   6.431 -2.2413 -0.2574  0.8504
 7637SOL     OW34543   1.670   1.643   1.871  0.4290  0.3720  0.3428
 7637SOL    HW134544   1.677   1.551   1.896  0.0394  0.3896  0.5149
 7637SOL    HW234545   1.604   1.676   1.932 -0.1300  1.0251 -0.6022
 7638SOL     OW34546   2.052   3.913   6.897  0.3856  0.3763  0.0607
 7638SOL    HW134547   1.972   3.933   6.848 -1.2971 -1.1104  2.1414
 7638SOL    HW234548   2.119   3.878   6.839  0.7930  1.4371 -0.1061
 7639SOL     OW34549   1.531   1.791  15.157  0.7087  0.1014 -0.1748
 7639SOL    HW134550   1.445   1.749  15.162  0.6538  0.2586  0.2374
 7639SOL    HW234551   1.583   1.717  15.186 -1.5557 -1.0867  0.9041
 7640SOL     OW34552   4.160   2.052   1.157 -0.1492 -0.2563 -0.3508
 7640SOL    HW134553   4.189   2.034   1.067 -0.2385 -0.7559 -0.2809
 7640SOL    HW234554   4.105   2.127   1.137  1.3505  0.5775 -1.3722
 7641SOL     OW34555   0.857   0.339   5.348 -0.8336  0.1025 -0.0268
 7641SOL    HW134556   0.928   0.283   5.317 -0.2547  0.4304  0.6988
 7641SOL    HW234557   0.887   0.409   5.407 -1.4767  0.3824 -0.0302
 7642SOL     OW34558   0.374   1.234  10.485  0.4492  0.2012 -0.0424
 7642SOL    HW134559   0.339   1.280  10.561  0.6689  0.2476  0.0299
 7642SOL    HW234560   0.360   1.145  10.517 -2.8850  0.8490  0.3309
 7643SOL     OW34561   0.800   1.639   8.433  0.0890  0.3097  0.3422
 7643SOL    HW134562   0.835   1.645   8.522  1.0573 -2.9558  0.1423
 7643SOL    HW234563   0.824   1.726   8.399 -0.3911  0.1076 -0.5116
 7644SOL     OW34564   1.815   0.572   3.091 -0.4586  0.1656  0.6014
 7644SOL    HW134565   1.861   0.637   3.143 -1.0722  0.9641  0.1441
 7644SOL    HW234566   1.873   0.496   3.087 -2.7078 -1.6179  1.9223
 7645SOL     OW34567   1.396   2.800   4.187 -0.2658  0.4219  0.1146
 7645SOL    HW134568   1.448   2.846   4.121 -1.7941 -1.0043 -2.0898
 7645SOL    HW234569   1.307   2.798   4.153  0.4179 -1.0436 -1.6165
 7646SOL     OW34570   3.730   2.817  13.707  0.0792 -0.1799  0.0885
 7646SOL    HW134571   3.684   2.755  13.764  1.2516 -0.9010  0.2480
 7646SOL    HW234572   3.799   2.763  13.670 -1.2385 -1.2766 -0.7806
 7647SOL     OW34573   1.694   3.490   4.192 -0.9290  0.0803 -0.3950
 7647SOL    HW134574   1.640   3.565   4.218  0.0002  1.0848 -1.3941
 7647SOL    HW234575   1.779   3.524   4.221 -0.4131  0.4226 -2.3268
 7648SOL     OW34576   0.005   2.329   6.297 -0.2342 -0.1594  0.0389
 7648SOL    HW134577   0.004   2.296   6.208  1.4004 -0.6276  0.2059
 7648SOL    HW234578   0.054   2.260   6.341 -0.6734  1.3435  2.9017
 7649SOL     OW34579   2.472   3.224   6.126 -0.2635 -0.0523 -0.5900
 7649SOL    HW134580   2.542   3.282   6.158  0.9231 -2.1512  0.6277
 7649SOL    HW234581   2.391   3.245   6.172  1.7062  4.3240  0.9152
 7650SOL     OW34582   0.146   1.207  13.564 -0.2288  0.3461 -0.0502
 7650SOL    HW134583   0.233   1.238  13.537 -0.2870 -0.2504 -0.9190
 7650SOL    HW234584   0.163   1.206  13.659  0.2179  1.7436 -0.1107
 7651SOL     OW34585   1.705   1.064  16.255 -0.3227 -0.4873 -0.1864
 7651SOL    HW134586   1.728   1.109  16.174 -1.2806  2.1740  1.0334
 7651SOL    HW234587   1.759   0.985  16.251  1.2903  0.5462  1.1551
 7652SOL     OW34588   0.047   3.028  15.170  0.5205 -0.4435  0.0245
 7652SOL    HW134589   4.706   3.080  15.197  0.0727 -0.2428 -1.6224
 7652SOL    HW234590   0.122   3.087  15.177  0.7586 -0.9863  2.2148
 7653SOL     OW34591   3.261   0.737   0.961  0.6915 -0.3088 -0.3547
 7653SOL    HW134592   3.269   0.762   1.053 -1.2955  1.3778 -0.6249
 7653SOL    HW234593   3.353   0.753   0.941  0.3813  0.9961 -0.7568
 7654SOL     OW34594   3.252   2.550  10.132  0.0177 -0.4851 -0.3070
 7654SOL    HW134595   3.215   2.488  10.069 -0.9988 -2.0444  1.8445
 7654SOL    HW234596   3.183   2.613  10.153 -0.4237 -1.1283  0.1661
 7655SOL     OW34597   3.244   2.609   7.110 -0.5516 -0.2656 -0.0942
 7655SOL    HW134598   3.295   2.682   7.077 -1.1807  1.1363  2.0699
 7655SOL    HW234599   3.255   2.558   7.029 -0.6703 -1.2725  0.5281
 7656SOL     OW34600   2.295   0.355   2.330 -0.9275 -0.5649  0.0152
 7656SOL    HW134601   2.360   0.299   2.372  0.8402  0.2792 -1.6043
 7656SOL    HW234602   2.238   0.360   2.407 -2.6289  0.4591 -1.3001
 7657SOL     OW34603   4.167   2.930   6.203 -0.0309  0.3217 -0.5108
 7657SOL    HW134604   4.164   2.966   6.291 -0.8716 -0.7160 -0.1207
 7657SOL    HW234605   4.199   2.840   6.216 -1.8209 -0.3099 -0.5567
 7658SOL     OW34606   4.711   1.993   8.718 -0.1415 -0.2237 -0.1301
 7658SOL    HW134607   0.032   2.064   8.750 -0.7873  1.2700 -2.3528
 7658SOL    HW234608   4.632   2.026   8.761  1.5494  1.6266  1.5226
 7659SOL     OW34609   1.428   2.822   4.488 -0.4970 -0.0770 -0.2550
 7659SOL    HW134610   1.491   2.751   4.479 -0.3622 -0.1604  1.3080
 7659SOL    HW234611   1.428   2.864   4.402  0.4657 -1.3097 -0.8467
 7660SOL     OW34612   0.924   3.805  12.524  0.1342 -0.7322 -0.1648
 7660SOL    HW134613   0.981   3.875  12.554  0.6868 -1.6801  1.0200
 7660SOL    HW234614   0.838   3.842  12.542  0.5936 -0.2153  0.9588
 7661SOL     OW34615   1.750   4.489  17.544 -0.3170  0.5766  0.2833
 7661SOL    HW134616   1.724   4.404  17.509  0.9064  0.1116  0.4927
 7661SOL    HW234617   1.691   4.497  17.618 -0.7054 -0.0576  0.0496
 7662SOL     OW34618   2.131   3.220   5.049  0.6024 -0.0068 -0.3781
 7662SOL    HW134619   2.072   3.270   4.992  1.0933 -0.3101 -1.1561
 7662SOL    HW234620   2.123   3.270   5.130  3.2341 -0.4052  0.1046
 7663SOL     OW34621   0.815   2.798   9.833  0.3052  0.5777  0.8840
 7663SOL    HW134622   0.762   2.876   9.851 -0.1756  1.0171 -2.3781
 7663SOL    HW234623   0.889   2.808   9.893  0.0576 -0.2633  1.3249
 7664SOL     OW34624   1.156   0.329  15.780 -0.5286 -0.7913  0.4517
 7664SOL    HW134625   1.070   0.288  15.792 -1.1577  0.5538  0.4306
 7664SOL    HW234626   1.137   0.422  15.790 -0.4995 -0.5976 -1.2144
 7665SOL     OW34627   3.074   0.689  10.371 -0.4064 -0.0601  0.2527
 7665SOL    HW134628   2.998   0.717  10.421 -0.2560 -1.9384  1.5496
 7665SOL    HW234629   3.074   0.726  10.283 -1.5097 -1.0184 -0.1486
 7666SOL     OW34630   2.018   2.548  15.005  0.2149  0.3922  0.2054
 7666SOL    HW134631   2.009   2.591  14.920  3.0929 -1.1535 -0.8695
 7666SOL    HW234632   2.000   2.457  14.980  3.5056 -0.5225  1.1733
 7667SOL     OW34633   1.081   1.800  10.332 -0.7077 -0.4599 -0.2912
 7667SOL    HW134634   1.013   1.838  10.387  1.1440  2.9444 -0.3516
 7667SOL    HW234635   1.119   1.879  10.293 -0.7142  0.0953  0.8422
 7668SOL     OW34636   3.084   0.364   3.379  0.2794 -0.6002  0.0378
 7668SOL    HW134637   3.049   0.278   3.356  0.7149  0.0915 -3.1447
 7668SOL    HW234638   3.175   0.334   3.378  1.4015  2.8236 -0.3309
 7669SOL     OW34639   3.268   2.306   5.177  0.3865  0.4742  0.1426
 7669SOL    HW134640   3.274   2.269   5.089 -0.0703  0.4604  0.1156
 7669SOL    HW234641   3.338   2.262   5.225 -0.2648 -1.2430 -0.4842
 7670SOL     OW34642   2.036   0.850   7.473 -0.0066  0.2188  0.1886
 7670SOL    HW134643   2.040   0.800   7.555 -0.1453  0.3881  0.2993
 7670SOL    HW234644   2.108   0.799   7.436  1.0705 -0.1157  2.6956
 7671SOL     OW34645   1.676   3.706   3.922 -0.4013  0.3965 -0.3047
 7671SOL    HW134646   1.747   3.641   3.922  0.4900  1.3730  0.9324
 7671SOL    HW234647   1.715   3.793   3.916  3.5738 -1.5128 -2.1156
 7672SOL     OW34648   4.628   4.200   3.596  0.2257 -0.7319 -0.2792
 7672SOL    HW134649   4.553   4.244   3.557  1.1491 -0.9977 -2.3691
 7672SOL    HW234650   4.692   4.264   3.627 -1.7051  1.7286 -1.4158
 7673SOL     OW34651   3.002   0.582  17.708  0.5655 -0.2112  0.1288
 7673SOL    HW134652   3.038   0.539  17.630  0.9461 -1.0228  0.7550
 7673SOL    HW234653   3.039   0.668  17.689 -0.6071  0.5377  1.2346
 7674SOL     OW34654   0.329   1.454   8.763 -0.3289 -0.5968 -0.2501
 7674SOL    HW134655   0.374   1.407   8.692  0.9281 -0.8259  0.6890
 7674SOL    HW234656   0.279   1.508   8.702  0.8227 -0.6385 -1.2427
 7675SOL     OW34657   1.994   3.132   3.973  0.2223 -0.5514  0.1116
 7675SOL    HW134658   1.948   3.184   3.907 -0.5147 -1.4997 -0.1136
 7675SOL    HW234659   1.918   3.078   3.998 -0.8179  0.6416 -0.4406
 7676SOL     OW34660   1.007   2.099   4.085 -0.2826  0.0192  0.3371
 7676SOL    HW134661   1.040   2.164   4.147  0.6971  0.0681 -0.2319
 7676SOL    HW234662   1.074   2.031   4.084  0.3313  0.6295 -0.2649
 7677SOL     OW34663   3.544   1.543  14.958 -0.1801  0.4826 -0.2579
 7677SOL    HW134664   3.539   1.467  14.901  1.9018  0.9341 -1.0662
 7677SOL    HW234665   3.638   1.550  14.943 -0.1285 -0.0625 -0.1854
 7678SOL     OW34666   2.215   2.870   8.259 -0.2490 -0.5478 -0.6240
 7678SOL    HW134667   2.181   2.827   8.180 -3.5342  1.4359 -0.2850
 7678SOL    HW234668   2.304   2.892   8.234  0.4020  0.2239  2.3353
 7679SOL     OW34669   2.023   4.444   8.922  0.3573  0.1939  0.2059
 7679SOL    HW134670   1.939   4.490   8.916 -0.3450 -1.1197  0.0531
 7679SOL    HW234671   2.017   4.363   8.871  1.1523 -0.0865  0.5557
 7680SOL     OW34672   1.659   3.547   7.507  0.0808 -0.0250  0.0990
 7680SOL    HW134673   1.604   3.476   7.539 -1.3757  1.4346  0.8328
 7680SOL    HW234674   1.619   3.568   7.423 -0.3799 -0.2678  0.2581
 7681SOL     OW34675   0.521   2.745   7.808 -0.0588 -0.1220  0.4855
 7681SOL    HW134676   0.531   2.758   7.902  0.5010  1.3032  0.2335
 7681SOL    HW234677   0.581   2.673   7.787  0.6061 -0.0846  2.3006
 7682SOL     OW34678   2.259   3.254  17.053 -0.0870 -0.0293 -0.2550
 7682SOL    HW134679   2.331   3.283  16.998 -0.1940 -0.8005 -0.8023
 7682SOL    HW234680   2.189   3.264  16.988  0.3551  1.0345 -0.5551
 7683SOL     OW34681   1.551   0.196   2.240  0.1191  0.3455  0.2798
 7683SOL    HW134682   1.559   0.287   2.209 -0.0580 -0.2950 -1.6416
 7683SOL    HW234683   1.604   0.156   2.171 -3.1321 -0.3128 -1.8716
 7684SOL     OW34684   1.028   0.971  14.968 -0.0855  0.5084 -0.3545
 7684SOL    HW134685   0.942   1.008  14.988 -0.9565 -0.3758 -2.4158
 7684SOL    HW234686   1.051   1.027  14.894  1.5905 -0.0803 -0.2734
 7685SOL     OW34687   4.289   0.571   6.889 -0.2196  0.1867  0.4240
 7685SOL    HW134688   4.310   0.601   6.977  0.7121  0.0534  0.2508
 7685SOL    HW234689   4.309   0.477   6.891 -0.1420  0.1924  0.0016
 7686SOL     OW34690   3.980   0.030   3.776 -0.2971  0.9926  0.1462
 7686SOL    HW134691   3.990   4.728   3.864  0.5472 -0.1654 -0.4333
 7686SOL    HW234692   4.043   4.705   3.738 -2.1188 -2.3551  2.3350
 7687SOL     OW34693   3.689   2.334  12.900  0.2150  0.2688  0.3397
 7687SOL    HW134694   3.608   2.345  12.851  0.6552  0.1934 -0.4143
 7687SOL    HW234695   3.676   2.413  12.951 -0.8175 -0.9961  2.0339
 7688SOL     OW34696   3.672   0.588  12.790 -0.0899  0.4356  0.6523
 7688SOL    HW134697   3.588   0.562  12.751  1.1539 -2.6157  0.0056
 7688SOL    HW234698   3.639   0.624  12.872 -2.6109  0.7328 -0.5008
 7689SOL     OW34699   1.895   2.894   5.240  0.3186  0.2322 -0.5073
 7689SOL    HW134700   1.857   2.972   5.200 -1.9130 -0.3765  0.4552
 7689SOL    HW234701   1.919   2.840   5.164  0.3798  0.2028 -0.4673
 7690SOL     OW34702   1.517   4.251   2.436 -0.1160  0.0819  0.2589
 7690SOL    HW134703   1.428   4.225   2.409  0.9028 -1.7830 -1.2726
 7690SOL    HW234704   1.509   4.301   2.517  0.7442  2.4068 -1.0978
 7691SOL     OW34705   1.157   4.453   2.602  0.3722  0.4804 -0.2116
 7691SOL    HW134706   1.205   4.494   2.673 -2.4220 -1.0035  2.5323
 7691SOL    HW234707   1.178   4.513   2.530 -1.1129  2.2830  0.8550
 7692SOL     OW34708   0.295   1.094   6.776  0.6082  0.1673  0.3209
 7692SOL    HW134709   0.238   1.102   6.700  1.9144  1.1044 -0.5635
 7692SOL    HW234710   0.356   1.029   6.740 -1.6281 -1.0509 -1.2514
 7693SOL     OW34711   4.090   3.947   2.014  0.3267 -0.3603  0.2633
 7693SOL    HW134712   4.133   4.001   2.080 -3.0942  1.7473  0.7990
 7693SOL    HW234713   4.112   3.858   2.042  2.4817 -0.7464 -2.5945
 7694SOL     OW34714   0.063   2.219   2.238  0.5261 -0.0832  0.6238
 7694SOL    HW134715   0.083   2.240   2.147  0.6078  1.1951  0.9419
 7694SOL    HW234716   4.714   2.176   2.224  0.0705  1.1982 -0.5209
 7695SOL     OW34717   0.688   4.307  15.485  0.4728  0.3709  0.0370
 7695SOL    HW134718   0.660   4.351  15.405  0.4881  0.9770  0.3684
 7695SOL    HW234719   0.608   4.266  15.517  0.5461 -0.5388 -0.9483
 7696SOL     OW34720   0.019   3.697   5.619 -0.3149 -0.3756  0.0361
 7696SOL    HW134721   0.019   3.733   5.708  0.6835  2.2024 -1.0089
 7696SOL    HW234722   0.073   3.620   5.638 -1.9953 -1.4564  0.4826
 7697SOL     OW34723   3.301   0.648   7.059 -0.0550  0.2562  0.0178
 7697SOL    HW134724   3.235   0.584   7.085 -2.2688  1.3779 -2.7868
 7697SOL    HW234725   3.246   0.709   7.009 -0.2188 -0.0721 -0.1967
 7698SOL     OW34726   2.757   0.986   4.369  0.2046 -0.1164 -0.1162
 7698SOL    HW134727   2.796   0.959   4.286  1.6696  1.2500  0.1181
 7698SOL    HW234728   2.726   1.072   4.339 -1.3641 -0.1223  1.4781
 7699SOL     OW34729   3.203   0.182   3.969  0.5589 -0.0655 -0.3705
 7699SOL    HW134730   3.179   0.091   3.953 -1.3620  0.4047 -0.0430
 7699SOL    HW234731   3.298   0.189   3.955  0.6800 -1.2854 -0.1257
 7700SOL     OW34732   1.996   3.470   9.050  0.0075 -0.2699  0.0204
 7700SOL    HW134733   1.987   3.375   9.062 -0.0763 -0.3334 -0.5650
 7700SOL    HW234734   1.907   3.499   9.068 -0.0415  0.0661 -0.7752
 7701SOL     OW34735   1.117   0.405   9.356 -0.2183 -1.0642 -1.0442
 7701SOL    HW134736   1.038   0.359   9.328 -2.2650  2.6186 -1.2154
 7701SOL    HW234737   1.187   0.340   9.342  2.8257  1.7299  1.2203
 7702SOL     OW34738   0.906   3.206  16.248  0.3797 -0.2153  0.8767
 7702SOL    HW134739   0.896   3.248  16.162  0.1262  0.3248  1.1685
 7702SOL    HW234740   0.914   3.114  16.222 -0.4641  0.0944 -0.5013
 7703SOL     OW34741   0.747   0.437  13.522  0.4409  0.5995 -0.0199
 7703SOL    HW134742   0.819   0.472  13.470  0.5579  0.7029  0.2146
 7703SOL    HW234743   0.684   0.502  13.491  0.0228 -0.7495 -2.0792
 7704SOL     OW34744   2.562   4.655  13.550 -0.1300 -0.1977  0.0228
 7704SOL    HW134745   2.561   4.670  13.644  2.0571  1.0937 -0.1607
 7704SOL    HW234746   2.647   4.613  13.536 -0.5437 -0.9278 -0.3721
 7705SOL     OW34747   1.202   2.451   3.352 -0.0118  0.2644  0.1142
 7705SOL    HW134748   1.135   2.396   3.312  0.1844  1.1854 -1.4732
 7705SOL    HW234749   1.285   2.405   3.340 -0.4528 -1.1587  2.3744
 7706SOL     OW34750   2.693   3.617   3.582 -0.5271  0.9356 -0.7695
 7706SOL    HW134751   2.747   3.695   3.567  0.2860  0.6172  0.5541
 7706SOL    HW234752   2.715   3.600   3.674 -0.3986  1.2993 -0.7309
 7707SOL     OW34753   3.290   1.015   8.429 -0.3575 -0.0644  0.1493
 7707SOL    HW134754   3.294   0.924   8.399  1.3193 -0.0748  0.4402
 7707SOL    HW234755   3.210   1.020   8.482 -0.5338 -2.2545  0.0920
 7708SOL     OW34756   2.451   3.950  11.331  0.3884 -0.0845 -0.0861
 7708SOL    HW134757   2.480   3.860  11.313  0.8065  0.0617 -0.1381
 7708SOL    HW234758   2.399   3.934  11.410  0.5857 -0.9965 -0.1286
 7709SOL     OW34759   1.192   2.690   5.563 -0.3373 -0.0377 -0.3539
 7709SOL    HW134760   1.247   2.624   5.604 -0.5925 -0.1086 -0.1238
 7709SOL    HW234761   1.242   2.725   5.490  1.0571 -1.4836 -0.1016
 7710SOL     OW34762   4.354   4.534  14.998 -0.4331  0.1895  0.2139
 7710SOL    HW134763   4.274   4.578  15.027 -0.3395  1.6637 -1.8078
 7710SOL    HW234764   4.362   4.456  15.053  1.3263  0.0124 -0.2944
 7711SOL     OW34765   3.816   0.799   1.598  0.4504 -0.2468  0.0550
 7711SOL    HW134766   3.759   0.871   1.571  1.7854 -0.2175 -2.7376
 7711SOL    HW234767   3.901   0.837   1.619  0.9965  0.3413 -3.1884
 7712SOL     OW34768   0.037   1.644   1.571  0.8053 -0.1357 -0.0271
 7712SOL    HW134769   4.702   1.627   1.508  1.6836  0.6542 -1.2037
 7712SOL    HW234770   0.075   1.718   1.524  0.5174 -0.3614 -0.6096
 7713SOL     OW34771   2.799   4.586   7.465 -0.2762 -0.7957  0.3624
 7713SOL    HW134772   2.867   4.604   7.530  0.7691 -1.7672 -0.4603
 7713SOL    HW234773   2.817   4.648   7.395 -0.4046 -1.8151 -0.5726
 7714SOL     OW34774   0.791   1.043   5.926 -0.3062  0.3802 -0.7057
 7714SOL    HW134775   0.857   1.104   5.893 -1.2153  0.5156 -2.2844
 7714SOL    HW234776   0.842   0.985   5.981  0.5051  0.7956 -1.0233
 7715SOL     OW34777   2.381   1.517  15.208  0.2634  0.1699 -0.1518
 7715SOL    HW134778   2.379   1.433  15.255  1.4511 -0.7428 -1.7223
 7715SOL    HW234779   2.464   1.509  15.161  1.0675  0.2053  1.2488
 7716SOL     OW34780   2.525   3.436   3.254 -0.1220  0.4771  0.0189
 7716SOL    HW134781   2.619   3.420   3.248  0.1102  2.1287 -0.5946
 7716SOL    HW234782   2.523   3.526   3.220  1.9605  0.7620  0.6533
 7717SOL     OW34783   1.284   0.411   3.721  0.1747 -0.1366  0.2320
 7717SOL    HW134784   1.365   0.359   3.721  0.2505 -0.0232  0.9452
 7717SOL    HW234785   1.279   0.454   3.636 -0.4914 -2.5222 -0.9316
 7718SOL     OW34786   0.822   2.289   4.804 -0.2825 -0.1264 -0.3373
 7718SOL    HW134787   0.743   2.316   4.850 -0.6651 -0.9850 -0.4954
 7718SOL    HW234788   0.864   2.374   4.790 -2.1521  1.1584  1.8817
 7719SOL     OW34789   3.424   4.587   2.686  0.2710 -0.0863 -0.2878
 7719SOL    HW134790   3.439   4.500   2.723 -1.1810  0.4016  1.4587
 7719SOL    HW234791   3.342   4.574   2.639  0.5560 -1.5520 -0.3856
 7720SOL     OW34792   4.280   1.718  12.983  0.0350 -0.2320  0.3476
 7720SOL    HW134793   4.206   1.778  12.971  0.2228  0.4676  2.6378
 7720SOL    HW234794   4.317   1.727  12.896 -0.5271  2.7691  0.4318
 7721SOL     OW34795   4.391   3.258  16.279 -0.2336 -0.2618 -0.0318
 7721SOL    HW134796   4.381   3.174  16.236 -0.8707 -0.4501  0.4943
 7721SOL    HW234797   4.454   3.302  16.221 -1.1667 -0.9006 -1.5071
 7722SOL     OW34798   0.118   2.793  12.870  0.2548  0.1339  0.0939
 7722SOL    HW134799   0.148   2.789  12.779 -0.7140 -2.4353 -0.1093
 7722SOL    HW234800   0.203   2.804  12.912 -0.5651  1.0500  1.5292
 7723SOL     OW34801   1.491   2.631   2.664  0.0767 -0.6454  0.1162
 7723SOL    HW134802   1.485   2.568   2.735 -0.0055  2.1770  2.6050
 7723SOL    HW234803   1.583   2.615   2.645 -0.1663 -0.5991 -1.1640
 7724SOL     OW34804   3.153   1.834   0.847  0.5387  0.3344  0.2305
 7724SOL    HW134805   3.097   1.778   0.901  0.0542  0.6509  0.0503
 7724SOL    HW234806   3.109   1.840   0.763 -1.8463 -0.3425  1.4138
 7725SOL     OW34807   3.963   3.477  13.355 -0.5197 -0.5627 -0.1270
 7725SOL    HW134808   3.948   3.532  13.432  0.0655 -0.0832 -0.3568
 7725SOL    HW234809   3.884   3.423  13.361 -3.1042  3.3989  1.3642
 7726SOL     OW34810   0.560   1.096   2.183 -0.4720  0.4400 -0.4323
 7726SOL    HW134811   0.468   1.097   2.157 -0.8798 -0.6395  1.0005
 7726SOL    HW234812   0.605   1.046   2.115  0.5694 -1.0988  1.4091
 7727SOL     OW34813   1.015   2.738   8.355 -0.2191 -0.5674 -0.2181
 7727SOL    HW134814   1.021   2.705   8.265  2.2204  0.6058 -0.4807
 7727SOL    HW234815   0.925   2.768   8.366 -0.0510 -0.6856  1.3619
 7728SOL     OW34816   1.562   1.550  11.354 -0.5713 -0.3022 -0.0269
 7728SOL    HW134817   1.469   1.531  11.342 -0.5793 -0.2789 -0.0029
 7728SOL    HW234818   1.576   1.587  11.441 -0.5815 -0.7600  0.1681
 7729SOL     OW34819   2.261   4.173   7.534 -0.3979 -0.0689  0.0891
 7729SOL    HW134820   2.205   4.182   7.611  0.7182  0.1033  0.8673
 7729SOL    HW234821   2.320   4.248   7.543 -0.0011 -0.0442 -2.6068
 7730SOL     OW34822   0.896   0.098   1.785  0.6889  0.3508  0.1100
 7730SOL    HW134823   0.830   0.032   1.806  0.7411 -0.4981 -2.4228
 7730SOL    HW234824   0.885   0.171   1.846 -1.8926 -0.2110  0.3202
 7731SOL     OW34825   0.905   3.318  15.987  0.1430  0.2212 -0.2207
 7731SOL    HW134826   0.963   3.377  16.035 -0.2265 -1.3399  2.1698
 7731SOL    HW234827   0.966   3.305  15.915  0.8547  1.9698  0.0723
 7732SOL     OW34828   3.306   0.352  17.251 -0.1146  0.2264  0.6000
 7732SOL    HW134829   3.239   0.407  17.209 -0.7762  0.3506  1.8237
 7732SOL    HW234830   3.336   0.414  17.318 -2.2704  0.0180  1.7445
 7733SOL     OW34831   0.225   4.514   3.243  0.1582 -0.0868 -0.3333
 7733SOL    HW134832   0.258   4.513   3.154  0.4884  0.6719 -0.2182
 7733SOL    HW234833   0.141   4.469   3.229  0.2470  0.1666 -1.6400
 7734SOL     OW34834   2.327   2.188   2.491  0.0427  0.5719 -0.6760
 7734SOL    HW134835   2.297   2.274   2.463 -1.5860 -0.0248 -0.7544
 7734SOL    HW234836   2.422   2.201   2.492  0.2569 -1.1217  0.4806
 7735SOL     OW34837   2.739   2.513   4.701  0.1443  0.2399 -0.6592
 7735SOL    HW134838   2.755   2.607   4.704 -2.1577  0.5573  1.9303
 7735SOL    HW234839   2.644   2.511   4.691 -0.2266 -1.2431  3.1422
 7736SOL     OW34840   4.383   3.966   4.156  0.2152  0.3724 -0.1824
 7736SOL    HW134841   4.392   3.930   4.068 -0.3648 -0.4683  0.1015
 7736SOL    HW234842   4.405   3.888   4.207  0.3390  1.3802  1.3215
 7737SOL     OW34843   1.688   4.122   5.577 -0.0863  0.1032 -0.5811
 7737SOL    HW134844   1.706   4.079   5.661 -1.9528  1.6448  0.6063
 7737SOL    HW234845   1.594   4.133   5.590  0.1384 -1.4032  2.5515
 7738SOL     OW34846   4.553   1.329   5.040  0.1214 -0.3244 -0.1090
 7738SOL    HW134847   4.605   1.272   4.984 -0.1507 -1.4794  0.8170
 7738SOL    HW234848   4.470   1.295   5.006 -0.2558  2.2522 -1.8061
 7739SOL     OW34849   0.479   1.019  11.217  0.3286 -0.2562  0.0304
 7739SOL    HW134850   0.394   0.982  11.242  0.0123 -0.9872 -2.0634
 7739SOL    HW234851   0.532   1.011  11.296 -0.9756 -0.5855  0.8555
 7740SOL     OW34852   2.931   1.205   4.025  0.0237  0.7468 -0.7136
 7740SOL    HW134853   2.966   1.179   3.940  0.9556 -1.7168  0.4218
 7740SOL    HW234854   2.937   1.300   4.019 -0.6334  0.9122  1.1920
 7741SOL     OW34855   2.371   3.434  12.790  0.1434  0.4871  0.6206
 7741SOL    HW134856   2.338   3.402  12.874  0.2159  0.3730  0.6053
 7741SOL    HW234857   2.295   3.408  12.738 -1.1927  1.2118  2.2470
 7742SOL     OW34858   1.918   3.113   9.357  0.8404  0.3582  0.5786
 7742SOL    HW134859   1.922   3.112   9.452  0.1892 -1.8148  0.5855
 7742SOL    HW234860   1.880   3.201   9.353  0.6828  0.2459 -0.5253
 7743SOL     OW34861   0.772   3.720   2.599  0.3872  0.6187  0.1071
 7743SOL    HW134862   0.770   3.815   2.594 -2.7549  0.4989 -0.6047
 7743SOL    HW234863   0.692   3.702   2.649 -0.6940 -0.8005 -2.1285
 7744SOL     OW34864   4.707   3.143   5.720  0.2829  0.4971 -0.0021
 7744SOL    HW134865   0.045   3.178   5.668 -1.1196 -0.4610 -2.6467
 7744SOL    HW234866   4.722   3.049   5.710  0.7485  0.5704  0.0062
 7745SOL     OW34867   1.831   1.211  15.561 -0.2287 -0.3401  0.4817
 7745SOL    HW134868   1.756   1.178  15.610  0.2528  1.2761  2.2908
 7745SOL    HW234869   1.875   1.268  15.624 -0.0566  0.9390 -0.7814
 7746SOL     OW34870   0.873   1.359   8.315  0.0823  0.2291  0.7679
 7746SOL    HW134871   0.874   1.306   8.236 -0.1831  0.0444  0.8878
 7746SOL    HW234872   0.778   1.370   8.318  0.4296  3.1637  1.6604
 7747SOL     OW34873   0.052   1.541   9.831 -0.3279 -0.2645  0.4196
 7747SOL    HW134874   0.064   1.607   9.762 -1.0043  0.0813  0.6285
 7747SOL    HW234875   4.719   1.582   9.885 -2.5479 -2.2435 -0.9010
 7748SOL     OW34876   3.445   2.046   0.121 -0.7575  0.4727  0.1700
 7748SOL    HW134877   3.455   1.981   0.052  0.4406  1.4680 -0.6039
 7748SOL    HW234878   3.374   2.095   0.081  0.3869 -0.6801 -3.2644
 7749SOL     OW34879   3.537   1.896  17.647  0.0632  0.3199 -0.0402
 7749SOL    HW134880   3.543   1.958  17.573  0.0516  0.4351  0.0554
 7749SOL    HW234881   3.552   1.811  17.606 -4.2506  0.4099 -1.7309
 7750SOL     OW34882   1.530   3.983   3.719  0.3654 -0.0980 -0.0470
 7750SOL    HW134883   1.618   4.017   3.730  0.4082 -0.0335 -0.5865
 7750SOL    HW234884   1.544   3.943   3.633  0.5154  0.3696 -0.2382
 7751SOL     OW34885   3.993   3.727  14.106  0.3217 -0.0402  0.1653
 7751SOL    HW134886   3.988   3.774  14.189  0.8680 -1.4278  0.9823
 7751SOL    HW234887   3.905   3.691  14.110  0.4310 -0.1023  1.9251
 7752SOL     OW34888   3.988   2.768   4.095  0.5756  0.3582 -0.0566
 7752SOL    HW134889   4.060   2.722   4.053  0.7073 -0.0025  0.5590
 7752SOL    HW234890   3.982   2.716   4.176 -1.0497  0.1342 -0.3054
 7753SOL     OW34891   0.365   1.378   8.168  0.5373 -0.0268 -0.2645
 7753SOL    HW134892   0.425   1.433   8.219 -0.6376 -0.5782  1.7035
 7753SOL    HW234893   0.289   1.437   8.165 -1.2983 -2.6031 -4.4769
 7754SOL     OW34894   1.135   0.132   2.291 -0.1601 -0.0802 -0.3822
 7754SOL    HW134895   1.150   0.227   2.288 -0.9084  0.1108  1.9122
 7754SOL    HW234896   1.093   0.124   2.205  0.1333 -0.0523 -0.5284
 7755SOL     OW34897   2.509   3.986  16.531 -0.0166  0.1557  0.0432
 7755SOL    HW134898   2.534   4.062  16.583 -0.1612  0.4281 -0.2874
 7755SOL    HW234899   2.539   4.014  16.445  1.7023  3.2835  1.6816
 7756SOL     OW34900   4.002   0.086   9.034  0.2286 -0.0533  0.7399
 7756SOL    HW134901   4.093   0.110   9.051  0.1995  1.4771 -1.2201
 7756SOL    HW234902   3.998   4.729   9.007  0.9795  0.5385 -1.3865
 7757SOL     OW34903   4.465   4.467  10.895  0.0595 -0.1339  0.0857
 7757SOL    HW134904   4.408   4.420  10.955 -0.2068 -0.1719 -0.1987
 7757SOL    HW234905   4.442   4.557  10.917 -0.6203  0.3167 -2.4682
 7758SOL     OW34906   1.748   3.706   3.083  0.6440  0.0099  0.1341
 7758SOL    HW134907   1.688   3.774   3.051  0.8465 -0.0704 -0.4054
 7758SOL    HW234908   1.828   3.757   3.096  2.2729 -1.9866 -2.2027
 7759SOL     OW34909   0.974   2.488   5.741 -0.4998  0.1930  0.3744
 7759SOL    HW134910   0.904   2.429   5.770  0.5001 -1.2490 -0.1286
 7759SOL    HW234911   1.032   2.491   5.817  2.5603 -4.9771 -1.7349
 7760SOL     OW34912   3.209   0.773   6.009 -0.2198 -0.6105  0.1731
 7760SOL    HW134913   3.164   0.696   6.045  0.5809 -0.8351  0.6797
 7760SOL    HW234914   3.184   0.837   6.076 -0.3392  0.1253 -0.5772
 7761SOL     OW34915   2.094   1.382  15.278 -0.7661 -0.0795  0.1925
 7761SOL    HW134916   2.188   1.368  15.293 -1.0903 -2.5249 -0.0397
 7761SOL    HW234917   2.075   1.475  15.289  2.2931  0.7184 -1.0105
 7762SOL     OW34918   1.679   0.136   1.569 -0.3773  0.3538  0.4944
 7762SOL    HW134919   1.730   0.173   1.641  1.0665  1.2545 -1.0016
 7762SOL    HW234920   1.709   0.192   1.497 -0.2428 -2.0992 -1.3525
 7763SOL     OW34921   1.780   1.172  16.017  0.0822 -0.0393 -0.1214
 7763SOL    HW134922   1.693   1.149  15.984 -1.7820  2.1053  3.3905
 7763SOL    HW234923   1.834   1.097  15.992 -0.6152 -0.6116  0.0873
 7764SOL     OW34924   4.041   4.118   3.741 -0.6008 -0.2061 -0.1642
 7764SOL    HW134925   4.114   4.088   3.795 -0.4390  0.1077 -0.2084
 7764SOL    HW234926   4.073   4.204   3.713  0.0554 -0.1649  0.7079
 7765SOL     OW34927   0.299   3.770  16.329 -0.1123  0.1114 -0.1535
 7765SOL    HW134928   0.377   3.745  16.378  0.3505 -1.2791 -1.5966
 7765SOL    HW234929   0.276   3.848  16.379 -0.0438  0.4968 -0.7111
 7766SOL     OW34930   1.264   1.847  17.200  0.5547 -0.5125 -0.1616
 7766SOL    HW134931   1.197   1.894  17.250  2.6373  0.9956  1.2585
 7766SOL    HW234932   1.287   1.904  17.127 -0.9775 -0.7373 -0.8108
 7767SOL     OW34933   2.395   4.241   6.054 -0.8951  0.4341 -0.2006
 7767SOL    HW134934   2.356   4.177   6.113  2.3454 -0.8581  0.5404
 7767SOL    HW234935   2.476   4.193   6.034  0.0341  1.3823  1.2647
 7768SOL     OW34936   2.030   2.750   3.385 -0.2040 -0.3380  0.3819
 7768SOL    HW134937   1.978   2.695   3.444 -1.7668  1.6484  0.8484
 7768SOL    HW234938   2.111   2.750   3.437 -1.9892  0.5580  3.1679
 7769SOL     OW34939   2.317   2.931  12.129  0.2200  0.2799 -0.2109
 7769SOL    HW134940   2.338   2.963  12.216 -0.6687 -1.4617  0.6375
 7769SOL    HW234941   2.406   2.927  12.094  1.3316  1.4572  2.5067
 7770SOL     OW34942   1.228   4.596   1.655  0.2746 -0.3243  0.3167
 7770SOL    HW134943   1.296   4.566   1.715 -0.8200  2.0764  2.7306
 7770SOL    HW234944   1.246   4.543   1.577 -1.9137 -0.3997 -0.1472
 7771SOL     OW34945   0.117   0.009   7.874  0.1444 -0.5298 -0.8065
 7771SOL    HW134946   0.151   4.697   7.951  0.3112 -0.5963 -0.9206
 7771SOL    HW234947   0.026   4.715   7.868  0.2066 -0.7102 -0.8656
 7772SOL     OW34948   3.036   2.316  12.529  0.4201 -0.4031 -0.1620
 7772SOL    HW134949   3.040   2.275  12.615 -1.3624 -0.3287 -0.0457
 7772SOL    HW234950   2.948   2.355  12.532  0.1386 -1.0680  0.2158
 7773SOL     OW34951   0.437   0.626   0.252 -0.1936 -0.0539  0.4746
 7773SOL    HW134952   0.385   0.666   0.183  0.4330  0.1958  0.1449
 7773SOL    HW234953   0.371   0.565   0.285 -0.4103  1.0878  2.1403
 7774SOL     OW34954   0.495   4.251   2.581 -0.5363 -0.0595  0.1575
 7774SOL    HW134955   0.515   4.297   2.500 -1.2515 -0.0729 -0.0294
 7774SOL    HW234956   0.507   4.316   2.650  1.3119  0.8898 -1.0722
 7775SOL     OW34957   1.915   2.105   6.158  0.1378 -0.7546  0.5172
 7775SOL    HW134958   1.942   2.016   6.138 -1.8695 -1.2769  0.1505
 7775SOL    HW234959   1.990   2.148   6.116 -0.6215  0.4646  0.3851
 7776SOL     OW34960   2.630   1.119   3.668  0.0268  0.4780 -0.0104
 7776SOL    HW134961   2.620   1.184   3.736 -1.2434 -1.5772  1.7663
 7776SOL    HW234962   2.715   1.079   3.688  0.6946  2.5476  1.2986
 7777SOL     OW34963   4.073   2.471   9.005  0.0615  0.6053  0.5125
 7777SOL    HW134964   4.133   2.397   9.009 -1.4969 -0.7325 -1.0919
 7777SOL    HW234965   4.014   2.434   9.070 -1.1735  0.6491 -0.5860
 7778SOL     OW34966   3.909   4.507   1.237  0.0609  0.5844  0.4645
 7778SOL    HW134967   3.871   4.504   1.149  0.1009  0.1897  0.4634
 7778SOL    HW234968   3.849   4.576   1.266  1.0545  2.6390 -2.2921
 7779SOL     OW34969   3.114   0.804   8.650 -0.4567  0.5870 -0.2290
 7779SOL    HW134970   3.086   0.813   8.742 -0.2084  3.7236 -0.4584
 7779SOL    HW234971   3.075   0.876   8.601  0.4142  0.1928 -1.4828
 7780SOL     OW34972   4.499   2.171   6.307  0.2259 -0.1082  0.0842
 7780SOL    HW134973   4.582   2.126   6.295  0.3897  0.0313  0.6960
 7780SOL    HW234974   4.449   2.102   6.264  0.2152  0.6050 -1.0414
 7781SOL     OW34975   4.014   0.239  10.521 -0.2834 -0.2029  0.5099
 7781SOL    HW134976   4.031   0.202  10.434  1.4776  0.1262  0.7071
 7781SOL    HW234977   4.103   0.244  10.556  0.1111 -0.2216 -0.5003
 7782SOL     OW34978   1.440   2.158   1.321 -0.2576  0.4096 -0.0560
 7782SOL    HW134979   1.421   2.087   1.382 -0.2804 -0.5686 -1.1797
 7782SOL    HW234980   1.370   2.164   1.256  0.7279  1.1396 -1.0531
 7783SOL     OW34981   3.760   2.077   4.598 -0.1199 -0.4079  0.1891
 7783SOL    HW134982   3.772   1.983   4.583 -1.9055 -0.6355  0.1660
 7783SOL    HW234983   3.801   2.094   4.683  2.3561  0.3292 -1.1611
 7784SOL     OW34984   1.534   3.276  15.882 -0.1227  0.0081 -0.2948
 7784SOL    HW134985   1.462   3.266  15.820  0.5954 -3.2362 -0.6098
 7784SOL    HW234986   1.605   3.310  15.827  0.3005 -1.0292 -0.3817
 7785SOL     OW34987   4.393   0.798   0.727 -0.1563  0.4890  0.1616
 7785SOL    HW134988   4.478   0.833   0.755 -1.3873  2.7180  1.1133
 7785SOL    HW234989   4.348   0.826   0.807 -1.0727 -4.1418  1.2745
 7786SOL     OW34990   3.616   3.074   7.255  0.1025 -0.0540  0.0147
 7786SOL    HW134991   3.532   3.090   7.298 -0.0083  0.8747 -0.5378
 7786SOL    HW234992   3.614   2.983   7.225  0.9330  0.5352 -1.8335
 7787SOL     OW34993   3.067   3.254   1.689  0.2464 -0.0969 -0.0490
 7787SOL    HW134994   3.013   3.317   1.642  0.2665 -0.3245 -0.3732
 7787SOL    HW234995   3.063   3.182   1.626 -1.4639  1.7788 -2.0706
 7788SOL     OW34996   2.734   1.551   3.621  0.1976  0.4877  0.1324
 7788SOL    HW134997   2.764   1.635   3.658  1.9132 -0.9563  2.0332
 7788SOL    HW234998   2.640   1.570   3.613  0.4229  1.1424 -1.0412
 7789SOL     OW34999   1.494   4.043  16.925  0.0645  0.0951  0.0661
 7789SOL    HW135000   1.487   3.994  17.006  0.6580  0.2156  0.1914
 7789SOL    HW235001   1.573   4.097  16.934  0.9932 -1.1446 -0.6442
 7790SOL     OW35002   0.916   1.269   3.274 -0.6230 -0.2210 -0.4875
 7790SOL    HW135003   0.945   1.182   3.246  0.1035  0.8811 -3.1152
 7790SOL    HW235004   0.965   1.321   3.211  1.3594 -0.4548  0.8382
 7791SOL     OW35005   0.872   3.842  16.387 -0.0410 -0.3577 -0.7668
 7791SOL    HW135006   0.872   3.920  16.331  0.0265  0.2820  0.1127
 7791SOL    HW235007   0.922   3.776  16.339 -0.9938 -1.2426 -0.5283
 7792SOL     OW35008   3.437   4.011   8.304  0.5072  0.0046 -1.1525
 7792SOL    HW135009   3.467   4.100   8.325 -0.3065 -0.2094  0.8597
 7792SOL    HW235010   3.343   4.029   8.310  0.7109  0.3421  0.8801
 7793SOL     OW35011   3.912   3.073  15.480 -0.4316 -0.1083 -0.4363
 7793SOL    HW135012   3.997   3.060  15.439 -0.2309 -1.5704  0.4454
 7793SOL    HW235013   3.850   3.082  15.408  0.0883  0.8253 -0.7721
 7794SOL     OW35014   3.171   0.955   6.217  0.1458 -0.1990  0.7714
 7794SOL    HW135015   3.237   1.000   6.269 -0.8772  0.8676  1.1375
 7794SOL    HW235016   3.096   0.983   6.269  0.6919  2.0460  0.3828
 7795SOL     OW35017   4.247   0.095   3.133 -0.0084  0.1462  0.2587
 7795SOL    HW135018   4.261   0.125   3.043  0.0219  0.3923  0.3436
 7795SOL    HW235019   4.325   0.047   3.162 -1.5839 -1.4421  1.8545
 7796SOL     OW35020   1.496   0.655   2.910  0.2914  0.4566 -0.0049
 7796SOL    HW135021   1.516   0.673   2.818  3.0788  1.2268  0.7510
 7796SOL    HW235022   1.503   0.559   2.913 -0.0319  0.4325 -0.0319
 7797SOL     OW35023   2.008   2.711  13.192  0.4213 -0.0677 -0.1827
 7797SOL    HW135024   2.082   2.763  13.224 -0.9891  2.3124 -0.7681
 7797SOL    HW235025   2.054   2.680  13.114 -1.6937 -0.5617 -1.2402
 7798SOL     OW35026   0.406   4.515  13.471 -0.3038  0.0669 -0.3305
 7798SOL    HW135027   0.382   4.468  13.551 -0.7890  0.7462 -0.0702
 7798SOL    HW235028   0.325   4.563  13.455  0.6658  1.4929 -0.9689
 7799SOL     OW35029   0.843   2.181   5.217 -0.0651 -0.2401 -0.8148
 7799SOL    HW135030   0.810   2.271   5.203 -1.5005 -0.7263 -0.5750
 7799SOL    HW235031   0.936   2.203   5.215 -0.0940 -0.0885 -0.3638
 7800SOL     OW35032   3.227   1.995   5.065 -0.6153 -0.0768  0.1011
 7800SOL    HW135033   3.198   1.948   4.987 -0.6042 -0.7479  0.5099
 7800SOL    HW235034   3.243   2.080   5.022  0.9955 -0.5337 -0.1927
 7801SOL     OW35035   4.253   3.175   0.224 -0.1595 -0.8225 -0.0046
 7801SOL    HW135036   4.235   3.268   0.238  1.0124 -0.9820  2.5946
 7801SOL    HW235037   4.184   3.123   0.267 -1.6298  0.0186 -1.3460
 7802SOL     OW35038   4.291   1.444   2.545  0.1001 -0.1551  0.0101
 7802SOL    HW135039   4.257   1.521   2.591 -0.3169 -0.2468 -0.1445
 7802SOL    HW235040   4.305   1.478   2.457 -1.8815  0.3833 -0.1057
 7803SOL     OW35041   3.276   0.349   5.364  0.3748  0.1289  0.5069
 7803SOL    HW135042   3.258   0.257   5.382 -1.7124  0.5731  0.6046
 7803SOL    HW235043   3.312   0.383   5.445  1.6276 -2.9755  1.2748
 7804SOL     OW35044   0.056   4.424   2.305 -0.0936  0.1615  0.3564
 7804SOL    HW135045   0.147   4.453   2.314 -0.2507  0.3316  1.4586
 7804SOL    HW235046   0.044   4.420   2.211  1.1466 -0.4531  0.2219
 7805SOL     OW35047   0.829   4.679  11.338 -0.3966 -0.4458 -0.4521
 7805SOL    HW135048   0.836   0.037  11.313  3.5104 -0.4175  0.8484
 7805SOL    HW235049   0.917   4.651  11.365  0.5090  2.5930 -0.2536
 7806SOL     OW35050   4.434   1.448  13.377 -0.4587 -0.2423 -0.2998
 7806SOL    HW135051   4.410   1.408  13.460  0.9871 -0.0185  0.2277
 7806SOL    HW235052   4.529   1.435  13.379 -0.3045  1.0965  1.0970
 7807SOL     OW35053   1.834   2.843  10.118  0.4962 -0.4493  0.0951
 7807SOL    HW135054   1.925   2.873  10.121  0.1512  0.7106 -0.9963
 7807SOL    HW235055   1.840   2.811  10.028  0.3197  0.5479 -0.2734
 7808SOL     OW35056   0.067   2.441   9.020 -0.7148 -0.2384 -0.2380
 7808SOL    HW135057   0.138   2.393   9.063 -1.1748 -2.7052 -2.2138
 7808SOL    HW235058   0.047   2.376   8.952 -2.0107  0.0302 -0.1169
 7809SOL     OW35059   0.271   1.149   1.202 -0.2072 -0.1770  0.7710
 7809SOL    HW135060   0.319   1.140   1.284  1.0487  2.6600  0.3321
 7809SOL    HW235061   0.263   1.057   1.178  1.5140  0.3012 -1.5886
 7810SOL     OW35062   4.398   1.020   3.132 -0.0498 -0.0892  0.5134
 7810SOL    HW135063   4.303   1.021   3.147 -0.4802  0.3479 -2.2266
 7810SOL    HW235064   4.409   1.102   3.086  1.7775 -0.5893  0.0793
 7811SOL     OW35065   0.638   1.984   1.360 -0.1265 -0.8735  0.0054
 7811SOL    HW135066   0.568   1.941   1.410  0.2676 -0.5508  0.8415
 7811SOL    HW235067   0.708   1.919   1.355 -0.0192 -0.6186 -1.7126
 7812SOL     OW35068   4.246   3.920   5.408  0.1290 -0.4386 -0.0804
 7812SOL    HW135069   4.237   3.842   5.353 -1.6601 -0.0440 -0.3435
 7812SOL    HW235070   4.320   3.897   5.465  1.0153  0.4026 -0.9193
 7813SOL     OW35071   3.140   4.598  12.763  0.0989 -0.5411  0.2971
 7813SOL    HW135072   3.189   4.519  12.785  0.6547 -0.8749 -2.2146
 7813SOL    HW235073   3.183   4.623  12.681 -0.2311 -0.1133  0.2518
 7814SOL     OW35074   3.816   0.214   7.530  0.4425 -0.2543  0.0057
 7814SOL    HW135075   3.838   0.259   7.612  1.1085 -1.4057  0.4536
 7814SOL    HW235076   3.736   0.254   7.496 -0.4266 -2.2963 -0.2885
 7815SOL     OW35077   1.644   3.909  16.727 -0.0608  0.2197 -0.4768
 7815SOL    HW135078   1.584   3.960  16.781  0.7388  1.0114 -0.3227
 7815SOL    HW235079   1.722   3.910  16.783  0.3842  2.1480 -1.1276
 7816SOL     OW35080   4.135   0.299  15.894 -0.2021  0.1754  0.1118
 7816SOL    HW135081   4.042   0.294  15.917 -1.0254 -1.7280 -3.5700
 7816SOL    HW235082   4.144   0.394  15.886 -0.5477  0.3130  1.3723
 7817SOL     OW35083   2.183   3.264   1.695 -0.6278  0.6423 -0.1595
 7817SOL    HW135084   2.213   3.354   1.683 -1.7679  0.9191 -0.9475
 7817SOL    HW235085   2.172   3.271   1.789 -2.1740 -0.0703 -0.2999
 7818SOL     OW35086   1.585   2.149   8.056 -0.5098 -0.0328 -0.2576
 7818SOL    HW135087   1.526   2.201   8.110 -0.0821  1.0085 -0.8041
 7818SOL    HW235088   1.538   2.134   7.974  1.3630  1.8301 -1.6556
 7819SOL     OW35089   3.357   1.683   3.774  0.1075  0.1487  0.3110
 7819SOL    HW135090   3.284   1.680   3.711  0.4472 -0.5171 -0.0544
 7819SOL    HW235091   3.409   1.607   3.746  1.6373  0.9296  1.0529
 7820SOL     OW35092   2.148   4.111   7.286 -0.5376 -0.3780 -1.2714
 7820SOL    HW135093   2.161   4.123   7.380  1.1906  0.7246 -1.6653
 7820SOL    HW235094   2.219   4.050   7.265  0.3452 -0.0658  0.8181
 7821SOL     OW35095   4.720   3.223  10.916  0.0473  0.0273 -0.1267
 7821SOL    HW135096   0.069   3.264  10.897 -0.5299  1.2839  0.0316
 7821SOL    HW235097   4.689   3.208  10.827  0.3830 -1.3458 -0.0050
 7822SOL     OW35098   2.659   1.803   3.337 -0.1470  0.0408 -0.1555
 7822SOL    HW135099   2.696   1.859   3.269  0.4032 -0.0588  0.0659
 7822SOL    HW235100   2.737   1.786   3.390  0.0810 -0.1502 -0.5519
 7823SOL     OW35101   2.509   0.172   3.764 -0.5095  0.4450  0.5228
 7823SOL    HW135102   2.453   0.211   3.830 -0.6445 -0.3869  0.8973
 7823SOL    HW235103   2.591   0.170   3.814  1.0300  2.2130 -1.8762
 7824SOL     OW35104   3.032   2.411   6.687 -0.1589 -0.1236  0.2634
 7824SOL    HW135105   2.950   2.363   6.678 -0.6068  0.8445 -0.8129
 7824SOL    HW235106   3.066   2.386   6.601  1.1309  1.1270  0.4033
 7825SOL     OW35107   4.312   2.622   8.904 -0.0360  0.2455 -0.4673
 7825SOL    HW135108   4.307   2.695   8.843 -1.1702 -0.9246 -1.7771
 7825SOL    HW235109   4.221   2.595   8.913 -0.2823  1.5682  1.0191
 7826SOL     OW35110   0.677   3.757   6.797  0.9994  0.1281 -0.5088
 7826SOL    HW135111   0.695   3.792   6.710  1.4397  2.2997  0.4655
 7826SOL    HW235112   0.630   3.831   6.835  0.2547  0.0413 -1.2660
 7827SOL     OW35113   2.503   3.977   3.109  0.6796  0.1376 -0.0218
 7827SOL    HW135114   2.545   4.049   3.156  0.9518 -0.2813  0.3733
 7827SOL    HW235115   2.531   4.010   3.024 -1.6934  1.5427 -0.2559
 7828SOL     OW35116   4.373   2.934   3.082 -0.4045  0.0640 -0.4531
 7828SOL    HW135117   4.289   2.980   3.078  0.0685  1.0097  0.3949
 7828SOL    HW235118   4.425   3.007   3.115 -0.2767 -0.1661 -0.1469
 7829SOL     OW35119   2.211   3.180   4.112  0.0746  0.5845  0.4331
 7829SOL    HW135120   2.161   3.245   4.162  2.6544  1.5616  1.7291
 7829SOL    HW235121   2.145   3.148   4.050  2.1528  0.1807 -1.5819
 7830SOL     OW35122   0.695   3.365   4.399  0.2899 -0.5478  0.0343
 7830SOL    HW135123   0.654   3.353   4.313  0.5834 -1.8267  0.0690
 7830SOL    HW235124   0.757   3.435   4.379 -0.0950 -0.1288  0.3163
 7831SOL     OW35125   3.170   4.010   8.265 -0.3737 -0.0035 -0.7441
 7831SOL    HW135126   3.125   4.092   8.285 -1.5322 -0.9732  0.7173
 7831SOL    HW235127   3.130   3.975   8.185 -1.4121 -1.5488  0.4377
 7832SOL     OW35128   4.527   3.039  10.981 -0.1707  0.1084 -0.4941
 7832SOL    HW135129   4.574   3.121  10.998  1.9242 -0.9363 -1.2543
 7832SOL    HW235130   4.599   2.992  10.939  1.0368  2.4047 -0.9806
 7833SOL     OW35131   0.143   1.417  13.921  0.1257 -0.3240 -0.1080
 7833SOL    HW135132   0.123   1.501  13.963 -1.9664 -0.6669 -0.4195
 7833SOL    HW235133   0.158   1.364  13.999  1.1616  1.0853  0.6553
 7834SOL     OW35134   3.495   1.884   3.308  0.1580 -0.0971  0.1278
 7834SOL    HW135135   3.442   1.943   3.254 -2.5781 -2.2630  0.4654
 7834SOL    HW235136   3.427   1.836   3.356  0.4089 -2.3558 -1.7525
 7835SOL     OW35137   0.163   2.267   6.794  0.1887 -0.0064  0.0795
 7835SOL    HW135138   0.232   2.228   6.741 -2.5798 -0.2232 -3.4058
 7835SOL    HW235139   0.208   2.342   6.833 -0.4861 -0.5094  1.8016
 7836SOL     OW35140   3.747   1.353   5.113  0.4450  0.0974  0.2200
 7836SOL    HW135141   3.714   1.276   5.160 -2.7100  2.1805  1.4132
 7836SOL    HW235142   3.714   1.427   5.165  0.4573  0.1464  0.1585
 7837SOL     OW35143   4.207   2.022   8.066 -0.1632  0.1878  0.3363
 7837SOL    HW135144   4.167   2.099   8.026 -1.9875 -0.5801  0.7163
 7837SOL    HW235145   4.283   2.053   8.116 -0.6078  0.9598  0.5279
 7838SOL     OW35146   1.301   0.049   2.567 -0.5730 -0.3036 -0.3930
 7838SOL    HW135147   1.250   0.018   2.492 -0.6497 -1.0683 -0.0299
 7838SOL    HW235148   1.290   4.719   2.637  1.6229 -1.5794 -1.2152
 7839SOL     OW35149   0.602   2.712   7.086 -0.1601  0.2725  0.0881
 7839SOL    HW135150   0.605   2.632   7.138 -0.4625 -0.0956 -0.4611
 7839SOL    HW235151   0.612   2.775   7.157  1.2627  1.1557 -0.8954
 7840SOL     OW35152   2.632   1.688   6.893 -0.4815  0.0981 -0.3021
 7840SOL    HW135153   2.605   1.671   6.983 -0.4091  1.7357  0.0246
 7840SOL    HW235154   2.553   1.664   6.845  0.5083 -0.5867 -1.5913
 7841SOL     OW35155   1.078   2.790   3.566 -0.6106 -0.5766  0.1467
 7841SOL    HW135156   0.990   2.754   3.575 -0.4385 -0.5053  2.2199
 7841SOL    HW235157   1.095   2.802   3.473  0.5516 -1.3006  0.2660
 7842SOL     OW35158   3.096   2.103   6.205 -0.3902 -0.6096 -0.0957
 7842SOL    HW135159   3.011   2.142   6.188  0.5772  1.3239 -0.5241
 7842SOL    HW235160   3.088   2.099   6.301  1.5969  1.1882  0.1556
 7843SOL     OW35161   0.017   0.377   8.355  0.0205 -0.2760  0.6532
 7843SOL    HW135162   0.064   0.297   8.378  3.3368  1.0822 -1.4229
 7843SOL    HW235163   0.091   0.437   8.358 -2.2396  2.6799 -2.7757
 7844SOL     OW35164   0.858   2.243   7.023 -0.1579 -0.1134 -0.0996
 7844SOL    HW135165   0.920   2.315   7.008 -1.0262  0.3206 -1.5603
 7844SOL    HW235166   0.918   2.168   7.011 -0.2363 -0.3827  1.2190
 7845SOL     OW35167   1.604   2.443   7.800 -0.0706 -0.6441  0.0765
 7845SOL    HW135168   1.519   2.418   7.835 -0.8211 -0.4567 -1.6293
 7845SOL    HW235169   1.597   2.417   7.708  1.1876  0.6692 -0.3879
 7846SOL     OW35170   2.401   4.279   5.746  0.5783  0.2278  0.3381
 7846SOL    HW135171   2.316   4.285   5.701  0.9253  1.1288 -0.2071
 7846SOL    HW235172   2.392   4.312   5.835  0.9455  1.0780  0.0612
 7847SOL     OW35173   2.906   4.241  11.337 -0.2033 -0.5241  0.0542
 7847SOL    HW135174   2.912   4.332  11.308 -0.4597 -0.8773 -1.1147
 7847SOL    HW235175   2.923   4.259  11.429  1.4840 -0.4197 -0.2812
 7848SOL     OW35176   3.521   1.869  16.291  0.1832  0.1523  0.3491
 7848SOL    HW135177   3.523   1.814  16.213 -1.5746 -0.7267  0.9165
 7848SOL    HW235178   3.592   1.929  16.271  0.8319 -1.0117 -0.8315
 7849SOL     OW35179   0.876   4.369   4.886  0.2634  0.1655  0.0607
 7849SOL    HW135180   0.916   4.456   4.889  0.0505  0.1958  2.1541
 7849SOL    HW235181   0.945   4.316   4.848  2.0823  1.9875  0.7863
 7850SOL     OW35182   3.367   4.593   5.218  0.2372 -0.1910 -0.0308
 7850SOL    HW135183   3.316   4.591   5.299 -3.0876  0.1358 -2.1051
 7850SOL    HW235184   3.460   4.591   5.239 -0.2346  1.1701  2.2621
 7851SOL     OW35185   1.206   0.838  12.644 -0.0735 -0.3266  0.1840
 7851SOL    HW135186   1.249   0.923  12.652 -0.9394  0.1548 -0.2411
 7851SOL    HW235187   1.138   0.847  12.710  0.3089  1.2850  0.3585
 7852SOL     OW35188   1.064   3.202   9.893  0.5257 -0.2882  0.1351
 7852SOL    HW135189   1.152   3.217   9.927  1.8246 -2.4231 -2.2847
 7852SOL    HW235190   1.079   3.162   9.807 -0.9164  2.8851 -1.6107
 7853SOL     OW35191   2.510   2.840   4.924  0.0715 -0.5530 -0.1360
 7853SOL    HW135192   2.527   2.868   4.834  1.3958 -0.2217  0.2239
 7853SOL    HW235193   2.448   2.907   4.954 -0.9919 -1.2027 -0.9269
 7854SOL     OW35194   1.098   2.830   7.674 -0.1462  0.2372 -0.5988
 7854SOL    HW135195   1.083   2.902   7.736 -0.0084  1.7379 -2.3134
 7854SOL    HW235196   1.191   2.845   7.656 -0.5517  2.5174 -0.8036
 7855SOL     OW35197   3.131   2.769   8.866 -0.1914 -0.6315  0.4107
 7855SOL    HW135198   3.062   2.790   8.929 -1.0963  0.6341 -1.0108
 7855SOL    HW235199   3.086   2.736   8.788  0.9864 -0.8907 -0.1549
 7856SOL     OW35200   0.276   4.433   5.484  0.4162 -0.5037 -0.2461
 7856SOL    HW135201   0.367   4.444   5.510 -0.1560  1.6996  0.8231
 7856SOL    HW235202   0.237   4.519   5.502  0.0898 -1.0684  1.6702
 7857SOL     OW35203   3.716   2.102  16.526 -0.2588  0.1031  0.0967
 7857SOL    HW135204   3.729   2.196  16.534  0.7679 -0.0194 -0.1132
 7857SOL    HW235205   3.716   2.089  16.431 -0.8655  1.2492 -0.0577
 7858SOL     OW35206   3.965   1.296  10.637  0.3529 -0.3098 -0.1215
 7858SOL    HW135207   3.977   1.276  10.730 -2.2645  2.5598  0.8391
 7858SOL    HW235208   4.056   1.308  10.608  1.0087 -0.0883  2.0517
 7859SOL     OW35209   2.625   2.747   9.309  0.2691 -0.5346  0.3034
 7859SOL    HW135210   2.620   2.794   9.392  0.5422  0.7794 -0.4262
 7859SOL    HW235211   2.575   2.672   9.342 -1.5534  0.2669 -0.6061
 7860SOL     OW35212   1.113   1.215   6.667 -0.5563  0.3979  0.2397
 7860SOL    HW135213   1.142   1.124   6.680  0.6998  1.0082  1.6385
 7860SOL    HW235214   1.122   1.233   6.573  0.7845  0.2412  0.3359
 7861SOL     OW35215   4.701   4.243   6.862  0.1065  0.4186 -0.0837
 7861SOL    HW135216   4.692   4.148   6.860  2.3535  0.1789  0.2375
 7861SOL    HW235217   0.062   4.241   6.872  0.0259  0.5846  0.7295
 7862SOL     OW35218   0.139   1.476   1.829 -0.1779  0.5102  0.2745
 7862SOL    HW135219   0.086   1.397   1.836 -1.8295  1.6646  0.7222
 7862SOL    HW235220   0.130   1.498   1.736 -1.9498  0.7458  0.5026
 7863SOL     OW35221   1.312   1.253   9.625  0.1520 -0.3437 -0.5027
 7863SOL    HW135222   1.296   1.272   9.718  0.8768 -0.4817 -0.3532
 7863SOL    HW235223   1.407   1.247   9.617  0.0800 -2.4589  0.2212
 7864SOL     OW35224   3.954   3.676   8.313 -0.1841 -0.6490  0.2995
 7864SOL    HW135225   3.871   3.642   8.280  0.6320 -2.1987 -0.1544
 7864SOL    HW235226   4.015   3.667   8.239  2.0505  0.2690  2.0124
 7865SOL     OW35227   3.684   1.000  15.956 -0.5108 -0.1664  0.5944
 7865SOL    HW135228   3.647   1.049  15.883 -3.2708 -0.5817  1.7228
 7865SOL    HW235229   3.758   1.057  15.979  0.5354 -0.8278 -1.1504
 7866SOL     OW35230   3.339   0.301   3.418 -0.2855 -0.3191 -0.0254
 7866SOL    HW135231   3.359   0.291   3.511 -4.3723  1.1445  1.0084
 7866SOL    HW235232   3.412   0.248   3.386 -0.8432 -0.1459 -1.5954
 7867SOL     OW35233   1.650   2.701   7.817 -0.1237  0.0921  0.2011
 7867SOL    HW135234   1.711   2.736   7.752 -0.1566  0.4143  0.3401
 7867SOL    HW235235   1.622   2.615   7.786  0.6201 -0.2107  0.3666
 7868SOL     OW35236   0.132   0.585  14.346  0.2852  0.3009  0.0317
 7868SOL    HW135237   0.072   0.572  14.272  0.2912 -1.4176  0.3457
 7868SOL    HW235238   0.126   0.505  14.397  0.3990  1.0358  1.2150
 7869SOL     OW35239   4.703   3.085   4.763 -0.0300  0.7011  0.7017
 7869SOL    HW135240   4.715   3.179   4.773  1.4411  0.7499 -1.6194
 7869SOL    HW235241   0.049   3.048   4.727 -0.6013 -1.2119  1.3778
 7870SOL     OW35242   1.657   1.803   4.884 -0.3409  0.5499 -0.0620
 7870SOL    HW135243   1.703   1.781   4.965 -0.5889  1.2845  0.2833
 7870SOL    HW235244   1.627   1.715   4.863  1.0590 -0.2876  1.4758
 7871SOL     OW35245   2.240   2.638   8.717  0.8072 -0.3247  0.5460
 7871SOL    HW135246   2.258   2.687   8.637  2.1051  1.0992  1.7246
 7871SOL    HW235247   2.161   2.683   8.747 -1.6218 -1.3137 -4.3148
 7872SOL     OW35248   1.790   2.983   5.880  0.2046  0.4400  0.1897
 7872SOL    HW135249   1.770   2.954   5.790  1.2855 -1.1358  0.4527
 7872SOL    HW235250   1.767   2.904   5.929 -0.2400 -0.6184 -1.7266
 7873SOL     OW35251   0.209   4.273   9.043  0.2663 -0.1022 -0.6110
 7873SOL    HW135252   0.291   4.277   8.994  1.1446 -2.0522  0.7264
 7873SOL    HW235253   0.203   4.178   9.050 -0.2467  0.1362  2.4437
 7874SOL     OW35254   2.597   1.285   8.444 -0.3746 -0.2852 -0.9289
 7874SOL    HW135255   2.633   1.373   8.455 -0.6269 -0.0694 -1.7943
 7874SOL    HW235256   2.516   1.304   8.491 -0.2693 -1.0725 -0.4264
 7875SOL     OW35257   2.803   0.891  15.133 -0.0140 -0.7787  0.3490
 7875SOL    HW135258   2.894   0.891  15.104  0.0191 -0.9240  0.4503
 7875SOL    HW235259   2.808   0.802  15.169 -0.3807 -0.3570  1.4646
 7876SOL     OW35260   0.398   3.167  17.504 -0.1484  0.0397 -0.4504
 7876SOL    HW135261   0.345   3.228  17.556  1.4453  1.4073 -0.4337
 7876SOL    HW235262   0.373   3.189  17.414 -3.8257  0.4275  0.6979
 7877SOL     OW35263   3.810   1.663  16.826  0.0238 -0.1632  0.1377
 7877SOL    HW135264   3.730   1.676  16.877 -0.9095  0.8466 -1.5544
 7877SOL    HW235265   3.788   1.711  16.746  1.3778  0.9127  0.4198
 7878SOL     OW35266   4.628   0.101   6.652  0.5304  0.3830 -0.2276
 7878SOL    HW135267   4.638   0.185   6.607  0.8509  0.9508  0.9001
 7878SOL    HW235268   4.655   0.045   6.579  2.5444  2.1063 -0.7838
 7879SOL     OW35269   4.678   1.827   0.354 -0.7113  0.1162 -0.1748
 7879SOL    HW135270   4.676   1.916   0.389  1.1791  0.8430 -1.9435
 7879SOL    HW235271   4.673   1.774   0.434  0.8091 -1.1447 -0.9094
 7880SOL     OW35272   0.294   4.545   4.604  0.3141  0.3654  0.1411
 7880SOL    HW135273   0.343   4.467   4.579  1.1061  0.9389 -0.1074
 7880SOL    HW235274   0.301   4.534   4.699 -1.1294 -2.2884 -0.0807
 7881SOL     OW35275   2.247   4.216   3.210 -0.2046  0.8613 -0.4127
 7881SOL    HW135276   2.176   4.275   3.235 -2.1329 -1.6924  0.0940
 7881SOL    HW235277   2.257   4.166   3.291 -0.1919 -1.6551 -1.9692
 7882SOL     OW35278   4.712   2.251   8.800 -0.5397 -0.2480 -0.5782
 7882SOL    HW135279   0.033   2.309   8.748 -0.6883  0.1624 -0.2764
 7882SOL    HW235280   4.632   2.304   8.802  0.4363  1.1699  0.5049
 7883SOL     OW35281   0.372   0.829   5.573 -0.2178  0.9020  0.2193
 7883SOL    HW135282   0.440   0.793   5.516  0.4628 -0.4095  1.8639
 7883SOL    HW235283   0.311   0.870   5.512  0.1132 -1.7081 -1.8762
 7884SOL     OW35284   0.794   2.221   8.132 -0.1115 -0.0389  0.0245
 7884SOL    HW135285   0.725   2.172   8.177 -1.7280  1.6996 -0.5232
 7884SOL    HW235286   0.869   2.214   8.191 -0.1478  0.2875  0.1109
 7885SOL     OW35287   2.184   0.788   3.038  1.0728 -0.0997 -0.3323
 7885SOL    HW135288   2.213   0.871   3.002 -1.1967  0.6432 -0.4105
 7885SOL    HW235289   2.209   0.730   2.966 -1.5901  0.3334 -1.5839
 7886SOL     OW35290   4.179   0.732   4.150  0.3941  0.4649 -0.4326
 7886SOL    HW135291   4.202   0.747   4.242 -0.2741  1.3223 -0.4092
 7886SOL    HW235292   4.192   0.818   4.110 -1.6968 -0.3015 -2.6879
 7887SOL     OW35293   3.192   2.971  12.522  0.2662  0.4592 -0.0459
 7887SOL    HW135294   3.122   2.933  12.574  2.0781 -1.6028  0.9157
 7887SOL    HW235295   3.133   3.007  12.456 -0.6530  0.5647  0.8365
 7888SOL     OW35296   3.672   4.255   0.575  0.3482 -0.1111 -0.5762
 7888SOL    HW135297   3.626   4.213   0.648  0.8462  2.1971  1.0779
 7888SOL    HW235298   3.694   4.181   0.519  2.0449 -0.1644  0.1860
 7889SOL     OW35299   1.558   2.177   3.416  0.2355 -0.2704  0.2187
 7889SOL    HW135300   1.500   2.128   3.474  1.3945 -1.2073  0.5864
 7889SOL    HW235301   1.501   2.201   3.343  0.0937  0.0896  0.4503
 7890SOL     OW35302   1.709   2.552  14.491 -0.3539  0.7976  0.0684
 7890SOL    HW135303   1.658   2.482  14.452  0.2666  1.3906 -1.7780
 7890SOL    HW235304   1.703   2.536  14.585 -2.4064  1.8052  0.1133
 7891SOL     OW35305   2.370   1.536  11.620  0.3036 -0.0955 -0.1485
 7891SOL    HW135306   2.397   1.626  11.599 -2.3990  0.6517 -0.4378
 7891SOL    HW235307   2.367   1.495  11.534 -1.2822 -0.8082  0.2484
 7892SOL     OW35308   0.662   2.141   9.444 -0.2628  0.3248 -0.2846
 7892SOL    HW135309   0.669   2.089   9.524  2.2463  3.0226  1.2143
 7892SOL    HW235310   0.749   2.120   9.411  0.0378  2.1842 -0.6610
 7893SOL     OW35311   1.290   1.504  11.347 -0.0874  0.6989 -0.3167
 7893SOL    HW135312   1.275   1.409  11.348  1.5633  0.4195 -2.4163
 7893SOL    HW235313   1.227   1.527  11.415 -1.9126 -3.8995 -0.4706
 7894SOL     OW35314   0.890   4.310   9.081 -0.2770  0.6230 -0.6239
 7894SOL    HW135315   0.917   4.222   9.107  0.0784  0.4166 -1.6693
 7894SOL    HW235316   0.802   4.313   9.118 -0.0517 -1.6490  0.0833
 7895SOL     OW35317   0.003   2.018   6.381 -0.5385 -0.3667  0.7025
 7895SOL    HW135318   4.731   2.072   6.460  1.3079  1.5195 -0.4414
 7895SOL    HW235319   0.066   1.948   6.398  0.4334  0.3816  0.1094
 7896SOL     OW35320   2.309   2.230   2.063  0.4289 -0.0911  0.1088
 7896SOL    HW135321   2.293   2.143   2.100 -1.3425  0.2102  0.0622
 7896SOL    HW235322   2.402   2.221   2.043  0.6607 -1.1549  1.5890
 7897SOL     OW35323   1.006   0.391   4.712 -0.6927  0.7983  0.5343
 7897SOL    HW135324   0.981   0.373   4.621  1.4000  1.0785 -0.1117
 7897SOL    HW235325   0.933   0.356   4.762 -0.4308 -1.5582 -0.7098
 7898SOL     OW35326   2.424   0.142   9.794 -0.4441 -0.5442 -0.0352
 7898SOL    HW135327   2.334   0.170   9.811  0.0696 -0.1204  2.0386
 7898SOL    HW235328   2.421   0.057   9.839 -0.7700 -2.1398 -3.0609
 7899SOL     OW35329   1.779   3.131   2.736  0.4731  0.1688 -0.4296
 7899SOL    HW135330   1.771   3.184   2.657 -0.6071  0.5084 -0.0959
 7899SOL    HW235331   1.801   3.044   2.703 -0.5998 -0.5154  0.6310
 7900SOL     OW35332   3.319   3.904   7.791 -0.3843 -0.1115  0.0983
 7900SOL    HW135333   3.228   3.935   7.786 -0.7804 -0.8130  2.5161
 7900SOL    HW235334   3.336   3.876   7.702  0.2106 -1.6004  0.6818
 7901SOL     OW35335   2.149   3.389   3.519 -0.5212 -0.0269 -0.0523
 7901SOL    HW135336   2.137   3.295   3.502 -2.1551  0.1391  0.1738
 7901SOL    HW235337   2.203   3.425   3.449 -2.2833  0.2471 -1.2573
 7902SOL     OW35338   3.728   0.370   6.810  0.1886  0.4555  1.1589
 7902SOL    HW135339   3.676   0.431   6.864 -0.4698  1.7932 -0.9814
 7902SOL    HW235340   3.816   0.402   6.793 -0.5935  1.0786 -1.7051
 7903SOL     OW35341   4.070   0.754   0.764  0.5056 -0.2115 -0.0616
 7903SOL    HW135342   4.078   0.723   0.854 -1.2683 -0.9774 -0.1686
 7903SOL    HW235343   4.136   0.702   0.719 -0.1568  0.4206 -1.7445
 7904SOL     OW35344   0.706   3.935   0.866  0.2670 -0.0795  0.0512
 7904SOL    HW135345   0.769   3.980   0.810  0.0616 -0.0694 -0.1700
 7904SOL    HW235346   0.723   3.983   0.947  0.3622 -1.9255  1.1549
 7905SOL     OW35347   3.375   0.768   4.350 -0.4275 -0.4781  1.0437
 7905SOL    HW135348   3.306   0.704   4.367 -0.8328 -0.0928  0.8451
 7905SOL    HW235349   3.360   0.826   4.425 -0.5167  1.4418 -0.4532
 7906SOL     OW35350   1.898   3.996  16.847  0.1818  0.1689 -0.2230
 7906SOL    HW135351   1.896   3.982  16.942  1.0151 -3.7663 -0.7745
 7906SOL    HW235352   1.891   4.091  16.847  0.5828  0.1963  0.8006
 7907SOL     OW35353   0.253   0.162   6.314 -0.4632 -0.1476 -0.2731
 7907SOL    HW135354   0.275   0.144   6.406  2.3946 -0.2094 -0.9531
 7907SOL    HW235355   0.280   0.080   6.273  1.3590  0.7283 -0.8104
 7908SOL     OW35356   3.082   3.196   5.645  0.2094  0.6101 -0.4921
 7908SOL    HW135357   3.002   3.236   5.609 -0.2237  1.7415  1.7484
 7908SOL    HW235358   3.056   3.105   5.659  0.4327  1.1126  3.2319
 7909SOL     OW35359   1.832   3.742   5.483 -0.2265 -0.0468  0.6681
 7909SOL    HW135360   1.818   3.650   5.507 -1.5370 -0.5711 -2.1492
 7909SOL    HW235361   1.911   3.745   5.538  0.6982  0.2821 -0.6891
 7910SOL     OW35362   2.067   0.601   9.009  0.3177 -0.6604  0.3103
 7910SOL    HW135363   2.090   0.580   9.099 -0.4824 -1.7386  0.2582
 7910SOL    HW235364   2.123   0.679   9.001 -1.7408  0.6998 -1.0014
 7911SOL     OW35365   3.462   2.571   2.097  0.4668 -0.3329  0.4081
 7911SOL    HW135366   3.540   2.618   2.068 -0.2273  0.6786  0.2091
 7911SOL    HW235367   3.427   2.620   2.171 -1.6078  0.2302 -0.9446
 7912SOL     OW35368   3.851   4.306   4.377  0.1669 -0.0710 -0.4783
 7912SOL    HW135369   3.840   4.214   4.352  0.8442  0.3024 -2.1074
 7912SOL    HW235370   3.939   4.319   4.342 -0.0148  0.6118 -0.6809
 7913SOL     OW35371   3.241   3.087   4.001  0.7884  0.4552  0.3926
 7913SOL    HW135372   3.286   3.079   4.085 -0.7168 -1.8516  0.9706
 7913SOL    HW235373   3.303   3.146   3.957 -0.6637  2.6651  1.3086
 7914SOL     OW35374   2.616   4.179   3.264 -0.4163  0.4914 -0.3622
 7914SOL    HW135375   2.699   4.207   3.303 -0.6881  1.5089 -0.5292
 7914SOL    HW235376   2.561   4.211   3.335  0.0767 -0.4779  0.4664
 7915SOL     OW35377   0.715   0.601   4.451 -0.1947  0.0629  0.5816
 7915SOL    HW135378   0.633   0.636   4.416  0.0530 -0.0521 -0.1142
 7915SOL    HW235379   0.771   0.623   4.377 -1.5782 -1.2148 -0.8682
 7916SOL     OW35380   2.409   1.401   3.395  0.6876 -0.0342 -0.4385
 7916SOL    HW135381   2.490   1.361   3.426  1.6876  0.3830 -2.5131
 7916SOL    HW235382   2.436   1.481   3.351  1.1246 -0.1377 -0.3532
 7917SOL     OW35383   2.877   2.396   7.174 -0.4938  0.6409  0.3734
 7917SOL    HW135384   2.960   2.419   7.132 -0.7272 -0.5548 -0.7554
 7917SOL    HW235385   2.894   2.301   7.172 -0.0862  0.7240 -0.1684
 7918SOL     OW35386   3.081   2.635   4.836  0.0929 -0.3885 -0.4679
 7918SOL    HW135387   3.055   2.552   4.876 -0.9972 -0.0435 -0.4599
 7918SOL    HW235388   3.083   2.608   4.744 -0.7515  0.2609 -0.6799
 7919SOL     OW35389   2.646   0.249   4.742  0.7772 -0.8516 -0.5164
 7919SOL    HW135390   2.681   0.334   4.716 -0.2679 -0.6358 -1.2202
 7919SOL    HW235391   2.625   0.275   4.832 -2.1911  0.4304 -1.5681
 7920SOL     OW35392   2.543   0.594   3.115  0.1417 -0.0297  0.1618
 7920SOL    HW135393   2.470   0.655   3.125  0.9196  0.9773 -0.2312
 7920SOL    HW235394   2.499   0.516   3.147  1.0459 -0.7362 -0.3091
 7921SOL     OW35395   1.363   0.217   4.729 -0.2602  0.2333  0.7797
 7921SOL    HW135396   1.326   0.287   4.675  0.4422  1.1269  1.4498
 7921SOL    HW235397   1.446   0.253   4.760 -0.0003  0.2638  0.0637
 7922SOL     OW35398   2.103   3.602   8.162  0.3215 -0.0322  0.0891
 7922SOL    HW135399   2.021   3.650   8.152  0.4894  0.1890 -0.2500
 7922SOL    HW235400   2.075   3.511   8.164  2.2688 -0.6191  1.0484
 7923SOL     OW35401   2.047   4.529   3.896  0.1924  0.7232  0.5241
 7923SOL    HW135402   2.033   4.486   3.812  1.0020  0.7628  0.3665
 7923SOL    HW235403   2.113   4.596   3.876 -2.1254  1.8735 -3.2428
 7924SOL     OW35404   0.590   0.187   7.469  0.4395  1.0869  0.3515
 7924SOL    HW135405   0.511   0.240   7.459 -2.5894 -2.6439  4.4815
 7924SOL    HW235406   0.573   0.139   7.551 -0.5435  0.6253 -0.1224
 7925SOL     OW35407   1.330   2.733  16.928  0.8276  0.2483  0.6920
 7925SOL    HW135408   1.266   2.707  16.861  1.4500  1.7853 -0.5059
 7925SOL    HW235409   1.385   2.794  16.879 -1.1545 -0.7321 -2.8273
 7926SOL     OW35410   0.125   3.909  10.673 -0.5238  0.7270 -0.1085
 7926SOL    HW135411   0.137   3.984  10.731  1.7854 -0.3546  0.8215
 7926SOL    HW235412   0.074   3.858  10.735  2.3208 -1.6366  0.2823
 7927SOL     OW35413   1.599   3.363   5.336 -0.0877  0.3103  0.0062
 7927SOL    HW135414   1.626   3.302   5.404 -1.4936  0.4186  0.6510
 7927SOL    HW235415   1.504   3.355   5.328 -0.2512  1.3195  1.0921
 7928SOL     OW35416   4.065   0.485   5.080 -0.0145  0.8671  0.0904
 7928SOL    HW135417   4.121   0.536   5.138  1.2595 -0.3192 -0.0975
 7928SOL    HW235418   4.092   0.395   5.093 -0.2145  0.9916  1.3935
 7929SOL     OW35419   3.876   3.905   8.409 -0.3497 -0.1374  0.6153
 7929SOL    HW135420   3.956   3.957   8.422  0.0039  0.0568 -2.4009
 7929SOL    HW235421   3.907   3.827   8.363 -0.4399  0.7736 -1.0025
 7930SOL     OW35422   4.617   1.357   1.886 -0.0046  0.5634 -0.2107
 7930SOL    HW135423   4.534   1.359   1.935  1.9863  2.0068  3.0917
 7930SOL    HW235424   4.637   1.264   1.883  1.5328  0.9284 -1.2923
 7931SOL     OW35425   0.842   1.813   1.338 -0.4175 -0.3006 -0.1384
 7931SOL    HW135426   0.782   1.739   1.348  0.8440 -1.5133 -1.5010
 7931SOL    HW235427   0.920   1.795   1.390  1.6099 -2.1592 -3.8054
 7932SOL     OW35428   3.150   2.776   0.638 -0.0517  0.2985 -0.4414
 7932SOL    HW135429   3.239   2.809   0.628 -0.8877  3.1670  1.5116
 7932SOL    HW235430   3.102   2.846   0.592 -1.1313  1.1583  2.0042
 7933SOL     OW35431   2.003   2.940   9.037 -0.2523 -0.0103  0.2481
 7933SOL    HW135432   2.007   3.034   9.055 -1.5815  0.3372 -1.1903
 7933SOL    HW235433   1.929   2.923   9.095 -1.2986  0.1740 -1.0195
 7934SOL     OW35434   4.728   0.342  13.414  0.2717  0.0350  0.5397
 7934SOL    HW135435   4.732   0.252  13.380  1.3585  0.0238  0.6763
 7934SOL    HW235436   4.642   0.334  13.455 -0.9614  2.6601 -1.6047
 7935SOL     OW35437   0.577   0.088   4.125 -0.2047  0.9916 -0.2612
 7935SOL    HW135438   0.484   0.065   4.132 -0.3001  1.0412 -1.2835
 7935SOL    HW235439   0.617   0.003   4.144  0.3720  1.1057 -0.9522
 7936SOL     OW35440   2.502   0.354   4.325 -0.0554 -0.2699 -0.0558
 7936SOL    HW135441   2.597   0.343   4.327  0.0771  0.8766 -0.3039
 7936SOL    HW235442   2.486   0.430   4.269  2.2055  1.5052  1.6900
 7937SOL     OW35443   0.881   0.502   5.077  0.1276  0.1279  0.3799
 7937SOL    HW135444   0.958   0.450   5.056  1.2796  2.9872 -2.4597
 7937SOL    HW235445   0.899   0.567   5.009  0.1238  0.1700  0.4194
 7938SOL     OW35446   4.631   0.966   3.313  0.2273  0.0065 -0.5746
 7938SOL    HW135447   4.574   0.982   3.238 -0.6842  1.3838  0.4265
 7938SOL    HW235448   4.568   0.975   3.384  0.6300 -0.8041 -0.1124
 7939SOL     OW35449   2.756   0.305   0.165 -0.3639  0.8087  0.0964
 7939SOL    HW135450   2.799   0.222   0.184 -2.0146  0.5101  2.5498
 7939SOL    HW235451   2.666   0.277   0.180 -0.2347 -0.4023 -1.4103
 7940SOL     OW35452   0.368   1.330   1.014  0.3271 -0.0689  0.0046
 7940SOL    HW135453   0.463   1.333   1.027 -0.0094  1.3403  2.1977
 7940SOL    HW235454   0.347   1.242   1.045 -2.9875  0.6312 -0.2266
 7941SOL     OW35455   2.222   4.255   2.176 -0.4079  0.1806 -0.1506
 7941SOL    HW135456   2.271   4.196   2.234 -0.4430  1.7103  1.4451
 7941SOL    HW235457   2.132   4.232   2.199 -0.3589 -1.0477 -1.2278
 7942SOL     OW35458   2.817   0.145   7.063 -0.4268 -0.2187 -0.0219
 7942SOL    HW135459   2.909   0.169   7.055 -0.9163  1.7245  0.0915
 7942SOL    HW235460   2.809   0.136   7.159 -2.1707 -1.8951 -0.3157
 7943SOL     OW35461   4.245   2.364   3.521  0.5027 -1.0713 -0.7057
 7943SOL    HW135462   4.198   2.313   3.586  0.9230 -1.8250 -1.0023
 7943SOL    HW235463   4.217   2.317   3.443  0.3129  0.7148 -1.7177
 7944SOL     OW35464   3.048   0.540  17.172  0.1827 -0.2298 -0.0960
 7944SOL    HW135465   3.078   0.628  17.196  0.1085 -0.4485  0.8200
 7944SOL    HW235466   3.009   0.558  17.087  0.1623  2.7498  0.5326
 7945SOL     OW35467   1.759   3.358  10.361 -0.4171 -0.1234 -0.0256
 7945SOL    HW135468   1.691   3.348  10.294 -0.3507 -0.6154 -0.0197
 7945SOL    HW235469   1.838   3.319  10.323 -0.6093 -0.2797 -0.2631
 7946SOL     OW35470   4.688   3.337  13.397 -0.0587 -0.2866  0.2138
 7946SOL    HW135471   4.594   3.331  13.413 -0.2899  1.5200 -0.4731
 7946SOL    HW235472   4.710   3.422  13.436  3.0890 -0.3054 -1.5600
 7947SOL     OW35473   1.854   0.198   3.665  0.2018  0.0307  0.0841
 7947SOL    HW135474   1.847   0.225   3.757 -0.9411 -0.6572  0.1925
 7947SOL    HW235475   1.836   0.105   3.654 -0.3503 -0.1020  2.0547
 7948SOL     OW35476   3.107   3.096  11.569 -0.2831 -0.1060  0.0802
 7948SOL    HW135477   3.101   3.169  11.630 -0.3764  1.0697 -1.3112
 7948SOL    HW235478   3.022   3.052  11.567 -1.7192  2.6445 -0.0662
 7949SOL     OW35479   4.630   2.205   4.361  0.5369 -0.3543  0.6823
 7949SOL    HW135480   4.667   2.261   4.294  2.6251 -0.4813  1.7154
 7949SOL    HW235481   4.550   2.254   4.380  1.7320  1.5061  0.8698
 7950SOL     OW35482   3.692   1.401   6.914 -0.4407 -0.1327 -0.2583
 7950SOL    HW135483   3.757   1.333   6.933  0.6724  0.6014 -1.3987
 7950SOL    HW235484   3.686   1.394   6.819 -0.0824  0.8458 -0.3550
 7951SOL     OW35485   2.541   3.859   4.058 -0.0795  0.2861  0.2411
 7951SOL    HW135486   2.525   3.785   4.116 -0.4264  0.5654  0.5016
 7951SOL    HW235487   2.456   3.864   4.014  0.4562  0.8555 -0.7462
 7952SOL     OW35488   3.075   2.302   2.998 -0.0221 -0.3578 -0.0979
 7952SOL    HW135489   2.992   2.319   3.043 -0.8838 -1.3003 -1.3303
 7952SOL    HW235490   3.080   2.207   3.011  0.5519 -0.4095 -0.6722
 7953SOL     OW35491   1.480   1.718  16.253 -0.3309  0.0487 -0.0335
 7953SOL    HW135492   1.415   1.760  16.308 -1.6573  0.5162 -1.9537
 7953SOL    HW235493   1.463   1.771  16.175  1.3418  0.4037 -0.1578
 7954SOL     OW35494   2.278   0.235   2.086  0.0341  0.2662  0.1250
 7954SOL    HW135495   2.274   0.266   2.176 -0.8458 -0.1701  0.2345
 7954SOL    HW235496   2.298   0.311   2.031  0.3610  0.6128  0.7139
 7955SOL     OW35497   4.157   4.733   5.405  0.3505  0.5670  0.0115
 7955SOL    HW135498   4.185   4.685   5.327 -4.8878  0.7663 -1.9896
 7955SOL    HW235499   4.078   4.685   5.431 -0.0322  1.1500 -0.0620
 7956SOL     OW35500   3.517   4.144   3.700  0.3678 -0.6574  0.3588
 7956SOL    HW135501   3.470   4.066   3.730 -2.2096  0.3089 -1.1197
 7956SOL    HW235502   3.603   4.103   3.705 -0.0108 -1.4826  0.1591
 7957SOL     OW35503   0.910   3.980   5.962  0.6076  0.1590 -0.2965
 7957SOL    HW135504   0.996   4.014   5.988  0.4650  0.0128  0.3704
 7957SOL    HW235505   0.929   3.889   5.940 -1.0212  0.0304 -1.2027
 7958SOL     OW35506   3.636   1.824   6.374 -0.1687  0.0086 -0.5706
 7958SOL    HW135507   3.555   1.864   6.404  0.0675  1.2682 -1.5968
 7958SOL    HW235508   3.672   1.802   6.460 -1.0367  1.1561  0.0935
 7959SOL     OW35509   4.108   2.492   7.979  0.2032  0.0400 -0.1411
 7959SOL    HW135510   4.100   2.397   7.986 -0.7928  0.0654 -1.0308
 7959SOL    HW235511   4.198   2.499   7.947  1.4794 -0.8667  3.1637
 7960SOL     OW35512   0.786   1.908   3.632 -0.1755  0.2048 -0.0881
 7960SOL    HW135513   0.813   1.887   3.542  1.4875 -3.5114  1.2808
 7960SOL    HW235514   0.771   2.003   3.627  0.1717  0.2694  0.0941
 7961SOL     OW35515   2.274   3.378   9.860  0.4676  0.3636  0.1344
 7961SOL    HW135516   2.368   3.365   9.872  0.4838  1.6628  1.4552
 7961SOL    HW235517   2.275   3.458   9.808  0.1678  0.6100  0.5108
 7962SOL     OW35518   2.729   2.768  10.800 -0.3810  0.1068 -0.0545
 7962SOL    HW135519   2.791   2.752  10.871 -0.0890  1.9353  0.1182
 7962SOL    HW235520   2.784   2.773  10.722 -1.8105 -0.5665 -1.1019
 7963SOL     OW35521   4.363   0.396   0.866  0.2057  0.1022  0.1855
 7963SOL    HW135522   4.306   0.374   0.939  2.1433 -3.8243  0.4858
 7963SOL    HW235523   4.300   0.453   0.823 -2.0372 -2.3634  0.2535
 7964SOL     OW35524   4.284   1.291  17.235  0.2459 -0.2957  0.2184
 7964SOL    HW135525   4.358   1.241  17.199  0.2269  0.0752 -0.3201
 7964SOL    HW235526   4.253   1.347  17.165 -1.1279 -2.9624 -1.2990
 7965SOL     OW35527   1.083   1.499   4.421 -0.2582  0.0686 -0.3381
 7965SOL    HW135528   1.132   1.488   4.339  0.2919 -1.6319  0.2344
 7965SOL    HW235529   0.991   1.500   4.396 -0.3681  2.5612  0.1836
 7966SOL     OW35530   0.811   2.836   3.629  0.3175  0.0876 -0.1793
 7966SOL    HW135531   0.805   2.922   3.588 -0.2177 -0.6267 -1.5802
 7966SOL    HW235532   0.736   2.842   3.687  0.0618  0.2600 -0.5309
 7967SOL     OW35533   0.583   1.509   6.427  0.2800  0.1095 -0.6501
 7967SOL    HW135534   0.554   1.584   6.375  0.6971  0.7805  0.0788
 7967SOL    HW235535   0.604   1.446   6.357  0.7251 -0.4632 -0.0011
 7968SOL     OW35536   1.686   1.246   4.827 -0.1067  0.0320  0.5531
 7968SOL    HW135537   1.626   1.290   4.767 -0.6123 -0.5302  0.6392
 7968SOL    HW235538   1.768   1.228   4.782  0.1914  3.7620 -0.3447
 7969SOL     OW35539   0.844   2.375   4.106  0.5187 -0.1269  0.0203
 7969SOL    HW135540   0.841   2.458   4.060 -1.3678 -0.2656 -0.1244
 7969SOL    HW235541   0.933   2.370   4.142  0.9957  2.2842 -0.8753
 7970SOL     OW35542   4.218   2.297   5.207  0.2869 -0.6443  0.1329
 7970SOL    HW135543   4.250   2.257   5.288  2.8846  1.6138  0.2517
 7970SOL    HW235544   4.303   2.286   5.164  0.7006  0.2478  0.7206
 7971SOL     OW35545   1.512   0.741  14.766 -0.0761 -0.2711 -0.1821
 7971SOL    HW135546   1.509   0.798  14.843 -1.3657  2.4859 -2.2661
 7971SOL    HW235547   1.606   0.723  14.762  0.2012  0.7284  1.4672
 7972SOL     OW35548   3.067   4.324   4.015  0.1964 -0.4463  0.1113
 7972SOL    HW135549   3.073   4.263   4.089 -1.1998 -0.1246  0.4899
 7972SOL    HW235550   3.159   4.351   4.011  0.4742 -1.2535  0.8300
 7973SOL     OW35551   4.504   3.145  16.533 -0.0495 -0.0628 -0.0670
 7973SOL    HW135552   4.462   3.149  16.447  1.3926 -1.9928 -0.8471
 7973SOL    HW235553   4.550   3.229  16.538  0.9077 -0.5248 -1.1293
 7974SOL     OW35554   3.037   0.850  17.660  0.3158 -0.0777 -0.1061
 7974SOL    HW135555   2.996   0.884   0.001  2.5231 -0.8136  1.3513
 7974SOL    HW235556   3.022   0.917  17.593  0.2235  1.8367  1.8642
 7975SOL     OW35557   1.637   0.489   3.266 -0.0858  0.1974  0.0824
 7975SOL    HW135558   1.687   0.528   3.194  2.1025 -2.1602  0.3446
 7975SOL    HW235559   1.699   0.451   3.328 -2.8239 -2.8393  0.9381
 7976SOL     OW35560   1.001   1.363   1.712 -0.0798  0.2245  0.7604
 7976SOL    HW135561   1.096   1.360   1.719  0.0878 -1.2026 -2.0650
 7976SOL    HW235562   0.977   1.351   1.804  0.4742 -2.8412  0.5164
 7977SOL     OW35563   3.166   3.105   6.939  0.4260  0.1384 -0.7109
 7977SOL    HW135564   3.131   3.068   6.858  0.2891 -0.9660 -0.1423
 7977SOL    HW235565   3.261   3.098   6.947  0.3089 -0.3536  0.1841
 7978SOL     OW35566   2.563   3.806   7.116  0.4363  0.1021  0.0203
 7978SOL    HW135567   2.567   3.835   7.024 -0.2872  0.3726  0.0746
 7978SOL    HW235568   2.635   3.742   7.121 -1.3382 -1.8378  0.5562
 7979SOL     OW35569   0.229   3.905  13.303 -0.8628 -0.5041  0.6363
 7979SOL    HW135570   0.246   3.991  13.343 -0.2321 -0.1630 -0.3764
 7979SOL    HW235571   0.318   3.876  13.286 -1.0238  0.8741 -2.5240
 7980SOL     OW35572   3.316   0.536   8.069 -0.0180  0.1511 -0.0602
 7980SOL    HW135573   3.255   0.603   8.039 -0.9527 -0.1461  1.2247
 7980SOL    HW235574   3.398   0.585   8.057 -0.0102 -0.2303 -1.5426
 7981SOL     OW35575   0.504   4.677   7.260  0.6441  0.6020  0.3678
 7981SOL    HW135576   0.474   4.645   7.345 -1.0495  1.3845  0.0673
 7981SOL    HW235577   0.479   0.034   7.258 -0.4071  0.2077 -4.4422
 7982SOL     OW35578   1.429   1.652   6.671  0.1703  0.5211  0.0041
 7982SOL    HW135579   1.419   1.714   6.599  0.3434  1.3447  0.6795
 7982SOL    HW235580   1.340   1.635   6.704 -0.0791 -1.8039 -1.8704
 7983SOL     OW35581   1.854   0.059   8.395  0.0680  0.3569 -0.3810
 7983SOL    HW135582   1.863   4.700   8.413  0.0300  0.3193 -0.5562
 7983SOL    HW235583   1.910   0.066   8.318  1.2325  0.5190  0.4853
 7984SOL     OW35584   0.389   2.592  11.502 -0.1765 -0.6092  0.2164
 7984SOL    HW135585   0.392   2.588  11.598 -1.3461 -2.2090  0.1845
 7984SOL    HW235586   0.453   2.523  11.485  0.2722 -0.5686  1.7021
 7985SOL     OW35587   1.891   4.229   8.791 -0.3837  0.0078  0.4461
 7985SOL    HW135588   1.866   4.187   8.873  0.5868 -0.9251  0.2536
 7985SOL    HW235589   1.811   4.281   8.779  0.1905 -0.0038 -3.2432
 7986SOL     OW35590   0.257   4.628   6.366  0.0681  0.2801 -0.0093
 7986SOL    HW135591   0.289   4.610   6.455  1.8471  0.3384 -0.6392
 7986SOL    HW235592   0.246   4.539   6.331 -1.8964  0.0966  1.0921
 7987SOL     OW35593   3.938   4.181   6.069  0.1461  0.4163  0.4034
 7987SOL    HW135594   3.909   4.151   5.983  2.1240 -1.4802  0.3895
 7987SOL    HW235595   4.021   4.218   6.038  0.7334 -2.4810 -1.5715
 7988SOL     OW35596   2.329   3.610   9.679 -0.0093  0.1320  0.0115
 7988SOL    HW135597   2.277   3.689   9.686  0.1570  0.5910 -3.9174
 7988SOL    HW235598   2.314   3.565   9.596 -0.0274 -0.0303  0.1022
 7989SOL     OW35599   2.254   3.368   2.774 -0.0858 -0.0819 -0.2376
 7989SOL    HW135600   2.279   3.434   2.710  0.2125 -0.4522 -0.5044
 7989SOL    HW235601   2.178   3.326   2.733  0.1733 -2.1706  1.4280
 7990SOL     OW35602   1.432   3.945   2.137 -0.7446 -0.3533  0.3302
 7990SOL    HW135603   1.338   3.926   2.134 -1.0910  1.2952  0.7079
 7990SOL    HW235604   1.427   4.023   2.081 -0.4815 -0.2335  0.4728
 7991SOL     OW35605   2.304   0.325   7.570 -0.1175  0.1324  0.1753
 7991SOL    HW135606   2.381   0.340   7.516  1.9154 -0.6361  2.8504
 7991SOL    HW235607   2.285   0.417   7.587 -3.3778 -0.3236 -0.8990
 7992SOL     OW35608   1.914   3.950   2.897 -0.2400  0.3795  0.0437
 7992SOL    HW135609   1.869   3.872   2.863  3.2406 -1.1117 -1.0861
 7992SOL    HW235610   1.959   3.922   2.977 -0.9814  0.2942  0.4422
 7993SOL     OW35611   2.258   3.700   5.999 -0.2177 -0.2723 -0.3087
 7993SOL    HW135612   2.217   3.713   6.085 -1.6812 -0.0803 -1.0423
 7993SOL    HW235613   2.346   3.673   6.028  0.6288 -0.0391 -2.6635
 7994SOL     OW35614   1.720   0.898   8.304 -0.4363 -0.2923  0.0363
 7994SOL    HW135615   1.691   0.855   8.384  1.3716  1.4834  1.6480
 7994SOL    HW235616   1.738   0.825   8.245  0.2304  0.4816 -0.7108
 7995SOL     OW35617   4.179   1.525  12.657 -0.0646 -0.0540 -0.2468
 7995SOL    HW135618   4.119   1.498  12.726  2.9268 -0.2490  2.2737
 7995SOL    HW235619   4.240   1.577  12.710  1.1074 -2.4125  0.7205
 7996SOL     OW35620   3.928   2.791   5.620  0.1478  0.2343 -0.0639
 7996SOL    HW135621   3.969   2.861   5.570 -1.6956 -0.4463 -2.5271
 7996SOL    HW235622   3.981   2.777   5.699  1.0296 -0.1111 -0.7153
 7997SOL     OW35623   3.794   4.566   1.816  0.1380  0.0682 -0.3666
 7997SOL    HW135624   3.839   4.606   1.890 -0.8450  1.0355 -0.2938
 7997SOL    HW235625   3.787   4.474   1.841 -1.3854  0.4481  0.6034
 7998SOL     OW35626   2.961   3.061   0.006 -0.3872  0.3661  0.3335
 7998SOL    HW135627   2.982   3.138  17.690  0.7380  0.1497  0.4669
 7998SOL    HW235628   2.882   3.019  17.708 -0.1999  1.3138 -1.2168
 7999SOL     OW35629   0.085   3.471   4.061  0.4064 -0.2384 -0.4611
 7999SOL    HW135630   0.037   3.552   4.044  1.6519  0.4098 -0.8724
 7999SOL    HW235631   0.018   3.402   4.062  0.5763 -0.4181 -2.6470
 8000SOL     OW35632   3.013   3.307  11.731  0.1820 -0.3192 -0.5584
 8000SOL    HW135633   2.948   3.269  11.789  1.6297 -1.6568  0.1921
 8000SOL    HW235634   3.051   3.354  11.805 -3.0745  1.2963  0.0946
 8001SOL     OW35635   1.791   2.667  12.939 -0.0317  0.1212 -0.4632
 8001SOL    HW135636   1.734   2.610  12.887 -1.1744  0.6363  0.2181
 8001SOL    HW235637   1.871   2.615  12.949 -0.1358 -0.1200 -0.8978
 8002SOL     OW35638   2.218   2.741   5.598 -0.5937 -0.8248  0.5013
 8002SOL    HW135639   2.205   2.808   5.530 -0.9337  2.3089  3.6729
 8002SOL    HW235640   2.210   2.800   5.673 -0.1335  1.4763 -1.2215
 8003SOL     OW35641   3.970   2.395   2.999  0.4030 -0.0578  0.4093
 8003SOL    HW135642   3.909   2.452   3.046 -0.0869 -1.4853  1.4812
 8003SOL    HW235643   3.922   2.313   3.007  0.3761 -0.1247 -0.3546
 8004SOL     OW35644   1.343   2.134   7.544 -0.7346 -0.1890 -0.2859
 8004SOL    HW135645   1.265   2.082   7.525  0.2113 -1.6685 -0.1990
 8004SOL    HW235646   1.382   2.147   7.457 -3.4445  0.8692 -1.3197
 8005SOL     OW35647   0.837   0.088   8.922  0.3379 -0.1693  0.6515
 8005SOL    HW135648   0.927   0.056   8.916 -0.3640 -1.5121 -2.6669
 8005SOL    HW235649   0.814   0.069   8.831 -1.4567  0.6131  0.9409
 8006SOL     OW35650   4.430   4.090  10.114 -0.2489  0.5343 -0.1085
 8006SOL    HW135651   4.494   4.019  10.102 -0.7499 -0.3003  2.2168
 8006SOL    HW235652   4.353   4.058  10.067 -1.9441  2.1639  1.5816
 8007SOL     OW35653   3.750   1.767   5.357  0.2562  0.1738 -0.0184
 8007SOL    HW135654   3.762   1.687   5.407 -0.2748  1.1880  1.7417
 8007SOL    HW235655   3.834   1.811   5.367  0.1124 -0.0684  2.3193
 8008SOL     OW35656   4.541   0.860   4.205  0.1059  0.7774 -0.1589
 8008SOL    HW135657   4.518   0.938   4.255 -2.5858 -0.6016  0.7421
 8008SOL    HW235658   4.615   0.825   4.256  1.3115  3.8667  0.2162
 8009SOL     OW35659   3.354   3.502  16.371  0.2628  0.2558 -0.3801
 8009SOL    HW135660   3.346   3.413  16.336  0.2887 -0.0428  0.3680
 8009SOL    HW235661   3.440   3.518  16.332 -1.0211  3.7728 -1.7153
 8010SOL     OW35662   4.454   3.057   7.429  0.0781  0.3129  0.5200
 8010SOL    HW135663   4.487   2.979   7.385  1.8412  0.7102  1.1388
 8010SOL    HW235664   4.534   3.111   7.433 -0.1122  0.6287  0.1413
 8011SOL     OW35665   0.370   4.502  13.196 -0.5354 -0.0732 -0.1597
 8011SOL    HW135666   0.400   4.527  13.283  1.2090 -1.5366 -0.3409
 8011SOL    HW235667   0.449   4.507  13.143  0.4943 -1.6374  1.2417
 8012SOL     OW35668   2.581   4.281   1.913  0.0861  0.1116  0.0952
 8012SOL    HW135669   2.496   4.238   1.918 -0.4233  0.9971 -0.9488
 8012SOL    HW235670   2.569   4.322   1.827 -0.9649  0.7910  0.5705
 8013SOL     OW35671   3.558   3.343  10.531 -0.1003  0.3336 -0.3597
 8013SOL    HW135672   3.468   3.375  10.537 -0.4540 -0.8050  0.3572
 8013SOL    HW235673   3.535   3.251  10.520  0.4889  0.5229 -3.0700
 8014SOL     OW35674   0.141   3.507  16.365  0.0210  0.5898 -0.3212
 8014SOL    HW135675   0.092   3.533  16.443 -1.0780  2.0888 -1.5128
 8014SOL    HW235676   0.131   3.412  16.366 -1.3249  0.7406  0.6553
 8015SOL     OW35677   3.599   4.503   6.330  0.3453 -0.2961  0.4970
 8015SOL    HW135678   3.557   4.588   6.316 -2.1035 -1.5391  0.4065
 8015SOL    HW235679   3.593   4.495   6.425 -0.7028  1.7999  0.6142
 8016SOL     OW35680   4.298   0.959   9.943  0.3590  0.5039  0.0359
 8016SOL    HW135681   4.241   0.920   9.877  1.7354 -0.8597 -0.3359
 8016SOL    HW235682   4.373   0.979   9.887  0.6741  1.0991  0.6781
 8017SOL     OW35683   2.052   2.585   0.370 -0.1461 -0.1062  0.2269
 8017SOL    HW135684   2.145   2.564   0.378  0.0423  0.1469 -1.4779
 8017SOL    HW235685   2.022   2.530   0.443 -1.6209  0.6096  0.1708
 8018SOL     OW35686   1.211   1.516  12.196  0.0007  0.1329 -0.7768
 8018SOL    HW135687   1.191   1.495  12.105 -1.9598 -0.9143 -0.1017
 8018SOL    HW235688   1.128   1.551  12.228  1.3457  2.3591  0.2891
 8019SOL     OW35689   3.438   4.603   9.105  0.1438 -0.5288 -0.0276
 8019SOL    HW135690   3.374   4.663   9.068  1.0752 -0.1491 -1.0356
 8019SOL    HW235691   3.522   4.642   9.080 -0.0797 -0.9475 -1.4327
 8020SOL     OW35692   1.220   4.333  10.629  0.2975 -0.0327 -0.5099
 8020SOL    HW135693   1.145   4.321  10.687 -0.3646  1.0080 -1.1534
 8020SOL    HW235694   1.286   4.297  10.688  0.5317 -3.1380 -2.6595
 8021SOL     OW35695   1.288   0.378   4.265  0.2863  0.6777 -0.3585
 8021SOL    HW135696   1.366   0.423   4.235  0.6179 -0.0233 -0.5427
 8021SOL    HW235697   1.252   0.439   4.329  0.8832 -0.4820  1.0789
 8022SOL     OW35698   4.061   1.925   6.648  0.3811  0.0694  0.6081
 8022SOL    HW135699   3.976   1.954   6.615  0.2354 -2.4262 -1.2326
 8022SOL    HW235700   4.122   1.992   6.620  0.5694 -0.2903  0.1641
 8023SOL     OW35701   0.071   0.748   2.124 -0.3530 -0.4714 -0.2569
 8023SOL    HW135702   0.001   0.780   2.067 -1.0972  0.0471  0.9523
 8023SOL    HW235703   0.047   0.797   2.202  1.2191  1.0855 -0.7511
 8024SOL     OW35704   1.345   3.735  10.878 -0.2896 -0.7464 -0.1450
 8024SOL    HW135705   1.318   3.643  10.885 -0.7365 -0.6002  0.0803
 8024SOL    HW235706   1.313   3.758  10.791 -1.1000  0.3368  0.4299
 8025SOL     OW35707   3.051   3.995   7.802  0.0717 -0.4052  0.3602
 8025SOL    HW135708   2.989   3.927   7.776  0.2988 -0.4862  0.0254
 8025SOL    HW235709   3.063   3.970   7.893  2.5702  1.0337  0.4365
 8026SOL     OW35710   0.794   0.505   8.663 -0.2350 -0.1987 -0.0761
 8026SOL    HW135711   0.786   0.587   8.711 -0.6300 -1.3562  1.8222
 8026SOL    HW235712   0.828   0.442   8.726 -0.9834 -1.3159 -0.7689
 8027SOL     OW35713   4.347   0.331   3.728  0.4403  0.6046  0.0586
 8027SOL    HW135714   4.321   0.365   3.643  2.1208 -0.6562 -0.9490
 8027SOL    HW235715   4.379   0.413   3.767 -2.0677  0.9173  1.4363
 8028SOL     OW35716   3.300   0.065  17.092  0.1702 -0.0836 -0.1675
 8028SOL    HW135717   3.391   0.069  17.119 -0.4070  3.1602  1.2718
 8028SOL    HW235718   3.251   0.027  17.164 -0.6453  0.9461 -0.1715
 8029SOL     OW35719   0.011   3.029   3.265 -0.2052  0.3833 -0.3062
 8029SOL    HW135720   0.077   3.030   3.196  0.1774  1.0686  0.0688
 8029SOL    HW235721   4.709   2.942   3.249  2.9877 -1.0835  0.3954
 8030SOL     OW35722   1.818   0.210   4.871  0.1390  0.3754 -0.1895
 8030SOL    HW135723   1.791   0.259   4.948 -0.9914  0.2754 -0.5191
 8030SOL    HW235724   1.771   0.129   4.891 -2.8592  2.6359  1.8035
 8031SOL     OW35725   4.697   2.109   2.507  0.3445  0.6669  0.3959
 8031SOL    HW135726   4.641   2.171   2.461  1.2781 -0.0152 -1.6521
 8031SOL    HW235727   4.690   2.029   2.455  4.4516 -0.6121  1.8042
 8032SOL     OW35728   0.182   4.695  13.498  0.3012 -0.2940  0.7712
 8032SOL    HW135729   0.106   4.727  13.449 -0.4225  0.4839  2.4142
 8032SOL    HW235730   0.152   4.689  13.589 -0.9522  2.3113  0.5226
 8033SOL     OW35731   4.523   0.751   2.780 -0.8162 -0.1105  0.0795
 8033SOL    HW135732   4.545   0.661   2.802 -0.6336  0.1860  1.1569
 8033SOL    HW235733   4.428   0.747   2.777 -0.8273  0.2884 -0.1705
 8034SOL     OW35734   3.988   1.351  10.936 -0.2293  0.5251  0.0707
 8034SOL    HW135735   4.081   1.354  10.955  0.1047 -2.1428 -1.0740
 8034SOL    HW235736   3.974   1.443  10.912 -1.8199  0.4715  0.8146
 8035SOL     OW35737   4.182   1.439   3.284 -0.2728 -0.3216 -0.2979
 8035SOL    HW135738   4.251   1.445   3.350 -2.1077  1.9143  1.4436
 8035SOL    HW235739   4.228   1.442   3.200 -1.6274  0.5710 -1.0006
 8036SOL     OW35740   0.305   0.458   4.925 -0.3263 -0.4574  0.5993
 8036SOL    HW135741   0.390   0.417   4.940 -0.3605 -0.1796  1.5090
 8036SOL    HW235742   0.308   0.544   4.967 -0.0656  1.4997 -3.4272
 8037SOL     OW35743   2.658   3.400   6.834 -0.3380 -0.0253  0.5174
 8037SOL    HW135744   2.604   3.479   6.838 -2.2191 -1.3881  2.0384
 8037SOL    HW235745   2.660   3.388   6.739 -2.2225 -1.3882  0.6675
 8038SOL     OW35746   3.781   0.272   4.426  0.0866 -0.1453  0.1892
 8038SOL    HW135747   3.866   0.280   4.382 -0.4437 -1.3063 -1.0227
 8038SOL    HW235748   3.801   0.348   4.481 -1.4531  0.6931 -0.4250
 8039SOL     OW35749   2.266   4.487  16.527 -0.0863 -0.0599  0.3049
 8039SOL    HW135750   2.192   4.449  16.574  0.8217 -0.8969  1.0708
 8039SOL    HW235751   2.317   4.410  16.501 -0.0360  0.2530 -0.5152
 8040SOL     OW35752   0.026   2.925  10.882  0.3632 -0.0158 -0.2159
 8040SOL    HW135753   0.115   2.890  10.889 -0.7788 -3.0393 -0.6843
 8040SOL    HW235754   0.044   3.019  10.886 -0.1325  0.0475  0.6062
 8041SOL     OW35755   2.849   1.744   0.118 -0.3228  0.5211 -0.3930
 8041SOL    HW135756   2.801   1.800   0.057 -0.9217  0.3190 -0.1086
 8041SOL    HW235757   2.795   1.665   0.120 -0.9961  0.9913 -0.0548
 8042SOL     OW35758   0.240   3.685  10.483 -0.0867  0.2834 -0.3296
 8042SOL    HW135759   0.321   3.702  10.532  0.8744 -1.1529 -1.4366
 8042SOL    HW235760   0.182   3.736  10.540  0.2494  0.0065  0.2578
 8043SOL     OW35761   0.392   0.269   3.840  0.0784  0.0992 -0.0004
 8043SOL    HW135762   0.478   0.298   3.869  0.9395 -0.5078 -1.9732
 8043SOL    HW235763   0.334   0.344   3.853  0.5962  1.1726 -4.0095
 8044SOL     OW35764   2.074   3.377   0.834  0.1173  0.0908 -0.6900
 8044SOL    HW135765   2.089   3.370   0.928  0.9713  2.2906 -0.6492
 8044SOL    HW235766   1.991   3.425   0.842  0.1616  0.0072  0.2843
 8045SOL     OW35767   3.455   3.382   4.396  0.0038 -0.5309  0.1790
 8045SOL    HW135768   3.429   3.419   4.480 -0.2039 -0.3978  0.0558
 8045SOL    HW235769   3.391   3.312   4.385  0.4633 -1.2280  1.9221
 8046SOL     OW35770   0.895   0.606  11.814 -0.2088  0.5216  0.0411
 8046SOL    HW135771   0.928   0.518  11.799  0.5878  0.9316 -0.6111
 8046SOL    HW235772   0.804   0.590  11.836 -0.6232 -0.3086 -2.3334
 8047SOL     OW35773   3.926   3.929   3.983 -0.6972 -0.1528  0.2759
 8047SOL    HW135774   3.920   3.881   3.901  1.6756 -1.6243  0.9376
 8047SOL    HW235775   3.943   3.858   4.045  1.4125 -0.0387 -0.1564
 8048SOL     OW35776   3.752   2.413   4.408  0.2739  0.1181  1.0531
 8048SOL    HW135777   3.782   2.437   4.495  1.6128  0.2935  0.5400
 8048SOL    HW235778   3.691   2.346   4.439  0.0044  0.4209  1.1816
 8049SOL     OW35779   3.784   2.014  13.023 -0.5278  0.1775  0.3760
 8049SOL    HW135780   3.793   1.936  12.968 -0.6377  0.9012 -0.6556
 8049SOL    HW235781   3.823   2.080  12.967  0.6701 -0.7992  0.0491
 8050SOL     OW35782   2.961   1.164  10.336  0.1230  0.8900  0.2594
 8050SOL    HW135783   2.974   1.167  10.431  1.3486  0.9267  0.0908
 8050SOL    HW235784   2.885   1.223  10.331  0.8295  1.8005  0.3306
 8051SOL     OW35785   4.056   0.756  10.138 -0.0815 -0.0043 -0.5737
 8051SOL    HW135786   4.138   0.805  10.138  1.1202 -2.0601  0.1360
 8051SOL    HW235787   3.998   0.808  10.194  3.5362  1.5227  1.7742
 8052SOL     OW35788   4.609   2.788   3.244 -0.3810  0.0795 -0.3243
 8052SOL    HW135789   4.524   2.780   3.202 -0.9790 -3.9832  1.6479
 8052SOL    HW235790   4.594   2.728   3.317  1.0482  0.2460  0.1122
 8053SOL     OW35791   3.432   4.125  14.183 -0.4828 -0.1738  0.1637
 8053SOL    HW135792   3.426   4.048  14.240  1.4582 -1.1846 -0.9727
 8053SOL    HW235793   3.491   4.184  14.230  0.4719 -0.2417 -0.9351
 8054SOL     OW35794   0.791   2.546  16.798  0.2337 -0.4071  0.1403
 8054SOL    HW135795   0.777   2.462  16.841  1.3440 -1.2336 -1.1248
 8054SOL    HW235796   0.796   2.523  16.706  0.4484  0.0692  0.0305
 8055SOL     OW35797   1.282   0.919  14.159  0.1022  0.5100 -0.0412
 8055SOL    HW135798   1.275   0.886  14.070  1.3239 -0.3095  0.1670
 8055SOL    HW235799   1.304   0.836  14.201 -0.7974 -0.2982 -1.1829
 8056SOL     OW35800   4.662   1.092   7.607 -0.1784  0.2982  0.3511
 8056SOL    HW135801   4.718   1.021   7.640  0.1333  0.4030  0.0433
 8056SOL    HW235802   4.702   1.162   7.658  0.7279 -0.3238  0.4967
 8057SOL     OW35803   0.169   1.932  14.208 -0.1572  0.3648 -0.0857
 8057SOL    HW135804   0.120   1.972  14.136 -1.0446  1.0010  0.8769
 8057SOL    HW235805   0.256   1.927  14.170  0.2260  0.0729  0.8403
 8058SOL     OW35806   4.735   0.927   2.676  0.0067  0.2472  0.3189
 8058SOL    HW135807   4.666   0.990   2.655  0.0029  0.6662  1.5803
 8058SOL    HW235808   4.690   0.850   2.711 -1.4900  1.3615  0.8896
 8059SOL     OW35809   2.132   3.477  16.900  0.2534 -0.3788  0.4234
 8059SOL    HW135810   2.219   3.513  16.918 -1.5144  3.0671  2.1029
 8059SOL    HW235811   2.162   3.411  16.838 -1.5184  0.3262 -1.1789
 8060SOL     OW35812   1.175   3.839   5.598  0.2753  0.2022  0.1000
 8060SOL    HW135813   1.098   3.783   5.584 -0.4918  0.9470  1.2973
 8060SOL    HW235814   1.156   3.920   5.551 -0.1799 -0.5298 -0.9796
 8061SOL     OW35815   2.359   2.752   9.093  0.2149  0.6227  0.6949
 8061SOL    HW135816   2.401   2.671   9.122  1.2139  0.5432 -1.0211
 8061SOL    HW235817   2.426   2.787   9.034  0.5333 -2.8252 -0.9731
 8062SOL     OW35818   2.612   1.972   5.234  0.0139 -0.0885 -0.2660
 8062SOL    HW135819   2.558   1.989   5.157  0.7593  0.3487 -0.6932
 8062SOL    HW235820   2.657   2.056   5.236  1.4703 -0.8753  0.6658
 8063SOL     OW35821   2.559   1.104   3.390  0.5467 -0.1384 -0.3060
 8063SOL    HW135822   2.568   1.095   3.485  0.7084 -0.9752 -0.3959
 8063SOL    HW235823   2.586   1.194   3.376 -2.5711  1.1569  2.2704
 8064SOL     OW35824   0.084   3.729   7.495  0.0455 -0.1396 -0.1897
 8064SOL    HW135825   0.038   3.764   7.570  0.6203  1.3144 -0.5183
 8064SOL    HW235826   0.032   3.756   7.420 -0.3289  3.3011  1.3622
 8065SOL     OW35827   3.050   3.505  11.935  0.2041  0.2174 -0.0615
 8065SOL    HW135828   3.053   3.577  11.998  0.1697  0.0312  0.1570
 8065SOL    HW235829   3.027   3.439  12.001 -4.4568  1.1139 -0.8282
 8066SOL     OW35830   4.139   3.229   3.433 -0.2271 -0.1714  0.4439
 8066SOL    HW135831   4.100   3.225   3.521 -0.0545  2.1769  0.6242
 8066SOL    HW235832   4.119   3.150   3.383  0.1017  0.4221 -0.6232
 8067SOL     OW35833   0.352   4.465   0.785  0.2210  0.0447 -0.0155
 8067SOL    HW135834   0.358   4.456   0.690 -0.2551  1.5872 -0.1914
 8067SOL    HW235835   0.259   4.449   0.799  0.5861 -2.9531 -1.1376
 8068SOL     OW35836   4.373   0.470   0.214  0.5926  0.0454  0.0902
 8068SOL    HW135837   4.389   0.549   0.265  3.2888 -0.7056  0.3634
 8068SOL    HW235838   4.393   0.407   0.282  2.2936  0.7944  0.2617
 8069SOL     OW35839   1.170   4.603   2.387 -0.0074 -0.3983  0.5657
 8069SOL    HW135840   1.152   4.691   2.354  3.8445  0.9213  1.9492
 8069SOL    HW235841   1.151   4.541   2.316 -2.9495  0.6196  0.4795
 8070SOL     OW35842   3.223   0.947   9.135  0.4397  0.1840  0.1822
 8070SOL    HW135843   3.185   0.901   9.210  1.5375  1.4207  1.4659
 8070SOL    HW235844   3.268   1.022   9.174  0.8071  0.2596 -0.3790
 8071SOL     OW35845   1.458   2.918   3.625  0.2354 -0.6064  0.2253
 8071SOL    HW135846   1.547   2.887   3.644  0.8300  0.3207 -0.9882
 8071SOL    HW235847   1.415   2.834   3.614  1.1416 -1.1180  0.5584
 8072SOL     OW35848   1.058   1.673   1.482 -0.0167 -0.6128  0.0541
 8072SOL    HW135849   1.062   1.691   1.576 -0.8658 -2.0398  0.3664
 8072SOL    HW235850   1.149   1.645   1.470  0.0368 -0.1146 -0.7259
 8073SOL     OW35851   2.686   0.130   1.666  0.1565  0.4004 -0.4161
 8073SOL    HW135852   2.742   0.107   1.740 -0.3102 -1.0620 -0.5309
 8073SOL    HW235853   2.623   0.167   1.728 -0.3614 -0.6229 -0.3439
 8074SOL     OW35854   1.159   3.480   3.996 -0.5139  0.1518  0.4498
 8074SOL    HW135855   1.082   3.427   3.974 -0.5943  0.9794 -1.2688
 8074SOL    HW235856   1.217   3.475   3.920 -2.5951 -1.1255 -1.0281
 8075SOL     OW35857   3.047   2.061   5.783  0.5211  0.0419 -0.0358
 8075SOL    HW135858   3.066   2.135   5.726  0.2191 -0.3080 -0.5942
 8075SOL    HW235859   2.958   2.085   5.808  0.6930 -0.6848  1.3243
 8076SOL     OW35860   0.799   0.406   6.006  1.0608  0.0177 -0.0574
 8076SOL    HW135861   0.707   0.430   6.017  1.2342 -0.2993  2.0889
 8076SOL    HW235862   0.787   0.313   5.984 -0.8605 -0.0597  1.3236
 8077SOL     OW35863   1.561   1.748   8.340  0.0163 -0.0266  0.3584
 8077SOL    HW135864   1.485   1.806   8.333  0.6167  0.6739 -0.3309
 8077SOL    HW235865   1.534   1.669   8.294  0.4956 -1.0638  1.8479
 8078SOL     OW35866   2.534   2.460   5.159  0.1768  0.0240  0.8133
 8078SOL    HW135867   2.576   2.534   5.202 -2.4271  1.8952  0.1690
 8078SOL    HW235868   2.590   2.447   5.082 -1.1783 -0.1640 -0.1314
 8079SOL     OW35869   3.756   0.074   0.352 -0.3052  0.4154  0.1799
 8079SOL    HW135870   3.788   0.163   0.341 -0.5808  0.5312  0.3246
 8079SOL    HW235871   3.696   0.072   0.278 -1.8436  1.8408  1.4106
 8080SOL     OW35872   0.465   2.969   4.562  0.9845 -0.1348 -0.2167
 8080SOL    HW135873   0.474   2.964   4.657 -0.0799  1.9756 -0.0079
 8080SOL    HW235874   0.439   2.877   4.552  2.4922 -0.4914 -0.8807
 8081SOL     OW35875   0.348   1.444   5.531  0.0993 -0.1668 -0.0665
 8081SOL    HW135876   0.382   1.511   5.471  0.3474 -0.5392 -0.3381
 8081SOL    HW235877   0.252   1.446   5.526  0.0113  1.1020  2.0859
 8082SOL     OW35878   4.069   3.643   4.906 -0.0894  0.3604 -0.6724
 8082SOL    HW135879   4.072   3.607   4.994  1.9607 -0.9166 -1.2715
 8082SOL    HW235880   3.974   3.646   4.893 -0.0449  0.2547 -1.0314
 8083SOL     OW35881   1.482   2.610  15.241 -0.0927 -0.4455  0.2777
 8083SOL    HW135882   1.402   2.631  15.290  0.4509  0.6425  0.7034
 8083SOL    HW235883   1.499   2.519  15.267 -0.9295 -0.6919 -0.0208
 8084SOL     OW35884   1.588   0.193   8.485  0.0868 -0.2568 -0.0655
 8084SOL    HW135885   1.623   0.245   8.557 -2.9752  0.3003  0.9996
 8084SOL    HW235886   1.673   0.171   8.447  0.8465  0.6670  1.1179
 8085SOL     OW35887   3.086   2.472   3.322 -0.1321  0.0578 -0.3131
 8085SOL    HW135888   3.128   2.386   3.319 -2.8007 -1.2153 -1.2938
 8085SOL    HW235889   2.998   2.461   3.287 -0.7300  2.7659  0.3728
 8086SOL     OW35890   3.318   0.638   8.542  0.1443  0.2569 -0.1627
 8086SOL    HW135891   3.366   0.603   8.618  0.7390 -1.5116 -1.3516
 8086SOL    HW235892   3.277   0.714   8.583 -1.0874 -1.4951  1.9309
 8087SOL     OW35893   0.530   0.764  16.625 -0.1627  0.3799  0.3756
 8087SOL    HW135894   0.576   0.707  16.564 -1.4671 -0.7898  0.4896
 8087SOL    HW235895   0.505   0.704  16.695  1.0813 -1.2609 -0.5791
 8088SOL     OW35896   2.053   1.620   1.904 -0.1918  1.1182  0.3410
 8088SOL    HW135897   2.008   1.646   1.824  1.2955  0.3039 -0.7515
 8088SOL    HW235898   1.989   1.556   1.934  1.0875 -1.6458 -2.8850
 8089SOL     OW35899   2.138   3.042   5.284  0.7177  0.9317  0.2500
 8089SOL    HW135900   2.069   2.991   5.241  0.1495  0.3397  1.8793
 8089SOL    HW235901   2.164   3.103   5.215 -1.1091  0.8630 -0.4904
 8090SOL     OW35902   4.318   1.999  15.518 -0.4164 -0.7276  0.5559
 8090SOL    HW135903   4.334   2.039  15.604  1.3169  0.1524 -0.1723
 8090SOL    HW235904   4.312   1.905  15.532 -0.1495 -0.8357 -0.0967
 8091SOL     OW35905   0.892   0.471   2.162  0.1560 -0.3035  0.0582
 8091SOL    HW135906   0.832   0.541   2.134  1.9226  0.2820 -2.2852
 8091SOL    HW235907   0.838   0.421   2.223 -3.4973  2.1210 -1.1439
 8092SOL     OW35908   1.423   1.952   6.867 -0.0806 -0.0436 -0.6717
 8092SOL    HW135909   1.424   2.048   6.863 -1.7526 -0.0024 -0.0180
 8092SOL    HW235910   1.364   1.920   6.798 -1.1092 -0.7401  0.5426
 8093SOL     OW35911   1.680   1.754  17.618 -0.1970 -0.5265  0.6581
 8093SOL    HW135912   1.679   1.661  17.595  1.1328 -1.1918  3.3080
 8093SOL    HW235913   1.597   1.780  17.578  0.5719  1.5167  0.3646
 8094SOL     OW35914   2.650   1.581   8.481  0.6546  0.1405  0.1994
 8094SOL    HW135915   2.684   1.668   8.502  1.2500  0.5350 -2.3791
 8094SOL    HW235916   2.558   1.600   8.501 -0.0419 -0.5859 -2.3157
 8095SOL     OW35917   3.072   1.502   1.757 -0.1743 -0.4537 -0.4719
 8095SOL    HW135918   2.984   1.491   1.720 -1.0803 -2.2422  2.1850
 8095SOL    HW235919   3.050   1.561   1.829 -3.4692  0.1756 -1.9838
 8096SOL     OW35920   4.010   4.369   2.911 -0.1864 -0.3184 -0.0268
 8096SOL    HW135921   4.033   4.290   2.960 -1.0006 -1.9064 -2.2114
 8096SOL    HW235922   4.054   4.439   2.960 -1.6140  1.1617 -0.8210
 8097SOL     OW35923   2.475   4.574   9.619 -0.4046 -0.2112  0.0313
 8097SOL    HW135924   2.446   4.520   9.693  0.5615  0.2687  0.7514
 8097SOL    HW235925   2.434   4.529   9.545  0.5737 -1.5617  0.3202
 8098SOL     OW35926   2.726   2.323   3.837  0.6625  0.0446 -0.6877
 8098SOL    HW135927   2.754   2.349   3.749 -1.6101  0.9879 -1.1435
 8098SOL    HW235928   2.803   2.353   3.885  0.1927 -2.1029  1.3716
 8099SOL     OW35929   3.976   2.260   5.295 -0.3882 -0.5191 -0.1631
 8099SOL    HW135930   4.067   2.274   5.272 -0.0746  2.6547  2.9050
 8099SOL    HW235931   3.967   2.340   5.347 -0.5435 -0.7189  0.1179
 8100SOL     OW35932   0.793   4.152   7.746 -0.1068 -0.4291 -0.3723
 8100SOL    HW135933   0.726   4.153   7.814  0.3385 -3.0639  0.1243
 8100SOL    HW235934   0.821   4.243   7.745  1.0552 -0.7375  2.2505
 8101SOL     OW35935   1.959   4.050   5.132  0.3336  0.5521  0.3793
 8101SOL    HW135936   1.994   3.985   5.193  1.3286 -0.0320 -0.8132
 8101SOL    HW235937   1.953   4.127   5.188 -0.5478  0.6640  0.1401
 8102SOL     OW35938   3.229   1.357   6.263 -0.2038  0.1676 -0.4059
 8102SOL    HW135939   3.288   1.364   6.188 -0.1896 -3.1065 -0.6847
 8102SOL    HW235940   3.166   1.429   6.258  0.1588  0.4077 -1.4283
 8103SOL     OW35941   1.680   2.917  11.775 -0.1568  0.1351  0.0449
 8103SOL    HW135942   1.683   2.954  11.687  1.8739 -0.4826 -0.1518
 8103SOL    HW235943   1.625   2.974  11.828 -0.0429  1.2742 -1.0810
 8104SOL     OW35944   3.402   3.497   5.136  0.2463 -0.0770 -0.3398
 8104SOL    HW135945   3.333   3.432   5.121 -0.7700  0.3828  2.2361
 8104SOL    HW235946   3.470   3.440   5.100  1.3733  0.1579  1.4044
 8105SOL     OW35947   3.487   0.487  12.597 -0.4295  0.1711 -0.2676
 8105SOL    HW135948   3.488   0.521  12.507  0.4430 -1.3714 -0.8586
 8105SOL    HW235949   3.462   0.395  12.582 -0.1417 -0.2620  1.9815
 8106SOL     OW35950   4.359   1.869   4.292  0.0040  0.1163  0.5847
 8106SOL    HW135951   4.335   1.877   4.384 -1.6010  0.6486  0.1074
 8106SOL    HW235952   4.313   1.786   4.279  1.0785 -0.8221  2.7853
 8107SOL     OW35953   4.287   0.783   8.690 -0.1053 -0.8500  0.0598
 8107SOL    HW135954   4.218   0.843   8.719 -1.3451 -2.7467  1.0390
 8107SOL    HW235955   4.245   0.749   8.610  1.1608 -0.4288 -0.7771
 8108SOL     OW35956   1.497   0.398   6.466 -0.6119 -0.2018 -0.2729
 8108SOL    HW135957   1.482   0.482   6.423  0.7818  0.6110  0.8473
 8108SOL    HW235958   1.412   0.375   6.504 -0.3295 -2.0550 -0.7750
 8109SOL     OW35959   3.054   1.816   0.584 -0.5427  0.0791 -0.2000
 8109SOL    HW135960   3.067   1.868   0.505 -3.0211  0.1291 -0.5967
 8109SOL    HW235961   3.000   1.743   0.553  1.8470 -2.2214  1.1362
 8110SOL     OW35962   1.804   1.771  13.944 -0.4506 -0.2579 -0.4815
 8110SOL    HW135963   1.776   1.793  14.033  0.3035  2.0979 -0.8248
 8110SOL    HW235964   1.732   1.808  13.893  0.1069  1.1198 -0.2562
 8111SOL     OW35965   1.546   3.925   3.011  0.9677 -0.5649  0.6292
 8111SOL    HW135966   1.592   4.004   2.983 -0.2850  0.5142  1.6403
 8111SOL    HW235967   1.463   3.958   3.046  0.7270 -1.0753  0.5364
 8112SOL     OW35968   2.190   0.377   3.585 -0.1749  0.0847  0.0936
 8112SOL    HW135969   2.259   0.441   3.604 -1.2070  1.2181  0.0078
 8112SOL    HW235970   2.116   0.418   3.629  0.3514 -0.9606  1.9157
 8113SOL     OW35971   4.642   1.427   4.236 -0.0884 -0.1033  0.2285
 8113SOL    HW135972   4.729   1.390   4.223  0.4890  1.8620 -1.5559
 8113SOL    HW235973   4.622   1.440   4.143 -0.6423  0.6311  0.4419
 8114SOL     OW35974   3.914   0.109  10.783  0.3011  0.2984 -0.7335
 8114SOL    HW135975   3.930   0.165  10.707  0.3787 -1.8999 -2.3646
 8114SOL    HW235976   3.852   0.167  10.825 -0.4903 -2.1311  1.4330
 8115SOL     OW35977   3.565   2.160  15.031 -0.2976 -0.4689 -0.2657
 8115SOL    HW135978   3.479   2.177  14.992  0.2226  0.5573 -0.9737
 8115SOL    HW235979   3.627   2.218  14.988 -0.0068 -1.4976 -1.2174
 8116SOL     OW35980   2.637   3.319  11.084 -0.1784  0.1238  0.2824
 8116SOL    HW135981   2.554   3.274  11.069 -0.1290  0.4590 -0.9813
 8116SOL    HW235982   2.690   3.249  11.124  0.5419  0.8221  0.5520
 8117SOL     OW35983   0.468   0.572  16.813 -0.2502  0.0583  0.0868
 8117SOL    HW135984   0.434   0.516  16.743  0.8800 -2.6059  1.6420
 8117SOL    HW235985   0.503   0.501  16.868 -0.4784  0.5451  0.8596
 8118SOL     OW35986   3.296   3.248   2.443  0.3280 -0.1634 -0.2470
 8118SOL    HW135987   3.246   3.243   2.524 -0.7394 -2.8689 -1.0689
 8118SOL    HW235988   3.270   3.338   2.423 -0.0734 -0.3682 -0.6565
 8119SOL     OW35989   4.008   3.561   1.501  0.1293  0.2275 -0.0705
 8119SOL    HW135990   3.965   3.518   1.575  1.0943  1.2130  1.0666
 8119SOL    HW235991   3.974   3.516   1.423 -0.2118 -1.4030  1.0043
 8120SOL     OW35992   2.055   2.094   6.889 -0.4305 -0.2348  0.4168
 8120SOL    HW135993   2.020   2.133   6.969 -1.0639 -2.9217  1.4305
 8120SOL    HW235994   2.048   2.003   6.917  2.0105 -0.2204  1.1138
 8121SOL     OW35995   2.266   1.162   2.108 -0.3845 -0.1345 -0.5038
 8121SOL    HW135996   2.361   1.161   2.097 -0.4184  1.1683 -0.9706
 8121SOL    HW235997   2.235   1.221   2.039 -1.6107  0.0466  0.1953
 8122SOL     OW35998   2.410   1.108   7.377  0.0845  0.0500 -0.8616
 8122SOL    HW135999   2.400   1.047   7.450  0.1097  1.8044  0.5926
 8122SOL    HW236000   2.443   1.043   7.315  0.2199 -2.6851  2.1345
 8123SOL     OW36001   0.261   1.743   5.352 -0.0289 -0.6937  0.2373
 8123SOL    HW136002   0.240   1.813   5.290  0.4925 -0.9534 -0.2378
 8123SOL    HW236003   0.240   1.667   5.297 -1.4217 -2.7530  3.6349
 8124SOL     OW36004   0.817   0.943   9.062 -0.0594 -0.0058 -0.3576
 8124SOL    HW136005   0.779   0.859   9.089  0.2534  0.0671  0.3058
 8124SOL    HW236006   0.769   0.949   8.979 -2.7737 -0.8284  1.1580
 8125SOL     OW36007   2.963   2.373   7.847 -0.0430 -0.0406 -0.2356
 8125SOL    HW136008   2.922   2.404   7.928 -1.6123 -0.2806 -0.9429
 8125SOL    HW236009   3.005   2.452   7.812  1.5213 -0.6010  0.3681
 8126SOL     OW36010   0.692   0.556   5.248 -0.1104 -0.5054 -0.0738
 8126SOL    HW136011   0.738   0.481   5.285 -0.3313 -1.8188 -2.4588
 8126SOL    HW236012   0.747   0.565   5.170  0.5974 -1.9269  0.2743
 8127SOL     OW36013   1.782   4.628   3.975 -0.2016 -0.0697  0.4324
 8127SOL    HW136014   1.866   4.633   3.931  1.3502 -0.9843  3.2557
 8127SOL    HW236015   1.801   4.593   4.062  1.8266 -0.6460 -0.2495
 8128SOL     OW36016   0.479   1.036   0.650  0.7770 -0.0936 -0.1626
 8128SOL    HW136017   0.450   1.001   0.734 -0.4645 -2.3770 -1.5528
 8128SOL    HW236018   0.441   1.123   0.640  2.0929  0.4019 -0.8789
 8129SOL     OW36019   2.860   2.623   9.873 -0.5433 -0.1856 -0.1280
 8129SOL    HW136020   2.847   2.554   9.807 -1.0730 -0.8688  0.6933
 8129SOL    HW236021   2.795   2.688   9.845  1.1757  1.5857  0.0444
 8130SOL     OW36022   1.736   2.241   8.393 -0.1726  0.0228 -0.0840
 8130SOL    HW136023   1.725   2.334   8.415 -0.0624 -0.3093  1.3435
 8130SOL    HW236024   1.672   2.203   8.452 -0.7177  1.6883  0.4060
 8131SOL     OW36025   2.749   3.331   1.628 -0.5671 -0.2511 -0.2440
 8131SOL    HW136026   2.807   3.262   1.661  0.7134  2.2550  2.7197
 8131SOL    HW236027   2.694   3.345   1.705  0.0528  1.2134 -0.0692
 8132SOL     OW36028   1.617   0.942  10.685  0.3454 -0.1900  0.5238
 8132SOL    HW136029   1.593   1.011  10.623  2.1522 -0.8087 -0.8571
 8132SOL    HW236030   1.551   0.879  10.654  0.5594  1.1662 -2.6239
 8133SOL     OW36031   4.534   1.458   2.750  0.8730  0.3544 -0.2801
 8133SOL    HW136032   4.556   1.466   2.843  2.1503  0.0291 -0.5485
 8133SOL    HW236033   4.468   1.527   2.745 -0.6847 -1.0517  0.8760
 8134SOL     OW36034   4.315   4.424  16.080  0.3689  0.2344  0.0569
 8134SOL    HW136035   4.319   4.414  15.985 -3.1153 -1.6944  0.0874
 8134SOL    HW236036   4.291   4.512  16.107  2.6090  0.8423  0.0478
 8135SOL     OW36037   4.107   0.645   9.597 -0.1261 -0.3782  0.2996
 8135SOL    HW136038   4.121   0.658   9.691 -1.6845 -0.0182  0.4759
 8135SOL    HW236039   4.026   0.693   9.581 -0.0887 -0.1976  0.6638
 8136SOL     OW36040   2.512   0.566   4.530 -0.0175  0.2171  0.0007
 8136SOL    HW136041   2.495   0.497   4.466  0.7909  1.2050 -1.2745
 8136SOL    HW236042   2.464   0.637   4.488  1.5875 -0.7644 -3.5177
 8137SOL     OW36043   4.416   1.967   7.010  0.1776 -0.1606  0.1631
 8137SOL    HW136044   4.439   2.060   7.008  0.6394 -0.2850 -0.1574
 8137SOL    HW236045   4.362   1.956   6.932 -0.1949  1.3511  0.2056
 8138SOL     OW36046   1.181   3.888   2.208  0.2424 -0.1261 -0.1567
 8138SOL    HW136047   1.163   3.847   2.293 -2.1474  0.6408 -0.3119
 8138SOL    HW236048   1.097   3.861   2.171 -0.3882  0.2036  1.0166
 8139SOL     OW36049   3.984   2.004   3.768 -0.1289 -0.4693  0.1266
 8139SOL    HW136050   3.970   1.912   3.791 -0.7012 -0.5288 -0.4755
 8139SOL    HW236051   4.026   2.034   3.849 -1.7834  1.9936  0.0542
 8140SOL     OW36052   3.454   2.262   3.784  0.3081  0.0907  0.1662
 8140SOL    HW136053   3.414   2.176   3.771 -0.1498  0.4406 -0.7114
 8140SOL    HW236054   3.532   2.256   3.729 -1.1877  0.5480 -2.0232
 8141SOL     OW36055   2.511   3.319   2.822  0.6080 -0.1408 -0.6788
 8141SOL    HW136056   2.422   3.354   2.826 -1.0053 -4.6966  3.0922
 8141SOL    HW236057   2.515   3.240   2.875 -0.0280  0.9454  0.9701
 8142SOL     OW36058   1.577   3.750   4.170  0.1949  0.4065  0.3292
 8142SOL    HW136059   1.577   3.844   4.187 -1.0968 -0.0292  2.6621
 8142SOL    HW236060   1.613   3.750   4.081  4.1126 -0.9727  1.8962
 8143SOL     OW36061   1.376   0.299   2.427  0.1903  0.4336 -0.3260
 8143SOL    HW136062   1.414   0.254   2.352  0.7430  1.8163 -0.8760
 8143SOL    HW236063   1.338   0.224   2.472  4.7901 -0.4933  1.9881
 8144SOL     OW36064   4.603   3.904   2.557 -0.0287 -0.2706  1.1140
 8144SOL    HW136065   4.678   3.927   2.502 -1.7448  0.2952 -1.0019
 8144SOL    HW236066   4.616   3.810   2.565  2.8598 -0.0413 -0.8696
 8145SOL     OW36067   3.522   4.398   2.860  0.2876  0.4916 -0.0915
 8145SOL    HW136068   3.485   4.336   2.798 -0.2341  0.4028  0.3095
 8145SOL    HW236069   3.601   4.354   2.892 -0.9594 -0.6575  1.3848
 8146SOL     OW36070   4.053   2.860   2.843  0.6256  0.2495  0.1717
 8146SOL    HW136071   4.073   2.917   2.917  2.2595 -3.1593  2.3509
 8146SOL    HW236072   4.041   2.932   2.782  1.4810  2.4983  2.6809
 8147SOL     OW36073   2.782   0.502   3.915  0.1934 -0.1142 -0.9234
 8147SOL    HW136074   2.792   0.413   3.881 -0.1912  0.0000 -1.3264
 8147SOL    HW236075   2.806   0.478   4.005  0.5304  2.6796 -0.2633
 8148SOL     OW36076   1.891   2.449   8.118 -0.3549  0.0581 -0.1007
 8148SOL    HW136077   1.894   2.355   8.138  2.0094  0.2562  0.3713
 8148SOL    HW236078   1.796   2.461   8.108 -0.3595  0.7599  0.8098
 8149SOL     OW36079   3.415   3.935   0.373 -0.1305 -0.3041  0.4320
 8149SOL    HW136080   3.471   3.992   0.320  0.4682 -1.6176 -0.3430
 8149SOL    HW236081   3.445   3.849   0.345  0.9285 -0.5707  2.3717
 8150SOL     OW36082   2.721   0.349   8.674 -0.2537  0.7929  0.3728
 8150SOL    HW136083   2.687   0.414   8.735  1.2225  0.7842  1.2200
 8150SOL    HW236084   2.811   0.376   8.689 -1.0430  3.2283  0.6276
 8151SOL     OW36085   1.740   1.816   0.151  0.2427 -0.0535  0.1050
 8151SOL    HW136086   1.738   1.771   0.066  0.2616 -1.4459  0.8595
 8151SOL    HW236087   1.707   1.741   0.200 -0.0326 -0.7183 -1.0776
 8152SOL     OW36088   2.536   0.417   2.539 -0.2165  0.2946  0.1362
 8152SOL    HW136089   2.594   0.444   2.467  1.4348 -0.9411  1.0192
 8152SOL    HW236090   2.500   0.501   2.566  3.0620  2.3814 -1.8920
 8153SOL     OW36091   3.874   4.700   4.168 -0.5789 -0.0277 -0.4478
 8153SOL    HW136092   3.807   0.033   4.162  0.8959  1.6236  2.1786
 8153SOL    HW236093   3.872   4.657   4.082  0.3756 -0.3300 -0.3232
 8154SOL     OW36094   2.473   4.392   1.681  0.9268 -0.2253 -0.9642
 8154SOL    HW136095   2.411   4.342   1.628 -0.0223 -0.5528  0.4441
 8154SOL    HW236096   2.443   4.481   1.661  2.6047  0.9092  1.7092
 8155SOL     OW36097   1.038   2.545  17.021 -0.5001 -0.0231  0.0290
 8155SOL    HW136098   1.068   2.601  16.950  1.7198 -0.8121  0.3602
 8155SOL    HW236099   0.947   2.573  17.027  0.0033  1.7267 -0.7072
 8156SOL     OW36100   2.738   0.039   3.087  0.4743 -0.6636 -0.3944
 8156SOL    HW136101   2.673   4.709   3.117 -0.1064 -0.3663 -1.0089
 8156SOL    HW236102   2.791   4.712   3.038 -0.1387 -0.1025 -1.7676
 8157SOL     OW36103   3.539   2.618   4.489 -0.4661  0.4816 -0.5102
 8157SOL    HW136104   3.583   2.694   4.453  1.4830 -0.2968  0.1991
 8157SOL    HW236105   3.607   2.551   4.475 -2.2698 -0.4884 -4.5924
 8158SOL     OW36106   1.970   1.533  10.697  0.4006  0.2403 -0.3497
 8158SOL    HW136107   2.018   1.486  10.765  1.9684 -0.6044 -2.0360
 8158SOL    HW236108   1.902   1.583  10.742  1.7493  1.4516  0.3230
 8159SOL     OW36109   1.628   0.655   2.614 -0.9179  0.6423  0.1845
 8159SOL    HW136110   1.663   0.649   2.525  2.0734 -1.1747  1.4734
 8159SOL    HW236111   1.555   0.593   2.607 -0.5488  0.3655 -1.1887
 8160SOL     OW36112   4.199   1.465   3.768  0.6609 -0.0571  0.2729
 8160SOL    HW136113   4.109   1.439   3.749  0.4805  1.5406 -1.0085
 8160SOL    HW236114   4.222   1.402   3.836 -0.8014 -0.5498  0.2946
 8161SOL     OW36115   2.897   3.439   3.739  1.0554 -0.2261  0.3360
 8161SOL    HW136116   2.898   3.363   3.797  1.2504  1.3553  2.4293
 8161SOL    HW236117   2.965   3.499   3.768 -1.1831  2.3973  0.1739
 8162SOL     OW36118   4.607   0.312  14.790 -0.7294 -0.1547 -0.4586
 8162SOL    HW136119   4.535   0.273  14.740 -2.1074  1.5184  0.1771
 8162SOL    HW236120   4.685   0.287  14.740 -0.4063  0.2735 -0.1698
 8163SOL     OW36121   1.280   3.608   1.385  0.5280  0.1030 -0.6106
 8163SOL    HW136122   1.191   3.643   1.380  0.2925 -0.6787 -2.0590
 8163SOL    HW236123   1.263   3.554   1.462  2.0068  1.9650  0.9988
 8164SOL     OW36124   1.611   1.906   7.049 -0.3452  0.2993 -0.4386
 8164SOL    HW136125   1.542   1.949   6.999  0.0836 -1.4778 -2.5509
 8164SOL    HW236126   1.626   1.823   7.003  0.1212  0.8001 -1.1862
 8165SOL     OW36127   0.927   3.164   5.626  0.3080 -0.5082  0.3725
 8165SOL    HW136128   0.987   3.219   5.576 -0.6456 -1.5837 -1.9705
 8165SOL    HW236129   0.957   3.080   5.591  0.6987 -0.1003 -0.2777
 8166SOL     OW36130   4.355   3.609   8.381  0.4961  0.7828 -0.3308
 8166SOL    HW136131   4.317   3.592   8.467  0.9499  3.9392  0.5030
 8166SOL    HW236132   4.355   3.525   8.335  0.7377  0.6471 -0.0876
 8167SOL     OW36133   1.988   2.712   4.247  0.0585  0.2254 -0.0719
 8167SOL    HW136134   1.940   2.668   4.176 -0.6196  2.4053 -0.9694
 8167SOL    HW236135   1.907   2.753   4.277  0.3326  1.2965 -0.7745
 8168SOL     OW36136   3.344   4.666  13.814  0.5970  0.1587  0.5934
 8168SOL    HW136137   3.345   0.027  13.817 -2.5300  0.2469 -0.9924
 8168SOL    HW236138   3.435   4.639  13.822  0.7237  0.1259 -0.9890
 8169SOL     OW36139   3.840   3.343   6.989  0.2890  0.6787 -0.6327
 8169SOL    HW136140   3.907   3.400   7.027 -0.2131  0.7997  0.0655
 8169SOL    HW236141   3.754   3.375   7.016  0.0752  0.1576 -0.6903
 8170SOL     OW36142   2.003   2.476   6.325  0.0136  0.1126 -0.1058
 8170SOL    HW136143   1.951   2.402   6.293 -1.4339  0.3691  1.6325
 8170SOL    HW236144   1.948   2.524   6.386  1.0779  1.1030  0.0647
 8171SOL     OW36145   3.307   1.186  16.539  0.4655 -0.1092  0.0077
 8171SOL    HW136146   3.355   1.268  16.550  0.6261  0.0053 -1.5449
 8171SOL    HW236147   3.292   1.184  16.444  0.9714  0.3312 -0.0819
 8172SOL     OW36148   3.612   4.661   4.607 -0.5615  0.3767  0.0397
 8172SOL    HW136149   3.577   4.659   4.696 -1.4193 -0.8405 -0.3294
 8172SOL    HW236150   3.691   4.607   4.616 -0.2755  0.5453 -1.6107
 8173SOL     OW36151   4.284   1.983   5.130 -0.0282  0.1769  0.6502
 8173SOL    HW136152   4.216   2.026   5.182  0.8350 -1.1256  2.8811
 8173SOL    HW236153   4.267   1.890   5.147 -0.1897 -0.1189 -1.1082
 8174SOL     OW36154   3.761   0.742   7.562 -0.1727 -0.0388 -0.2190
 8174SOL    HW136155   3.737   0.681   7.492  1.1164 -1.5185  0.6265
 8174SOL    HW236156   3.678   0.743   7.610  0.4109 -1.7960  0.8428
 8175SOL     OW36157   1.838   0.455  10.038 -0.0562  0.2297 -0.2580
 8175SOL    HW136158   1.863   0.481   9.949  0.0802  0.5652 -0.1206
 8175SOL    HW236159   1.841   0.541  10.079  1.0239 -1.2406  2.7422
 8176SOL     OW36160   2.470   0.987   8.056 -0.4656  0.7446  0.1913
 8176SOL    HW136161   2.496   1.079   8.051  2.9015 -0.2689 -0.8794
 8176SOL    HW236162   2.457   0.967   7.963 -0.8772  2.9560 -0.2156
 8177SOL     OW36163   0.254   3.132   3.941  0.0960 -0.2647  0.2326
 8177SOL    HW136164   0.225   3.137   4.032  0.3540  0.9139  0.2525
 8177SOL    HW236165   0.186   3.075   3.905 -0.8211  0.4432  0.8728
 8178SOL     OW36166   3.046   3.314  10.198 -0.0455 -0.3144 -0.4740
 8178SOL    HW136167   3.117   3.350  10.146  0.5310  1.4339  1.5277
 8178SOL    HW236168   3.092   3.312  10.282 -2.0046 -0.0545  0.6270
 8179SOL     OW36169   3.537   1.236  17.619  0.1588  0.4808 -0.5376
 8179SOL    HW136170   3.622   1.195  17.638 -0.6330 -0.9910 -0.1181
 8179SOL    HW236171   3.538   1.321  17.663  0.8648 -0.3687  1.1011
 8180SOL     OW36172   0.689   0.048   6.990  0.3979 -0.3017  0.7543
 8180SOL    HW136173   0.702   0.086   7.076  1.5552  3.2013 -0.9838
 8180SOL    HW236174   0.593   0.056   6.988  0.3284 -0.8627  2.2584
 8181SOL     OW36175   1.280   0.445   4.597 -0.0923 -0.5550  0.2478
 8181SOL    HW136176   1.194   0.458   4.638 -1.6074 -1.4590 -2.6888
 8181SOL    HW236177   1.280   0.502   4.521  2.9856  0.7933  1.2833
 8182SOL     OW36178   2.957   1.426   8.110  0.2557  0.1115  0.2155
 8182SOL    HW136179   3.018   1.352   8.113 -0.6280 -0.6408 -0.1489
 8182SOL    HW236180   2.886   1.384   8.062 -1.1396 -0.1210  2.4779
 8183SOL     OW36181   1.551   0.932   7.441  0.0434  0.0718  0.5121
 8183SOL    HW136182   1.596   0.847   7.439 -1.3738 -0.6833  0.8242
 8183SOL    HW236183   1.459   0.911   7.422  0.5795 -2.0741  0.2898
 8184SOL     OW36184   3.596   0.293  14.597 -0.1989 -0.3865  0.6094
 8184SOL    HW136185   3.512   0.293  14.642  0.9313 -0.0126  2.7695
 8184SOL    HW236186   3.630   0.215  14.642 -0.2422  0.0267  1.3558
 8185SOL     OW36187   3.993   0.558   0.287 -0.3265 -0.4683 -0.1461
 8185SOL    HW136188   3.949   0.637   0.318  3.2062  1.5143 -0.2794
 8185SOL    HW236189   3.962   0.553   0.197 -3.5813  1.9123  0.8473
 8186SOL     OW36190   3.001   0.748   3.344  0.0614  0.5504  0.3689
 8186SOL    HW136191   2.909   0.764   3.365 -0.0158  0.8012 -0.1603
 8186SOL    HW236192   2.990   0.656   3.321 -0.6511  0.6729  0.2122
 8187SOL     OW36193   0.535   2.656   9.301  0.2265 -0.2005 -0.3892
 8187SOL    HW136194   0.588   2.721   9.255  1.7359  0.3145  2.1352
 8187SOL    HW236195   0.593   2.580   9.297  2.1928  1.2584  0.5413
 8188SOL     OW36196   4.300   1.005  12.545  0.6236  0.0457 -0.1049
 8188SOL    HW136197   4.289   1.078  12.483  0.2840  0.4246  0.4014
 8188SOL    HW236198   4.333   1.050  12.623 -1.3285  2.6435 -0.7474
 8189SOL     OW36199   3.533   2.428   1.252 -0.3996  0.1105  0.0203
 8189SOL    HW136200   3.498   2.478   1.179 -0.7143 -1.4180 -0.8807
 8189SOL    HW236201   3.543   2.492   1.323  3.1265  0.5097 -0.8213
 8190SOL     OW36202   4.092   2.703  13.862 -0.1533  0.1029 -0.3860
 8190SOL    HW136203   4.100   2.757  13.941  0.3269 -0.6615  0.0836
 8190SOL    HW236204   4.153   2.743  13.799  0.4289  1.0361  0.7634
 8191SOL     OW36205   3.666   3.923   6.177  0.2593 -0.1006  0.0377
 8191SOL    HW136206   3.692   3.837   6.142  0.7819 -0.6411  1.7354
 8191SOL    HW236207   3.590   3.896   6.228 -0.0174  0.9088  0.1414
 8192SOL     OW36208   0.977   0.522   5.876 -0.1946 -0.0834  0.4911
 8192SOL    HW136209   0.917   0.476   5.935  0.5807 -0.3846  1.0595
 8192SOL    HW236210   0.922   0.596   5.852  0.6940  0.3134 -0.3677
 8193SOL     OW36211   4.086   2.242  13.954 -0.1688 -0.0859  0.2191
 8193SOL    HW136212   4.024   2.174  13.929 -2.0430  1.7441 -0.1002
 8193SOL    HW236213   4.143   2.250  13.877  0.6681 -1.8489  0.6548
 8194SOL     OW36214   1.778   1.618   3.223 -0.3180 -0.3448 -0.1819
 8194SOL    HW136215   1.709   1.635   3.158  0.6457  0.1292 -1.0858
 8194SOL    HW236216   1.742   1.676   3.290  2.6512  0.8994  0.3272
 8195SOL     OW36217   3.142   1.058   1.116  0.2611 -0.3246  0.0715
 8195SOL    HW136218   3.231   1.051   1.152 -0.1228  0.4147  1.1897
 8195SOL    HW236219   3.083   1.005   1.170  0.8010 -0.6345  0.3573
 8196SOL     OW36220   3.348   1.647   8.301  0.1746  0.3948  0.2890
 8196SOL    HW136221   3.361   1.699   8.222  0.5359 -0.7711 -0.4277
 8196SOL    HW236222   3.280   1.697   8.346  0.0812 -0.0342  0.6267
 8197SOL     OW36223   1.665   2.116   2.395  0.3325  0.5751  0.4182
 8197SOL    HW136224   1.653   2.202   2.356  2.4542 -0.9975 -3.6779
 8197SOL    HW236225   1.755   2.119   2.428  0.3965 -1.9277  0.4750
 8198SOL     OW36226   2.306   3.557   0.804 -0.2755 -1.1765 -0.6709
 8198SOL    HW136227   2.231   3.501   0.788 -1.5811  0.8647 -1.7241
 8198SOL    HW236228   2.374   3.525   0.744 -0.2096 -0.2056 -1.1155
 8199SOL     OW36229   0.734   1.603   2.386 -0.3395 -0.0356  0.5516
 8199SOL    HW136230   0.730   1.636   2.476 -2.4511  0.9359  0.1014
 8199SOL    HW236231   0.647   1.619   2.349  0.2130  0.1582 -0.6464
 8200SOL     OW36232   2.684   1.633   7.460  0.3726  0.2750  0.3786
 8200SOL    HW136233   2.743   1.576   7.411 -0.8459 -0.1946 -0.5464
 8200SOL    HW236234   2.652   1.677   7.381 -3.3281 -1.2223  1.0447
 8201SOL     OW36235   2.258   3.058   3.251  0.7500 -0.0352 -0.2452
 8201SOL    HW136236   2.181   3.113   3.267  1.1547  0.6461 -0.6523
 8201SOL    HW236237   2.317   3.093   3.317 -0.3161  0.7529  0.2752
 8202SOL     OW36238   0.804   1.184  11.467  0.5245  0.0722 -0.1639
 8202SOL    HW136239   0.845   1.207  11.551 -0.9721 -0.3700  0.6888
 8202SOL    HW236240   0.867   1.218  11.404 -4.0660  2.8253 -3.2055
 8203SOL     OW36241   4.422   1.366   0.917  0.5012 -0.3927  1.0292
 8203SOL    HW136242   4.496   1.416   0.881 -1.2963 -0.1901 -2.3787
 8203SOL    HW236243   4.352   1.399   0.861  1.8170 -0.2104 -0.5312
 8204SOL     OW36244   0.596   0.817   7.080  0.0031  0.3864 -0.4596
 8204SOL    HW136245   0.611   0.828   6.986  2.3294  1.3851  0.0222
 8204SOL    HW236246   0.541   0.739   7.083  1.4374 -0.5599  0.9360
 8205SOL     OW36247   2.059   3.325   1.105 -0.4241 -0.1504 -0.1883
 8205SOL    HW136248   2.062   3.384   1.181 -0.0858  2.1685 -2.0067
 8205SOL    HW236249   2.013   3.251   1.144  1.2619 -0.2587  1.6078
 8206SOL     OW36250   3.247   1.404   3.965  0.3074  0.0349  0.2512
 8206SOL    HW136251   3.289   1.326   3.930 -0.8852  0.2964 -1.7588
 8206SOL    HW236252   3.257   1.469   3.895 -0.5756  2.3796  2.3269
 8207SOL     OW36253   0.961   1.274   8.577  0.1953  0.2133  0.4875
 8207SOL    HW136254   0.901   1.309   8.510 -0.1558 -0.1521  0.6108
 8207SOL    HW236255   1.006   1.358   8.582  0.0590  0.2130  1.7016
 8208SOL     OW36256   4.147   4.494   7.191  0.3887 -0.7404 -0.2264
 8208SOL    HW136257   4.081   4.563   7.183  0.8887 -0.3758 -1.2788
 8208SOL    HW236258   4.210   4.523   7.124 -0.4922 -1.2291 -1.2743
 8209SOL     OW36259   4.560   0.559  16.558  0.0067 -0.6192  0.1879
 8209SOL    HW136260   4.556   0.506  16.637  0.5973  0.3588  0.8760
 8209SOL    HW236261   4.560   0.646  16.599 -0.1161 -0.6853  0.3249
 8210SOL     OW36262   4.171   0.025   3.994  0.1865  0.5863 -0.1533
 8210SOL    HW136263   4.158   0.119   4.010 -0.1032  0.0687  2.6361
 8210SOL    HW236264   4.197   0.008   4.085  0.0136  1.5365  0.0774
 8211SOL     OW36265   3.158   2.986  12.258  0.5793  0.2688 -0.4150
 8211SOL    HW136266   3.170   2.892  12.269  2.3173  0.6837  1.0592
 8211SOL    HW236267   3.221   3.014  12.192  1.4212  0.3796  0.4500
 8212SOL     OW36268   1.076   3.528   6.188  0.6778  0.3794 -0.2580
 8212SOL    HW136269   1.002   3.470   6.173  0.7367  1.5816 -5.1014
 8212SOL    HW236270   1.107   3.506   6.276 -0.0535  2.3795  0.4931
 8213SOL     OW36271   0.138   1.848   8.885  0.4285  0.5630  0.1550
 8213SOL    HW136272   0.104   1.900   8.812  1.8861  1.9582  0.4795
 8213SOL    HW236273   0.080   1.876   8.956 -1.4336  1.5412 -1.7614
 8214SOL     OW36274   0.347   4.473   0.514 -0.0327 -0.0770 -0.0759
 8214SOL    HW136275   0.254   4.476   0.490 -0.1884  0.5283  0.6027
 8214SOL    HW236276   0.366   4.540   0.449 -1.3310 -0.7464 -1.1517
 8215SOL     OW36277   4.169   3.637  11.555 -0.0793  0.4470  0.0151
 8215SOL    HW136278   4.197   3.603  11.470  0.1068  0.8318 -0.0766
 8215SOL    HW236279   4.219   3.582  11.616 -2.2302 -0.3798  1.0156
 8216SOL     OW36280   3.233   2.725  12.296  0.1935 -0.2214  0.3061
 8216SOL    HW136281   3.219   2.690  12.384 -0.3463 -0.0269  0.3003
 8216SOL    HW236282   3.197   2.659  12.237  0.8306 -0.7263  0.4896
 8217SOL     OW36283   3.075   0.118   8.762 -0.2949 -0.3005 -0.3717
 8217SOL    HW136284   3.140   0.186   8.778  0.4125 -1.0839  0.0766
 8217SOL    HW236285   2.991   0.148   8.795 -0.6020 -1.7082  0.1451
 8218SOL     OW36286   3.705   1.093   4.314 -0.4248 -0.0606  0.5041
 8218SOL    HW136287   3.654   1.027   4.361  1.5084 -1.2083  0.9906
 8218SOL    HW236288   3.640   1.162   4.303  0.5488  0.7884  0.0865
 8219SOL     OW36289   3.958   1.955   5.255  0.8453  0.1795  0.4879
 8219SOL    HW136290   3.975   2.046   5.278 -1.2265  0.7857 -0.3617
 8219SOL    HW236291   3.994   1.908   5.330  2.3316  2.2069  1.0243
 8220SOL     OW36292   4.261   2.250   0.173  0.0104 -0.5256  0.1719
 8220SOL    HW136293   4.175   2.210   0.159 -0.2327 -0.6480  2.0016
 8220SOL    HW236294   4.283   2.296   0.093  0.2838 -0.6101  0.2000
 8221SOL     OW36295   1.331   3.868   9.672 -0.2702 -0.2976 -0.1124
 8221SOL    HW136296   1.318   3.780   9.709 -3.3824  1.2199  2.3651
 8221SOL    HW236297   1.256   3.873   9.612 -1.3864 -1.5489  1.1675
 8222SOL     OW36298   2.455   1.766   5.053  0.5046  0.6251 -0.0788
 8222SOL    HW136299   2.414   1.769   5.140 -0.2062  1.3026 -0.4408
 8222SOL    HW236300   2.401   1.831   5.009 -1.4567 -1.2437 -0.4259
 8223SOL     OW36301   1.128   4.456   8.987 -0.2258  0.4545 -0.3430
 8223SOL    HW136302   1.051   4.408   9.019  0.3856 -0.2475  0.0862
 8223SOL    HW236303   1.169   4.484   9.070 -0.4697  2.1477 -0.8036
 8224SOL     OW36304   0.222   0.719   0.788 -0.3163 -0.2271  0.1498
 8224SOL    HW136305   0.245   0.635   0.829  3.5743 -0.1291 -1.9350
 8224SOL    HW236306   0.300   0.762   0.823 -1.4056  1.8986 -0.0214
 8225SOL     OW36307   2.776   2.100   3.997 -0.2648 -0.5225  0.2624
 8225SOL    HW136308   2.689   2.060   4.001 -0.4062 -0.1535  0.9204
 8225SOL    HW236309   2.753   2.166   3.931 -0.3209 -1.6360 -0.8084
 8226SOL     OW36310   2.859   2.770   0.774  0.3666 -0.4217  0.3327
 8226SOL    HW136311   2.952   2.780   0.754  0.2195 -0.0222 -0.1596
 8226SOL    HW236312   2.843   2.675   0.776  1.0844 -0.5254  1.1926
 8227SOL     OW36313   2.479   1.503   8.914  0.1045  0.0229 -0.4063
 8227SOL    HW136314   2.565   1.511   8.954 -0.3525  2.4502  0.1325
 8227SOL    HW236315   2.478   1.408   8.906  2.4066 -0.1404  1.4243
 8228SOL     OW36316   4.406   0.416  17.675  0.2965  0.6544 -0.0495
 8228SOL    HW136317   4.400   0.430   0.032 -3.3994 -2.5635  0.1912
 8228SOL    HW236318   4.443   0.328  17.681 -1.4853 -0.0830  0.2485
 8229SOL     OW36319   3.450   3.996  10.767 -0.3665  0.4424  0.2248
 8229SOL    HW136320   3.498   4.074  10.797  0.8727  0.1339 -0.9889
 8229SOL    HW236321   3.387   4.000  10.839 -1.9158  0.2011 -1.1303
 8230SOL     OW36322   4.156   3.943  14.942 -0.3148  0.5927  0.4349
 8230SOL    HW136323   4.088   3.957  14.876  0.8992 -0.0453 -0.9606
 8230SOL    HW236324   4.143   4.021  14.996  0.1500 -0.5966  2.2591
 8231SOL     OW36325   4.093   3.341   7.756  0.0029 -0.3397  0.2983
 8231SOL    HW136326   4.005   3.304   7.770 -1.6791  4.3131  2.2139
 8231SOL    HW236327   4.112   3.317   7.666 -1.1532  1.0546 -0.3166
 8232SOL     OW36328   0.136   2.893  12.214  0.0031 -0.5660  0.5409
 8232SOL    HW136329   0.174   2.806  12.208  1.6819  0.3456 -1.9410
 8232SOL    HW236330   0.161   2.915  12.304  1.3908  0.6944 -0.1514
 8233SOL     OW36331   1.888   0.795   5.035  0.1346  0.4332 -0.1618
 8233SOL    HW136332   1.970   0.786   5.083 -1.1328 -1.6823  1.6620
 8233SOL    HW236333   1.902   0.745   4.955 -0.4001 -0.2160  0.1504
 8234SOL     OW36334   3.890   0.732   7.102  0.5585 -0.3728  0.0158
 8234SOL    HW136335   3.825   0.801   7.087 -0.8114 -1.7918 -0.5651
 8234SOL    HW236336   3.904   0.712   7.009  2.1175 -1.0895  0.4053
 8235SOL     OW36337   1.880   2.062   2.801  0.0600 -0.0625 -0.3857
 8235SOL    HW136338   1.964   2.061   2.753  0.8176 -0.8066  0.9452
 8235SOL    HW236339   1.820   2.008   2.749  0.6515 -0.0215 -1.1185
 8236SOL     OW36340   0.716   3.408   6.554  0.0196 -0.4655  0.1191
 8236SOL    HW136341   0.668   3.482   6.517  0.9007  0.2191  0.3424
 8236SOL    HW236342   0.719   3.349   6.479 -1.5522  0.0294 -0.3287
 8237SOL     OW36343   3.776   3.255   2.628 -0.0371  0.5564 -0.1470
 8237SOL    HW136344   3.847   3.287   2.684  0.4406  0.3115 -0.6176
 8237SOL    HW236345   3.789   3.274   2.535 -0.2691  1.8805  0.0986
 8238SOL     OW36346   2.901   3.683   8.559  0.3446 -0.0121 -0.5339
 8238SOL    HW136347   2.968   3.709   8.621 -1.4221  1.1881  0.8918
 8238SOL    HW236348   2.861   3.603   8.595  0.1553  0.5520  0.5000
 8239SOL     OW36349   2.803   4.185   7.897  0.4415 -0.6686  0.5872
 8239SOL    HW136350   2.860   4.173   7.822  0.6833 -1.7076  0.9339
 8239SOL    HW236351   2.852   4.231   7.965  0.0832 -1.4281  1.3653
 8240SOL     OW36352   2.698   3.493   4.867 -0.0124  0.1472  0.7741
 8240SOL    HW136353   2.650   3.530   4.941  1.3070 -1.1424  2.2909
 8240SOL    HW236354   2.733   3.571   4.824 -0.2305 -0.6376 -0.8313
 8241SOL     OW36355   3.938   4.063   0.687  0.0113 -0.4227 -0.1408
 8241SOL    HW136356   3.948   4.017   0.604  2.9310 -0.8118  0.4287
 8241SOL    HW236357   3.937   4.154   0.658  0.8842 -0.7548 -1.2139
 8242SOL     OW36358   2.857   3.636   0.928 -0.3646  0.1512 -0.1583
 8242SOL    HW136359   2.921   3.566   0.943  0.0650  0.4577 -0.5501
 8242SOL    HW236360   2.775   3.597   0.898 -1.0698  0.8097  0.9025
 8243SOL     OW36361   2.637   3.125   3.004 -0.5354 -0.1839  0.1200
 8243SOL    HW136362   2.561   3.071   3.028 -1.1132 -0.0026 -1.3387
 8243SOL    HW236363   2.711   3.103   3.061 -1.1299  0.8976  1.3122
 8244SOL     OW36364   1.361   1.035   8.412  0.0211  0.3100 -0.3187
 8244SOL    HW136365   1.423   1.073   8.475  0.6725 -0.3061 -0.5860
 8244SOL    HW236366   1.404   0.950   8.400 -0.0897  0.0871  0.8820
 8245SOL     OW36367   1.572   3.651  17.468 -0.2962 -0.1572  0.1945
 8245SOL    HW136368   1.548   3.650  17.560 -1.7815 -0.3629 -0.2016
 8245SOL    HW236369   1.541   3.738  17.442  0.2677  0.0504  0.2067
 8246SOL     OW36370   0.310   2.238   4.190 -0.1681  0.1264 -0.4225
 8246SOL    HW136371   0.279   2.149   4.171  0.0824  0.1304 -0.8596
 8246SOL    HW236372   0.357   2.258   4.109  3.2022 -1.2672  1.1874
 8247SOL     OW36373   4.071   2.390   4.039  0.1575 -0.1217  0.0195
 8247SOL    HW136374   3.984   2.422   4.016 -0.6892 -1.2531  1.7047
 8247SOL    HW236375   4.050   2.337   4.115  2.9582  0.2818  1.0850
 8248SOL     OW36376   4.356   1.173   5.226  0.4237  0.1319 -0.2054
 8248SOL    HW136377   4.324   1.216   5.147 -0.1434  1.3906  0.7111
 8248SOL    HW236378   4.436   1.222   5.247  0.1493  0.4585  0.0727
 8249SOL     OW36379   2.955   2.946   5.627  0.1604  0.6596  0.8381
 8249SOL    HW136380   3.012   2.880   5.586 -1.3761 -1.5090  2.2055
 8249SOL    HW236381   2.870   2.902   5.629  1.0128 -1.0265 -0.0428
 8250SOL     OW36382   0.084   2.326   7.608 -0.6164  0.1324  0.3043
 8250SOL    HW136383   4.727   2.321   7.580 -0.6463 -0.4822  0.5216
 8250SOL    HW236384   0.108   2.416   7.586 -2.5291  1.0802  2.1264
 8251SOL     OW36385   3.749   2.419   6.312  0.3631  0.0935 -0.1670
 8251SOL    HW136386   3.791   2.380   6.388 -0.6948 -0.4452  0.1431
 8251SOL    HW236387   3.804   2.497   6.300  1.0324 -0.1047  1.6429
 8252SOL     OW36388   3.192   3.296   5.077 -0.0249 -0.1875  0.2465
 8252SOL    HW136389   3.166   3.266   5.164 -0.0587  0.2402  0.3814
 8252SOL    HW236390   3.124   3.361   5.063  1.2885  1.1655  0.2258
 8253SOL     OW36391   2.822   0.642   5.674 -0.3790  0.4916  0.0183
 8253SOL    HW136392   2.829   0.681   5.587  0.7601 -0.1268 -0.1634
 8253SOL    HW236393   2.870   0.703   5.730  1.2200 -0.2946 -0.4943
 8254SOL     OW36394   3.230   1.067   0.086 -0.4897  0.7234 -0.3187
 8254SOL    HW136395   3.279   0.984   0.085 -0.7240  0.5638  0.9025
 8254SOL    HW236396   3.264   1.128   0.152 -0.5938 -0.7229  1.0877
 8255SOL     OW36397   2.590   3.655   9.632 -0.4056  0.1942 -0.4674
 8255SOL    HW136398   2.494   3.647   9.639 -0.3377 -0.3349 -0.1987
 8255SOL    HW236399   2.616   3.580   9.685  0.2781  1.6486  1.2738
 8256SOL     OW36400   0.286   0.114  17.700 -0.1075 -0.2450  0.0358
 8256SOL    HW136401   0.359   0.170  17.724 -0.1693 -0.6517  1.2169
 8256SOL    HW236402   0.281   0.054   0.038  3.0120 -0.6666 -0.1209
 8257SOL     OW36403   3.842   2.670  14.810 -0.1654 -0.0648  0.3154
 8257SOL    HW136404   3.785   2.595  14.793 -1.2769  0.8198  0.1446
 8257SOL    HW236405   3.928   2.630  14.800 -0.9963 -1.1957 -2.1525
 8258SOL     OW36406   4.150   4.660   6.687 -0.3824 -0.3130 -0.7622
 8258SOL    HW136407   4.090   4.646   6.760  1.1534 -2.1221  0.1408
 8258SOL    HW236408   4.190   4.574   6.680 -0.0584 -0.0799 -1.7900
 8259SOL     OW36409   2.142   1.539   8.820  0.0867 -0.4717  0.0683
 8259SOL    HW136410   2.182   1.624   8.803  0.0508 -0.6175 -0.7267
 8259SOL    HW236411   2.056   1.538   8.778  0.7884 -0.8406 -1.3596
 8260SOL     OW36412   1.897   0.037   7.098 -0.4457 -0.4167 -0.1261
 8260SOL    HW136413   1.912   4.716   7.174 -0.6993 -0.2821  0.0222
 8260SOL    HW236414   1.856   0.116   7.134  2.0460  1.1319 -0.6935
 8261SOL     OW36415   4.332   2.382   9.943 -0.1073  0.5587  0.4553
 8261SOL    HW136416   4.322   2.456  10.003 -2.1906  0.5437  0.1511
 8261SOL    HW236417   4.251   2.335   9.962 -0.3761  1.5440  1.7806
 8262SOL     OW36418   4.331   4.621  10.665  0.2617  0.0395 -0.0738
 8262SOL    HW136419   4.420   4.645  10.692  0.0245  1.6838 -0.7423
 8262SOL    HW236420   4.285   4.656  10.741 -0.7084 -2.1976  0.3608
 8263SOL     OW36421   4.156   1.571   7.507 -0.1987 -0.2420  0.2123
 8263SOL    HW136422   4.192   1.565   7.595 -1.5075 -0.9372  0.7001
 8263SOL    HW236423   4.062   1.580   7.518 -0.6084 -2.8073 -1.1121
 8264SOL     OW36424   2.542   3.189   2.297  0.4291 -0.1856  0.2101
 8264SOL    HW136425   2.506   3.262   2.247 -0.6817 -1.7471 -1.2998
 8264SOL    HW236426   2.556   3.227   2.383  3.2467 -1.1993  0.2032
 8265SOL     OW36427   2.572   3.025  16.758  0.3238  0.3142  0.4707
 8265SOL    HW136428   2.539   2.938  16.778  0.6372 -0.2404 -1.4253
 8265SOL    HW236429   2.572   3.011  16.663  0.7423 -1.7363  0.7773
 8266SOL     OW36430   1.075   1.923  13.295 -0.0701  0.2219  0.1020
 8266SOL    HW136431   0.996   1.923  13.241  1.3881  1.8863 -2.0209
 8266SOL    HW236432   1.026   1.903  13.375 -0.9500 -1.0690 -0.7691
 8267SOL     OW36433   4.514   4.347  10.141 -0.0764 -0.0297  0.1254
 8267SOL    HW136434   4.477   4.258  10.136 -1.4773  0.4320  2.2005
 8267SOL    HW236435   4.478   4.396  10.067  3.4293 -1.5427 -2.5986
 8268SOL     OW36436   0.396   4.685  17.253 -0.0738 -0.5548 -0.1433
 8268SOL    HW136437   0.389   4.609  17.311 -0.5088 -2.4959 -2.7194
 8268SOL    HW236438   0.463   0.002  17.299 -0.8505 -0.0491  0.4270
 8269SOL     OW36439   2.527   1.348  13.653 -0.9745  0.1434 -0.3433
 8269SOL    HW136440   2.493   1.422  13.703 -1.0103  0.8846 -1.4730
 8269SOL    HW236441   2.594   1.393  13.601 -1.2218  0.8800 -0.0203
 8270SOL     OW36442   1.918   2.143   9.317  0.3907  0.1721  0.1315
 8270SOL    HW136443   1.981   2.215   9.319  0.8874 -0.2922  1.0475
 8270SOL    HW236444   1.916   2.124   9.411 -3.2450 -2.3089 -0.4677
 8271SOL     OW36445   3.503   0.819  13.722 -0.4391  0.7286 -0.4205
 8271SOL    HW136446   3.551   0.737  13.717 -0.8737  0.2939  2.4710
 8271SOL    HW236447   3.475   0.831  13.813 -1.7860 -1.6694 -0.5269
 8272SOL     OW36448   3.801   0.886  17.079  0.2887  0.1345  0.2571
 8272SOL    HW136449   3.741   0.944  17.125 -0.7955 -1.7738  1.2134
 8272SOL    HW236450   3.751   0.852  17.005  0.7626 -1.2694  0.5943
 8273SOL     OW36451   3.433   1.166   5.938  0.2908 -0.1433  0.2552
 8273SOL    HW136452   3.451   1.076   5.911  3.0908  0.4654  0.0464
 8273SOL    HW236453   3.338   1.168   5.937  0.2632 -1.0013  1.0813
 8274SOL     OW36454   1.231   3.559   9.208  0.1737 -0.2416 -0.2682
 8274SOL    HW136455   1.233   3.641   9.158  2.8253  0.2016  0.5259
 8274SOL    HW236456   1.268   3.573   9.295 -1.0716 -0.1731  0.2434
 8275SOL     OW36457   1.686   1.797  11.280  0.4235 -0.0509 -0.6675
 8275SOL    HW136458   1.597   1.806  11.247 -0.2751  0.0987  1.2778
 8275SOL    HW236459   1.671   1.728  11.344  0.5638 -0.3217 -0.9289
 8276SOL     OW36460   0.829   2.265  13.392 -0.1977  0.0474  0.2447
 8276SOL    HW136461   0.855   2.262  13.484 -3.4254 -0.9567  1.1030
 8276SOL    HW236462   0.872   2.338  13.347 -1.6383  1.2014  0.7364
 8277SOL     OW36463   1.200   4.032  17.061  0.5716  0.0013 -0.1943
 8277SOL    HW136464   1.146   3.999  16.989 -3.2608  1.1812  2.0996
 8277SOL    HW236465   1.203   3.960  17.125  0.2863  1.5607  1.5926
 8278SOL     OW36466   1.824   1.940  10.584  0.1631 -0.0392 -0.0539
 8278SOL    HW136467   1.894   1.973  10.527  1.4161  0.0100  1.4865
 8278SOL    HW236468   1.851   1.968  10.671  1.2855 -0.5233 -0.2376
 8279SOL     OW36469   0.888   2.721   7.965 -0.0845 -0.3340  0.1610
 8279SOL    HW136470   0.882   2.632   7.997 -0.0720 -0.2825  0.3055
 8279SOL    HW236471   0.945   2.761   8.030 -0.0431 -0.5901  0.2818
 8280SOL     OW36472   3.992   3.804   6.784 -0.3618 -0.0590 -0.0939
 8280SOL    HW136473   3.968   3.836   6.872  1.4338  1.0620 -0.0175
 8280SOL    HW236474   4.062   3.744   6.811 -1.0119  0.5177  2.9390
 8281SOL     OW36475   4.286   1.643  16.251  0.1727  0.4907 -0.1055
 8281SOL    HW136476   4.232   1.709  16.207  0.8929 -0.5501 -2.5316
 8281SOL    HW236477   4.370   1.651  16.206 -0.2266 -0.9749 -1.1170
 8282SOL     OW36478   2.411   2.516  10.393  0.7047 -0.3926 -0.6164
 8282SOL    HW136479   2.474   2.539  10.461  0.2262 -1.4972  0.2113
 8282SOL    HW236480   2.369   2.602  10.390  2.2844  0.3503 -1.5305
 8283SOL     OW36481   3.012   4.216   2.891  0.0083  0.4548 -0.5286
 8283SOL    HW136482   3.020   4.121   2.900 -3.2869  0.4971  2.6696
 8283SOL    HW236483   3.103   4.246   2.899  0.7691 -2.2982  1.2646
 8284SOL     OW36484   3.904   2.797   7.206  0.6307 -0.4396 -0.4678
 8284SOL    HW136485   3.861   2.735   7.265 -1.3249  1.1399 -0.2588
 8284SOL    HW236486   3.890   2.886   7.236 -0.9877 -0.9557  0.2582
 8285SOL     OW36487   0.897   2.314  13.667  0.1291  0.1858  0.1959
 8285SOL    HW136488   0.895   2.289  13.760 -2.5132  0.7689  0.3087
 8285SOL    HW236489   0.986   2.349  13.666  0.3907 -0.4884 -0.0975
 8286SOL     OW36490   4.407   4.682   5.823 -0.1561 -0.6018 -0.8982
 8286SOL    HW136491   4.491   4.681   5.777  1.6566  1.2016  2.4368
 8286SOL    HW236492   4.353   4.613   5.783  0.1338 -0.8057 -0.9347
 8287SOL     OW36493   1.587   0.372   9.917 -0.0961  0.0348  0.1619
 8287SOL    HW136494   1.599   0.320   9.837 -1.5747 -0.6416  0.3806
 8287SOL    HW236495   1.676   0.395   9.943  0.2734 -1.0037 -0.1690
 8288SOL     OW36496   3.606   1.658   3.216 -0.0807 -0.0800  0.0099
 8288SOL    HW136497   3.599   1.749   3.247 -0.1241 -0.5368  1.3347
 8288SOL    HW236498   3.642   1.661   3.128 -0.2203  2.4155  0.0318
 8289SOL     OW36499   0.994   0.523   6.761 -0.4456  0.3081  0.6964
 8289SOL    HW136500   1.017   0.436   6.728  0.5744 -0.4622  3.4448
 8289SOL    HW236501   0.899   0.520   6.748 -0.4158  0.0791  0.5302
 8290SOL     OW36502   3.098   2.499   2.761  0.0554  0.2143  0.0221
 8290SOL    HW136503   3.094   2.432   2.829  1.1169  0.4716  0.3549
 8290SOL    HW236504   3.095   2.576   2.819 -0.8437  1.2455 -1.3996
 8291SOL     OW36505   0.305   0.823  14.134  0.3740  0.3091  0.3623
 8291SOL    HW136506   0.376   0.828  14.199 -1.2839  0.6676  2.1320
 8291SOL    HW236507   0.254   0.901  14.156  1.2627  1.5113 -1.8680
 8292SOL     OW36508   2.556   2.474   5.797  0.2068  0.1647  0.4359
 8292SOL    HW136509   2.501   2.552   5.789  0.4985  0.3755  0.5012
 8292SOL    HW236510   2.622   2.516   5.851  0.2388  0.0271  0.5035
 8293SOL     OW36511   0.435   2.987   5.604  0.0662  0.1546 -0.1180
 8293SOL    HW136512   0.370   3.039   5.652  0.4669  0.9238 -0.4120
 8293SOL    HW236513   0.494   3.053   5.568 -2.1539  1.8141 -0.7204
 8294SOL     OW36514   0.298   0.932   8.487  0.2095 -0.3127  0.0560
 8294SOL    HW136515   0.282   1.021   8.455 -1.5094 -0.3076  0.9298
 8294SOL    HW236516   0.210   0.896   8.481 -0.6400  1.7633  0.0988
 8295SOL     OW36517   3.929   4.130  10.592 -0.1619 -0.6466 -0.4144
 8295SOL    HW136518   3.926   4.186  10.514 -2.0648 -1.2485 -0.7725
 8295SOL    HW236519   3.954   4.047  10.552 -0.9170 -1.7717  1.4304
 8296SOL     OW36520   0.795   4.210   6.275 -0.0672 -0.2842  0.8721
 8296SOL    HW136521   0.744   4.179   6.350 -2.2885  1.3484  0.0189
 8296SOL    HW236522   0.876   4.236   6.321  0.1206  0.4364  0.1316
 8297SOL     OW36523   0.408   0.771  11.476  0.0131 -0.2365 -0.1699
 8297SOL    HW136524   0.463   0.728  11.541 -0.4396 -0.0709  0.3304
 8297SOL    HW236525   0.465   0.848  11.475 -0.0114 -0.2107  1.2369
 8298SOL     OW36526   0.795   3.414  13.236 -0.0467  0.0557  0.0662
 8298SOL    HW136527   0.749   3.336  13.264 -1.4993  0.7691 -0.3489
 8298SOL    HW236528   0.886   3.385  13.233  0.3663  1.4622 -1.1598
 8299SOL     OW36529   4.118   3.462  13.124 -0.0860 -0.2544  0.2502
 8299SOL    HW136530   4.075   3.482  13.207  1.7488  0.0787  1.1297
 8299SOL    HW236531   4.153   3.374  13.139 -1.5562 -1.3027 -2.4567
 8300SOL     OW36532   2.707   4.626   3.437  0.8158  0.4424 -0.0367
 8300SOL    HW136533   2.744   4.542   3.407 -1.8043 -1.4667  2.0789
 8300SOL    HW236534   2.616   4.597   3.444  1.5450 -1.8087  0.3903
 8301SOL     OW36535   1.330   1.917  11.930  0.2739  0.2745  0.7499
 8301SOL    HW136536   1.349   1.886  11.841  2.0408  2.8792  0.2011
 8301SOL    HW236537   1.362   2.007  11.931  0.5531  0.1442  2.7511
 8302SOL     OW36538   3.817   1.070   6.430 -0.1671  0.4954  0.5149
 8302SOL    HW136539   3.756   1.143   6.432 -0.4992  0.2290 -0.0266
 8302SOL    HW236540   3.876   1.125   6.481  1.7502 -0.1047 -1.0843
 8303SOL     OW36541   0.175   0.579   3.582 -0.4085 -0.1758 -0.1247
 8303SOL    HW136542   0.097   0.539   3.544 -0.5906 -0.0527  0.1197
 8303SOL    HW236543   0.218   0.617   3.506  0.0290 -0.5612 -0.0684
 8304SOL     OW36544   1.225   2.150  17.269 -0.4743  0.1589 -0.0689
 8304SOL    HW136545   1.304   2.203  17.280 -0.6404  0.6056 -1.0929
 8304SOL    HW236546   1.170   2.195  17.333  0.2189 -0.9652  1.3081
 8305SOL     OW36547   0.539   3.408   3.441 -0.0755  0.4566 -0.7114
 8305SOL    HW136548   0.577   3.384   3.525  1.8657  2.0960 -1.1358
 8305SOL    HW236549   0.608   3.470   3.418  1.8209 -0.2075  3.1462
 8306SOL     OW36550   3.244   2.104   0.629  0.0439 -0.3166  0.3704
 8306SOL    HW136551   3.159   2.132   0.597 -0.1497 -0.9155  0.3530
 8306SOL    HW236552   3.274   2.186   0.667  0.6940 -0.5416  0.3428
 8307SOL     OW36553   0.356   2.423   0.002 -0.5334 -0.1722  0.1943
 8307SOL    HW136554   0.437   2.392   0.042  0.4005  1.5273 -0.4159
 8307SOL    HW236555   0.373   2.405  17.647  2.1708  0.3549  0.5950
 8308SOL     OW36556   4.645   1.338  12.669  0.3027 -0.0358 -0.2603
 8308SOL    HW136557   4.724   1.293  12.698  2.0547  2.1697 -1.6681
 8308SOL    HW236558   4.612   1.375  12.751  1.0608 -2.5733  1.1890
 8309SOL     OW36559   0.472   1.091  12.272 -0.5496 -0.0990 -0.3654
 8309SOL    HW136560   0.453   1.002  12.240 -0.6983 -0.4392  0.6612
 8309SOL    HW236561   0.393   1.134  12.241 -0.0413 -0.1746 -1.7771
 8310SOL     OW36562   2.437   0.368   6.880 -0.0312 -0.4702  0.4112
 8310SOL    HW136563   2.434   0.456   6.842 -1.4367 -0.3080  0.8990
 8310SOL    HW236564   2.363   0.321   6.841  1.1488 -0.7658 -1.5134
 8311SOL     OW36565   0.923   1.853  13.518 -0.0520  0.5801 -0.0407
 8311SOL    HW136566   0.831   1.868  13.497 -0.4909 -0.1747  1.3024
 8311SOL    HW236567   0.914   1.763  13.547  1.0199  0.6287  0.4698
 8312SOL     OW36568   3.535   1.226   4.593 -0.2682  0.3234 -0.2227
 8312SOL    HW136569   3.445   1.256   4.589  0.2698  1.9283 -0.1373
 8312SOL    HW236570   3.554   1.221   4.687 -0.2068  1.4745 -0.1735
 8313SOL     OW36571   3.945   1.549   5.034 -0.4920  0.0297 -0.4266
 8313SOL    HW136572   3.978   1.554   5.124 -2.5198  0.0370  0.3192
 8313SOL    HW236573   3.860   1.592   5.043 -0.1462  0.2907  1.6489
 8314SOL     OW36574   2.836   0.050  14.159  0.6108 -0.6894 -0.1866
 8314SOL    HW136575   2.742   0.066  14.152  0.5318 -0.9796  0.2154
 8314SOL    HW236576   2.845   4.702  14.206  0.9614 -0.6177 -0.1238
 8315SOL     OW36577   0.516   4.114   6.725  0.0436  0.1155  0.5474
 8315SOL    HW136578   0.529   4.161   6.807  0.9871 -0.7727  0.9078
 8315SOL    HW236579   0.595   4.143   6.681 -0.1372 -0.7450 -0.3520
 8316SOL     OW36580   3.358   3.567   3.892  0.0052  0.1411 -0.7445
 8316SOL    HW136581   3.449   3.596   3.885 -0.0111  1.2085  3.5111
 8316SOL    HW236582   3.356   3.555   3.987 -1.0339 -0.5015 -0.8496
 8317SOL     OW36583   3.364   3.809   8.483  0.0848  0.4259  0.3096
 8317SOL    HW136584   3.314   3.868   8.540 -0.7031  0.4021 -0.3500
 8317SOL    HW236585   3.434   3.867   8.453 -0.5257 -0.5345 -2.9452
 8318SOL     OW36586   2.705   3.475  12.176 -0.3286 -0.1831  0.2038
 8318SOL    HW136587   2.637   3.424  12.133 -0.4985 -0.4791  0.8195
 8318SOL    HW236588   2.707   3.555  12.123 -0.4079 -1.2702 -1.4044
 8319SOL     OW36589   2.324   1.250   5.528  0.0612 -0.0687 -0.1753
 8319SOL    HW136590   2.318   1.292   5.442  0.9335 -1.8074 -1.0804
 8319SOL    HW236591   2.257   1.183   5.516  0.5684 -0.5942 -0.0721
 8320SOL     OW36592   1.826   4.267  13.902 -0.5696  0.5941  0.1728
 8320SOL    HW136593   1.917   4.254  13.926 -0.5013  1.6224  0.4862
 8320SOL    HW236594   1.799   4.178  13.879 -0.9369  0.5185  0.9015
 8321SOL     OW36595   3.382   4.695   1.701 -0.4129  0.2233 -0.2351
 8321SOL    HW136596   3.335   4.622   1.659  1.1648 -0.7157 -0.3426
 8321SOL    HW236597   3.469   4.659   1.688 -0.2702  0.5921 -0.2860
 8322SOL     OW36598   4.657   4.572   7.088 -0.1617 -0.2807  0.1610
 8322SOL    HW136599   4.632   4.566   6.995 -0.7093 -1.6730  0.3857
 8322SOL    HW236600   4.708   4.652   7.097 -1.6438  0.9155 -2.1048
 8323SOL     OW36601   4.294   2.579  15.434  0.3426  0.3527 -0.9022
 8323SOL    HW136602   4.237   2.508  15.406 -1.1257  1.0075  0.3984
 8323SOL    HW236603   4.378   2.533  15.432 -0.4836 -1.2280  0.5045
 8324SOL     OW36604   4.640   4.016   9.432  0.0458 -0.1897 -0.0295
 8324SOL    HW136605   4.685   3.974   9.358 -1.8932 -0.3328 -1.1310
 8324SOL    HW236606   4.664   3.950   9.496 -2.5256 -0.2655  0.8599
 8325SOL     OW36607   4.698   2.851  16.291 -0.2291  0.6678  0.6998
 8325SOL    HW136608   0.005   2.908  16.355  1.6111  0.7815 -0.6135
 8325SOL    HW236609   4.663   2.789  16.355  1.0388 -0.6437  0.1072
 8326SOL     OW36610   1.849   1.200   2.839  0.1208  0.0216  0.0739
 8326SOL    HW136611   1.860   1.294   2.851  2.4772 -0.4793  1.8000
 8326SOL    HW236612   1.878   1.191   2.748  0.9009  0.8156  0.2416
 8327SOL     OW36613   1.607   3.111   6.086 -0.0242  0.3491 -0.2797
 8327SOL    HW136614   1.648   3.084   6.003 -1.6268 -1.3573 -0.5104
 8327SOL    HW236615   1.596   3.022   6.119  0.8599  0.8404  1.3273
 8328SOL     OW36616   3.795   4.695  14.403 -0.7933  0.5945 -0.0598
 8328SOL    HW136617   3.888   4.689  14.424 -1.5403 -0.9109  2.8377
 8328SOL    HW236618   3.810   4.701  14.308  1.2060 -1.1599  0.1540
 8329SOL     OW36619   1.994   1.549  16.051 -0.0969  0.3428  0.1545
 8329SOL    HW136620   1.913   1.585  16.015 -1.3155 -0.4763  2.0199
 8329SOL    HW236621   2.056   1.565  15.980 -0.7727 -1.7854 -0.9192
 8330SOL     OW36622   3.212   0.130   2.683 -0.3714 -0.0326 -0.3945
 8330SOL    HW136623   3.153   0.206   2.682 -0.5692 -0.2159 -3.1826
 8330SOL    HW236624   3.155   0.065   2.644 -1.6983 -0.2954  2.0206
 8331SOL     OW36625   1.621   0.056   1.950  0.7522  0.7558 -0.3177
 8331SOL    HW136626   1.625   4.696   1.964 -3.3037  0.7704  1.0751
 8331SOL    HW236627   1.702   0.077   1.904  1.7235 -0.1663  0.9950
 8332SOL     OW36628   2.911   2.529  10.133  0.0393 -0.0374  0.5229
 8332SOL    HW136629   2.892   2.582  10.055 -0.2621 -1.7114 -0.5376
 8332SOL    HW236630   2.984   2.475  10.104  0.1487  0.2925  0.1763
 8333SOL     OW36631   2.280   2.711   7.616 -0.1933  0.1504 -0.0810
 8333SOL    HW136632   2.200   2.752   7.649 -0.2005  0.7647 -0.8860
 8333SOL    HW236633   2.297   2.644   7.682 -2.8934 -1.3979 -0.9455
 8334SOL     OW36634   1.474   2.095  17.512 -0.2625 -0.3528  0.0329
 8334SOL    HW136635   1.468   2.001  17.495  1.4072 -0.0164 -2.4375
 8334SOL    HW236636   1.550   2.117  17.457 -0.2304  0.5990  0.4702
 8335SOL     OW36637   1.026   2.973   1.741  0.5090  0.7887 -0.2081
 8335SOL    HW136638   0.976   2.912   1.686 -0.8703  2.2416 -0.5898
 8335SOL    HW236639   1.116   2.952   1.716  0.1066 -0.5169 -0.5548
 8336SOL     OW36640   0.290   1.054   2.263  0.5032  0.1006 -0.2955
 8336SOL    HW136641   0.222   0.992   2.289 -0.5003  1.5141  0.4491
 8336SOL    HW236642   0.355   1.020   2.324  1.1818  2.2984  0.2013
 8337SOL     OW36643   4.383   1.793   5.963 -0.1623 -0.1296  0.9127
 8337SOL    HW136644   4.468   1.771   6.000 -0.0168 -1.4202 -0.1734
 8337SOL    HW236645   4.378   1.728   5.893 -2.6624  0.0317  0.9448
 8338SOL     OW36646   1.478   0.238   6.233  0.2212 -0.1528  0.0854
 8338SOL    HW136647   1.463   0.261   6.325 -0.0053 -1.5854  0.4092
 8338SOL    HW236648   1.535   0.162   6.247  1.3428  0.0037 -3.5262
 8339SOL     OW36649   3.395   1.582  13.751 -0.3331 -0.6294  0.0983
 8339SOL    HW136650   3.309   1.623  13.746  0.2988  0.6160 -0.4194
 8339SOL    HW236651   3.441   1.626  13.680  0.2150 -1.2380  0.0801
 8340SOL     OW36652   2.991   4.595   7.079 -0.4017 -0.4380  0.0355
 8340SOL    HW136653   3.034   4.675   7.110 -0.5404 -0.7924  1.1511
 8340SOL    HW236654   2.994   4.615   6.986  3.2687 -1.3993 -0.0476
 8341SOL     OW36655   4.615   3.136   8.958 -0.4191  0.0185  0.0686
 8341SOL    HW136656   4.603   3.042   8.969  0.1451 -0.2081 -1.2996
 8341SOL    HW236657   4.684   3.150   9.024 -1.9596  0.6097  1.5614
 8342SOL     OW36658   0.370   1.108   6.148 -0.0671 -0.0899  0.0022
 8342SOL    HW136659   0.402   1.185   6.101 -0.0852 -1.0574 -1.5720
 8342SOL    HW236660   0.389   1.042   6.081 -1.4277 -0.9327  0.4488
 8343SOL     OW36661   0.300   3.946   1.888  0.3149 -0.1857 -0.5322
 8343SOL    HW136662   0.345   3.965   1.970  0.7130 -0.8048 -0.6049
 8343SOL    HW236663   0.327   4.026   1.842  0.8671 -0.3470 -0.4975
 8344SOL     OW36664   4.406   4.649   2.289  0.0857 -0.0606  0.5479
 8344SOL    HW136665   4.312   4.654   2.308  0.2527  0.5145  1.1796
 8344SOL    HW236666   4.446   4.606   2.364  3.0510 -1.6418 -1.8911
 8345SOL     OW36667   1.177   3.154   5.389  0.4459 -0.0657 -0.0030
 8345SOL    HW136668   1.149   3.069   5.354  0.1585 -0.4172  1.0789
 8345SOL    HW236669   1.126   3.208   5.328  0.2029  1.0816  1.2190
 8346SOL     OW36670   2.314   2.873   7.218 -0.0938 -0.4303 -0.2060
 8346SOL    HW136671   2.247   2.881   7.150 -1.3982 -2.1337  0.8857
 8346SOL    HW236672   2.331   2.780   7.228  0.9378 -0.5506 -3.0290
 8347SOL     OW36673   0.893   0.271   2.990  0.4951 -0.4403 -0.7252
 8347SOL    HW136674   0.841   0.336   3.037  0.7290 -0.5156 -0.3630
 8347SOL    HW236675   0.822   0.239   2.934  1.1341  2.3027 -3.1314
 8348SOL     OW36676   3.928   4.239   4.751 -0.2921 -0.3838  0.2702
 8348SOL    HW136677   3.968   4.158   4.722 -0.0063 -1.4175  3.4951
 8348SOL    HW236678   4.010   4.285   4.767 -1.1135  0.9412  0.7158
 8349SOL     OW36679   3.083   1.305   0.979 -0.3407  0.0866  0.1224
 8349SOL    HW136680   3.093   1.253   1.059  0.8455 -1.2017 -0.8714
 8349SOL    HW236681   3.111   1.238   0.917 -1.4274  0.6246 -0.9312
 8350SOL     OW36682   2.824   3.811   7.574  0.3251  0.4023  0.1885
 8350SOL    HW136683   2.807   3.821   7.667  0.7003 -1.2612  0.4280
 8350SOL    HW236684   2.741   3.841   7.537  0.6511  2.3708  1.0676
 8351SOL     OW36685   4.195   3.115   4.652 -0.6693  0.0477 -0.5417
 8351SOL    HW136686   4.145   3.196   4.665 -0.0674  0.0087  1.9596
 8351SOL    HW236687   4.284   3.147   4.666 -0.7162 -0.4453  0.8203
 8352SOL     OW36688   2.032   2.920   7.678  0.1470 -0.0337 -0.1090
 8352SOL    HW136689   1.996   2.832   7.668  0.0316 -0.1131  1.0703
 8352SOL    HW236690   1.977   2.962   7.611 -0.3235  2.2102  1.6836
 8353SOL     OW36691   3.098   2.110   3.667 -0.5062 -0.3529  0.1494
 8353SOL    HW136692   3.038   2.181   3.644 -0.7585  0.0410  2.0075
 8353SOL    HW236693   3.134   2.089   3.581 -0.7959 -0.5868  0.0840
 8354SOL     OW36694   2.908   0.587  13.052  0.3391  0.7188 -0.4139
 8354SOL    HW136695   2.955   0.535  13.117 -1.3663  1.4066  1.3723
 8354SOL    HW236696   2.889   0.666  13.102  0.1526 -0.8973  2.1026
 8355SOL     OW36697   3.087   1.010  17.445  0.2880 -0.1513 -0.4097
 8355SOL    HW136698   3.067   1.067  17.371  1.7719  0.6895 -0.1547
 8355SOL    HW236699   3.154   1.066  17.484  1.2536 -0.2468 -1.9222
 8356SOL     OW36700   3.706   0.401   6.261  0.2199  0.5961  0.6548
 8356SOL    HW136701   3.672   0.312   6.251  2.6839 -0.5620  2.7292
 8356SOL    HW236702   3.752   0.413   6.178 -0.4006 -1.6616 -0.0080
 8357SOL     OW36703   0.240   2.342  11.008  0.2611 -0.1364 -0.7131
 8357SOL    HW136704   0.254   2.281  10.936  1.8510  0.2143 -0.6990
 8357SOL    HW236705   0.147   2.338  11.028  0.3714 -1.2676 -0.4132
 8358SOL     OW36706   1.552   2.239   5.569  0.9487 -0.0851  0.3015
 8358SOL    HW136707   1.542   2.286   5.486 -1.9777 -0.2743  0.5414
 8358SOL    HW236708   1.464   2.252   5.603  0.3615 -1.1038 -0.8262
 8359SOL     OW36709   4.363   1.480  13.069 -0.3148 -0.1822 -0.4487
 8359SOL    HW136710   4.359   1.510  13.160 -0.0253 -0.2222 -0.4238
 8359SOL    HW236711   4.327   1.562  13.036  0.6249  0.7867  0.9221
 8360SOL     OW36712   2.599   2.381   7.810 -0.4593 -0.0830  0.3337
 8360SOL    HW136713   2.657   2.450   7.778 -1.3449  0.7699  0.5897
 8360SOL    HW236714   2.602   2.322   7.735 -1.1420  0.5590 -0.2011
 8361SOL     OW36715   1.149   0.803   2.320  0.0318  0.1085 -0.4956
 8361SOL    HW136716   1.070   0.853   2.301 -0.5681  0.3607  2.7677
 8361SOL    HW236717   1.218   0.862   2.288 -0.7575  0.7564 -1.0207
 8362SOL     OW36718   4.657   1.843   2.418 -0.0262  0.1100 -0.3000
 8362SOL    HW136719   4.616   1.758   2.434 -1.0525  0.9390  1.4614
 8362SOL    HW236720   4.732   1.803   2.374 -0.2544  0.6667 -1.1856
 8363SOL     OW36721   2.857   3.255  11.937  0.0037  0.4143 -0.1943
 8363SOL    HW136722   2.850   3.284  12.028  0.0240  0.1306 -0.1021
 8363SOL    HW236723   2.765   3.237  11.918 -0.0109  1.1262 -0.8349
 8364SOL     OW36724   0.269   2.982   6.518  0.2370  0.6121  0.2463
 8364SOL    HW136725   0.340   2.958   6.459 -0.0714 -1.5036  0.7323
 8364SOL    HW236726   0.302   3.065   6.553 -0.9655  0.9546  0.5580
 8365SOL     OW36727   3.550   2.611   1.442 -0.3655 -0.7162  0.5877
 8365SOL    HW136728   3.595   2.594   1.525  0.6845 -1.0139 -0.0364
 8365SOL    HW236729   3.583   2.696   1.414  0.5200 -0.8772  1.1133
 8366SOL     OW36730   2.772   1.476   3.154  0.4097  0.0984 -0.2321
 8366SOL    HW136731   2.841   1.414   3.129  0.7250 -0.2530  1.5089
 8366SOL    HW236732   2.819   1.550   3.116 -0.0337 -0.8820 -2.7201
 8367SOL     OW36733   1.004   2.627   2.213  0.6900  0.1031  0.5289
 8367SOL    HW136734   1.087   2.642   2.258  0.0744  3.2715  0.6428
 8367SOL    HW236735   0.976   2.547   2.258  1.2541  1.1005  2.6408
 8368SOL     OW36736   4.473   2.767   2.890  0.4932  0.9523  0.1619
 8368SOL    HW136737   4.430   2.806   2.966  0.4811 -0.4530  0.8646
 8368SOL    HW236738   4.421   2.814   2.824  2.0549  1.2686 -0.8410
 8369SOL     OW36739   1.910   0.532   5.880 -0.1736 -0.2131 -0.3483
 8369SOL    HW136740   1.986   0.497   5.928 -2.5463 -2.0566  2.0336
 8369SOL    HW236741   1.918   0.465   5.812 -2.5560  1.2730 -2.0768
 8370SOL     OW36742   0.434   1.467   1.884  0.1064 -0.2200  0.5631
 8370SOL    HW136743   0.422   1.530   1.955  1.2305 -0.2860  0.8291
 8370SOL    HW236744   0.343   1.445   1.868  0.3724 -1.2479  0.4467
 8371SOL     OW36745   2.805   4.359   3.407 -0.4039 -0.2603 -0.3346
 8371SOL    HW136746   2.858   4.319   3.337  0.7359 -0.2354  0.5092
 8371SOL    HW236747   2.846   4.323   3.486 -1.8536  0.3731  0.7158
 8372SOL     OW36748   3.521   1.217   1.983  0.1255  0.6557  0.2435
 8372SOL    HW136749   3.567   1.224   2.067  0.3708 -1.6106  0.2913
 8372SOL    HW236750   3.596   1.225   1.924  0.3180  1.3481  0.5776
 8373SOL     OW36751   1.892   2.926  15.403 -0.0550 -0.6033 -0.3687
 8373SOL    HW136752   1.798   2.939  15.407  0.2836  1.4391  0.5440
 8373SOL    HW236753   1.907   2.856  15.339  3.3170  1.2507 -1.6143
 8374SOL     OW36754   0.032   0.356   7.096  0.1628 -0.2086  0.0681
 8374SOL    HW136755   4.726   0.362   7.010 -0.7826  0.3909  0.5628
 8374SOL    HW236756   4.711   0.310   7.158 -1.3911 -0.0996 -1.2341
 8375SOL     OW36757   2.391   4.441   6.267  0.0080  0.3721  0.1296
 8375SOL    HW136758   2.426   4.371   6.212  1.3000  2.7857 -2.1482
 8375SOL    HW236759   2.440   4.517   6.236 -0.0732  0.6072  0.5686
 8376SOL     OW36760   1.676   0.735   7.664 -0.3207  0.6302 -0.2488
 8376SOL    HW136761   1.718   0.767   7.584  0.3273 -3.0753 -1.4130
 8376SOL    HW236762   1.712   0.646   7.667 -0.6833  0.4079 -2.3904
 8377SOL     OW36763   3.939   3.006   7.422 -0.4984  0.3476  0.1084
 8377SOL    HW136764   3.945   3.089   7.469 -2.1714 -0.7900  2.3022
 8377SOL    HW236765   3.910   3.042   7.338 -2.5184 -0.1067  0.6195
 8378SOL     OW36766   1.811   0.324   8.235 -0.1329  0.0662 -0.0039
 8378SOL    HW136767   1.731   0.343   8.186  0.7661 -0.4198 -1.6656
 8378SOL    HW236768   1.839   0.406   8.275  0.4941 -1.0492  1.8463
 8379SOL     OW36769   3.613   4.600   7.649 -0.1275  0.4071  0.2812
 8379SOL    HW136770   3.698   4.577   7.686 -0.1315 -1.2736 -0.7383
 8379SOL    HW236771   3.600   4.675   7.706 -1.7936 -0.1661  0.6519
 8380SOL     OW36772   3.686   4.275   8.612 -0.3046  0.6068 -0.8008
 8380SOL    HW136773   3.656   4.320   8.691 -2.7757 -0.1826 -1.2929
 8380SOL    HW236774   3.744   4.337   8.567  0.6398  0.9932  0.9373
 8381SOL     OW36775   3.635   0.939   3.731  0.1536  0.0498  0.0320
 8381SOL    HW136776   3.550   0.951   3.689 -0.3890 -0.7884  0.9030
 8381SOL    HW236777   3.636   0.844   3.739  1.3091  0.1287  0.9644
 8382SOL     OW36778   0.268   4.677  11.878 -0.2938 -0.3964  0.8882
 8382SOL    HW136779   0.190   4.657  11.826  0.7145 -1.9144 -0.0465
 8382SOL    HW236780   0.280   0.036  11.864  2.4070 -0.7510  0.7977
 8383SOL     OW36781   4.604   3.452   2.188  0.1056 -0.0150  0.5474
 8383SOL    HW136782   4.587   3.545   2.176  1.1365  0.0745 -0.1669
 8383SOL    HW236783   4.698   3.443   2.177  0.2443  1.8067  0.2962
 8384SOL     OW36784   0.778   4.327   4.400  0.0651  0.5580 -0.6527
 8384SOL    HW136785   0.715   4.388   4.361 -0.8162  0.6185  0.8667
 8384SOL    HW236786   0.806   4.286   4.318  1.7114 -2.4327  1.3843
 8385SOL     OW36787   1.427   4.380   8.382  0.2791 -0.1571 -0.2097
 8385SOL    HW136788   1.450   4.304   8.329 -1.9869 -0.8496 -0.2195
 8385SOL    HW236789   1.483   4.445   8.340  1.3836 -0.8235  0.2435
 8386SOL     OW36790   2.281   0.158  10.313 -0.3640 -0.0912  0.6095
 8386SOL    HW136791   2.309   0.073  10.346  2.4498 -0.1273 -1.8834
 8386SOL    HW236792   2.358   0.199  10.275 -1.2170  1.7187  0.8094
 8387SOL     OW36793   4.292   4.177   7.021 -0.0325  0.8310 -0.2776
 8387SOL    HW136794   4.326   4.192   6.932  2.5160 -2.2571  0.1875
 8387SOL    HW236795   4.369   4.209   7.068  0.8559  0.4603 -1.4666
 8388SOL     OW36796   2.738   1.486   9.195 -0.2203 -0.4890 -0.7339
 8388SOL    HW136797   2.794   1.564   9.196 -1.5944  0.4997 -0.5884
 8388SOL    HW236798   2.778   1.429   9.261 -2.7422 -1.6772 -0.2163
 8389SOL     OW36799   2.504   1.259   7.602 -0.1678  0.8271  0.1786
 8389SOL    HW136800   2.578   1.203   7.627 -0.8178 -0.5234 -0.9460
 8389SOL    HW236801   2.463   1.198   7.541  2.7439 -0.5336 -0.4239
 8390SOL     OW36802   4.500   3.060   6.313  0.6593 -0.5652  0.3863
 8390SOL    HW136803   4.518   2.967   6.319  1.6092 -0.4770 -1.0693
 8390SOL    HW236804   4.586   3.096   6.335  1.2295 -1.1718 -0.9047
 8391SOL     OW36805   2.834   1.949   8.332  0.2212 -0.8730  0.2622
 8391SOL    HW136806   2.760   1.910   8.285 -1.0642  0.4596  1.1826
 8391SOL    HW236807   2.900   1.948   8.263 -0.2142  2.0190 -0.1652
 8392SOL     OW36808   2.337   2.456   2.425 -0.2183 -0.2495  0.2365
 8392SOL    HW136809   2.300   2.526   2.372  1.1774 -0.3478 -0.8599
 8392SOL    HW236810   2.428   2.461   2.395 -0.2131 -1.4949  0.0641
 8393SOL     OW36811   2.170   4.343   9.847  0.1055 -0.3420  0.1127
 8393SOL    HW136812   2.180   4.327   9.941  0.6389  0.2210  0.1562
 8393SOL    HW236813   2.087   4.391   9.851  1.6893  2.4499  0.1529
 8394SOL     OW36814   0.256   4.516   1.605  0.0399 -0.0935 -0.1504
 8394SOL    HW136815   0.328   4.508   1.543 -0.3339 -1.7427 -0.3646
 8394SOL    HW236816   0.209   4.594   1.574  1.1189  1.2622  1.6746
 8395SOL     OW36817   3.801   4.328   1.979 -0.0490  0.1730 -0.0278
 8395SOL    HW136818   3.787   4.391   2.050 -1.4700 -0.6105  0.3836
 8395SOL    HW236819   3.830   4.251   2.028 -1.3292  1.0773  2.1991
 8396SOL     OW36820   3.442   2.202  14.669 -0.6453 -0.6054  0.5699
 8396SOL    HW136821   3.466   2.295  14.677  0.3196 -0.7444 -0.8025
 8396SOL    HW236822   3.400   2.187  14.754 -2.7287 -0.5744 -0.4704
 8397SOL     OW36823   0.906   1.664  12.609 -0.1370 -0.2975 -0.1480
 8397SOL    HW136824   0.975   1.618  12.562  1.6890 -0.0028  2.2816
 8397SOL    HW236825   0.830   1.617  12.574 -0.5999 -2.0229  3.2789
 8398SOL     OW36826   2.482   2.402  12.509 -0.3994 -0.4256 -0.0483
 8398SOL    HW136827   2.490   2.461  12.434 -0.5285 -0.2325  0.0914
 8398SOL    HW236828   2.540   2.442  12.574 -1.4384  1.2854 -0.1696
 8399SOL     OW36829   1.043   1.645  14.008 -0.4650  0.1705 -0.3159
 8399SOL    HW136830   1.019   1.585  13.937  2.4032 -0.4400 -0.7831
 8399SOL    HW236831   1.057   1.723  13.954 -0.2492  1.2142  1.2318
 8400SOL     OW36832   2.921   0.114   4.895  0.2813 -0.5316 -0.1271
 8400SOL    HW136833   2.908   0.144   4.805 -1.8990 -0.3732  0.2403
 8400SOL    HW236834   2.985   0.180   4.923 -0.5299  0.8815 -1.6319
 8401SOL     OW36835   1.746   4.239   6.665  0.1562  0.3749  0.6871
 8401SOL    HW136836   1.723   4.210   6.577 -0.8997 -0.3450  1.1906
 8401SOL    HW236837   1.801   4.314   6.645 -0.4617  0.3833 -0.9458
 8402SOL     OW36838   1.209   1.161   5.718 -0.0880  0.0981 -0.8447
 8402SOL    HW136839   1.246   1.195   5.799 -1.4175 -0.8434  0.1477
 8402SOL    HW236840   1.226   1.071   5.743 -0.1536 -0.0019 -1.1549
 8403SOL     OW36841   1.175   4.027   8.822 -0.1179 -0.2750 -0.2894
 8403SOL    HW136842   1.195   4.099   8.762 -0.9866  0.7270  0.6241
 8403SOL    HW236843   1.080   4.024   8.826 -0.1658 -1.0565 -2.2964
 8404SOL     OW36844   2.046   4.603  16.319  0.4787  0.3529 -0.3291
 8404SOL    HW136845   1.995   4.584  16.397  0.2263  1.4105 -0.2302
 8404SOL    HW236846   2.127   4.568  16.357  0.3784  1.6457  1.0717
 8405SOL     OW36847   1.824   0.738  10.192  0.2405 -0.4060  0.1268
 8405SOL    HW136848   1.849   0.829  10.208  0.2027  0.1384 -2.8758
 8405SOL    HW236849   1.740   0.734  10.238 -2.0675 -1.3753 -4.0913
 8406SOL     OW36850   2.778   0.146   1.973  0.0031 -0.2654 -0.2843
 8406SOL    HW136851   2.827   0.228   1.971  1.5699 -1.1173  2.4645
 8406SOL    HW236852   2.691   0.171   1.943  1.0099  3.5909  0.0708
 8407SOL     OW36853   2.253   1.618   2.765  0.0805  0.0531  0.4425
 8407SOL    HW136854   2.258   1.525   2.785 -0.3523  0.0226  0.3986
 8407SOL    HW236855   2.347   1.623   2.746 -0.4111 -2.6743 -2.5956
 8408SOL     OW36856   1.669   1.237   4.322  0.3371  0.2112 -0.6474
 8408SOL    HW136857   1.643   1.328   4.312  0.1526  0.3124  0.6636
 8408SOL    HW236858   1.589   1.215   4.370  0.6961  0.8728  0.2473
 8409SOL     OW36859   2.197   1.896   6.260 -0.3349  0.2649  0.0728
 8409SOL    HW136860   2.180   1.823   6.201  0.3717  0.5095 -0.4373
 8409SOL    HW236861   2.257   1.863   6.328  0.0437  2.1943  0.6866
 8410SOL     OW36862   0.688   3.861   8.688  0.1892 -0.5112  0.2973
 8410SOL    HW136863   0.734   3.834   8.608  0.9498  1.3477  0.0896
 8410SOL    HW236864   0.665   3.775   8.721  0.5468 -0.1363  1.5101
 8411SOL     OW36865   2.464   3.897   6.862 -0.0654  0.3361  0.3566
 8411SOL    HW136866   2.479   3.929   6.773 -1.4881  3.4136  1.2478
 8411SOL    HW236867   2.429   3.971   6.911 -0.5594  0.6715 -0.5084
 8412SOL     OW36868   1.179   0.879  13.333  0.1741 -0.2374 -0.6317
 8412SOL    HW136869   1.201   0.924  13.251 -0.4681  1.7774  0.2960
 8412SOL    HW236870   1.095   0.840  13.310 -0.5463 -0.3365  2.1724
 8413SOL     OW36871   3.727   1.288  12.261  0.1447 -0.1545  1.0598
 8413SOL    HW136872   3.775   1.209  12.240  1.5614  1.2088 -0.7658
 8413SOL    HW236873   3.708   1.316  12.172  0.0645 -2.6017  0.3087
 8414SOL     OW36874   1.944   1.198   3.630 -0.4321  0.4327  0.3165
 8414SOL    HW136875   1.903   1.252   3.698 -0.3533  0.5059  0.3051
 8414SOL    HW236876   1.868   1.207   3.572 -0.3580 -0.3523  0.0965
 8415SOL     OW36877   2.654   0.494   8.892  0.5299 -0.4697  0.0160
 8415SOL    HW136878   2.628   0.445   8.969  2.2172 -0.5907  0.5035
 8415SOL    HW236879   2.740   0.532   8.910  0.4641 -1.1940  1.8268
 8416SOL     OW36880   4.713   1.652   3.369 -0.1344 -0.6888 -0.3532
 8416SOL    HW136881   4.631   1.692   3.341 -0.1289 -1.1593 -1.0486
 8416SOL    HW236882   4.716   1.564   3.333 -2.9949 -0.7011 -0.5508
 8417SOL     OW36883   2.087   0.646   2.357  0.4550  0.0808  0.4438
 8417SOL    HW136884   2.107   0.595   2.435  2.9745 -1.0447 -0.9378
 8417SOL    HW236885   2.065   0.726   2.405  0.3688 -0.2261  0.9156
 8418SOL     OW36886   4.650   0.917   0.764  0.8517 -0.0931  0.0986
 8418SOL    HW136887   4.595   0.992   0.786 -2.2629 -2.0332 -1.1206
 8418SOL    HW236888   0.004   0.953   0.758  1.1454 -0.7709  0.3404
 8419SOL     OW36889   1.153   0.003   5.751  0.1129  0.2009  0.5834
 8419SOL    HW136890   1.213   4.697   5.814  0.6967  0.7605  0.3864
 8419SOL    HW236891   1.148   0.092   5.787  1.2692  0.7762 -0.6856
 8420SOL     OW36892   3.406   1.270  15.214  0.1160  0.1718 -0.4535
 8420SOL    HW136893   3.317   1.305  15.216 -0.1061 -0.3661 -1.3182
 8420SOL    HW236894   3.389   1.180  15.188  0.8050 -0.0993  0.0251
 8421SOL     OW36895   2.682   4.182   4.149  0.0435 -0.1180  0.4074
 8421SOL    HW136896   2.602   4.219   4.112 -0.0240 -0.1564  0.5164
 8421SOL    HW236897   2.740   4.259   4.156 -0.3046  0.1985 -0.1807
 8422SOL     OW36898   0.704   4.215   3.033 -0.1475  0.3130  0.0382
 8422SOL    HW136899   0.686   4.309   3.031  2.3312  0.7920  0.9292
 8422SOL    HW236900   0.715   4.213   3.127  0.6379 -1.0180 -0.0936
 8423SOL     OW36901   0.663   0.062   3.579  0.0868 -0.6856  0.4568
 8423SOL    HW136902   0.631   0.152   3.568  2.4564 -0.0896 -1.4976
 8423SOL    HW236903   0.703   0.078   3.665  1.4914  0.5054 -0.4115
 8424SOL     OW36904   4.046   0.047  13.005 -0.2420  0.4414 -0.0354
 8424SOL    HW136905   4.035   0.002  12.922  1.8780 -0.3085  0.0952
 8424SOL    HW236906   3.989   0.001  13.067 -0.8431 -0.3648 -1.2157
 8425SOL     OW36907   4.062   4.088  11.459  0.0068  0.4223  0.1492
 8425SOL    HW136908   4.115   4.013  11.488 -1.3819 -0.9423 -0.8153
 8425SOL    HW236909   3.979   4.063  11.501 -0.1015  2.5805  1.1986
 8426SOL     OW36910   1.429   2.157   4.500 -0.0854  0.7937  0.4072
 8426SOL    HW136911   1.405   2.249   4.516  1.7185  1.0862  1.3279
 8426SOL    HW236912   1.448   2.126   4.588 -0.6169 -1.1340 -0.1639
 8427SOL     OW36913   3.394   4.522   8.639  0.3172  0.3131 -0.2140
 8427SOL    HW136914   3.312   4.546   8.597 -0.5515 -0.3741  1.0986
 8427SOL    HW236915   3.367   4.511   8.730 -0.5465 -0.7573 -0.6001
 8428SOL     OW36916   4.069   0.742   1.048 -0.3465 -0.5093 -0.0976
 8428SOL    HW136917   4.046   0.650   1.053 -1.9447 -0.0267  1.3362
 8428SOL    HW236918   4.113   0.747   1.133 -0.0263 -2.9609 -0.1315
 8429SOL     OW36919   4.708   1.244   9.284 -0.2805  0.0211  0.1005
 8429SOL    HW136920   4.625   1.269   9.325 -0.0939  0.0432  0.4632
 8429SOL    HW236921   4.709   1.150   9.302 -0.8020  0.6779  3.6554
 8430SOL     OW36922   3.273   0.609   0.708 -0.0251 -0.5433  0.1222
 8430SOL    HW136923   3.294   0.636   0.798 -0.5784  0.3382 -0.0138
 8430SOL    HW236924   3.268   0.699   0.678  2.8780 -0.8080 -1.2217
 8431SOL     OW36925   0.101   1.745  17.369 -0.1454 -0.5524  0.5887
 8431SOL    HW136926   0.190   1.728  17.337 -0.0828  0.7795  0.0377
 8431SOL    HW236927   0.106   1.734  17.464 -0.9700 -0.2821  0.6561
 8432SOL     OW36928   2.729   3.675   9.047  0.5056  0.6294 -0.7973
 8432SOL    HW136929   2.693   3.601   9.096  0.5063 -1.0567 -3.3370
 8432SOL    HW236930   2.801   3.703   9.104  0.7899 -1.0189 -0.3381
 8433SOL     OW36931   3.887   4.447   3.233  0.1458  0.6115  0.0969
 8433SOL    HW136932   3.889   4.538   3.203  0.0166  0.3044 -0.8525
 8433SOL    HW236933   3.976   4.417   3.214 -0.7831 -2.0421 -0.0038
 8434SOL     OW36934   0.558   0.088   8.880  1.1183 -0.2819  0.1079
 8434SOL    HW136935   0.562   0.173   8.923 -0.6864  0.2065 -0.6967
 8434SOL    HW236936   0.639   0.049   8.914  0.0976 -2.6910 -0.2343
 8435SOL     OW36937   2.060   2.300  16.571 -0.3665 -0.1006  0.2098
 8435SOL    HW136938   2.140   2.345  16.544  0.0157 -0.2975  1.0055
 8435SOL    HW236939   2.077   2.208  16.551 -0.8327  0.0580 -0.8856
 8436SOL     OW36940   2.151   1.371   3.309 -0.2554  0.0353 -0.4141
 8436SOL    HW136941   2.238   1.374   3.350 -1.1232 -0.0326  1.4336
 8436SOL    HW236942   2.148   1.276   3.298 -1.3695 -0.1501  1.5285
 8437SOL     OW36943   4.192   2.038   4.781  0.0029 -0.0924 -0.5508
 8437SOL    HW136944   4.182   1.984   4.703  0.3010 -2.0112  0.7485
 8437SOL    HW236945   4.284   2.060   4.765  0.3206  1.4721  3.4420
 8438SOL     OW36946   0.983   4.103   2.163  0.2473  0.3495 -0.0100
 8438SOL    HW136947   1.043   4.055   2.105  2.0750  1.0911  1.2741
 8438SOL    HW236948   0.909   4.042   2.172 -0.1954  0.4685 -2.7060
 8439SOL     OW36949   4.584   3.431  11.037 -0.4114  0.1067 -0.3347
 8439SOL    HW136950   4.644   3.357  11.025 -0.3078  0.3955 -1.5439
 8439SOL    HW236951   4.584   3.418  11.132 -2.5372  0.7016 -0.2527
 8440SOL     OW36952   0.265   4.120   3.759  0.0572  0.3934  0.0780
 8440SOL    HW136953   0.185   4.078   3.790  1.1727 -1.0730  0.9721
 8440SOL    HW236954   0.274   4.050   3.694 -2.8544  0.1551 -0.0496
 8441SOL     OW36955   4.672   1.233   6.262 -0.1684 -0.1411  0.1685
 8441SOL    HW136956   4.717   1.151   6.244  2.4456  1.1890  0.6409
 8441SOL    HW236957   4.606   1.235   6.193  0.0046 -2.3536 -0.0454
 8442SOL     OW36958   2.554   4.712   8.706 -0.2490  0.1530  0.1621
 8442SOL    HW136959   2.583   4.634   8.658 -1.8247 -0.8931  0.9207
 8442SOL    HW236960   2.526   0.039   8.639  1.2684  1.8872  1.1277
 8443SOL     OW36961   2.435   2.283   7.311  0.6920  0.7347 -0.5541
 8443SOL    HW136962   2.345   2.298   7.338 -0.0007 -1.5286 -1.5561
 8443SOL    HW236963   2.485   2.295   7.391 -2.7043 -0.5540  1.7593
 8444SOL     OW36964   3.591   3.353   7.144  0.0623 -0.0727 -0.1514
 8444SOL    HW136965   3.595   3.326   7.236 -2.4484  1.4630  0.4042
 8444SOL    HW236966   3.508   3.401   7.142 -0.7441 -1.5071 -1.2661
 8445SOL     OW36967   1.326   4.700   5.973  0.0920 -0.0169  0.0503
 8445SOL    HW136968   1.416   4.668   5.970  0.6660  1.7801 -1.8717
 8445SOL    HW236969   1.350   0.043   6.023 -0.5623  1.2237 -1.5918
 8446SOL     OW36970   1.199   3.742  11.283 -0.4162 -0.2884  0.0308
 8446SOL    HW136971   1.236   3.813  11.335  1.5395 -2.0934  1.0808
 8446SOL    HW236972   1.242   3.662  11.312  1.4380  1.6133  2.4729
 8447SOL     OW36973   0.257   3.090   8.501  0.2195  0.5768 -0.4277
 8447SOL    HW136974   0.197   3.163   8.518 -2.2703 -1.1837 -1.7243
 8447SOL    HW236975   0.198   3.018   8.481 -1.2373  1.9817 -1.1821
 8448SOL     OW36976   3.038   4.340   8.616 -0.4993 -0.4666  0.1230
 8448SOL    HW136977   3.126   4.307   8.598  0.5389  2.0744  0.5118
 8448SOL    HW236978   3.067   4.421   8.659 -1.3686  0.0749 -0.3159
 8449SOL     OW36979   1.682   2.879   3.803  0.2056 -0.2674  0.2512
 8449SOL    HW136980   1.710   2.790   3.826  2.4049 -0.2035 -2.1892
 8449SOL    HW236981   1.699   2.929   3.883 -0.4032  2.8379 -1.5952
 8450SOL     OW36982   1.006   1.602   7.669 -0.2717  0.8275 -0.1761
 8450SOL    HW136983   1.009   1.538   7.597  2.2651 -1.1487  1.6768
 8450SOL    HW236984   0.911   1.605   7.677 -0.1985  1.0607  0.5844
 8451SOL     OW36985   2.899   1.996   4.357  0.3366 -0.1156 -0.2392
 8451SOL    HW136986   2.977   2.016   4.305  0.1070  2.2142  0.2904
 8451SOL    HW236987   2.840   2.062   4.320 -1.6062 -1.9066 -0.3020
 8452SOL     OW36988   4.168   4.139  16.978 -0.3239  0.0674  0.2711
 8452SOL    HW136989   4.254   4.164  17.014 -1.2435  1.5266  1.4642
 8452SOL    HW236990   4.124   4.087  17.044 -1.6824  1.6623  0.6083
 8453SOL     OW36991   4.455   0.818  10.200 -0.7066 -0.5859 -0.1387
 8453SOL    HW136992   4.419   0.834  10.113 -0.5811  0.6520  0.0449
 8453SOL    HW236993   4.547   0.799  10.182 -0.1824  0.5673  1.3100
 8454SOL     OW36994   2.606   1.493   5.491 -0.1780  0.3764  0.0860
 8454SOL    HW136995   2.627   1.416   5.438 -2.0355  0.2168 -0.3893
 8454SOL    HW236996   2.682   1.523   5.542  2.0095 -2.3304 -1.5937
 8455SOL     OW36997   3.177   2.899   7.872  0.2484  0.2357  0.1409
 8455SOL    HW136998   3.105   2.868   7.927 -0.6006  0.9111 -0.5981
 8455SOL    HW236999   3.206   2.969   7.931  0.8707 -0.3119  0.4877
 8456SOL     OW37000   4.074   2.216   7.969  0.4967  0.0224 -0.1596
 8456SOL    HW137001   4.053   2.193   7.879  0.3059 -0.7964  0.0905
 8456SOL    HW237002   3.984   2.216   8.003  1.0185 -1.2253  1.2119
 8457SOL     OW37003   4.176   1.119   9.434 -0.0454 -0.1010  0.4783
 8457SOL    HW137004   4.147   1.041   9.387  0.0369  0.2547 -0.1659
 8457SOL    HW237005   4.088   1.157   9.434  0.3906  0.9371 -1.9840
 8458SOL     OW37006   0.864   2.737   5.963  0.5508  0.0010 -0.2145
 8458SOL    HW137007   0.852   2.669   6.029 -0.1424  0.1920 -0.1451
 8458SOL    HW237008   0.956   2.731   5.936  0.3064 -0.8303 -0.8787
 8459SOL     OW37009   1.867   0.674   2.729 -0.1352  0.4037 -0.2269
 8459SOL    HW137010   1.779   0.675   2.691 -0.5802 -1.9666  0.7050
 8459SOL    HW237011   1.845   0.725   2.807  1.4277 -0.1331  0.5753
 8460SOL     OW37012   0.467   3.514   8.269  0.0867  0.4595 -0.5369
 8460SOL    HW137013   0.397   3.524   8.333  1.0272 -1.1296  0.7571
 8460SOL    HW237014   0.442   3.432   8.226 -0.7213 -0.6977  2.1469
 8461SOL     OW37015   0.093   1.904   8.238  0.5453  0.1399  0.0375
 8461SOL    HW137016   0.033   1.846   8.191 -0.3795  1.5752 -0.5647
 8461SOL    HW237017   0.054   1.992   8.236 -0.0805 -0.1458 -0.1991
 8462SOL     OW37018   0.339   2.456   6.917 -0.0527  0.4588 -0.3118
 8462SOL    HW137019   0.422   2.461   6.871  0.0430  1.5211 -0.0182
 8462SOL    HW237020   0.364   2.423   7.003  0.7668 -1.2599 -1.1993
 8463SOL     OW37021   3.030   3.733   8.792 -0.4062  0.2333  0.3768
 8463SOL    HW137022   3.047   3.639   8.784  2.2769  0.5704  2.0444
 8463SOL    HW237023   3.043   3.742   8.886 -1.4919  1.6969  0.3895
 8464SOL     OW37024   4.391   0.101   7.031  0.5292 -0.3177  0.6403
 8464SOL    HW137025   4.443   0.116   7.110 -0.6837  0.4541  1.2904
 8464SOL    HW237026   4.410   0.009   7.012  1.3750  0.1988 -1.0355
 8465SOL     OW37027   4.603   0.599   6.689 -0.2679  0.1271 -0.0112
 8465SOL    HW137028   4.526   0.557   6.653 -0.0314 -1.7287  1.6314
 8465SOL    HW237029   4.596   0.688   6.654 -0.3745 -0.1311 -0.6381
 8466SOL     OW37030   2.524   1.059   4.118 -0.0114 -0.5784  0.5897
 8466SOL    HW137031   2.582   1.129   4.147  0.9261 -1.1730  0.1392
 8466SOL    HW237032   2.561   1.037   4.033 -0.0855 -3.4224  1.3014
 8467SOL     OW37033   4.408   0.448  10.196  0.5205  0.3825 -0.1905
 8467SOL    HW137034   4.338   0.504  10.160  1.3248  0.3724 -1.7736
 8467SOL    HW237035   4.468   0.454  10.122  1.1405  2.6131  0.4843
 8468SOL     OW37036   2.173   1.361   7.888  1.1894 -0.2465  0.9542
 8468SOL    HW137037   2.231   1.436   7.901  0.0723  0.5798  1.0808
 8468SOL    HW237038   2.122   1.395   7.814  0.4095 -0.5593  1.3496
 8469SOL     OW37039   0.647   1.620   5.874  0.3154 -0.2237 -0.2689
 8469SOL    HW137040   0.582   1.689   5.888  1.2967  1.0882 -2.1242
 8469SOL    HW237041   0.656   1.631   5.779  1.6638  3.1714  0.2294
 8470SOL     OW37042   4.423   1.807   5.537 -0.2507  0.1787  0.5194
 8470SOL    HW137043   4.400   1.775   5.450 -1.0657  0.4920  0.6181
 8470SOL    HW237044   4.438   1.723   5.581 -3.0117 -1.1517 -1.0959
 8471SOL     OW37045   4.077   2.949   7.898  0.1651 -0.2015 -0.6787
 8471SOL    HW137046   4.138   3.002   7.949  0.2553 -1.5577  0.6374
 8471SOL    HW237047   4.008   2.943   7.964 -0.6370 -2.4214 -1.6961
 8472SOL     OW37048   0.832   4.113   4.574 -0.8344 -0.0968 -0.1369
 8472SOL    HW137049   0.830   4.199   4.533 -0.1775 -0.4857 -0.9867
 8472SOL    HW237050   0.771   4.059   4.524 -1.2690  1.7374 -1.5676
 8473SOL     OW37051   4.436   2.185   1.928 -0.2717  0.1670  0.0753
 8473SOL    HW137052   4.440   2.264   1.873 -1.2478 -0.2501 -0.5874
 8473SOL    HW237053   4.341   2.179   1.922 -0.3197  2.4574 -1.5426
 8474SOL     OW37054   0.600   3.726   3.589 -0.1208  0.2912  0.5413
 8474SOL    HW137055   0.574   3.757   3.503 -0.2695 -0.1865  0.4152
 8474SOL    HW237056   0.517   3.723   3.636 -0.2918  1.2813  0.3060
 8475SOL     OW37057   3.255   3.530  16.854 -0.4744 -0.2461 -0.1428
 8475SOL    HW137058   3.219   3.618  16.858 -2.0281 -0.9600  1.4376
 8475SOL    HW237059   3.317   3.538  16.782  0.8973  0.4475  1.0987
 8476SOL     OW37060   2.432   2.455   9.902  0.0375 -0.1379 -0.0722
 8476SOL    HW137061   2.406   2.442   9.993  0.6539 -4.2801 -0.4736
 8476SOL    HW237062   2.527   2.455   9.915 -0.0799 -4.3929  0.9054
 8477SOL     OW37063   3.903   3.024   8.187 -0.1757 -0.3535 -0.1891
 8477SOL    HW137064   3.856   2.996   8.266 -0.7096  0.9086 -0.0583
 8477SOL    HW237065   3.985   2.977   8.198  0.7679  1.2166 -0.4884
 8478SOL     OW37066   1.398   3.962  11.205  0.4979 -0.1507 -0.9134
 8478SOL    HW137067   1.442   3.880  11.183  1.7486 -0.0277  1.0910
 8478SOL    HW237068   1.376   3.954  11.298 -0.7641  1.0234 -1.1111
 8479SOL     OW37069   0.712   4.020  12.595 -0.0888 -0.5916 -0.5355
 8479SOL    HW137070   0.621   3.996  12.578  0.2621 -1.3967 -1.2336
 8479SOL    HW237071   0.705   4.092  12.658 -0.9026 -1.6247  0.5666
 8480SOL     OW37072   1.258   1.603  17.051 -0.2150  0.4441 -0.1567
 8480SOL    HW137073   1.256   1.693  17.083 -0.7119  0.3424  0.0991
 8480SOL    HW237074   1.184   1.612  16.992  0.3252 -1.2338 -1.1041
 8481SOL     OW37075   2.921   3.183   3.481 -0.2420  0.1921  0.0388
 8481SOL    HW137076   2.840   3.232   3.492 -0.6062 -0.4501  0.1829
 8481SOL    HW237077   2.954   3.233   3.406 -0.0141 -1.3271 -0.8790
 8482SOL     OW37078   1.745   0.223   8.998 -0.5323  0.3884  0.1548
 8482SOL    HW137079   1.715   0.291   9.059 -1.0292 -0.3988  0.7969
 8482SOL    HW237080   1.839   0.234   9.014 -1.0089  0.9061  2.6200
 8483SOL     OW37081   0.903   1.796   2.787 -0.1512 -0.1260  0.1448
 8483SOL    HW137082   0.974   1.736   2.807 -0.6116 -1.5267 -2.5024
 8483SOL    HW237083   0.940   1.880   2.814  0.4363  0.1223 -1.4676
 8484SOL     OW37084   1.451   1.814   2.008 -0.3624 -0.1065  0.1072
 8484SOL    HW137085   1.502   1.878   2.059 -0.1390  0.1192 -0.4004
 8484SOL    HW237086   1.407   1.782   2.087 -1.2350  2.3131  0.5977
 8485SOL     OW37087   2.494   4.109   4.902  0.8255 -0.6065  0.2101
 8485SOL    HW137088   2.478   4.089   4.809  1.3496  2.3924 -0.5305
 8485SOL    HW237089   2.445   4.036   4.939 -1.8145  1.8531  1.4909
 8486SOL     OW37090   1.810   1.140  13.095  0.3011  0.4604 -0.1091
 8486SOL    HW137091   1.891   1.162  13.048  0.4908  2.0488  0.9423
 8486SOL    HW237092   1.816   1.207  13.164  0.6658  0.1574  0.1515
 8487SOL     OW37093   3.120   3.558  12.498 -1.0595 -0.2415  0.4638
 8487SOL    HW137094   3.202   3.580  12.542 -1.2377 -0.9238  1.1422
 8487SOL    HW237095   3.128   3.466  12.471  0.7875  0.0026  0.1403
 8488SOL     OW37096   1.878   2.084  17.375  0.3987 -0.0737  0.1072
 8488SOL    HW137097   1.793   2.121  17.351  0.4007  0.0694  0.3244
 8488SOL    HW237098   1.861   2.033  17.454 -1.9954  2.3314  1.1646
 8489SOL     OW37099   4.442   0.720   2.274  0.0546  0.1030  1.2813
 8489SOL    HW137100   4.364   0.695   2.225  1.3599  0.0801 -0.8061
 8489SOL    HW237101   4.424   0.790   2.337  0.0647  3.0413 -1.9583
 8490SOL     OW37102   2.913   3.156  16.668  0.8245 -0.0660  0.1637
 8490SOL    HW137103   2.846   3.104  16.624  2.2722 -0.0435 -2.0203
 8490SOL    HW237104   2.960   3.086  16.714  0.0577  1.5622  3.4314
 8491SOL     OW37105   0.824   1.407  13.358 -0.2630  0.9743  0.1170
 8491SOL    HW137106   0.871   1.350  13.419 -0.3329  1.4023  0.5626
 8491SOL    HW237107   0.747   1.442  13.403 -0.4913 -0.2245  0.6619
 8492SOL     OW37108   1.375   0.352  16.532  0.2468  0.4152 -0.0088
 8492SOL    HW137109   1.292   0.318  16.498  0.3115  1.0936 -0.8568
 8492SOL    HW237110   1.423   0.364  16.450  0.2044  2.4412  0.2556
 8493SOL     OW37111   4.138   4.439   4.756 -0.2528 -0.2094  0.2617
 8493SOL    HW137112   4.211   4.405   4.705 -0.8593  1.1911 -1.5064
 8493SOL    HW237113   4.146   4.534   4.750  2.1817 -0.5016 -1.3193
 8494SOL     OW37114   0.103   0.900  16.587  0.3356  0.2809  0.1093
 8494SOL    HW137115   0.015   0.932  16.609 -0.4807 -1.5104 -0.5059
 8494SOL    HW237116   0.105   0.816  16.632 -0.1193 -1.1202 -2.4629
 8495SOL     OW37117   4.708   2.881   2.781 -0.1487 -0.1121  0.2943
 8495SOL    HW137118   4.734   2.791   2.804  0.6614  0.5454  1.9193
 8495SOL    HW237119   4.617   2.878   2.809  0.0042 -1.7011  0.6223
 8496SOL     OW37120   4.592   0.925   5.976  0.2622  0.3549 -0.5960
 8496SOL    HW137121   4.684   0.946   5.958  0.8413 -1.9393 -0.3088
 8496SOL    HW237122   4.578   0.855   5.912 -0.5369  0.8194 -0.9215
 8497SOL     OW37123   1.010   4.484   8.301 -0.1721  0.2252  0.3189
 8497SOL    HW137124   0.955   4.475   8.379  1.1008 -0.9678  1.0928
 8497SOL    HW237125   1.059   4.401   8.306  2.2355  1.6267  0.3105
 8498SOL     OW37126   3.614   1.396   2.366  0.4841 -0.0638  0.3001
 8498SOL    HW137127   3.607   1.467   2.302 -4.5264  0.9327  1.9443
 8498SOL    HW237128   3.592   1.319   2.313 -2.1055  0.9256 -0.0569
 8499SOL     OW37129   3.933   1.775  17.049 -0.5064  0.5600 -0.0409
 8499SOL    HW137130   3.907   1.767  16.957  1.2998 -1.2609 -0.3833
 8499SOL    HW237131   4.008   1.834  17.046  1.5812 -2.0675  1.1094
 8500SOL     OW37132   0.574   3.396   9.644  0.2219  0.5814 -0.1634
 8500SOL    HW137133   0.598   3.353   9.726 -0.6514 -0.8162 -0.6371
 8500SOL    HW237134   0.568   3.329   9.576 -2.6921  1.1919 -0.5322
 8501SOL     OW37135   3.775   2.530   3.183  0.1930 -0.7128  0.2198
 8501SOL    HW137136   3.773   2.471   3.258 -2.6790 -1.5123 -0.5110
 8501SOL    HW237137   3.681   2.546   3.186 -0.1806 -2.8056 -0.5343
 8502SOL     OW37138   2.510   1.904  14.809  0.3062  0.7484 -0.0524
 8502SOL    HW137139   2.502   1.827  14.753  0.2007  0.5925  0.1754
 8502SOL    HW237140   2.570   1.878  14.879  1.3409 -1.6647 -1.8420
 8503SOL     OW37141   2.515   2.364   6.396 -0.1203  0.4147 -0.1430
 8503SOL    HW137142   2.548   2.275   6.383  0.8079  0.4356  2.1347
 8503SOL    HW237143   2.432   2.337   6.434  0.5910  0.0030  1.1121
 8504SOL     OW37144   4.319   2.852  14.577 -0.0348 -0.2801 -0.2558
 8504SOL    HW137145   4.286   2.842  14.488  1.4632 -1.0286 -0.7299
 8504SOL    HW237146   4.378   2.778  14.593 -2.3065 -1.9037  0.6744
 8505SOL     OW37147   3.674   1.046  10.731 -0.5331  0.2198 -0.2342
 8505SOL    HW137148   3.660   0.953  10.748 -0.6623  0.6842  2.1078
 8505SOL    HW237149   3.709   1.077  10.814  1.5593  0.1586 -1.0975
 8506SOL     OW37150   0.188   2.603   8.514  0.3492  0.2826 -0.6754
 8506SOL    HW137151   0.125   2.582   8.445 -1.6624  0.9131  0.9776
 8506SOL    HW237152   0.182   2.530   8.576 -2.3141  2.3759  1.5532
 8507SOL     OW37153   3.063   0.215  14.097  0.1087  0.3497  0.1362
 8507SOL    HW137154   3.139   0.202  14.153 -1.4989 -2.5831  1.6101
 8507SOL    HW237155   3.004   0.142  14.113 -0.5907  0.8911  0.0280
 8508SOL     OW37156   2.266   2.221   9.019  0.0515 -0.4037 -0.2109
 8508SOL    HW137157   2.326   2.210   9.094 -0.5894  1.4152  0.5625
 8508SOL    HW237158   2.325   2.227   8.944 -0.3572 -0.0497 -0.4959
 8509SOL     OW37159   0.047   2.274   1.966  0.3999  0.6408  0.5960
 8509SOL    HW137160   4.710   2.328   1.933 -1.1179 -0.2743  2.3896
 8509SOL    HW237161   0.089   2.252   1.883  0.6367 -0.7649  1.0892
 8510SOL     OW37162   3.556   1.384   4.215  0.7417 -0.4841 -0.1254
 8510SOL    HW137163   3.633   1.434   4.187  1.3244 -0.1226  2.1305
 8510SOL    HW237164   3.562   1.307   4.158  0.7087 -1.0772  0.6771
 8511SOL     OW37165   4.090   0.075   8.411  0.8097 -0.2427 -0.1816
 8511SOL    HW137166   4.141   0.071   8.330 -1.4933  1.6500 -1.7222
 8511SOL    HW237167   4.101   4.725   8.454  0.8126 -0.6787 -1.0373
 8512SOL     OW37168   2.677   1.836  15.021 -0.1430  0.1276 -0.3579
 8512SOL    HW137169   2.631   1.826  15.104  1.8330 -2.4663  0.4275
 8512SOL    HW237170   2.730   1.912  15.042  0.6586 -0.9827  1.6748
 8513SOL     OW37171   0.906   4.439   2.448  0.1939 -0.0589 -0.0751
 8513SOL    HW137172   0.988   4.431   2.497  0.9112  0.7751 -1.1294
 8513SOL    HW237173   0.854   4.514   2.475  2.2899  1.6156 -0.6275
 8514SOL     OW37174   3.949   4.360  10.391 -0.0910  0.8462 -0.0548
 8514SOL    HW137175   3.899   4.386  10.314 -0.1715  2.2517  0.4651
 8514SOL    HW237176   4.000   4.439  10.411 -0.0050  0.8571 -0.3189
 8515SOL     OW37177   0.172   1.395   6.243  0.7079 -0.1407  0.5167
 8515SOL    HW137178   0.162   1.350   6.159 -0.2501 -1.1452  1.1674
 8515SOL    HW237179   0.100   1.457   6.231  1.5042  0.3081 -2.0112
 8516SOL     OW37180   1.555   2.597   4.421 -0.2337 -0.3369  0.5177
 8516SOL    HW137181   1.476   2.543   4.424  0.0235 -0.6124  2.1583
 8516SOL    HW237182   1.625   2.533   4.412  0.1898  0.2123 -0.0969
 8517SOL     OW37183   3.606   0.229  14.928 -0.3321  0.0875  0.4251
 8517SOL    HW137184   3.530   0.198  14.879  0.4606 -0.6869 -0.3144
 8517SOL    HW237185   3.590   0.322  14.913  0.5571  0.2116  0.2919
 8518SOL     OW37186   1.418   0.969  10.363 -0.4513 -0.0367 -0.0868
 8518SOL    HW137187   1.337   0.930  10.330  0.6135 -2.4403  0.2012
 8518SOL    HW237188   1.410   0.982  10.457  0.4762  1.0311 -0.1585
 8519SOL     OW37189   3.721   1.957   6.995  0.4190 -0.6844 -0.7289
 8519SOL    HW137190   3.756   2.040   6.961 -3.1297  1.1439  0.1235
 8519SOL    HW237191   3.777   1.890   6.956  0.7586 -0.2755 -0.9383
 8520SOL     OW37192   4.566   3.718   2.300 -0.3637 -0.0730  0.3171
 8520SOL    HW137193   4.642   3.771   2.277  0.7725 -2.1927 -0.8193
 8520SOL    HW237194   4.600   3.660   2.368 -1.1047 -0.6559  0.1866
 8521SOL     OW37195   1.960   1.949   4.877  0.4679  0.0342  0.7000
 8521SOL    HW137196   2.015   1.876   4.905  2.1596  1.2356  0.4966
 8521SOL    HW237197   1.944   1.930   4.784 -0.3150 -0.8201  1.0073
 8522SOL     OW37198   1.577   1.749  13.192  0.2427  0.1218  0.4622
 8522SOL    HW137199   1.510   1.801  13.149  2.6214  0.4754 -2.8908
 8522SOL    HW237200   1.594   1.701  13.111 -1.7726  0.1956 -0.0043
 8523SOL     OW37201   0.381   0.594   6.968 -0.2652 -0.1732  0.5285
 8523SOL    HW137202   0.350   0.684   6.982 -1.6451 -0.7291  1.0893
 8523SOL    HW237203   0.337   0.553   7.042  0.4974 -0.8335  0.6169
 8524SOL     OW37204   1.124   2.086   7.387  0.3066  0.4469 -0.1103
 8524SOL    HW137205   1.115   1.992   7.372 -0.9649  0.6736 -0.7456
 8524SOL    HW237206   1.035   2.114   7.407  0.9161  0.9989  1.8196
 8525SOL     OW37207   1.805   3.252   0.664  0.4384  0.2999  0.5186
 8525SOL    HW137208   1.816   3.267   0.570 -1.3073 -0.5572  0.1601
 8525SOL    HW237209   1.858   3.175   0.685  0.4466  0.6844  1.8896
 8526SOL     OW37210   3.307   2.728   6.393 -0.3945 -0.1257  0.3366
 8526SOL    HW137211   3.313   2.763   6.304 -0.7325 -1.2852 -0.1430
 8526SOL    HW237212   3.368   2.655   6.378 -0.9377 -0.3935 -0.5526
 8527SOL     OW37213   4.327   0.251   1.736 -0.4526  0.3015  0.4911
 8527SOL    HW137214   4.245   0.298   1.719 -0.4791 -0.1349 -0.5998
 8527SOL    HW237215   4.304   0.160   1.717 -1.3788  0.6906 -0.2899
 8528SOL     OW37216   1.217   3.164   7.661 -0.3420 -0.1998  0.1320
 8528SOL    HW137217   1.157   3.126   7.726 -1.0840  2.4452  0.9847
 8528SOL    HW237218   1.282   3.095   7.673  1.0216  0.8594 -1.2741
 8529SOL     OW37219   3.685   1.040   1.578  0.3435  0.1004 -0.1250
 8529SOL    HW137220   3.611   1.074   1.528  0.3085  1.4778  0.8623
 8529SOL    HW237221   3.692   1.107   1.645 -0.6600  0.1946 -0.1046
 8530SOL     OW37222   2.489   3.611   6.073 -0.1733 -0.2064  0.0665
 8530SOL    HW137223   2.559   3.667   6.038 -0.4047 -0.2375 -0.4434
 8530SOL    HW237224   2.511   3.602   6.166  1.2672  0.0233 -0.2429
 8531SOL     OW37225   2.517   4.618   8.412  0.0493  0.2102  0.5559
 8531SOL    HW137226   2.532   4.635   8.319 -1.9148  1.7646  0.5258
 8531SOL    HW237227   2.529   4.711   8.429  0.7475  0.5612 -1.8813
 8532SOL     OW37228   2.259   3.206  17.313  0.1500  0.3266 -0.4128
 8532SOL    HW137229   2.165   3.185  17.304  0.0820  0.8624 -0.9193
 8532SOL    HW237230   2.270   3.233  17.222  1.0596  3.9696  0.8038
 8533SOL     OW37231   1.302   2.928   3.062  0.1560  0.6549 -0.0110
 8533SOL    HW137232   1.207   2.935   3.070 -0.1260 -1.8027 -1.0745
 8533SOL    HW237233   1.302   2.876   2.981 -0.1608 -0.8749  0.9715
 8534SOL     OW37234   2.173   2.090  14.681 -0.2005  0.1168  0.1685
 8534SOL    HW137235   2.245   2.096  14.618  0.1077  0.0068  0.5084
 8534SOL    HW237236   2.213   2.033  14.746  0.8829  0.1917 -0.4272
 8535SOL     OW37237   0.974   2.827   4.874  0.1742  0.2408  0.2935
 8535SOL    HW137238   0.984   2.823   4.779 -0.6145 -2.7558  0.3586
 8535SOL    HW237239   0.880   2.811   4.864  0.1223  0.6588  0.1025
 8536SOL     OW37240   2.434   4.733   5.960  0.5249  0.0918  0.4187
 8536SOL    HW137241   2.495   4.694   6.023  0.4241  0.1258  0.5386
 8536SOL    HW237242   2.376   4.659   5.940 -0.1626  1.3398 -2.1828
 8537SOL     OW37243   0.429   2.787  11.267  0.1873  0.1735 -0.1729
 8537SOL    HW137244   0.349   2.824  11.304  0.0905 -0.9858  0.7854
 8537SOL    HW237245   0.453   2.745  11.349  1.6948  3.2838  0.9459
 8538SOL     OW37246   4.583   4.212   4.896  0.3475 -0.3386  0.0427
 8538SOL    HW137247   4.510   4.262   4.933  2.0341  2.5053 -0.5365
 8538SOL    HW237248   4.549   4.186   4.810  1.5445  1.7232 -1.0383
 8539SOL     OW37249   1.016   2.266   3.637  0.7499 -0.2512 -0.3058
 8539SOL    HW137250   1.005   2.191   3.695  2.1039 -0.3515 -0.1937
 8539SOL    HW237251   0.987   2.230   3.553 -0.5244 -1.5281  0.6944
 8540SOL     OW37252   1.235   2.466   8.518  0.4374 -0.1123 -0.0042
 8540SOL    HW137253   1.228   2.553   8.479 -0.1451 -0.4880 -0.7394
 8540SOL    HW237254   1.309   2.477   8.577  0.7256 -0.1367 -0.3664
 8541SOL     OW37255   0.372   4.691  15.409  0.0636  0.5145  0.2868
 8541SOL    HW137256   0.420   4.612  15.385 -1.3788 -0.2835 -0.0157
 8541SOL    HW237257   0.332   4.711  15.324 -0.5903 -0.5771  0.3299
 8542SOL     OW37258   0.716   0.107   5.725  0.2358 -0.2295 -0.1040
 8542SOL    HW137259   0.784   0.039   5.713  2.7991  2.4126 -0.5556
 8542SOL    HW237260   0.733   0.135   5.815 -1.1147 -2.4946  0.8730
 8543SOL     OW37261   0.241   3.902   8.819 -0.3906 -0.0630  0.2024
 8543SOL    HW137262   0.160   3.856   8.840  1.6097 -2.6709  2.0976
 8543SOL    HW237263   0.210   3.989   8.792 -1.3516  0.2154  2.2079
 8544SOL     OW37264   2.974   3.927   1.583  0.4394 -0.0266 -0.4624
 8544SOL    HW137265   3.010   4.001   1.633 -1.1866  0.3796  0.1020
 8544SOL    HW237266   3.043   3.914   1.518 -0.0557 -2.1678 -0.5442
 8545SOL     OW37267   0.100   4.519   0.366  0.3161 -0.3745 -0.3946
 8545SOL    HW137268   0.069   4.609   0.376 -0.2098 -0.7375  1.1603
 8545SOL    HW237269   0.019   4.470   0.353  0.0811  0.3071 -1.4866
 8546SOL     OW37270   0.918   1.355  15.015 -0.3931  0.0579  0.2575
 8546SOL    HW137271   0.892   1.266  14.991  0.3305 -0.5037  1.5419
 8546SOL    HW237272   0.868   1.369  15.096  1.2958  0.8085  1.1796
 8547SOL     OW37273   0.601   2.224  13.249  0.0009  0.3650 -0.6130
 8547SOL    HW137274   0.534   2.283  13.285  0.1042  0.8409 -1.2062
 8547SOL    HW237275   0.678   2.253  13.297 -0.1233 -1.3487  0.6141
 8548SOL     OW37276   0.055   0.897   7.247  0.2422  0.3919  0.0061
 8548SOL    HW137277   4.704   0.938   7.235  1.3817  2.1488 -2.0429
 8548SOL    HW237278   0.037   0.803   7.248  1.7259  0.1144 -0.0764
 8549SOL     OW37279   3.421   0.012   5.587  0.2587  0.0222  0.4476
 8549SOL    HW137280   3.425   0.045   5.677  0.4937 -1.4197  0.9523
 8549SOL    HW237281   3.380   4.663   5.608  0.0243 -0.1029 -0.5033
 8550SOL     OW37282   1.672   1.552   3.776  0.5172  0.0821 -0.4428
 8550SOL    HW137283   1.690   1.467   3.736 -1.0107  0.0723 -1.1216
 8550SOL    HW237284   1.643   1.594   3.695 -2.0446 -0.1941  0.3273
 8551SOL     OW37285   2.345   4.006  11.634  0.2834 -1.0500 -0.4258
 8551SOL    HW137286   2.269   4.039  11.586  0.2736 -1.7790 -0.9096
 8551SOL    HW237287   2.297   3.991  11.716  0.4147 -0.9230 -0.3254
 8552SOL     OW37288   2.152   0.330   8.846  0.2378 -0.3195 -0.4308
 8552SOL    HW137289   2.222   0.392   8.827  0.3900 -0.2373  0.3885
 8552SOL    HW237290   2.205   0.254   8.822  0.9014  0.5270 -1.6439
 8553SOL     OW37291   2.927   4.353   5.843 -0.1408 -0.5513  0.3253
 8553SOL    HW137292   2.893   4.265   5.857 -2.5897  0.2662 -0.4245
 8553SOL    HW237293   3.022   4.344   5.839 -0.1854 -0.6370 -0.6345
 8554SOL     OW37294   3.529   4.295   4.742  0.1171  0.6944  0.4264
 8554SOL    HW137295   3.515   4.373   4.797 -2.1997  1.0599 -0.7150
 8554SOL    HW237296   3.597   4.316   4.678  0.7036 -1.9888  0.1858
 8555SOL     OW37297   2.749   2.225   5.264  0.1504 -0.2895  0.0846
 8555SOL    HW137298   2.714   2.295   5.209 -0.0931  0.1543  0.7972
 8555SOL    HW237299   2.785   2.264   5.344  3.1476 -0.6946 -1.0657
 8556SOL     OW37300   1.017   1.382   3.522 -0.1114  0.4023 -0.2109
 8556SOL    HW137301   0.993   1.338   3.441 -0.1633  1.3835 -0.7319
 8556SOL    HW237302   1.046   1.469   3.496  2.4240 -0.1970  0.6383
 8557SOL     OW37303   3.834   3.141   4.595 -0.2838  0.2187  0.2901
 8557SOL    HW137304   3.908   3.091   4.560 -0.3307  0.8646 -0.7325
 8557SOL    HW237305   3.794   3.159   4.510 -1.3514  0.7959  0.9188
 8558SOL     OW37306   2.117   2.881   7.034  0.0676  0.4321 -0.3384
 8558SOL    HW137307   2.086   2.818   6.970 -1.6778 -0.0638  1.0036
 8558SOL    HW237308   2.037   2.923   7.065  1.1678 -0.6974  4.1204
 8559SOL     OW37309   0.720   0.666   3.988  0.0636 -0.1706  0.3452
 8559SOL    HW137310   0.734   0.593   3.927  0.6930  1.1555 -1.0810
 8559SOL    HW237311   0.728   0.738   3.926  1.3744  0.9526  1.8193
 8560SOL     OW37312   0.905   4.019   0.722 -0.3886 -0.6937  0.0691
 8560SOL    HW137313   0.932   3.995   0.633 -1.2095 -0.7101 -0.1750
 8560SOL    HW237314   0.985   3.999   0.770 -0.2262 -0.0717  0.0553
 8561SOL     OW37315   2.811   0.910   1.782 -0.2584 -0.0229 -0.2631
 8561SOL    HW137316   2.755   0.878   1.852 -0.1753 -1.0231 -0.6601
 8561SOL    HW237317   2.810   1.005   1.796  0.7031 -0.3404  1.7859
 8562SOL     OW37318   2.669   3.608  15.396  0.3660  0.0461  0.4685
 8562SOL    HW137319   2.624   3.664  15.333  0.4251 -1.2493 -0.7316
 8562SOL    HW237320   2.748   3.661  15.401  1.5333 -1.4381 -2.0310
 8563SOL     OW37321   1.139   4.236   8.315 -0.6228  0.1350  0.4018
 8563SOL    HW137322   1.167   4.204   8.229 -0.7822  0.0446  0.3841
 8563SOL    HW237323   1.217   4.278   8.351 -2.3389  1.8448  2.0811
 8564SOL     OW37324   1.751   0.979   5.835 -0.1583 -0.2206 -0.0825
 8564SOL    HW137325   1.799   0.905   5.797  0.0818  0.2789 -0.7457
 8564SOL    HW237326   1.826   1.018   5.880 -2.4941  2.4019  1.5341
 8565SOL     OW37327   0.291   0.263   6.960  0.2414 -0.1991 -0.2598
 8565SOL    HW137328   0.223   0.295   7.020 -0.7970  0.7112 -1.9127
 8565SOL    HW237329   0.273   0.309   6.878  0.6703 -0.0116 -0.2447
 8566SOL     OW37330   2.379   3.570  12.546 -0.5111 -0.5901  0.3092
 8566SOL    HW137331   2.465   3.611  12.537 -0.3243 -0.6486  1.7798
 8566SOL    HW237332   2.386   3.523  12.630  3.2233  4.1812  2.6582
 8567SOL     OW37333   2.093   3.942   4.913 -0.0103  0.6665  0.0399
 8567SOL    HW137334   2.026   3.897   4.860  0.2614  0.3320 -0.0204
 8567SOL    HW237335   2.040   3.996   4.971 -1.7889 -1.8114  0.7497
 8568SOL     OW37336   1.836   3.767  14.158 -0.6329  0.3314  0.5979
 8568SOL    HW137337   1.771   3.728  14.099 -1.1411  3.5223 -0.9770
 8568SOL    HW237338   1.790   3.841  14.197 -2.7512 -0.5963 -0.1217
 8569SOL     OW37339   2.553   4.258  14.231  0.0160  0.2189  0.1916
 8569SOL    HW137340   2.579   4.270  14.322  1.2519  1.6495 -0.3585
 8569SOL    HW237341   2.488   4.190  14.248  1.7904 -1.2713  1.0077
 8570SOL     OW37342   1.413   1.618   7.967 -0.6031 -0.0489 -0.0429
 8570SOL    HW137343   1.474   1.692   7.978 -0.3322 -0.7418  3.0327
 8570SOL    HW237344   1.406   1.585   8.056 -2.1777 -0.7819 -0.4395
 8571SOL     OW37345   2.040   3.075   5.911 -0.0384 -0.4477 -0.5108
 8571SOL    HW137346   1.946   3.067   5.897 -0.3132  0.9271  0.5522
 8571SOL    HW237347   2.047   3.169   5.894 -1.2327 -0.2974 -0.1391
 8572SOL     OW37348   4.168   2.125   8.389  0.2418 -0.1950  0.3479
 8572SOL    HW137349   4.236   2.080   8.339 -0.7592 -0.9082 -0.3611
 8572SOL    HW237350   4.098   2.072   8.350  0.7373 -0.2315 -0.4929
 8573SOL     OW37351   0.675   2.672   5.772  0.2533 -0.0940 -0.4483
 8573SOL    HW137352   0.731   2.709   5.839  1.9864 -0.6786 -1.5846
 8573SOL    HW237353   0.647   2.587   5.806 -3.0131  0.5082 -1.5346
 8574SOL     OW37354   4.163   0.436  13.207  0.3463 -0.4890  0.1284
 8574SOL    HW137355   4.071   0.455  13.189 -0.1611 -0.2259  2.9593
 8574SOL    HW237356   4.207   0.441  13.122  2.3188 -0.1621  1.1636
 8575SOL     OW37357   0.595   1.477   8.321 -0.1109  0.6148  0.7642
 8575SOL    HW137358   0.525   1.494   8.385  1.8225  0.7351  2.8426
 8575SOL    HW237359   0.662   1.539   8.351  1.3588 -1.1776  1.1592
 8576SOL     OW37360   0.588   0.764   9.031  0.3143 -0.5870 -0.1277
 8576SOL    HW137361   0.558   0.697   8.971  1.0003 -1.6191  0.6837
 8576SOL    HW237362   0.501   0.801   9.044 -1.0081 -3.5225 -0.8394
 8577SOL     OW37363   1.218   0.302   0.564  0.8557 -0.2919  0.0360
 8577SOL    HW137364   1.241   0.391   0.539 -0.1572 -0.5985 -1.9548
 8577SOL    HW237365   1.222   0.251   0.483 -0.7992 -0.0136 -0.2284
 8578SOL     OW37366   3.326   0.007   7.519 -0.5939  0.3878 -0.4886
 8578SOL    HW137367   3.327   4.651   7.549 -1.3489 -0.1365 -2.0552
 8578SOL    HW237368   3.303   0.064   7.593 -0.8097 -0.5158  0.1303
 8579SOL     OW37369   4.426   0.190   4.703 -0.0126  0.2900 -0.2002
 8579SOL    HW137370   4.509   0.212   4.659 -0.0195 -1.2805 -1.0050
 8579SOL    HW237371   4.440   0.181   4.797  0.3075  1.7081 -0.1150
 8580SOL     OW37372   0.189   3.277   5.636 -0.0466 -0.1731  0.3527
 8580SOL    HW137373   0.265   3.249   5.688  0.0416 -0.7302 -0.0743
 8580SOL    HW237374   0.220   3.345   5.577  1.1520 -0.9594  0.0631
 8581SOL     OW37375   1.587   2.313   7.553  0.0876 -0.6374 -0.2195
 8581SOL    HW137376   1.499   2.277   7.539  0.5108 -0.6806 -2.6874
 8581SOL    HW237377   1.616   2.284   7.467  2.1614  0.6795  0.0431
 8582SOL     OW37378   0.985   3.426   9.365  0.1616  0.0276  0.1602
 8582SOL    HW137379   1.072   3.437   9.327  0.2700 -0.7427  0.1968
 8582SOL    HW237380   0.987   3.341   9.408 -1.4463  1.0565  2.2967
 8583SOL     OW37381   3.258   2.386  13.652  0.2010 -0.1305 -0.1742
 8583SOL    HW137382   3.223   2.324  13.588 -0.9350  1.2110 -0.8291
 8583SOL    HW237383   3.275   2.322  13.722 -2.5021 -1.6867 -0.9236
 8584SOL     OW37384   3.668   1.681   2.391 -0.2961 -0.1189  0.2143
 8584SOL    HW137385   3.708   1.768   2.387  1.5376 -0.9107  0.9518
 8584SOL    HW237386   3.631   1.673   2.303 -1.8477  0.3586  0.8281
 8585SOL     OW37387   4.138   2.897   4.383  0.0339  0.1918  0.5607
 8585SOL    HW137388   4.133   2.862   4.472  2.3780 -0.8725  0.2640
 8585SOL    HW237389   4.147   2.991   4.399  1.8522  0.2473 -0.8918
 8586SOL     OW37390   3.190   1.938   2.765 -0.0519  0.3096 -0.0108
 8586SOL    HW137391   3.204   1.999   2.692 -0.7984 -1.0613 -1.2802
 8586SOL    HW237392   3.208   1.851   2.730 -1.1665  0.5367 -1.1365
 8587SOL     OW37393   1.425   3.883  17.440  0.3128  0.4708 -0.4972
 8587SOL    HW137394   1.345   3.833  17.426  0.2770  1.0518 -2.3641
 8587SOL    HW237395   1.410   3.925  17.525  0.5365  0.8207 -0.6304
 8588SOL     OW37396   1.833   2.832   2.234 -0.3254 -0.0222 -0.0151
 8588SOL    HW137397   1.741   2.849   2.254 -0.7387 -1.6654 -0.4526
 8588SOL    HW237398   1.883   2.875   2.303  0.0892  0.4086 -0.5864
 8589SOL     OW37399   4.401   0.965  15.616  0.4295 -0.6370  0.1688
 8589SOL    HW137400   4.429   0.874  15.607  2.4078  0.0478 -0.4867
 8589SOL    HW237401   4.487   1.003  15.630 -0.4917  1.0102  1.5008
 8590SOL     OW37402   3.017   4.227   8.323  0.2870 -0.1114 -0.0310
 8590SOL    HW137403   2.953   4.186   8.381  0.2146 -0.1375 -0.1284
 8590SOL    HW237404   3.058   4.278   8.393 -0.1532  1.1096 -0.6610
 8591SOL     OW37405   3.290   4.162  11.741 -0.1100 -0.3154  0.5609
 8591SOL    HW137406   3.323   4.129  11.824 -0.0995  0.3193  0.8095
 8591SOL    HW237407   3.308   4.087  11.684  0.3941 -0.5728  1.0655
 8592SOL     OW37408   2.013   3.287   2.915 -0.2614 -0.4625 -0.1001
 8592SOL    HW137409   1.980   3.246   2.834 -0.2159  1.2255 -0.9758
 8592SOL    HW237410   1.935   3.309   2.966  0.2366  0.8893  0.0843
 8593SOL     OW37411   1.057   1.983   5.185 -0.3580 -0.3946 -0.0470
 8593SOL    HW137412   1.110   1.990   5.264  0.1952  2.5666 -0.6960
 8593SOL    HW237413   0.969   1.991   5.223 -0.3905  0.5008 -0.3006
 8594SOL     OW37414   0.290   2.155   7.429 -0.5834 -0.1080  0.3869
 8594SOL    HW137415   0.224   2.198   7.484 -1.6117 -0.1814 -0.8044
 8594SOL    HW237416   0.257   2.067   7.412  0.5102 -0.6808  1.2429
 8595SOL     OW37417   1.749   0.760   8.786 -0.0503  0.4092 -0.2785
 8595SOL    HW137418   1.708   0.771   8.871 -1.5328  1.5423 -1.1292
 8595SOL    HW237419   1.757   0.665   8.780 -0.4739  0.3112  0.7636
 8596SOL     OW37420   0.241   1.361   4.413  0.0564 -0.1969 -0.1380
 8596SOL    HW137421   0.223   1.362   4.507  0.8812 -0.8170  0.0333
 8596SOL    HW237422   0.212   1.448   4.384 -0.2147 -0.1829  0.1705
 8597SOL     OW37423   2.087   2.531   3.620  0.2300 -0.3525  0.2953
 8597SOL    HW137424   2.033   2.511   3.697 -2.9707  1.1891 -1.5644
 8597SOL    HW237425   2.159   2.468   3.622  0.8957  0.4314  1.0345
 8598SOL     OW37426   2.117   0.688  10.975 -0.1844 -0.0855 -0.1491
 8598SOL    HW137427   2.022   0.700  10.986  0.3171  1.9889  1.9471
 8598SOL    HW237428   2.150   0.734  11.052  1.2294  1.9531 -1.9716
 8599SOL     OW37429   4.215   0.006  10.292  0.5901  0.4048 -0.5611
 8599SOL    HW137430   4.289   4.686  10.267  1.5173  1.8602 -1.0278
 8599SOL    HW237431   4.219   0.069  10.220 -2.5707 -1.1930 -2.1324
 8600SOL     OW37432   0.474   3.187   3.092  0.1427  0.3162 -0.0656
 8600SOL    HW137433   0.413   3.150   3.156 -1.4268 -1.6732 -2.7156
 8600SOL    HW237434   0.485   3.112   3.034  0.2881  0.8030 -0.6815
 8601SOL     OW37435   3.937   1.115   1.907  0.7451  0.0230 -0.2416
 8601SOL    HW137436   3.850   1.143   1.880  1.5061  2.5179 -0.1369
 8601SOL    HW237437   3.950   1.169   1.985 -1.0723 -1.9772  1.4668
 8602SOL     OW37438   1.610   2.816   2.869 -0.0353  0.1373  0.3088
 8602SOL    HW137439   1.678   2.759   2.906 -1.6135 -1.3658  0.8578
 8602SOL    HW237440   1.656   2.854   2.794 -2.7982 -2.0214 -2.4618
 8603SOL     OW37441   3.448   3.477   4.153  0.5342  0.2248  0.0190
 8603SOL    HW137442   3.492   3.461   4.237 -1.0973 -1.9003  0.4533
 8603SOL    HW237443   3.353   3.473   4.162  0.5754  0.9235  0.8243
 8604SOL     OW37444   2.942   2.828   9.032  0.4697 -0.5398 -0.1732
 8604SOL    HW137445   2.920   2.805   9.122 -1.1558 -2.7148 -1.1138
 8604SOL    HW237446   2.898   2.912   9.024  1.1671 -0.2226 -0.6919
 8605SOL     OW37447   4.295   1.257   7.918  0.3215 -0.2961  0.5118
 8605SOL    HW137448   4.329   1.270   8.007  3.0661  0.8925 -0.7384
 8605SOL    HW237449   4.369   1.213   7.877  1.0091  1.0595  0.3061
 8606SOL     OW37450   3.391   0.185   2.480 -0.2133 -0.3512  0.4177
 8606SOL    HW137451   3.473   0.142   2.457 -0.3236 -1.1246  1.4246
 8606SOL    HW237452   3.350   0.129   2.547  0.3894  1.2920  2.1523
 8607SOL     OW37453   4.477   1.824   1.600 -0.3440  0.4683 -0.3258
 8607SOL    HW137454   4.423   1.903   1.600  0.3756  0.9586 -0.7064
 8607SOL    HW237455   4.557   1.847   1.553  0.6728 -1.0688  0.6559
 8608SOL     OW37456   4.067   4.061   7.517  0.4783  0.0503  0.5332
 8608SOL    HW137457   3.988   4.103   7.548  0.3402  1.8208 -2.1833
 8608SOL    HW237458   4.106   4.134   7.469 -0.4998  1.9934  2.7325
 8609SOL     OW37459   3.929   3.467   1.274  0.2400 -0.5368 -0.1105
 8609SOL    HW137460   3.876   3.477   1.194 -0.7378  1.9635  0.8529
 8609SOL    HW237461   3.992   3.407   1.234  0.4245 -0.2955 -0.1825
 8610SOL     OW37462   0.924   2.073   9.742 -0.6234 -0.0741  0.1662
 8610SOL    HW137463   0.857   2.050   9.677 -0.4253 -0.5265  0.1179
 8610SOL    HW237464   1.001   2.049   9.691  0.1656  1.2733  0.7400
 8611SOL     OW37465   3.670   0.950   5.613  0.3793 -0.1407 -0.8291
 8611SOL    HW137466   3.743   0.997   5.572  0.9554  0.1386  0.5085
 8611SOL    HW237467   3.709   0.882   5.667 -2.4369 -0.1561  1.1660
 8612SOL     OW37468   2.538   2.232   7.026  0.3033 -0.9315  0.1581
 8612SOL    HW137469   2.514   2.272   7.110 -0.5345 -1.0200 -0.0406
 8612SOL    HW237470   2.583   2.148   7.042 -0.1297 -0.4322  3.9259
 8613SOL     OW37471   3.651   4.477   5.077  0.0363 -0.1533  0.3410
 8613SOL    HW137472   3.659   4.520   5.163 -0.1366  0.2634  0.1481
 8613SOL    HW237473   3.700   4.397   5.097  0.7822  0.3547  0.5534
 8614SOL     OW37474   3.914   2.135   2.720 -0.0741  0.1825  0.4620
 8614SOL    HW137475   3.832   2.163   2.762 -1.0758 -1.4808 -0.3448
 8614SOL    HW237476   3.920   2.046   2.757 -1.3798 -1.2242 -2.6940
 8615SOL     OW37477   1.607   4.633  10.004  0.4586 -0.5439 -0.3119
 8615SOL    HW137478   1.658   4.555  10.023  0.0387 -0.5997  0.5404
 8615SOL    HW237479   1.661   4.703  10.041 -0.7073  1.3685 -2.1725
 8616SOL     OW37480   2.765   1.333   0.698 -0.2729 -0.0783 -0.3388
 8616SOL    HW137481   2.797   1.250   0.662 -0.0668  1.0289 -2.6395
 8616SOL    HW237482   2.709   1.366   0.629 -1.2369 -0.2179  0.3760
 8617SOL     OW37483   3.777   2.441   2.592 -0.1832 -0.4003 -0.3372
 8617SOL    HW137484   3.786   2.476   2.681  1.7332 -3.4049  0.6604
 8617SOL    HW237485   3.832   2.507   2.549  1.3688 -0.4399  1.5890
 8618SOL     OW37486   2.265   1.241  11.647 -0.0070 -0.1226  0.6528
 8618SOL    HW137487   2.183   1.280  11.678  0.0113  0.7116 -0.3391
 8618SOL    HW237488   2.246   1.149  11.630 -1.2035  0.0970  0.7383
 8619SOL     OW37489   2.513   3.915   5.883  0.1903 -0.3091 -0.0307
 8619SOL    HW137490   2.523   3.918   5.978  2.1883 -0.4225 -0.2464
 8619SOL    HW237491   2.572   3.983   5.850 -0.9309  0.4142 -0.5513
 8620SOL     OW37492   0.367   2.714   2.526  0.3225  0.5442 -0.0505
 8620SOL    HW137493   0.428   2.759   2.468  2.0679 -0.3215  1.1278
 8620SOL    HW237494   0.283   2.754   2.500  0.1674  0.5827  0.5130
 8621SOL     OW37495   3.714   2.490   8.517 -0.0498  0.1056  0.0965
 8621SOL    HW137496   3.654   2.423   8.550  0.1051 -0.0134  0.1349
 8621SOL    HW237497   3.663   2.567   8.544  0.5822  0.2067  1.0051
 8622SOL     OW37498   4.626   1.162   7.343 -0.2827  0.4445 -0.0770
 8622SOL    HW137499   4.652   1.122   7.426  1.5513  1.1474 -0.3050
 8622SOL    HW237500   4.573   1.092   7.304 -0.9679  0.2617  1.1821
 8623SOL     OW37501   4.039   0.146   9.660 -0.6904 -0.1654  0.0470
 8623SOL    HW137502   3.958   0.192   9.683 -0.9984 -0.9332  0.5193
 8623SOL    HW237503   4.095   0.223   9.654 -1.7125  0.5103 -0.8291
 8624SOL     OW37504   1.536   0.915   5.613  0.3207  1.0588  0.2744
 8624SOL    HW137505   1.582   0.984   5.662 -5.2284  3.0017  2.7783
 8624SOL    HW237506   1.447   0.948   5.597  0.6026  1.2505 -0.8731
 8625SOL     OW37507   0.627   1.119   1.215  0.2230  0.0525  0.2527
 8625SOL    HW137508   0.614   1.198   1.163 -1.5165 -0.2564  0.2171
 8625SOL    HW237509   0.604   1.159   1.299  1.5506 -0.2093  0.7462
 8626SOL     OW37510   4.699   2.308   4.650 -0.1148 -0.0674  0.4723
 8626SOL    HW137511   4.620   2.353   4.680 -2.1257 -1.7594 -2.1986
 8626SOL    HW237512   4.671   2.217   4.638  2.3963 -0.6141 -1.3370
 8627SOL     OW37513   0.824   3.226   4.148  0.0191  0.4179 -0.5494
 8627SOL    HW137514   0.729   3.222   4.148  0.0458 -0.3471  0.6620
 8627SOL    HW237515   0.840   3.180   4.065  1.1900 -1.8411  0.9022
 8628SOL     OW37516   1.409   0.228   5.968 -0.1430 -0.7884 -0.3107
 8628SOL    HW137517   1.424   0.255   6.059  0.2709 -1.7590 -0.1006
 8628SOL    HW237518   1.499   0.234   5.936 -0.7605 -0.1676 -1.9474
 8629SOL     OW37519   1.922   0.107   2.224  0.0285  0.1812  1.0476
 8629SOL    HW137520   1.987   0.107   2.295  0.0108  1.2996  1.0629
 8629SOL    HW237521   1.891   0.018   2.244 -0.0681 -0.5531 -2.4301
 8630SOL     OW37522   0.748   3.244  12.117 -0.7776 -0.3894  0.8712
 8630SOL    HW137523   0.767   3.310  12.050 -0.0325 -0.4801  0.9960
 8630SOL    HW237524   0.709   3.182  12.055  1.7916  0.2169 -1.3355
 8631SOL     OW37525   4.734   2.636   8.301  0.5420 -0.3437  0.3392
 8631SOL    HW137526   4.643   2.658   8.282  1.0296  0.1012 -1.4844
 8631SOL    HW237527   0.035   2.617   8.214 -0.4759  1.3606 -0.4470
 8632SOL     OW37528   3.311   1.002   7.104  0.1270  0.1239  0.1094
 8632SOL    HW137529   3.352   0.992   7.019 -1.6111 -0.0342 -0.7113
 8632SOL    HW237530   3.369   0.943   7.152 -1.8108 -1.3622  0.6408
 8633SOL     OW37531   0.559   3.494   5.069 -0.0090 -0.6567 -0.2195
 8633SOL    HW137532   0.568   3.501   4.974 -1.1323  0.3465 -0.2508
 8633SOL    HW237533   0.653   3.510   5.083  0.0603 -1.9802  0.8268
 8634SOL     OW37534   4.123   0.147  11.074  0.4267  0.3632  0.1698
 8634SOL    HW137535   4.122   0.240  11.049 -0.7007 -0.0477 -1.3284
 8634SOL    HW237536   4.091   0.152  11.164 -1.8537  0.4791 -0.6326
 8635SOL     OW37537   3.529   0.286   6.663  0.0164 -0.2461 -0.0379
 8635SOL    HW137538   3.520   0.191   6.657  1.9800 -0.5346  1.4271
 8635SOL    HW237539   3.596   0.297   6.731 -0.0224 -1.2037  0.1511
 8636SOL     OW37540   0.591   0.129  17.340 -0.2060  0.0836  0.0300
 8636SOL    HW137541   0.681   0.161  17.342  0.4528 -1.8239  1.3834
 8636SOL    HW237542   0.596   0.099  17.431  1.3745  1.5513  0.4286
 8637SOL     OW37543   4.326   4.383   2.861  0.1968 -0.5404 -0.1239
 8637SOL    HW137544   4.348   4.348   2.775 -0.9764 -3.7068  0.8425
 8637SOL    HW237545   4.260   4.448   2.836 -0.6152 -1.0520  0.6614
 8638SOL     OW37546   4.038   1.942   6.143 -0.0998 -0.0979 -0.3180
 8638SOL    HW137547   4.006   2.009   6.203  2.4926 -0.4236  1.4722
 8638SOL    HW237548   3.954   1.906   6.116 -0.3876 -0.8727  1.5807
 8639SOL     OW37549   3.488   2.846   3.929  0.3623  1.0438  0.7511
 8639SOL    HW137550   3.574   2.840   3.972 -0.3805 -0.4335  2.0299
 8639SOL    HW237551   3.506   2.912   3.862 -1.8616 -0.1508 -1.0257
 8640SOL     OW37552   2.119   1.265   0.316  0.1693  0.1234 -0.6633
 8640SOL    HW137553   2.056   1.319   0.268 -1.1344 -0.6439  0.2041
 8640SOL    HW237554   2.073   1.247   0.397  2.4654  0.4994  0.7190
 8641SOL     OW37555   4.519   3.392   7.649 -0.1047 -0.2858  0.6553
 8641SOL    HW137556   4.599   3.415   7.695  0.4182 -0.5953 -0.1144
 8641SOL    HW237557   4.506   3.454   7.578 -2.1822 -0.7803  0.5981
 8642SOL     OW37558   4.256   3.666   6.200 -0.1552  0.3241 -0.0513
 8642SOL    HW137559   4.172   3.692   6.162  0.8983  2.4065 -0.9340
 8642SOL    HW237560   4.229   3.614   6.276  0.1263 -0.8272 -0.7308
 8643SOL     OW37561   1.770   0.724   8.112  0.0939 -0.5528 -0.7015
 8643SOL    HW137562   1.753   0.772   8.030 -1.5272 -0.4541 -0.3133
 8643SOL    HW237563   1.771   0.632   8.084 -0.1131 -1.4581  2.2589
 8644SOL     OW37564   2.106   2.358   8.799 -0.0772  0.4536  0.5789
 8644SOL    HW137565   2.048   2.388   8.729  1.5991 -2.6281 -2.1127
 8644SOL    HW237566   2.179   2.316   8.753 -0.5779 -0.6602  0.7985
 8645SOL     OW37567   2.877   3.855   3.378  0.1393  0.0664  0.7187
 8645SOL    HW137568   2.861   3.904   3.458 -0.6169  0.2920  0.4276
 8645SOL    HW237569   2.951   3.799   3.399  1.0670  0.9548 -0.1453
 8646SOL     OW37570   0.230   3.925   6.868  0.3205 -0.1801 -0.0853
 8646SOL    HW137571   0.293   3.912   6.939 -0.4062 -1.4180  0.3505
 8646SOL    HW237572   0.236   4.020   6.865  0.3754 -0.1866 -0.1794
 8647SOL     OW37573   0.410   1.432   2.484 -0.0981  0.4762 -0.3147
 8647SOL    HW137574   0.499   1.467   2.483 -0.0563  0.3175 -1.7185
 8647SOL    HW237575   0.425   1.338   2.496  0.9909  0.5961 -0.8041
 8648SOL     OW37576   4.250   2.841   6.478 -0.1263  0.4011 -0.6125
 8648SOL    HW137577   4.330   2.809   6.436  1.3860  1.1093  1.7400
 8648SOL    HW237578   4.222   2.766   6.531  3.3756 -0.8806 -0.5535
 8649SOL     OW37579   2.481   0.561   5.558  0.2474 -0.4229 -0.1789
 8649SOL    HW137580   2.571   0.528   5.560  0.7066  0.9211  1.3113
 8649SOL    HW237581   2.497   0.643   5.512 -1.1467 -0.3623 -0.5571
 8650SOL     OW37582   1.963   3.771   7.471  0.3972  0.7152 -0.7440
 8650SOL    HW137583   1.993   3.790   7.382  2.6145  0.0059 -0.1431
 8650SOL    HW237584   1.940   3.857   7.508 -3.7944 -2.2310  3.4043
 8651SOL     OW37585   3.098   1.481   6.010 -0.0303 -0.3920  0.3813
 8651SOL    HW137586   3.090   1.486   6.105  0.6255 -0.5327  0.4460
 8651SOL    HW237587   3.076   1.571   5.989  2.5237  0.1150 -0.1388
 8652SOL     OW37588   2.387   4.031   2.698 -0.0807 -0.1513 -0.0260
 8652SOL    HW137589   2.470   4.061   2.734  0.0379  1.4874 -1.6799
 8652SOL    HW237590   2.405   4.014   2.605 -0.1492  2.7532 -0.5543
 8653SOL     OW37591   0.267   1.341   5.203  0.8967  0.3403 -0.2209
 8653SOL    HW137592   0.357   1.374   5.201  0.1793  2.4267  1.4483
 8653SOL    HW237593   0.220   1.424   5.209  0.7362  0.3140 -1.1755
 8654SOL     OW37594   2.274   0.345   1.346 -0.1506  0.8188 -0.1166
 8654SOL    HW137595   2.224   0.263   1.348 -0.8806  1.3182  1.6491
 8654SOL    HW237596   2.332   0.333   1.421 -0.7460 -1.1086  0.0508
 8655SOL     OW37597   3.729   2.283  14.854 -0.0217 -0.5228  0.9882
 8655SOL    HW137598   3.788   2.243  14.789 -0.2961  1.7740 -0.6691
 8655SOL    HW237599   3.687   2.353  14.804  0.5578 -0.4385  0.6188
 8656SOL     OW37600   4.239   0.281  14.700  0.0267 -0.2988 -0.4561
 8656SOL    HW137601   4.274   0.369  14.716 -1.1619  0.2367 -0.8006
 8656SOL    HW237602   4.231   0.294  14.605 -1.1089 -1.4878 -0.5307
 8657SOL     OW37603   1.664   4.119  10.471  0.1861  0.6786  0.0853
 8657SOL    HW137604   1.659   4.206  10.511 -2.5319 -0.1337  1.5046
 8657SOL    HW237605   1.573   4.095  10.460  0.4247 -0.6420  0.9533
 8658SOL     OW37606   4.391   1.602   5.326  0.1507 -0.4593  0.4330
 8658SOL    HW137607   4.471   1.550   5.320  0.4902 -0.0465  1.3726
 8658SOL    HW237608   4.361   1.574   5.412 -0.0658 -2.6888 -0.3803
 8659SOL     OW37609   1.308   1.107   1.661 -0.0220 -0.3912 -0.0353
 8659SOL    HW137610   1.283   1.195   1.689  0.5240 -0.4212  0.5346
 8659SOL    HW237611   1.376   1.084   1.724  1.0961  0.6659 -0.8566
 8660SOL     OW37612   1.771   2.842  13.155  0.3280  0.5509 -0.0861
 8660SOL    HW137613   1.828   2.777  13.196  0.4636 -1.7795 -3.9940
 8660SOL    HW237614   1.777   2.808  13.066 -0.7782 -0.1667  0.1026
 8661SOL     OW37615   3.119   4.292   4.727  0.1253 -0.2211  0.4081
 8661SOL    HW137616   3.152   4.374   4.764  0.1218  0.3857 -0.9674
 8661SOL    HW237617   3.106   4.246   4.810 -4.0355 -0.0486 -0.1827
 8662SOL     OW37618   4.289   1.371   1.599  0.8012 -0.5198  0.3900
 8662SOL    HW137619   4.234   1.448   1.614 -0.2941 -1.0866 -0.7168
 8662SOL    HW237620   4.242   1.299   1.640  2.5001  0.8518  4.6589
 8663SOL     OW37621   2.246   3.694   0.155  0.3689 -0.3961 -0.1870
 8663SOL    HW137622   2.296   3.659   0.081  0.0818  0.8976 -0.9852
 8663SOL    HW237623   2.174   3.732   0.104 -0.6349 -1.6482  0.2883
 8664SOL     OW37624   2.058   3.196  13.091 -0.2297 -0.0023 -0.4504
 8664SOL    HW137625   2.080   3.146  13.170 -3.5724 -0.3655  0.2795
 8664SOL    HW237626   2.143   3.240  13.082 -1.3282  2.1108 -0.5966
 8665SOL     OW37627   1.109   0.353   3.130 -1.2032 -0.0015  0.3046
 8665SOL    HW137628   1.023   0.332   3.093 -0.8418 -0.2453 -0.3883
 8665SOL    HW237629   1.145   0.398   3.054 -0.9457 -0.6168  0.0634
 8666SOL     OW37630   1.516   0.957  14.332  0.1652 -0.0645 -0.1011
 8666SOL    HW137631   1.430   0.940  14.293  0.8654  0.1992 -1.7548
 8666SOL    HW237632   1.567   0.881  14.303  0.6628 -0.4109  1.7182
 8667SOL     OW37633   3.919   1.073  16.105  0.0745  0.1574 -0.0871
 8667SOL    HW137634   3.858   1.061  16.178  0.7167 -0.6095  0.3084
 8667SOL    HW237635   3.993   1.115  16.148  0.2113  0.4601 -0.6095
 8668SOL     OW37636   4.606   1.539   0.086 -0.1797 -0.0230 -0.7307
 8668SOL    HW137637   4.514   1.539   0.111 -0.8095 -0.0778 -2.9996
 8668SOL    HW237638   4.601   1.494   0.002 -1.2243 -0.1341 -0.6055
 8669SOL     OW37639   3.952   0.594   4.141  0.1149  0.5635  0.3266
 8669SOL    HW137640   4.027   0.650   4.123 -0.9563  1.2559 -1.9988
 8669SOL    HW237641   3.878   0.656   4.147 -0.0706  0.3588  0.1621
 8670SOL     OW37642   4.704   3.501   6.796 -0.2824 -0.1091 -0.5471
 8670SOL    HW137643   4.613   3.514   6.771 -0.1896 -1.7158 -1.7589
 8670SOL    HW237644   4.695   3.489   6.891 -2.7656  0.1982 -0.7501
 8671SOL     OW37645   1.750   0.023   1.297  1.0187  0.4073 -0.6311
 8671SOL    HW137646   1.821   0.083   1.274 -0.6848  1.6144 -2.7255
 8671SOL    HW237647   1.712   0.009   1.210 -1.3071  0.4096  0.3852
 8672SOL     OW37648   2.108   1.187   4.115  0.3550 -0.4615  0.1732
 8672SOL    HW137649   2.166   1.158   4.045 -0.9097  0.0473 -1.0790
 8672SOL    HW237650   2.058   1.106   4.121  0.0651 -0.3148 -0.2774
 8673SOL     OW37651   4.077   3.636   2.891 -0.3381 -0.4724 -0.1360
 8673SOL    HW137652   4.114   3.586   2.964  0.8220  0.5919  0.0112
 8673SOL    HW237653   4.148   3.620   2.830 -1.1496  0.7235 -1.3888
 8674SOL     OW37654   0.854   3.545   8.316 -0.8119  0.0780  0.0611
 8674SOL    HW137655   0.925   3.530   8.254  0.0578 -1.0027  1.3347
 8674SOL    HW237656   0.888   3.508   8.397  1.6933 -1.9579 -1.9284
 8675SOL     OW37657   0.566   2.641   9.758 -0.2715  0.0149  0.1165
 8675SOL    HW137658   0.657   2.670   9.761 -0.4969  0.6869  0.3646
 8675SOL    HW237659   0.525   2.668   9.840  0.1417 -0.2790  0.4217
 8676SOL     OW37660   0.933   0.984   2.282 -0.1633 -0.2307 -0.4662
 8676SOL    HW137661   0.953   1.059   2.225  0.1924  0.2324  0.2782
 8676SOL    HW237662   0.884   1.026   2.352 -0.1732  1.3598 -1.4233
 8677SOL     OW37663   3.900   1.553   1.966  0.0145 -0.3796  0.1179
 8677SOL    HW137664   3.817   1.568   1.920  0.4997 -0.0398 -0.6546
 8677SOL    HW237665   3.901   1.624   2.030 -0.1913  0.7098 -1.0771
 8678SOL     OW37666   1.592   2.301  15.396 -0.1740  0.0833 -0.4270
 8678SOL    HW137667   1.585   2.220  15.346  3.0995  0.4040 -1.4387
 8678SOL    HW237668   1.607   2.264  15.484  1.6362 -0.2602 -0.8733
 8679SOL     OW37669   3.960   2.101   1.725  0.1742 -0.5517 -0.0143
 8679SOL    HW137670   3.903   2.114   1.801 -1.5598  0.3433 -1.4534
 8679SOL    HW237671   3.906   2.077   1.650 -0.0291  0.6223 -0.2372
 8680SOL     OW37672   3.368   1.795  14.959  0.0226  0.1761 -0.0011
 8680SOL    HW137673   3.346   1.734  14.889  2.2768  1.0831 -1.4982
 8680SOL    HW237674   3.458   1.822  14.942 -0.9099  0.8103 -3.9276
 8681SOL     OW37675   1.602   4.417   8.000 -0.2897 -0.0490 -0.1356
 8681SOL    HW137676   1.587   4.381   7.912 -2.0403  0.8797 -0.2240
 8681SOL    HW237677   1.544   4.362   8.052 -0.2850 -1.6580 -1.8141
 8682SOL     OW37678   1.310   2.457  10.226 -0.2344 -0.1132  0.4185
 8682SOL    HW137679   1.340   2.381  10.275  2.5853  0.7962  0.1135
 8682SOL    HW237680   1.215   2.446  10.224 -0.3216  0.6451  0.0308
 8683SOL     OW37681   1.850   3.998   3.646 -0.4404 -0.2397  0.2997
 8683SOL    HW137682   1.857   4.092   3.632  1.5490 -0.1898  1.6330
 8683SOL    HW237683   1.898   3.959   3.573 -0.7668  2.3573 -1.2987
 8684SOL     OW37684   2.306   1.453   1.928  0.5078  0.3833 -0.0560
 8684SOL    HW137685   2.269   1.372   1.892 -1.9529  1.2911  0.4314
 8684SOL    HW237686   2.231   1.511   1.916  0.5001  0.6115  1.0609
 8685SOL     OW37687   3.883   1.821   7.339 -0.4301 -0.4128 -0.6616
 8685SOL    HW137688   3.850   1.732   7.332 -0.4794 -0.3405 -1.3655
 8685SOL    HW237689   3.812   1.870   7.298 -0.1158  1.3862  0.9369
 8686SOL     OW37690   3.652   0.728  10.738  0.2470  0.5700  0.1294
 8686SOL    HW137691   3.568   0.707  10.780 -0.4017  0.6041 -1.1428
 8686SOL    HW237692   3.690   0.640  10.734 -1.5840 -0.1052 -2.0079
 8687SOL     OW37693   2.758   0.067   5.117  0.3622  0.2363 -0.1694
 8687SOL    HW137694   2.829   0.099   5.062  0.4957 -1.2371 -0.8623
 8687SOL    HW237695   2.778   0.117   5.196  1.1013  1.4105 -1.1076
 8688SOL     OW37696   1.046   1.864   9.141  0.0288  0.0146 -0.5544
 8688SOL    HW137697   1.136   1.895   9.134 -0.8518  1.7142 -3.8044
 8688SOL    HW237698   1.062   1.803   9.214  0.9222  0.3807 -0.4394
 8689SOL     OW37699   0.065   0.664  17.162 -0.3800 -0.3909  0.0694
 8689SOL    HW137700   0.143   0.608  17.163  0.1627  0.3429 -1.2131
 8689SOL    HW237701   0.058   0.703  17.249 -0.8071 -2.2292  0.8501
 8690SOL     OW37702   1.522   4.537   3.541  0.2484  0.5979 -1.0122
 8690SOL    HW137703   1.430   4.525   3.564  1.3369 -1.6114  2.1633
 8690SOL    HW237704   1.531   4.627   3.572  0.1590  0.1602  0.2878
 8691SOL     OW37705   2.502   2.787  14.719 -0.6176 -0.3835 -0.5929
 8691SOL    HW137706   2.472   2.703  14.684  1.6863 -1.1421 -0.7419
 8691SOL    HW237707   2.443   2.782  14.794  0.4687  1.2209  0.3701
 8692SOL     OW37708   2.563   4.035  10.389 -0.8106  0.3412 -0.0772
 8692SOL    HW137709   2.617   3.977  10.443  0.7488  1.2665 -0.6282
 8692SOL    HW237710   2.571   4.119  10.434 -0.2096 -0.4383  1.2680
 8693SOL     OW37711   4.084   1.912   3.291  0.8505 -0.0244 -0.4339
 8693SOL    HW137712   4.055   1.949   3.374 -0.0803 -1.5544 -0.0735
 8693SOL    HW237713   4.161   1.964   3.269  1.5587 -1.7039 -1.9490
 8694SOL     OW37714   2.803   4.047   5.656 -0.6786  0.3048  0.6048
 8694SOL    HW137715   2.775   3.988   5.586 -1.4747 -1.4398  2.3867
 8694SOL    HW237716   2.759   4.131   5.645 -1.5070 -0.1053  0.7877
 8695SOL     OW37717   0.037   3.238   2.361 -0.4115 -0.2718  0.0835
 8695SOL    HW137718   4.701   3.206   2.306  2.0087  1.0898 -3.8052
 8695SOL    HW237719   0.082   3.299   2.302 -2.6350  1.2314 -0.0594
 8696SOL     OW37720   2.595   0.809   7.359 -0.1826  0.5968 -0.5421
 8696SOL    HW137721   2.552   0.857   7.288  0.4616  1.4060 -0.3911
 8696SOL    HW237722   2.589   0.724   7.316 -0.0072  1.4119 -2.2146
 8697SOL     OW37723   2.923   2.789  10.609 -0.1895 -0.2655  0.3654
 8697SOL    HW137724   2.897   2.786  10.517  2.3007 -0.4163 -0.3393
 8697SOL    HW237725   2.967   2.874  10.622  1.2846 -1.2641  1.8750
 8698SOL     OW37726   4.399   4.189  17.108  0.0301  0.1333 -0.0809
 8698SOL    HW137727   4.430   4.175  17.197 -1.6408 -0.0341  0.4716
 8698SOL    HW237728   4.388   4.284  17.113 -0.5830  0.1058 -0.8352
 8699SOL     OW37729   1.398   1.338   2.910  0.0705 -0.4288  0.8553
 8699SOL    HW137730   1.426   1.399   2.978  0.8540 -0.5374  0.6307
 8699SOL    HW237731   1.431   1.387   2.834 -2.0571  0.1796  0.3404
 8700SOL     OW37732   1.752   3.197   9.978  0.1373 -0.2123  0.2143
 8700SOL    HW137733   1.832   3.144   9.982  0.0433 -0.3364  0.4146
 8700SOL    HW237734   1.729   3.176   9.887 -3.1533  0.8785  0.7962
 8701SOL     OW37735   4.368   0.128  11.561 -0.5389 -0.3089 -0.2895
 8701SOL    HW137736   4.392   0.044  11.600  1.0980  0.0461 -0.5428
 8701SOL    HW237737   4.275   0.122  11.540 -0.7978  1.1554  0.4599
 8702SOL     OW37738   2.458   4.658   1.927  0.0099 -0.0732 -0.5203
 8702SOL    HW137739   2.400   4.582   1.934  0.4073 -0.2257  1.0527
 8702SOL    HW237740   2.427   4.708   1.850  0.1825  1.0501  0.1403
 8703SOL     OW37741   3.733   1.731   5.075 -0.6810  0.1222  0.5339
 8703SOL    HW137742   3.652   1.775   5.047 -2.6079 -3.0831  1.1266
 8703SOL    HW237743   3.752   1.772   5.159 -0.6359 -0.3755  0.7608
 8704SOL     OW37744   4.267   4.675   2.876  0.4427 -0.0155  0.1573
 8704SOL    HW137745   4.278   4.703   2.785  2.3739  0.3213  0.4851
 8704SOL    HW237746   4.358   4.673   2.908  0.8279  1.3209 -0.8393
 8705SOL     OW37747   4.253   4.355   8.605  0.0241 -0.6577  0.5893
 8705SOL    HW137748   4.304   4.276   8.585  1.0458 -0.5006  2.4852
 8705SOL    HW237749   4.302   4.389   8.680  0.5888 -1.6116  0.6651
 8706SOL     OW37750   2.297   2.710  14.863 -0.0500  0.3293 -0.0872
 8706SOL    HW137751   2.211   2.734  14.829 -0.1907  0.8073  0.6081
 8706SOL    HW237752   2.285   2.630  14.914  1.8321 -1.0275 -1.7676
 8707SOL     OW37753   4.410   2.380  12.850 -0.7143 -0.2943  0.0718
 8707SOL    HW137754   4.473   2.312  12.824 -0.3533 -0.8034  2.1863
 8707SOL    HW237755   4.333   2.344  12.806  0.3694 -0.6916 -1.4961
 8708SOL     OW37756   4.468   4.193   2.344  0.1735 -0.0248  0.0841
 8708SOL    HW137757   4.562   4.172   2.340  0.4674  1.3189 -0.1447
 8708SOL    HW237758   4.444   4.186   2.252  3.1328 -0.2574 -0.6946
 8709SOL     OW37759   3.075   0.796   3.971  0.5601  0.0314 -0.1185
 8709SOL    HW137760   3.069   0.849   3.891  1.4864  0.1816 -0.0911
 8709SOL    HW237761   3.157   0.754   3.945  1.1898  1.2399 -0.0597
 8710SOL     OW37762   3.842   4.639  14.110  0.6054  0.3317  0.3202
 8710SOL    HW137763   3.763   4.597  14.146 -0.6714 -0.8593 -3.8557
 8710SOL    HW237764   3.829   4.641  14.016 -0.1505  3.3300  0.4762
 8711SOL     OW37765   3.159   0.918   5.096  0.2831 -0.8158  0.3391
 8711SOL    HW137766   3.215   0.841   5.102 -1.6252 -2.2144  0.5337
 8711SOL    HW237767   3.214   0.995   5.080  0.9614 -1.3542  0.1237
 8712SOL     OW37768   1.949   0.527   1.106 -0.4510  0.1505 -0.0821
 8712SOL    HW137769   1.874   0.550   1.052 -0.3712  0.9806  0.1582
 8712SOL    HW237770   1.906   0.510   1.190 -1.1684 -0.5021 -0.5822
 8713SOL     OW37771   3.400   0.645  10.865  0.1583 -0.3252 -0.2969
 8713SOL    HW137772   3.373   0.683  10.949  0.1544 -1.5355  0.2409
 8713SOL    HW237773   3.383   0.551  10.876 -1.2143  0.1931  2.1719
 8714SOL     OW37774   3.180   0.112   5.468 -0.1159  0.1802  0.4620
 8714SOL    HW137775   3.166   0.148   5.556 -2.7040  0.5908 -0.1312
 8714SOL    HW237776   3.254   0.053   5.484  0.5458  1.0065  0.4901
 8715SOL     OW37777   1.016   0.430   2.455  0.4574  0.1820 -0.1577
 8715SOL    HW137778   1.046   0.409   2.367  2.0304 -0.0773  0.4408
 8715SOL    HW237779   1.016   0.526   2.452 -1.2527  0.2138  0.8458
 8716SOL     OW37780   4.565   2.741  10.781  0.5556 -0.1262  0.1289
 8716SOL    HW137781   4.568   2.649  10.807  1.2267  0.0518  0.6466
 8716SOL    HW237782   4.627   2.794  10.830 -0.0737  0.8482 -0.1109
 8717SOL     OW37783   4.387   2.095   1.320  0.0089  0.3102 -0.1260
 8717SOL    HW137784   4.315   2.126   1.375 -0.7344  1.1305 -1.5577
 8717SOL    HW237785   4.338   2.082   1.239 -0.4658  0.1595  0.1848
 8718SOL     OW37786   2.964   3.975   2.061  0.2649 -0.3731  0.0732
 8718SOL    HW137787   2.921   4.027   2.129 -0.8249 -1.8469  0.4934
 8718SOL    HW237788   3.056   4.001   2.072  0.3674 -0.0314 -1.6004
 8719SOL     OW37789   3.642   1.271   6.439 -0.6422  0.3354  0.4183
 8719SOL    HW137790   3.551   1.297   6.454 -0.1174  1.0189  2.4042
 8719SOL    HW237791   3.625   1.217   6.362  0.7832  1.0341 -0.3790
 8720SOL     OW37792   1.953   1.285   6.485  0.1498 -0.3133 -0.7064
 8720SOL    HW137793   2.003   1.212   6.450  1.6354  0.2537  0.2239
 8720SOL    HW237794   1.969   1.335   6.405  2.4391 -0.7087 -0.5133
 8721SOL     OW37795   0.129   4.367  15.328  0.1044 -0.3706  0.4005
 8721SOL    HW137796   0.138   4.429  15.401  1.2563 -1.6668  1.3494
 8721SOL    HW237797   0.052   4.400  15.282  0.5745  1.7916  1.1640
 8722SOL     OW37798   0.791   3.443   7.725  0.3041  0.0116  0.5439
 8722SOL    HW137799   0.769   3.391   7.802  0.9106 -0.3659  0.4661
 8722SOL    HW237800   0.792   3.380   7.653 -2.3601  1.1048 -0.4253
 8723SOL     OW37801   1.397   1.434  17.440  0.3796  0.1550 -0.3853
 8723SOL    HW137802   1.317   1.433  17.388  0.2184 -0.3345 -0.1344
 8723SOL    HW237803   1.458   1.427  17.367 -1.6824 -1.4499 -1.9626
 8724SOL     OW37804   1.413   2.163   7.820 -0.6487 -0.0780  0.7937
 8724SOL    HW137805   1.403   2.152   7.725  0.5126  1.8085  0.4539
 8724SOL    HW237806   1.339   2.220   7.839 -1.0643  0.0279 -1.1379
 8725SOL     OW37807   3.033   0.803   4.276 -0.2048 -0.2201  0.0472
 8725SOL    HW137808   3.077   0.876   4.231 -0.8496 -0.7990 -1.5295
 8725SOL    HW237809   3.080   0.801   4.360 -1.2899 -2.3875  0.5890
 8726SOL     OW37810   0.414   0.891   3.786 -0.0932 -0.0246 -0.1650
 8726SOL    HW137811   0.382   0.810   3.826  0.7357 -0.5408 -0.5440
 8726SOL    HW237812   0.502   0.867   3.757  0.5272  1.3193  0.6269
 8727SOL     OW37813   0.730   2.480  10.068  0.1184 -0.4711 -0.3894
 8727SOL    HW137814   0.652   2.527  10.038  0.0862 -0.4447 -0.2626
 8727SOL    HW237815   0.749   2.532  10.146 -0.1157 -2.9510  1.2819
 8728SOL     OW37816   2.551   4.537   6.803 -0.6265  0.2739 -0.1736
 8728SOL    HW137817   2.550   4.567   6.712 -1.1966  1.6715  0.2942
 8728SOL    HW237818   2.542   4.619   6.851 -0.0363 -0.0323  0.4686
 8729SOL     OW37819   1.920   0.235   1.286 -0.3348 -0.5330 -0.1610
 8729SOL    HW137820   1.967   0.300   1.339  0.0033  1.1875 -2.5847
 8729SOL    HW237821   1.831   0.258   1.313 -0.8981 -0.7299 -1.8682
 8730SOL     OW37822   2.334   3.934   5.034 -0.3855  0.1994  0.1567
 8730SOL    HW137823   2.324   3.891   5.119 -0.9124 -0.3904 -0.2057
 8730SOL    HW237824   2.245   3.922   5.000 -1.0243 -0.2340  1.9536
 8731SOL     OW37825   3.965   1.441   0.621  0.3948  0.4280 -0.2695
 8731SOL    HW137826   3.945   1.498   0.548  0.1513  1.6766  0.7782
 8731SOL    HW237827   3.910   1.472   0.693 -0.1797 -0.5390 -0.2890
 8732SOL     OW37828   3.349   0.247  12.590  0.1972  0.3363 -0.6952
 8732SOL    HW137829   3.278   0.184  12.578  0.7953 -0.1811 -1.5285
 8732SOL    HW237830   3.309   0.287  12.667  2.6500  0.6215  0.4300
 8733SOL     OW37831   2.870   3.294   5.521  0.3399  0.7412 -0.4940
 8733SOL    HW137832   2.802   3.333   5.577 -0.5896 -0.9528 -0.4337
 8733SOL    HW237833   2.840   3.335   5.440 -0.9011 -1.4933 -1.1577
 8734SOL     OW37834   2.592   4.044   6.141  0.5591  0.3136  0.3423
 8734SOL    HW137835   2.686   4.060   6.152  0.9073 -1.3797 -0.0649
 8734SOL    HW237836   2.572   3.990   6.218  0.5858 -0.9269 -0.5202
 8735SOL     OW37837   3.347   0.008   3.578  0.1335  0.0754  0.9822
 8735SOL    HW137838   3.374   0.100   3.575 -0.5977  0.2994  1.1873
 8735SOL    HW237839   3.265   0.014   3.629 -0.3509  1.9245 -0.0243
 8736SOL     OW37840   0.541   2.896   2.389 -0.2904  0.1580  0.2854
 8736SOL    HW137841   0.595   2.936   2.457  0.8290 -0.4891 -0.2163
 8736SOL    HW237842   0.538   2.964   2.323  1.6525  0.8659  0.9427
 8737SOL     OW37843   0.473   0.416   5.361  0.4526 -0.0803  0.3694
 8737SOL    HW137844   0.539   0.481   5.334 -1.0865  1.1174 -0.4789
 8737SOL    HW237845   0.516   0.382   5.439 -0.2381 -0.9093  0.3925
 8738SOL     OW37846   1.567   1.106   1.789 -0.3577 -0.2487 -0.3043
 8738SOL    HW137847   1.579   1.191   1.748 -0.1119  0.8553  2.0795
 8738SOL    HW237848   1.653   1.088   1.828 -0.3066  0.5464 -0.0514
 8739SOL     OW37849   4.296   0.304   9.682 -0.1735  0.1130 -0.3231
 8739SOL    HW137850   4.378   0.344   9.652  0.2342 -1.0632 -0.7664
 8739SOL    HW237851   4.318   0.216   9.711 -1.5961  0.4267  1.6706
 8740SOL     OW37852   2.160   3.768   6.230  0.4425  0.1195 -0.0223
 8740SOL    HW137853   2.153   3.685   6.277  2.0217  1.2427  2.1910
 8740SOL    HW237854   2.072   3.805   6.224  0.3785  0.1245  1.0435
 8741SOL     OW37855   3.497   0.507   5.851 -0.2195 -0.2379 -0.2693
 8741SOL    HW137856   3.451   0.483   5.931  0.9505  0.6395  0.6451
 8741SOL    HW237857   3.572   0.545   5.897 -0.5635  0.6846 -0.4622
 8742SOL     OW37858   1.243   0.037   0.689  0.1755  0.2233  0.8852
 8742SOL    HW137859   1.251   0.133   0.688 -0.2236  0.2437 -2.0519
 8742SOL    HW237860   1.175   0.003   0.747 -1.6368  0.2387 -1.1965
 8743SOL     OW37861   2.254   4.605   3.271  0.5235 -0.1570  0.3611
 8743SOL    HW137862   2.222   4.670   3.209  1.3367 -0.1843 -0.0926
 8743SOL    HW237863   2.221   4.531   3.220 -1.9227  1.3337 -0.1856
 8744SOL     OW37864   0.273   4.425   9.591  0.2932  0.6071  0.1171
 8744SOL    HW137865   0.244   4.359   9.528 -0.0530 -1.9979  3.0624
 8744SOL    HW237866   0.251   4.512   9.557  0.3961  0.2878 -0.7814
 8745SOL     OW37867   0.475   4.687   3.392 -0.1022  0.1781  0.3351
 8745SOL    HW137868   0.463   4.596   3.416 -0.4138 -0.3348 -1.8157
 8745SOL    HW237869   0.540   4.714   3.458 -0.7926  2.6116  0.0148
 8746SOL     OW37870   1.990   3.148   3.605  0.3995  0.2179 -0.2618
 8746SOL    HW137871   1.949   3.212   3.664  0.5679  1.6046 -1.6470
 8746SOL    HW237872   2.077   3.142   3.645 -0.3651  2.6760  1.7861
 8747SOL     OW37873   1.441   1.787  11.720  0.6086  0.3454 -0.2770
 8747SOL    HW137874   1.474   1.864  11.674 -0.6558  1.2384  0.2998
 8747SOL    HW237875   1.515   1.774  11.779  2.1959 -0.7671 -2.5039
 8748SOL     OW37876   4.343   0.320   2.203 -0.2110 -0.1524 -0.0069
 8748SOL    HW137877   4.406   0.354   2.267 -0.3386 -2.5062  1.3546
 8748SOL    HW237878   4.389   0.346   2.122  1.8105 -0.4054  1.0531
 8749SOL     OW37879   1.361   1.718   2.274  0.3840 -0.1232 -0.0762
 8749SOL    HW137880   1.312   1.636   2.264 -0.9170  0.5732  0.5432
 8749SOL    HW237881   1.294   1.772   2.316 -0.6437 -0.4444 -1.3165
 8750SOL     OW37882   2.373   4.020   8.311  0.7080  0.9153 -0.2974
 8750SOL    HW137883   2.433   3.961   8.358  0.8885  1.7026  0.4743
 8750SOL    HW237884   2.379   4.099   8.366  0.5553  1.9238 -1.7327
 8751SOL     OW37885   3.429   0.753   6.206 -0.1364  0.9742  0.3525
 8751SOL    HW137886   3.360   0.810   6.174 -0.3600  0.9540  0.8003
 8751SOL    HW237887   3.479   0.832   6.229  0.2241  1.2499 -1.3421
 8752SOL     OW37888   3.450   3.436   4.685 -0.1970 -0.5689  0.1350
 8752SOL    HW137889   3.420   3.380   4.756 -2.6563  1.0688  0.4070
 8752SOL    HW237890   3.362   3.471   4.672 -0.7487 -1.6244  1.1040
 8753SOL     OW37891   3.591   3.080   5.071 -0.3952 -0.7578  0.4620
 8753SOL    HW137892   3.557   2.999   5.110  1.6437 -2.4140 -1.1578
 8753SOL    HW237893   3.675   3.042   5.044  0.5307 -0.5538  3.0217
 8754SOL     OW37894   1.126   1.997   0.855  0.3410 -0.1622 -0.0781
 8754SOL    HW137895   1.209   1.951   0.868  1.0924  1.4336  0.6929
 8754SOL    HW237896   1.084   1.916   0.827  0.6598  0.2530 -1.7793
 8755SOL     OW37897   1.798   0.005   7.971  0.3612 -0.2561 -0.6827
 8755SOL    HW137898   1.780   4.705   7.883 -0.0770 -2.0654  0.1162
 8755SOL    HW237899   1.866   0.068   7.946 -1.9796  2.2825 -0.5836
 8756SOL     OW37900   4.369   3.845   6.894 -0.3271  0.2070 -0.6024
 8756SOL    HW137901   4.352   3.761   6.935  0.0566 -0.2076 -1.2882
 8756SOL    HW237902   4.431   3.882   6.957 -0.1259 -0.0637 -0.6441
 8757SOL     OW37903   2.005   2.751   5.027 -0.4777  0.1748  0.1902
 8757SOL    HW137904   2.046   2.683   5.081  3.1921  0.7692 -1.8118
 8757SOL    HW237905   1.959   2.695   4.964 -0.3850 -1.2024  1.3476
 8758SOL     OW37906   1.235   1.974   1.719  0.1207  0.5934  0.1178
 8758SOL    HW137907   1.250   2.039   1.650  3.8281 -1.3872 -0.9345
 8758SOL    HW237908   1.273   2.011   1.799  1.5260 -1.1661  0.2630
 8759SOL     OW37909   3.623   4.585   5.320  0.2237 -0.4808 -0.0679
 8759SOL    HW137910   3.652   4.662   5.369  0.4942  0.0950 -1.1350
 8759SOL    HW237911   3.629   4.510   5.379 -2.8459 -1.0584 -0.5046
 8760SOL     OW37912   3.932   0.290   5.652  0.4555  0.0329  0.0440
 8760SOL    HW137913   4.016   0.333   5.637  0.5559 -1.1549 -2.8947
 8760SOL    HW237914   3.877   0.356   5.610  1.6494 -0.7006 -2.6900
 8761SOL     OW37915   0.133   0.278   8.939  0.0011  0.2399  0.2455
 8761SOL    HW137916   0.050   0.323   8.924 -0.3378 -0.0706  1.2204
 8761SOL    HW237917   0.182   0.333   9.000  3.4366 -0.5246 -1.8134
 8762SOL     OW37918   4.414   3.507   8.973 -0.8430  0.4326  0.2928
 8762SOL    HW137919   4.334   3.455   8.965 -1.6166  1.6112  0.2397
 8762SOL    HW237920   4.372   3.588   9.002  0.9836  1.8698 -1.1166
 8763SOL     OW37921   2.430   0.627  11.637  0.4052  0.2922 -0.4263
 8763SOL    HW137922   2.490   0.617  11.563 -0.7133 -0.3826 -1.2593
 8763SOL    HW237923   2.455   0.553  11.692 -3.5177 -0.2417  0.6800
 8764SOL     OW37924   0.720   4.146   3.300  0.1246  0.1186 -0.1188
 8764SOL    HW137925   0.688   4.235   3.319  0.1767  0.2432 -0.6292
 8764SOL    HW237926   0.731   4.117   3.391  0.2379 -0.4273 -0.3065
 8765SOL     OW37927   2.838   4.292   7.438 -0.2135  0.3728  0.4571
 8765SOL    HW137928   2.842   4.315   7.345 -1.9172 -0.7322  0.1020
 8765SOL    HW237929   2.828   4.379   7.478 -0.6285  0.6454 -0.2258
 8766SOL     OW37930   2.212   0.333   0.520  0.7024  0.0709  0.5798
 8766SOL    HW137931   2.117   0.328   0.527  0.8422  0.9489  2.9986
 8766SOL    HW237932   2.238   0.266   0.583 -0.1697  0.4412  1.3303
 8767SOL     OW37933   1.927   2.376   8.592  0.5666  0.0105  0.4141
 8767SOL    HW137934   1.857   2.402   8.651 -0.3423  1.1765 -1.1921
 8767SOL    HW237935   1.951   2.456   8.546 -0.8032  0.8464  1.1602
 8768SOL     OW37936   2.274   1.834  13.325  0.2487  0.4620 -0.3457
 8768SOL    HW137937   2.233   1.852  13.410 -0.2582 -0.9162 -0.2998
 8768SOL    HW237938   2.368   1.845  13.343  0.0075  0.8614  0.6686
 8769SOL     OW37939   2.303   0.867   8.489  0.2762  0.2240 -0.1658
 8769SOL    HW137940   2.319   0.935   8.555  1.3206  1.6427 -1.8650
 8769SOL    HW237941   2.284   0.925   8.416 -1.1153 -2.0692 -1.6135
 8770SOL     OW37942   2.483   4.184   6.983 -0.2022 -0.1378 -0.0655
 8770SOL    HW137943   2.422   4.258   6.986 -0.8367 -0.5627 -2.0756
 8770SOL    HW237944   2.565   4.231   6.971 -0.7881  0.9095  0.0376
 8771SOL     OW37945   2.199   0.110   4.171  0.2586 -0.8811  0.4730
 8771SOL    HW137946   2.246   0.082   4.249  2.9380 -1.2069 -1.2315
 8771SOL    HW237947   2.109   0.098   4.199 -0.2115 -0.8803 -1.0581
 8772SOL     OW37948   4.540   2.822   1.347 -0.3824 -0.0737  0.1244
 8772SOL    HW137949   4.614   2.780   1.390 -1.7155 -1.1518  1.3488
 8772SOL    HW237950   4.464   2.790   1.395  0.6479 -1.9361  0.5213
 8773SOL     OW37951   4.258   3.654   5.286  0.8520 -0.2870 -0.2580
 8773SOL    HW137952   4.337   3.601   5.275  0.7209  0.0289 -2.7795
 8773SOL    HW237953   4.188   3.605   5.243 -0.3541  0.9680  0.2893
 8774SOL     OW37954   3.241   2.127  14.876  0.6048 -0.6275 -0.1746
 8774SOL    HW137955   3.205   2.062  14.936 -1.3469 -1.3993 -2.1785
 8774SOL    HW237956   3.168   2.143  14.815  1.1099 -0.9186 -0.8590
 8775SOL     OW37957   3.311   0.995  13.663  0.7133 -0.8870  0.1028
 8775SOL    HW137958   3.274   1.027  13.746 -2.9018  1.7103 -2.4740
 8775SOL    HW237959   3.357   0.917  13.693  1.4627 -0.3718  0.3117
 8776SOL     OW37960   2.211   4.041   2.377 -0.0901  0.0117  0.1651
 8776SOL    HW137961   2.155   3.988   2.434  1.0801  0.4177  1.6887
 8776SOL    HW237962   2.244   4.107   2.438 -0.0229  1.0089 -0.9515
 8777SOL     OW37963   1.075   3.799  17.155  0.2645  0.0826 -0.1199
 8777SOL    HW137964   1.016   3.735  17.115  0.8032  0.8455 -2.1366
 8777SOL    HW237965   1.007   3.867  17.158  1.0124  0.9098 -2.3213
 8778SOL     OW37966   3.877   3.484   4.503 -0.2714  0.1994 -0.0542
 8778SOL    HW137967   3.923   3.431   4.438 -0.5810 -1.8458  1.4208
 8778SOL    HW237968   3.917   3.568   4.480  0.6746 -0.1099  0.5078
 8779SOL     OW37969   0.602   4.364   8.592  0.0615  0.2222  0.3167
 8779SOL    HW137970   0.658   4.356   8.669  1.3145  2.3380 -0.4021
 8779SOL    HW237971   0.549   4.286   8.612 -3.0249  2.5545  1.2918
 8780SOL     OW37972   2.217   1.912  10.289  0.2671  0.1310  0.5213
 8780SOL    HW137973   2.169   1.829  10.279  1.1135 -0.4875  1.6201
 8780SOL    HW237974   2.245   1.925  10.198  1.1340 -1.0424  0.6186
 8781SOL     OW37975   0.669   3.682   4.398 -0.3943  0.6261 -0.8465
 8781SOL    HW137976   0.701   3.662   4.310 -1.1143 -0.9385 -0.7660
 8781SOL    HW237977   0.646   3.775   4.406 -0.9926  0.0522  4.0993
 8782SOL     OW37978   4.719   1.360   0.659 -0.0822  0.1731  0.4355
 8782SOL    HW137979   4.724   1.291   0.726  2.0377 -0.8327 -0.7688
 8782SOL    HW237980   0.047   1.425   0.690 -0.3484  0.4328  0.4253
 8783SOL     OW37981   2.250   3.305   2.278  0.2496 -0.3969 -0.2213
 8783SOL    HW137982   2.327   3.357   2.258  0.6843  0.1939  2.9287
 8783SOL    HW237983   2.269   3.280   2.369  0.7446  0.0605 -0.1995
 8784SOL     OW37984   2.498   1.919  16.182  0.3012 -0.7445 -0.5176
 8784SOL    HW137985   2.424   1.866  16.211  0.5692  0.6878  2.8025
 8784SOL    HW237986   2.562   1.915  16.253 -0.6866 -0.9143  0.3650
 8785SOL     OW37987   2.293   3.762   4.018  0.3834 -0.2942 -0.0385
 8785SOL    HW137988   2.202   3.784   4.002  0.5310 -1.0234 -1.8362
 8785SOL    HW237989   2.283   3.668   4.036 -1.2644 -0.5347 -2.2999
 8786SOL     OW37990   3.892   4.422  10.650 -0.8196 -0.4282  0.4282
 8786SOL    HW137991   3.846   4.505  10.656 -0.3601 -0.1761  0.4409
 8786SOL    HW237992   3.858   4.386  10.568 -1.2746  2.2269 -0.5512
 8787SOL     OW37993   0.282   0.704   1.973 -0.6272  0.4008  0.1482
 8787SOL    HW137994   0.230   0.755   2.035  0.8856  0.7651  1.1331
 8787SOL    HW237995   0.289   0.619   2.017  1.3602 -0.5781 -2.0809
 8788SOL     OW37996   0.022   3.282   8.622  0.0284 -0.0878 -0.5186
 8788SOL    HW137997   4.674   3.234   8.620 -0.4726  0.8190 -2.0346
 8788SOL    HW237998   4.723   3.372   8.629 -0.7220 -0.2599 -1.7806
 8789SOL     OW37999   3.469   2.658   5.912  0.2848  0.3708 -0.8136
 8789SOL    HW138000   3.525   2.583   5.930 -0.4389  0.4736  1.8674
 8789SOL    HW238001   3.516   2.694   5.837 -0.3738  1.5291 -0.6821
 8790SOL     OW38002   3.298   3.649   0.498  0.4961  0.1514 -0.7327
 8790SOL    HW138003   3.360   3.692   0.439  2.3839  0.0020  1.1437
 8790SOL    HW238004   3.294   3.714   0.568 -0.5863 -2.2443  1.4215
 8791SOL     OW38005   0.746   2.572   8.321  0.2671 -0.1100  0.0358
 8791SOL    HW138006   0.730   2.542   8.410 -1.9915  3.0166  0.7006
 8791SOL    HW238007   0.730   2.666   8.332 -0.1135 -0.2385  0.5807
 8792SOL     OW38008   2.067   0.141   1.549 -0.1643  0.3239  0.6986
 8792SOL    HW138009   2.008   0.069   1.570  0.1029 -1.2461 -3.9872
 8792SOL    HW238010   2.119   0.104   1.478  0.0994 -1.3911  1.7845
 8793SOL     OW38011   0.952   0.540  13.379  0.5075  0.2836  0.2586
 8793SOL    HW138012   1.045   0.562  13.391  0.9080  0.1624 -2.5189
 8793SOL    HW238013   0.934   0.631  13.358 -1.9882 -0.8719 -2.5133
 8794SOL     OW38014   3.737   0.981   2.918  0.6951 -0.6063 -0.2997
 8794SOL    HW138015   3.722   1.038   2.843 -0.3439  1.3821  1.4196
 8794SOL    HW238016   3.733   1.050   2.984 -2.0717 -0.4110 -0.6585
 8795SOL     OW38017   2.634   1.306   7.338  0.1746  0.3922 -0.4567
 8795SOL    HW138018   2.587   1.295   7.256 -2.0187 -1.2873  1.0338
 8795SOL    HW238019   2.573   1.267   7.400 -0.6932 -0.1419 -1.6645
 8796SOL     OW38020   3.273   1.597  15.396 -0.2173 -0.1425 -0.5265
 8796SOL    HW138021   3.312   1.611  15.310  0.5480  0.4905 -0.0685
 8796SOL    HW238022   3.354   1.611  15.445  1.2019 -0.1325 -2.9181
 8797SOL     OW38023   3.995   4.356   8.023  0.1298  0.0253 -0.0431
 8797SOL    HW138024   3.958   4.413   8.090 -0.0584  2.0587 -1.8910
 8797SOL    HW238025   3.944   4.276   8.033 -0.4432  0.2785 -1.0164
 8798SOL     OW38026   2.887   3.694   3.168  0.4192 -0.1283 -0.6222
 8798SOL    HW138027   2.965   3.717   3.117  0.7289 -2.0282 -1.0075
 8798SOL    HW238028   2.883   3.766   3.231  3.0863 -0.5908  0.1016
 8799SOL     OW38029   3.298   1.556   6.776  0.0092 -0.3553 -0.8620
 8799SOL    HW138030   3.253   1.639   6.797 -0.9181 -1.1281  0.2018
 8799SOL    HW238031   3.348   1.536   6.855 -1.5213  0.1053  0.2380
 8800SOL     OW38032   1.533   2.217   1.942 -0.4245  0.1943 -0.5480
 8800SOL    HW138033   1.599   2.161   1.901  0.2252  0.3790  0.2412
 8800SOL    HW238034   1.457   2.160   1.949 -2.4734  2.8589 -1.0470
 8801SOL     OW38035   0.307   2.071  11.384 -0.3829  0.2882 -0.8584
 8801SOL    HW138036   0.246   2.012  11.339 -0.0318 -0.9681  0.2972
 8801SOL    HW238037   0.288   2.161  11.358 -1.0707 -0.1683 -1.9371
 8802SOL     OW38038   0.238   0.600  14.750 -0.0897 -0.1266 -0.1177
 8802SOL    HW138039   0.228   0.682  14.701 -0.9843  0.6782  1.4091
 8802SOL    HW238040   0.306   0.558  14.697  1.3020  2.4128 -0.3253
 8803SOL     OW38041   4.481   2.325   6.514 -0.6036 -0.1572 -0.6357
 8803SOL    HW138042   4.496   2.279   6.432  2.1801 -2.0280  0.8852
 8803SOL    HW238043   4.560   2.300   6.563 -0.2083 -1.4464 -1.9173
 8804SOL     OW38044   2.417   4.717  11.170 -0.0186  0.2565 -0.1418
 8804SOL    HW138045   2.505   0.000  11.205 -0.1613  0.0933  0.2943
 8804SOL    HW238046   2.422   0.033  11.089  0.3387 -1.4745 -1.1979
 8805SOL     OW38047   0.246   0.546  11.534 -0.3655  0.0858  0.2385
 8805SOL    HW138048   0.291   0.625  11.503 -0.7817  0.6029  0.9563
 8805SOL    HW238049   0.191   0.582  11.602  0.8381  1.0361  0.7044
 8806SOL     OW38050   3.699   4.018   4.091  0.5570  0.1706  0.4088
 8806SOL    HW138051   3.741   4.025   4.177  2.2393 -3.2468 -0.1155
 8806SOL    HW238052   3.779   3.997   4.042  0.5485 -1.0617  0.9194
 8807SOL     OW38053   0.549   0.020   6.175  0.2914  0.5410  0.2868
 8807SOL    HW138054   0.495   4.731   6.100 -1.8836 -0.2223  2.1030
 8807SOL    HW238055   0.544   4.668   6.215 -1.0377  0.0053 -1.0554
 8808SOL     OW38056   1.987   0.727   4.136 -0.2538  0.0620 -0.0585
 8808SOL    HW138057   1.924   0.691   4.074 -2.3607  1.3418  1.3319
 8808SOL    HW238058   2.049   0.778   4.083 -0.4798  1.0777  0.6457
 8809SOL     OW38059   3.604   2.410   2.271  0.3677  0.0588 -0.7303
 8809SOL    HW138060   3.643   2.498   2.271 -0.5856  0.5059 -2.5021
 8809SOL    HW238061   3.529   2.417   2.212 -0.1133 -3.4622 -0.5342
 8810SOL     OW38062   1.955   3.358   8.571  0.3528 -0.0161  0.4001
 8810SOL    HW138063   1.997   3.311   8.498  1.8218  0.9989  0.5984
 8810SOL    HW238064   1.997   3.442   8.554 -0.5688 -0.1066 -2.2976
 8811SOL     OW38065   2.568   2.110   1.934  0.4764  0.3479  0.8976
 8811SOL    HW138066   2.593   2.025   1.969 -0.3933 -0.0116  0.6574
 8811SOL    HW238067   2.617   2.113   1.852 -0.0622 -1.5944  0.5192
 8812SOL     OW38068   3.515   1.235  12.839  0.1663 -0.0544  0.4616
 8812SOL    HW138069   3.473   1.153  12.863 -2.6815  0.7174 -1.9887
 8812SOL    HW238070   3.510   1.245  12.744  2.9288 -0.1755  0.2851
 8813SOL     OW38071   1.903   2.185   7.096  0.0963  0.1719 -0.3762
 8813SOL    HW138072   1.826   2.194   7.040 -0.0831  0.9973  0.0030
 8813SOL    HW238073   1.896   2.103   7.144 -0.2950 -0.4807 -1.5584
 8814SOL     OW38074   4.238   3.307   6.910 -0.4628 -0.7162  0.9307
 8814SOL    HW138075   4.142   3.315   6.912 -0.1962  2.6227 -0.9048
 8814SOL    HW238076   4.246   3.224   6.862 -1.9519  0.9033 -2.1298
 8815SOL     OW38077   2.029   0.119  11.953  0.0980 -0.3367  0.0371
 8815SOL    HW138078   2.101   0.057  11.949  1.5909  1.4382 -0.4268
 8815SOL    HW238079   1.987   0.091  11.872 -1.2108  0.8881  0.2859
 8816SOL     OW38080   2.307   0.425   3.191  0.5471  0.6574 -0.0844
 8816SOL    HW138081   2.232   0.383   3.149  1.1677  0.7915 -1.3309
 8816SOL    HW238082   2.317   0.353   3.253  0.4405  0.6769 -0.0442
 8817SOL     OW38083   0.584   2.571   4.939 -0.3589  0.1799 -0.0965
 8817SOL    HW138084   0.526   2.543   5.010  3.7315 -1.3619  2.6551
 8817SOL    HW238085   0.572   2.508   4.868 -1.2739  0.2531 -0.0023
 8818SOL     OW38086   2.703   2.555  15.556 -0.2641 -0.0275 -0.0597
 8818SOL    HW138087   2.776   2.593  15.605 -0.4383  0.7991 -0.4445
 8818SOL    HW238088   2.647   2.532  15.630 -1.1916 -1.2116 -1.1334
 8819SOL     OW38089   2.968   0.881  11.256 -0.6407  0.9073 -0.6150
 8819SOL    HW138090   3.047   0.884  11.201 -0.4027 -1.8931 -0.4226
 8819SOL    HW238091   2.990   0.946  11.323 -1.9219 -0.0770  0.7372
 8820SOL     OW38092   0.894   1.468   7.442 -0.3878  0.1629  0.4058
 8820SOL    HW138093   0.866   1.407   7.373  0.2668 -0.8275  1.0213
 8820SOL    HW238094   0.813   1.519   7.447  0.3940  1.4630 -0.2609
 8821SOL     OW38095   0.503   0.942  13.144  0.6460  0.5716 -0.3195
 8821SOL    HW138096   0.465   0.919  13.060 -0.3618 -0.6235  0.4673
 8821SOL    HW238097   0.472   1.032  13.151  0.1420  0.1109  3.1826
 8822SOL     OW38098   3.620   1.826   2.729 -0.7001 -0.1223 -0.4691
 8822SOL    HW138099   3.605   1.901   2.786 -0.9042  1.3712 -2.5257
 8822SOL    HW238100   3.608   1.870   2.645 -2.7115 -0.1610 -0.2155
 8823SOL     OW38101   2.522   4.596   7.538 -0.6319 -0.2856 -0.2553
 8823SOL    HW138102   2.501   4.558   7.452 -0.7639  1.3605 -0.9461
 8823SOL    HW238103   2.617   4.599   7.530 -0.5488  0.4891  1.0888
 8824SOL     OW38104   0.453   3.277   5.235  0.4117 -0.1298  0.5081
 8824SOL    HW138105   0.447   3.372   5.228  0.4563 -0.1798 -0.2598
 8824SOL    HW238106   0.534   3.261   5.283  0.7254 -0.0583  0.0002
 8825SOL     OW38107   2.227   3.779  12.446 -0.6524  0.2560 -0.2720
 8825SOL    HW138108   2.279   3.707  12.481 -0.8269 -0.7417 -2.0329
 8825SOL    HW238109   2.183   3.798  12.529  0.2877  0.2293  0.2274
 8826SOL     OW38110   0.213   3.637   2.752  0.2689 -0.0223  0.3000
 8826SOL    HW138111   0.122   3.653   2.778 -0.0153 -2.0431  0.5297
 8826SOL    HW238112   0.195   3.580   2.677  1.8906  1.3715 -1.1476
 8827SOL     OW38113   4.610   0.211   7.281  0.8467  0.7084 -0.2092
 8827SOL    HW138114   4.578   0.147   7.345 -2.2218  2.8855  0.3989
 8827SOL    HW238115   4.699   0.177   7.278  1.0135  1.0173  1.3118
 8828SOL     OW38116   3.964   0.336   6.349  0.7969  0.3235 -0.0312
 8828SOL    HW138117   3.963   0.431   6.344  0.5345  0.2330 -1.6683
 8828SOL    HW238118   3.896   0.328   6.416  0.2069  1.4438 -0.4935
 8829SOL     OW38119   1.909   1.236   7.984  0.0717  0.1595 -0.1667
 8829SOL    HW138120   1.893   1.265   8.074  0.2961  0.0619 -0.0963
 8829SOL    HW238121   1.987   1.284   7.957  2.2720 -0.9302  4.2837
 8830SOL     OW38122   3.801   4.592   3.914 -0.1957 -0.0967 -0.1185
 8830SOL    HW138123   3.758   4.625   3.835 -0.0570  0.2015 -0.0697
 8830SOL    HW238124   3.781   4.498   3.911 -3.2813  0.5501  0.3965
 8831SOL     OW38125   3.405   0.896   7.615 -0.0300  0.4593 -0.3880
 8831SOL    HW138126   3.374   0.985   7.628  1.1467  0.6281  1.2185
 8831SOL    HW238127   3.491   0.903   7.656 -0.9091 -0.5470  1.6160
 8832SOL     OW38128   0.082   2.343   7.858 -0.4852  0.0484  0.5541
 8832SOL    HW138129   0.152   2.408   7.865  0.8534 -1.3187 -0.1604
 8832SOL    HW238130   0.086   2.329   7.763 -0.7468 -0.9946  0.7023
 8833SOL     OW38131   1.452   1.004   1.216  0.2026 -0.5606 -0.5432
 8833SOL    HW138132   1.411   1.074   1.166  1.2078 -0.8116 -1.7204
 8833SOL    HW238133   1.389   0.985   1.285  0.9367 -1.3176 -0.0701
 8834SOL     OW38134   4.418   1.887   0.472  0.0298 -0.2903  0.3610
 8834SOL    HW138135   4.368   1.964   0.446  1.7152  0.9896  0.9237
 8834SOL    HW238136   4.370   1.876   0.554 -1.0654  0.6162 -0.1739
 8835SOL     OW38137   0.715   4.399   1.519  0.2075  0.2332  0.2153
 8835SOL    HW138138   0.731   4.397   1.613  1.6039 -1.2971 -0.0757
 8835SOL    HW238139   0.725   4.494   1.509  2.0223 -0.1317 -1.4794
 8836SOL     OW38140   3.589   1.544   4.514  0.0706  0.1091 -0.8137
 8836SOL    HW138141   3.624   1.466   4.472 -0.4182 -2.0264  2.7496
 8836SOL    HW238142   3.530   1.516   4.584 -1.4191 -0.5883 -2.3524
 8837SOL     OW38143   1.535   3.669   2.647  0.0228 -0.3187 -0.0507
 8837SOL    HW138144   1.454   3.686   2.695  0.6679  2.7514 -0.0251
 8837SOL    HW238145   1.506   3.653   2.557  2.5105  2.4761 -1.3391
 8838SOL     OW38146   3.138   4.387   6.359 -0.1896 -0.1978 -0.5128
 8838SOL    HW138147   3.216   4.358   6.311  0.6520 -0.9271  1.3225
 8838SOL    HW238148   3.155   4.360   6.449 -1.6721 -0.5614 -0.3511
 8839SOL     OW38149   2.868   0.982   3.796  0.5721 -0.3437 -0.6205
 8839SOL    HW138150   2.860   0.892   3.763  0.5653  0.1135 -1.8633
 8839SOL    HW238151   2.960   1.005   3.783  0.9316  0.0919  2.7729
 8840SOL     OW38152   3.915   1.921   3.514 -0.4698 -0.1034  0.2548
 8840SOL    HW138153   3.943   1.954   3.599 -1.2397  0.3998  0.3107
 8840SOL    HW238154   3.836   1.877   3.544 -0.3091 -0.5660  0.0056
 8841SOL     OW38155   4.346   2.727   3.250 -0.1955 -0.3689 -0.2987
 8841SOL    HW138156   4.326   2.798   3.190  0.4992  2.2038  2.5322
 8841SOL    HW238157   4.277   2.747   3.314  0.7539 -0.8712  0.8972
 8842SOL     OW38158   3.671   3.961   2.180  0.1259 -0.3536 -0.0496
 8842SOL    HW138159   3.737   3.892   2.185  0.3287 -0.0158  1.9697
 8842SOL    HW238160   3.725   4.040   2.189  0.8609 -1.1527  2.5944
 8843SOL     OW38161   2.849   4.451  11.879  0.6044  0.7283 -0.0408
 8843SOL    HW138162   2.928   4.416  11.838  0.9341  2.7255 -1.1185
 8843SOL    HW238163   2.876   4.449  11.971 -0.5867 -2.2307  0.2584
 8844SOL     OW38164   1.018   1.779   6.728  0.6746  0.6134  0.5272
 8844SOL    HW138165   0.974   1.694   6.737  1.8392 -0.0067  0.3837
 8844SOL    HW238166   1.018   1.794   6.823  1.3139  0.2180  0.5928
 8845SOL     OW38167   2.770   1.394   2.782 -0.1532 -0.3543  0.7326
 8845SOL    HW138168   2.838   1.337   2.819  0.2250  0.4577  1.2852
 8845SOL    HW238169   2.821   1.475   2.780 -1.3806  0.3844 -1.0197
 8846SOL     OW38170   4.608   3.298   5.010  0.2589  0.0471  0.1237
 8846SOL    HW138171   4.542   3.331   5.071  0.5931  0.1597  0.4252
 8846SOL    HW238172   4.670   3.371   5.013  0.1175  0.1045  1.7570
 8847SOL     OW38173   3.885   0.315   0.301  0.4696  0.7519  0.1386
 8847SOL    HW138174   3.841   0.329   0.385 -1.5073  0.7913 -0.9213
 8847SOL    HW238175   3.931   0.399   0.293 -1.1316  1.6918  0.7350
 8848SOL     OW38176   2.910   2.791  12.386  0.1688 -0.0532  0.0283
 8848SOL    HW138177   2.952   2.876  12.370  2.4169 -1.2071 -0.1681
 8848SOL    HW238178   2.822   2.816  12.357 -0.8958  1.4432  4.6481
 8849SOL     OW38179   2.054   2.543   9.627  0.0341 -0.0370  0.4032
 8849SOL    HW138180   2.118   2.484   9.586  0.3395  1.9569 -1.9819
 8849SOL    HW238181   2.024   2.500   9.707 -0.5169 -0.4943 -0.0488
 8850SOL     OW38182   3.192   2.710   3.217 -0.2595  0.1311  0.0332
 8850SOL    HW138183   3.102   2.745   3.219 -0.1437  0.5043 -1.5369
 8850SOL    HW238184   3.170   2.624   3.254 -1.0264 -0.2046 -1.2183
 8851SOL     OW38185   0.751   4.290   2.002  0.1024  0.1604  0.0167
 8851SOL    HW138186   0.734   4.198   2.022 -0.0684  0.4097  1.0105
 8851SOL    HW238187   0.823   4.308   2.062  1.4356 -2.9651 -0.6214
 8852SOL     OW38188   1.771   1.322   3.224 -0.2534  0.8220  0.0955
 8852SOL    HW138189   1.784   1.416   3.220 -0.5345  0.8933  1.0549
 8852SOL    HW238190   1.761   1.305   3.130  0.9039  2.1169 -0.2484
 8853SOL     OW38191   2.893   1.700   4.369 -0.3183 -0.0271  0.4142
 8853SOL    HW138192   2.880   1.795   4.376  0.4956  0.1923 -1.2220
 8853SOL    HW238193   2.988   1.706   4.362 -0.3971 -0.4698 -0.9645
 8854SOL     OW38194   4.061   2.260   4.260  0.2755  0.2835  0.2118
 8854SOL    HW138195   4.070   2.295   4.349  1.3241  0.9253 -0.1633
 8854SOL    HW238196   3.978   2.211   4.263  0.8805 -0.7950 -1.0105
 8855SOL     OW38197   1.974   2.624   5.692 -0.2600  0.6145 -0.0534
 8855SOL    HW138198   1.936   2.660   5.612 -0.7023 -0.5383 -0.3538
 8855SOL    HW238199   2.063   2.619   5.659  0.4092  0.9915  1.6797
 8856SOL     OW38200   1.116   0.477   2.902 -0.6217  0.4466 -0.3175
 8856SOL    HW138201   1.047   0.481   2.835 -0.1264  1.3445 -0.7694
 8856SOL    HW238202   1.160   0.397   2.874  0.5598 -0.2916  3.6309
 8857SOL     OW38203   1.978   1.370   6.224 -0.3378  0.1540 -0.6069
 8857SOL    HW138204   2.017   1.348   6.139  0.3268 -1.6713  0.1695
 8857SOL    HW238205   1.906   1.307   6.224 -1.5938  1.5889  0.9475
 8858SOL     OW38206   2.156   0.784   6.489  0.3869  0.4841 -0.5763
 8858SOL    HW138207   2.190   0.839   6.418  2.7251 -1.0470 -0.6595
 8858SOL    HW238208   2.177   0.698   6.452 -0.6120  0.3018 -0.7224
 8859SOL     OW38209   2.344   0.860  11.783 -0.2189  0.5367 -0.0598
 8859SOL    HW138210   2.352   0.777  11.736  2.5297  0.7788 -0.0228
 8859SOL    HW238211   2.255   0.882  11.757 -0.1883  1.7937  0.9687
 8860SOL     OW38212   2.794   3.580   5.991  0.1945  0.4192  0.1153
 8860SOL    HW138213   2.787   3.497   5.944  0.9022  1.2460 -1.4270
 8860SOL    HW238214   2.888   3.586   6.007  0.3076 -2.4927  0.4756
 8861SOL     OW38215   3.498   1.846   8.076  0.0789  0.1615  0.2726
 8861SOL    HW138216   3.523   1.839   7.984  2.2147 -1.1196  0.9382
 8861SOL    HW238217   3.574   1.814   8.126  0.0332 -0.8129 -0.3044
 8862SOL     OW38218   0.166   3.533   1.407 -0.3921 -0.1433  0.0633
 8862SOL    HW138219   0.215   3.454   1.387 -0.3346 -0.1416  0.2011
 8862SOL    HW238220   0.231   3.568   1.467  0.7213 -0.3823 -1.0000
 8863SOL     OW38221   2.019   2.795   2.690 -0.1360  0.5261  0.2256
 8863SOL    HW138222   2.067   2.762   2.614  0.8106  0.0619  1.0379
 8863SOL    HW238223   1.944   2.834   2.645  0.0187 -0.7363 -1.1223
 8864SOL     OW38224   0.920   4.618   6.534  0.2090 -0.0245  0.1795
 8864SOL    HW138225   0.848   4.614   6.597 -1.1004  0.8506 -1.2689
 8864SOL    HW238226   0.869   4.565   6.473 -1.1606  4.6817 -2.7420
 8865SOL     OW38227   1.071   2.538   3.956  0.7460 -0.4874 -0.1776
 8865SOL    HW138228   1.139   2.518   3.892  0.9449  0.3055 -0.2132
 8865SOL    HW238229   1.079   2.475   4.028 -1.6408  0.9165  1.3233
 8866SOL     OW38230   3.339   2.036   3.131  0.1872  0.0516 -0.0981
 8866SOL    HW138231   3.262   1.991   3.096  1.5221 -1.2506 -1.3618
 8866SOL    HW238232   3.298   2.122   3.138  4.6366  2.2304 -1.2427
 8867SOL     OW38233   1.727   3.617  16.066 -0.1379  0.5675 -0.2964
 8867SOL    HW138234   1.666   3.602  16.137  1.4872 -1.3688  0.6814
 8867SOL    HW238235   1.669   3.613  15.990 -0.6166  0.0034  0.1052
 8868SOL     OW38236   3.701   0.567   7.359  0.0544 -0.7603 -0.0161
 8868SOL    HW138237   3.618   0.603   7.329  0.6441  0.7501  0.1982
 8868SOL    HW238238   3.743   0.538   7.278 -1.6271  0.8328 -1.4610
 8869SOL     OW38239   2.712   2.805   5.646  0.2032 -0.8113 -0.5598
 8869SOL    HW138240   2.740   2.752   5.721 -0.2274 -0.5279 -0.1994
 8869SOL    HW238241   2.619   2.784   5.652  0.6021 -2.2634  0.6693
 8870SOL     OW38242   1.860   0.719   3.797  0.1334  0.2853 -0.0795
 8870SOL    HW138243   1.838   0.802   3.841 -0.7156 -0.5680  1.1328
 8870SOL    HW238244   1.839   0.744   3.707  2.6724 -0.4262 -0.8665
 8871SOL     OW38245   2.076   4.074  17.129  0.6216  0.1990  0.5379
 8871SOL    HW138246   2.022   4.152  17.113 -1.3748 -1.5902 -1.5849
 8871SOL    HW238247   2.017   4.006  17.098 -0.1013  0.7719  0.6499
 8872SOL     OW38248   0.277   3.917   7.533 -0.1899 -0.3693  0.0527
 8872SOL    HW138249   0.355   3.884   7.578 -0.9941 -0.4200  1.3910
 8872SOL    HW238250   0.241   3.830   7.516  1.8138 -0.9680 -1.2065
 8873SOL     OW38251   0.447   3.955   3.045  0.2562 -0.5303  0.0162
 8873SOL    HW138252   0.508   3.983   2.977 -0.0677 -1.3053 -0.5837
 8873SOL    HW238253   0.439   3.861   3.030  1.1562 -0.6170  0.0545
 8874SOL     OW38254   2.520   3.291  16.709 -0.3964 -0.1565 -0.5505
 8874SOL    HW138255   2.445   3.257  16.757 -0.3547 -0.0156 -0.3886
 8874SOL    HW238256   2.573   3.211  16.708  0.7922  0.6313 -0.1914
 8875SOL     OW38257   2.685   0.387  13.857  0.1858  0.6704 -0.0100
 8875SOL    HW138258   2.756   0.417  13.799  0.7563 -1.6950 -0.5482
 8875SOL    HW238259   2.731   0.314  13.900 -0.6021  1.5577  2.3453
 8876SOL     OW38260   0.414   4.000  10.777  0.0314 -0.1208 -0.2481
 8876SOL    HW138261   0.432   4.039  10.691  0.0394 -1.6015 -0.9219
 8876SOL    HW238262   0.477   4.046  10.833 -0.3430  2.2896 -1.7645
 8877SOL     OW38263   0.465   2.189  17.598 -0.2404 -0.2546 -0.2479
 8877SOL    HW138264   0.411   2.163  17.523  0.0327  1.2729 -0.9939
 8877SOL    HW238265   0.552   2.188  17.557 -0.6570  1.0077 -1.1726
 8878SOL     OW38266   3.358   0.850   8.075 -0.2249 -0.3231  0.6624
 8878SOL    HW138267   3.322   0.837   8.163 -2.3229 -0.0411 -0.1434
 8878SOL    HW238268   3.426   0.913   8.095 -1.7506  2.1682 -1.9464
 8879SOL     OW38269   4.711   0.356   2.007  0.5015 -0.2057 -0.4397
 8879SOL    HW138270   0.011   0.373   2.094 -2.5450  0.5589  0.6104
 8879SOL    HW238271   0.053   0.376   1.952  0.1199  0.6621 -0.6609
 8880SOL     OW38272   1.338   2.002   6.387  0.2254 -0.4288 -0.0198
 8880SOL    HW138273   1.275   1.956   6.331  0.2657 -0.5892  0.0657
 8880SOL    HW238274   1.280   2.051   6.445 -1.1369 -1.3690 -0.5966
 8881SOL     OW38275   4.595   0.055  10.334 -0.3956  0.1897 -0.6350
 8881SOL    HW138276   4.555   4.705  10.354  1.3054 -0.5213 -0.2004
 8881SOL    HW238277   4.658   0.055  10.407 -1.0966 -1.8576 -0.0295
 8882SOL     OW38278   1.161   3.211   7.383  0.3795 -0.0543  0.0453
 8882SOL    HW138279   1.215   3.193   7.460  0.6933 -0.2413 -0.2195
 8882SOL    HW238280   1.212   3.185   7.307  1.1363 -0.3192  0.6437
 8883SOL     OW38281   3.009   3.730   6.765  0.1430 -0.8272 -0.2511
 8883SOL    HW138282   3.057   3.667   6.820  1.6218 -0.7430 -1.4490
 8883SOL    HW238283   2.985   3.798   6.827 -0.3361 -0.6875 -0.5902
 8884SOL     OW38284   3.396   0.108   8.716  0.1511 -0.1235  0.0647
 8884SOL    HW138285   3.391   0.045   8.645 -1.8912 -0.1395  0.2199
 8884SOL    HW238286   3.479   0.087   8.759  0.0663  1.0724  0.8263
 8885SOL     OW38287   4.649   4.481   5.185  0.0016  0.1533  0.1226
 8885SOL    HW138288   4.554   4.492   5.188 -0.1399 -1.0914  0.0156
 8885SOL    HW238289   4.663   4.408   5.246 -0.5755 -0.9450 -1.0582
 8886SOL     OW38290   2.815   3.321   5.876  0.0022 -0.4125 -0.1701
 8886SOL    HW138291   2.887   3.362   5.827  0.8453 -0.2388  1.2342
 8886SOL    HW238292   2.853   3.291   5.958 -0.2935 -1.1959 -0.3205
 8887SOL     OW38293   2.079   2.701   6.773  0.0448  1.0174 -0.6434
 8887SOL    HW138294   2.003   2.665   6.728 -0.2260  0.7777  0.0030
 8887SOL    HW238295   2.112   2.620   6.812 -2.0848  0.6520  0.3819
 8888SOL     OW38296   4.709   3.089  10.493  0.1647  0.3545  0.8538
 8888SOL    HW138297   4.703   3.001  10.529  1.2775 -0.5290 -1.1174
 8888SOL    HW238298   4.655   3.137  10.555  0.2879  0.2578  1.0336
 8889SOL     OW38299   3.800   1.035   5.954  0.2328  0.2532 -0.4364
 8889SOL    HW138300   3.850   1.071   5.881  0.4048  1.4309  0.2504
 8889SOL    HW238301   3.825   0.943   5.944 -2.3898 -0.3291 -1.8848
 8890SOL     OW38302   2.947   0.169   5.306  0.2472 -0.3834  0.1881
 8890SOL    HW138303   2.966   0.262   5.315 -0.1765 -0.0867 -2.0989
 8890SOL    HW238304   3.003   0.144   5.379  0.8778  0.5618  0.0125
 8891SOL     OW38305   1.899   1.552   1.651 -0.1333 -0.1168 -0.2208
 8891SOL    HW138306   1.932   1.462   1.646 -1.9345 -0.7788 -0.2151
 8891SOL    HW238307   1.891   1.574   1.559  0.1603 -1.0564 -0.4748
 8892SOL     OW38308   4.409   1.674   0.208  0.1512  0.1211  0.2627
 8892SOL    HW138309   4.435   1.764   0.186  0.5409 -0.0347  0.0871
 8892SOL    HW238310   4.434   1.673   0.300 -1.7906 -2.9665  0.7456
 8893SOL     OW38311   1.178   2.563   7.410  0.4319 -0.2837 -0.4107
 8893SOL    HW138312   1.139   2.525   7.489  0.7300 -1.3576 -0.7808
 8893SOL    HW238313   1.167   2.497   7.342  0.8262  1.2916 -2.0142
 8894SOL     OW38314   2.725   0.072   9.677  0.7328  0.0957  0.5667
 8894SOL    HW138315   2.681   0.037   9.754 -0.5931  1.9018  0.6329
 8894SOL    HW238316   2.782   4.733   9.654  1.0581  1.5382 -3.3653
 8895SOL     OW38317   4.399   3.917   1.951  0.1957 -0.4501 -0.0641
 8895SOL    HW138318   4.417   3.847   1.888  0.0597  1.1839 -1.9321
 8895SOL    HW238319   4.484   3.950   1.978 -0.3221  0.9933 -0.1782
 8896SOL     OW38320   3.988   4.177   3.434 -0.1389  0.6057  0.1250
 8896SOL    HW138321   3.986   4.095   3.385  3.6825  0.5202  0.1652
 8896SOL    HW238322   4.058   4.229   3.394 -0.3134  0.7331 -0.0150
 8897SOL     OW38323   3.557   3.846  10.526  0.2381  0.2646 -0.0603
 8897SOL    HW138324   3.548   3.888  10.612 -2.1351 -0.4552  0.0669
 8897SOL    HW238325   3.467   3.820  10.504  0.7292 -1.6483  0.1608
 8898SOL     OW38326   0.129   0.504   1.404 -0.6338  0.2557  0.0147
 8898SOL    HW138327   0.074   0.549   1.340 -0.9866 -0.7252 -0.3700
 8898SOL    HW238328   0.119   0.577   1.464  0.3327 -0.3437  0.9032
 8899SOL     OW38329   2.393   1.777  11.494  0.3344  0.6110 -0.1564
 8899SOL    HW138330   2.460   1.801  11.431  0.3217  2.8796  0.7023
 8899SOL    HW238331   2.390   1.858  11.545 -0.2534  1.0343 -0.8659
 8900SOL     OW38332   0.427   2.549  12.629 -0.2546 -0.2727  0.1149
 8900SOL    HW138333   0.504   2.575  12.578  0.1044 -1.6528 -0.0265
 8900SOL    HW238334   0.463   2.496  12.700 -2.5859 -1.4204  0.4423
 8901SOL     OW38335   4.477   1.378   1.195 -0.0523 -0.2360  0.1994
 8901SOL    HW138336   4.546   1.312   1.194  0.1869 -0.0246  2.1681
 8901SOL    HW238337   4.440   1.356   1.110 -0.1902 -2.1291  0.7539
 8902SOL     OW38338   2.087   1.083  11.954 -0.0869  0.2168 -0.2580
 8902SOL    HW138339   2.183   1.080  11.952 -0.0624  0.0502  0.8343
 8902SOL    HW238340   2.073   1.092  12.048  2.5433 -0.4618  0.2130
 8903SOL     OW38341   4.629   1.256   0.411  0.0869  0.7529 -0.5316
 8903SOL    HW138342   4.623   1.163   0.430  3.0984  1.0501  1.7607
 8903SOL    HW238343   4.655   1.290   0.496  3.0584  1.8770 -1.9035
 8904SOL     OW38344   1.056   2.918   8.750 -0.8152 -0.3977  0.1896
 8904SOL    HW138345   1.052   2.824   8.732  2.0141 -0.4068 -0.5230
 8904SOL    HW238346   0.997   2.929   8.824  0.7679  1.6689  1.1383
 8905SOL     OW38347   2.717   4.314   8.295  0.1688  0.5306 -0.3013
 8905SOL    HW138348   2.679   4.238   8.340  0.7312  0.4214 -0.0147
 8905SOL    HW238349   2.644   4.343   8.241 -0.2246  1.9104  0.9710
 8906SOL     OW38350   4.427   3.085   1.117 -0.0728 -0.7428  0.2655
 8906SOL    HW138351   4.380   3.002   1.113 -2.7447  0.7604  0.4112
 8906SOL    HW238352   4.473   3.092   1.033  1.2695  0.0011  1.0657
 8907SOL     OW38353   3.605   3.301   3.984  0.1550 -0.2812 -0.2864
 8907SOL    HW138354   3.537   3.320   3.920 -0.0215 -1.8681 -0.5695
 8907SOL    HW238355   3.584   3.363   4.053  4.1107  0.8472 -0.0919
 8908SOL     OW38356   3.251   1.592   4.937  0.2022 -0.2753 -0.4341
 8908SOL    HW138357   3.170   1.609   4.984 -0.7812  0.5249 -2.3812
 8908SOL    HW238358   3.262   1.498   4.950  1.5135  0.3136  2.6213
 8909SOL     OW38359   1.962   0.483  15.547 -0.4583  0.0681 -0.2624
 8909SOL    HW138360   1.896   0.490  15.479  1.6592 -0.9386 -2.4228
 8909SOL    HW238361   2.038   0.505  15.494 -0.1938 -3.7183 -1.4780
 8910SOL     OW38362   1.506   2.283   8.894  0.2081  0.3746 -0.1465
 8910SOL    HW138363   1.444   2.337   8.943 -2.2234 -1.3553 -1.3399
 8910SOL    HW238364   1.546   2.226   8.959 -0.0638 -0.7478 -0.9636
 8911SOL     OW38365   2.066   4.226   7.720 -0.6298 -0.3029  0.3419
 8911SOL    HW138366   2.004   4.254   7.788  1.8177  0.8025  2.1495
 8911SOL    HW238367   2.012   4.157   7.683  0.8564 -0.6828 -1.0950
 8912SOL     OW38368   4.368   0.639   9.565 -0.0815  0.2272 -0.3414
 8912SOL    HW138369   4.375   0.573   9.496 -1.2820 -1.1433  0.8494
 8912SOL    HW238370   4.273   0.648   9.574 -0.2026 -1.9302  0.4405
 8913SOL     OW38371   3.233   2.382  14.967  0.3161  0.1385  0.3839
 8913SOL    HW138372   3.244   2.288  14.954 -0.9743 -0.2444  2.1242
 8913SOL    HW238373   3.203   2.378  15.057 -0.6638  0.9407  0.0938
 8914SOL     OW38374   2.421   2.825  16.675  0.5214 -0.0944  0.2197
 8914SOL    HW138375   2.332   2.862  16.675  1.0033  1.0456  1.2632
 8914SOL    HW238376   2.423   2.771  16.596  1.9243 -0.0071  0.2055
 8915SOL     OW38377   2.840   1.594   1.341  0.3125  0.1417  0.5463
 8915SOL    HW138378   2.816   1.546   1.262  0.3136  0.9810  0.0347
 8915SOL    HW238379   2.925   1.632   1.319 -1.1354  2.5591 -0.8799
 8916SOL     OW38380   2.982   3.519   4.317 -0.3784 -0.2604  0.6387
 8916SOL    HW138381   2.937   3.597   4.350  0.4951  0.8362 -0.7193
 8916SOL    HW238382   2.924   3.448   4.346 -3.5136  1.4848 -1.3214
 8917SOL     OW38383   2.177   2.988   2.269 -0.1286 -0.2750 -0.5019
 8917SOL    HW138384   2.224   3.070   2.285 -2.1911  0.6709  0.5936
 8917SOL    HW238385   2.245   2.934   2.229  0.5922  1.2187 -1.3051
 8918SOL     OW38386   1.580   0.033  12.785 -0.1050  0.0801  0.0263
 8918SOL    HW138387   1.590   0.049  12.691  1.7182  2.6243  0.6391
 8918SOL    HW238388   1.508   0.093  12.805  0.7502  0.8152  0.8868
 8919SOL     OW38389   1.374   4.152  10.762  0.6030  0.1807  0.2103
 8919SOL    HW138390   1.434   4.082  10.736 -3.6761 -2.3440 -2.7069
 8919SOL    HW238391   1.348   4.128  10.851 -1.0911  0.1295 -0.3165
 8920SOL     OW38392   0.659   1.020   8.853 -0.4612 -0.6689 -0.3238
 8920SOL    HW138393   0.603   1.041   8.927  0.7023  1.1435  0.0422
 8920SOL    HW238394   0.601   1.052   8.783 -1.0247 -0.6220  0.1599
 8921SOL     OW38395   0.233   0.622  15.156 -0.1145  0.0229 -0.5806
 8921SOL    HW138396   0.142   0.635  15.130 -0.3498  1.0420  0.7279
 8921SOL    HW238397   0.252   0.530  15.140 -0.4324 -0.4562  1.8161
 8922SOL     OW38398   2.103   1.950   5.769 -0.3582 -0.4041 -0.1614
 8922SOL    HW138399   2.143   2.008   5.704 -0.4732  0.3189  0.4051
 8922SOL    HW238400   2.009   1.961   5.758 -0.6341 -1.3769  1.2188
 8923SOL     OW38401   1.088   0.760   8.372 -0.4708 -1.0397  0.3293
 8923SOL    HW138402   1.041   0.842   8.359  1.5082 -0.0595 -0.6105
 8923SOL    HW238403   1.086   0.757   8.468  1.4284 -0.2849  0.3942
 8924SOL     OW38404   0.178   2.023   2.025  0.5415 -0.0063 -0.2354
 8924SOL    HW138405   0.127   2.103   2.014  1.2644  0.5321  0.3306
 8924SOL    HW238406   0.168   1.985   1.938 -0.8999 -2.5047  1.0272
 8925SOL     OW38407   3.836   4.426   6.488 -0.3046  0.1134 -1.0472
 8925SOL    HW138408   3.872   4.452   6.404  0.0135 -1.4302 -1.3969
 8925SOL    HW238409   3.869   4.337   6.501 -0.6500  0.1607  0.1580
 8926SOL     OW38410   1.798   3.007   4.442 -0.3487  0.2347 -0.1971
 8926SOL    HW138411   1.844   3.082   4.402 -0.0367  1.9738  3.3950
 8926SOL    HW238412   1.863   2.973   4.502 -1.3868 -1.0595  0.1887
 8927SOL     OW38413   2.359   4.610   2.330 -0.2097 -0.1585  0.4007
 8927SOL    HW138414   2.381   4.591   2.421 -0.6362  1.6410  0.8840
 8927SOL    HW238415   2.447   4.631   2.300  0.6397 -2.1854  1.5384
 8928SOL     OW38416   0.985   1.217   7.076 -0.1970  0.0985  0.4350
 8928SOL    HW138417   0.906   1.225   7.128 -0.7135  3.3114 -0.8574
 8928SOL    HW238418   0.977   1.294   7.021 -0.4625 -0.1421  0.1355
 8929SOL     OW38419   2.834   4.277   2.702  0.3249 -0.1991 -0.1098
 8929SOL    HW138420   2.910   4.264   2.759  2.3277  0.0915 -2.7354
 8929SOL    HW238421   2.765   4.265   2.767 -1.4817  1.9388 -1.6522
 8930SOL     OW38422   3.260   4.338   1.832 -0.4482 -0.4295 -0.5696
 8930SOL    HW138423   3.270   4.391   1.753 -0.5607 -1.0844 -1.0237
 8930SOL    HW238424   3.178   4.368   1.871 -1.7161 -2.1699 -1.8572
 8931SOL     OW38425   0.329   0.842   8.740  0.2183  0.0891 -0.1561
 8931SOL    HW138426   0.327   0.930   8.777 -3.1247  0.5621 -1.4907
 8931SOL    HW238427   0.315   0.868   8.649  2.1737 -2.3791 -1.1829
 8932SOL     OW38428   3.742   2.422  15.081  0.4138 -0.6137 -0.1330
 8932SOL    HW138429   3.746   2.362  15.007  1.5303  0.9373 -1.3315
 8932SOL    HW238430   3.828   2.460  15.100  0.0635 -0.3609  0.9630
 8933SOL     OW38431   3.194   0.692   4.807 -0.4732 -0.1116 -0.8470
 8933SOL    HW138432   3.113   0.649   4.780 -0.6192 -1.2353  1.3916
 8933SOL    HW238433   3.200   0.653   4.894  1.6310  0.7078 -0.6145
 8934SOL     OW38434   2.688   0.053   9.230 -0.9049  0.7011  0.0215
 8934SOL    HW138435   2.622   0.067   9.162  0.0837 -0.4070 -1.1820
 8934SOL    HW238436   2.643   0.049   9.314  0.7513  0.8607  0.9264
 8935SOL     OW38437   3.651   4.643   8.608 -0.1776 -0.2156  0.4413
 8935SOL    HW138438   3.560   4.619   8.594  0.3800 -1.6642 -0.6178
 8935SOL    HW238439   3.665   4.587   8.685 -0.3190 -1.0467 -0.1474
 8936SOL     OW38440   1.899   2.668   9.924 -0.5123 -0.1786  0.8166
 8936SOL    HW138441   1.959   2.612   9.974 -0.4832 -2.7189 -2.0725
 8936SOL    HW238442   1.832   2.609   9.891  2.9666 -3.1206 -0.9590
 8937SOL     OW38443   0.108   4.515   4.268  0.0121  0.0993  0.2502
 8937SOL    HW138444   0.074   4.469   4.345  1.1480  1.5740  1.6383
 8937SOL    HW238445   0.025   4.543   4.230  0.5456 -1.4177 -2.0214
 8938SOL     OW38446   2.807   2.228   9.786  0.0418  0.3867 -0.3254
 8938SOL    HW138447   2.889   2.214   9.738  0.3615 -1.4442  0.7386
 8938SOL    HW238448   2.759   2.190   9.713  2.5220 -0.3482 -1.5660
 8939SOL     OW38449   2.624   3.434   6.548  0.4831 -0.4939  0.1710
 8939SOL    HW138450   2.658   3.522   6.533 -1.2301 -0.0372 -1.0965
 8939SOL    HW238451   2.528   3.439   6.547  0.3584 -2.8336 -1.5759
 8940SOL     OW38452   0.853   0.377   8.916  0.0983 -0.0240 -0.5376
 8940SOL    HW138453   0.805   0.438   8.973 -0.3368 -1.7913  1.0049
 8940SOL    HW238454   0.815   0.290   8.927  0.6867 -0.2565 -0.3621
 8941SOL     OW38455   3.218   3.901   8.709  0.1854 -0.0241  0.2231
 8941SOL    HW138456   3.162   3.958   8.761 -1.6459  0.8038 -2.6946
 8941SOL    HW238457   3.164   3.823   8.720  0.1305  0.0011  0.1334
 8942SOL     OW38458   0.865   4.489   5.604 -0.2134 -0.7740  0.4087
 8942SOL    HW138459   0.795   4.466   5.542 -0.4919  0.6770  0.1898
 8942SOL    HW238460   0.892   4.576   5.576 -0.8792  0.3637  3.2865
 8943SOL     OW38461   0.128   0.566  12.092  1.4110 -0.1083 -0.5390
 8943SOL    HW138462   0.040   0.604  12.098  1.3548 -0.4780  0.9492
 8943SOL    HW238463   0.128   0.518  12.009  0.4563 -0.8313 -0.1126
 8944SOL     OW38464   0.931   3.370   3.909  0.1076  0.6083  0.1675
 8944SOL    HW138465   0.913   3.288   3.863  2.2866  0.0944  0.2512
 8944SOL    HW238466   0.937   3.424   3.830  1.0723  1.4940  0.8347
 8945SOL     OW38467   1.501   0.771  15.441  0.2840  0.1200  0.3618
 8945SOL    HW138468   1.477   0.772  15.349  0.4362 -1.2768  0.3103
 8945SOL    HW238469   1.442   0.835  15.481  1.6496  0.9197  1.1318
 8946SOL     OW38470   3.042   1.669  15.513  0.6526 -1.1442  0.0387
 8946SOL    HW138471   3.018   1.723  15.437 -0.0879 -1.2609  0.1883
 8946SOL    HW238472   3.125   1.641  15.474  0.9582 -1.0559  0.6217
 8947SOL     OW38473   3.313   0.547  17.476 -0.3037 -0.5404  0.1186
 8947SOL    HW138474   3.368   0.487  17.528  1.3323  1.2981  0.4968
 8947SOL    HW238475   3.364   0.628  17.472 -0.2910 -0.5158  0.8021
 8948SOL     OW38476   2.060   4.408   4.607  0.1326 -0.1063 -0.3470
 8948SOL    HW138477   1.966   4.394   4.603  0.2223 -0.1610 -2.3030
 8948SOL    HW238478   2.086   4.380   4.519  1.3164 -1.0863  0.3055
 8949SOL     OW38479   4.658   2.560   5.749  0.1124  0.7293  0.2757
 8949SOL    HW138480   4.718   2.487   5.735 -0.1506  0.7730 -1.0882
 8949SOL    HW238481   4.667   2.606   5.666 -0.2112 -0.3482 -0.3484
 8950SOL     OW38482   3.417   4.303   6.241  0.7418 -0.1956 -0.7737
 8950SOL    HW138483   3.465   4.385   6.240  0.4118 -0.0014 -0.6900
 8950SOL    HW238484   3.462   4.248   6.306  0.1859  2.1151  1.5654
 8951SOL     OW38485   3.473   1.830   6.108  0.4587 -0.5813 -0.5268
 8951SOL    HW138486   3.402   1.835   6.172  1.3636 -0.2673  0.4561
 8951SOL    HW238487   3.555   1.843   6.156 -0.0856 -0.0801  0.2636
 8952SOL     OW38488   1.161   1.582   6.231  0.1598  0.1857 -0.5156
 8952SOL    HW138489   1.134   1.491   6.239 -2.9324  1.1388 -0.3775
 8952SOL    HW238490   1.160   1.611   6.322  1.7084  0.5300 -0.6100
 8953SOL     OW38491   2.647   1.994   6.574 -0.4819  0.1707  0.1248
 8953SOL    HW138492   2.619   1.905   6.550  0.6057 -0.6602  1.9148
 8953SOL    HW238493   2.557   2.025   6.589 -0.5219  1.0678 -1.9254
 8954SOL     OW38494   1.153   0.684   6.173  0.0756  0.0355 -0.5654
 8954SOL    HW138495   1.191   0.598   6.156 -0.9577 -0.8782  1.7702
 8954SOL    HW238496   1.211   0.739   6.121 -1.4604  0.3415 -1.9600
 8955SOL     OW38497   1.016   3.190   5.111 -0.3203  0.3837 -0.2301
 8955SOL    HW138498   0.968   3.108   5.116 -1.7577  1.4234  3.2992
 8955SOL    HW238499   1.067   3.165   5.034  2.3598  0.2738  1.5692
 8956SOL     OW38500   3.442   4.559   4.366 -0.0083 -0.1266  0.1759
 8956SOL    HW138501   3.517   4.525   4.319  0.6231  0.2037  0.9453
 8956SOL    HW238502   3.480   4.572   4.453  0.5015 -3.6652  0.4525
 8957SOL     OW38503   1.522   4.239  13.748  0.5291 -0.6110 -0.0743
 8957SOL    HW138504   1.473   4.286  13.816 -0.4300 -3.5107  1.2363
 8957SOL    HW238505   1.607   4.214  13.784  0.5260 -0.6958 -0.1249
 8958SOL     OW38506   2.853   4.428   6.643  0.8596  0.5000  0.2594
 8958SOL    HW138507   2.816   4.393   6.561 -1.4285  2.9115  0.2618
 8958SOL    HW238508   2.922   4.363   6.658  0.8572  0.0594 -1.6180
 8959SOL     OW38509   3.631   2.283   5.584 -0.3872  0.0578  0.5498
 8959SOL    HW138510   3.624   2.256   5.676 -0.1534 -0.9714  0.2623
 8959SOL    HW238511   3.653   2.375   5.598  1.5215 -0.2802 -0.3100
 8960SOL     OW38512   1.156   3.611  11.874  0.3370 -0.3184 -0.2520
 8960SOL    HW138513   1.217   3.565  11.931  1.8057 -0.5045 -1.9627
 8960SOL    HW238514   1.072   3.588  11.912 -0.5426  3.1321 -0.1255
 8961SOL     OW38515   2.784   3.086   7.523  0.5316 -0.4284  0.1027
 8961SOL    HW138516   2.810   3.036   7.445 -0.0821 -0.3948 -0.1265
 8961SOL    HW238517   2.845   3.048   7.586 -0.3237  1.2618  1.9392
 8962SOL     OW38518   1.472   4.244   3.740 -0.1087 -0.5066  0.0837
 8962SOL    HW138519   1.475   4.255   3.645 -1.7339  0.8463  0.1883
 8962SOL    HW238520   1.469   4.148   3.736  0.8606 -0.5370  0.1208
 8963SOL     OW38521   1.795   4.311   2.434  0.3082  0.2325 -0.0242
 8963SOL    HW138522   1.700   4.321   2.420  0.4155 -0.5747 -1.3785
 8963SOL    HW238523   1.815   4.400   2.406 -1.9375  0.4925 -0.8713
 8964SOL     OW38524   3.611   2.000   1.232  0.0635  0.4098  0.4816
 8964SOL    HW138525   3.683   1.964   1.180  1.0036  1.3234  1.1501
 8964SOL    HW238526   3.572   1.916   1.256  0.6132  0.2905  0.9607
 8965SOL     OW38527   1.404   2.343  12.650  0.0806 -0.6667 -0.9138
 8965SOL    HW138528   1.448   2.363  12.732 -0.5412 -1.7564 -0.3109
 8965SOL    HW238529   1.453   2.262  12.639 -1.0850 -1.5816  0.5845
 8966SOL     OW38530   3.090   0.644   7.969  0.3072 -0.3023  0.0911
 8966SOL    HW138531   3.054   0.720   8.016 -2.2268  0.1019 -2.5160
 8966SOL    HW238532   3.032   0.569   7.981 -1.8075  1.7709  2.8963
 8967SOL     OW38533   3.196   4.535   2.577 -0.7251 -0.3238  0.8048
 8967SOL    HW138534   3.160   4.550   2.664  0.7867 -1.4465  1.6281
 8967SOL    HW238535   3.150   4.455   2.554 -0.2574 -0.5773  0.7451
 8968SOL     OW38536   1.199   0.722   1.769 -0.7032 -0.2404  0.1650
 8968SOL    HW138537   1.191   0.627   1.765  0.4707 -0.4265  2.2052
 8968SOL    HW238538   1.255   0.731   1.846 -2.3254  0.4080  1.2815
 8969SOL     OW38539   1.361   4.037   3.405 -0.5336 -0.7017 -0.0168
 8969SOL    HW138540   1.431   3.975   3.425  2.7262  2.2485 -2.1056
 8969SOL    HW238541   1.318   4.002   3.327 -0.5473 -0.2407 -0.2222
 8970SOL     OW38542   1.600   3.163   8.414  0.1337 -0.0932 -0.1897
 8970SOL    HW138543   1.614   3.255   8.392 -0.1557  0.1373  0.5992
 8970SOL    HW238544   1.570   3.151   8.504 -0.3862  1.2016 -0.1857
 8971SOL     OW38545   3.522   1.086   8.537 -0.2186 -0.0444 -0.1699
 8971SOL    HW138546   3.581   1.098   8.463 -1.6124 -1.0961 -1.4560
 8971SOL    HW238547   3.440   1.047   8.507  1.5466 -1.8256 -2.6402
 8972SOL     OW38548   4.346   3.608   7.046  0.9717  0.5148 -0.0579
 8972SOL    HW138549   4.327   3.515   7.053 -2.0995  1.1390  0.1364
 8972SOL    HW238550   4.272   3.636   7.100  0.9881 -0.0801  0.2724
 8973SOL     OW38551   3.283   2.957   5.795  0.4614 -0.1161  0.5345
 8973SOL    HW138552   3.210   2.903   5.825  2.4048 -2.9243  0.2130
 8973SOL    HW238553   3.252   2.975   5.706  0.2160  1.5237  0.9550
 8974SOL     OW38554   4.502   4.732  10.063  0.3680 -0.5052  0.1794
 8974SOL    HW138555   4.578   0.013  10.007 -0.2246  2.5609  0.2604
 8974SOL    HW238556   4.526   0.038  10.146  0.1317  1.8472 -0.9024
 8975SOL     OW38557   2.364   3.037   2.996  0.1718 -0.1633 -0.0357
 8975SOL    HW138558   2.311   3.025   3.075  0.2329 -0.1598  0.0056
 8975SOL    HW238559   2.331   2.962   2.946 -1.2279  0.8010 -0.5551
 8976SOL     OW38560   0.875   0.792   7.148 -0.4272 -0.4891 -0.0131
 8976SOL    HW138561   0.783   0.821   7.145 -0.7604 -1.3151  1.8086
 8976SOL    HW238562   0.900   0.825   7.235  0.9256  1.8657 -1.3178
 8977SOL     OW38563   4.352   0.485  14.853  0.2520  0.2135 -0.1448
 8977SOL    HW138564   4.276   0.470  14.909  1.6999  1.9158  2.2976
 8977SOL    HW238565   4.426   0.462  14.910 -1.0007 -1.0987  0.9539
 8978SOL     OW38566   3.399   2.906   0.647 -0.8202  0.0540  0.1392
 8978SOL    HW138567   3.414   2.990   0.603  0.1093  0.1404  0.6180
 8978SOL    HW238568   3.383   2.931   0.738 -0.8371 -1.5255  0.5726
 8979SOL     OW38569   3.822   3.094   5.716 -0.1737 -0.7001  0.0115
 8979SOL    HW138570   3.857   3.155   5.781 -1.0676  1.6262 -1.7123
 8979SOL    HW238571   3.788   3.159   5.655  0.6483 -1.1237 -0.9088
 8980SOL     OW38572   2.179   3.796   8.396 -0.0137  0.5945  0.0877
 8980SOL    HW138573   2.192   3.882   8.356 -1.0551  0.2512 -0.9773
 8980SOL    HW238574   2.188   3.747   8.315 -2.7721  0.4382 -0.1084
 8981SOL     OW38575   2.052   3.396   7.708 -0.3867 -0.0083 -0.0738
 8981SOL    HW138576   2.021   3.417   7.620  0.0056  1.3435  0.0997
 8981SOL    HW238577   2.110   3.321   7.699  1.6344  1.6413 -0.9415
 8982SOL     OW38578   3.679   2.966   0.715  0.6393  0.3621  0.5875
 8982SOL    HW138579   3.608   2.966   0.651  1.1309  0.1837  0.0426
 8982SOL    HW238580   3.638   2.990   0.798 -0.7507  0.9746 -0.2784
 8983SOL     OW38581   1.503   0.219   8.190 -0.1925  0.1083 -0.7737
 8983SOL    HW138582   1.477   0.131   8.165  0.9508 -0.2493 -0.7049
 8983SOL    HW238583   1.506   0.228   8.285 -2.5670  0.4301 -0.7353
 8984SOL     OW38584   3.320   2.734   6.122  0.1244  0.0236  0.2524
 8984SOL    HW138585   3.244   2.746   6.064  1.9550  2.0065 -1.7022
 8984SOL    HW238586   3.385   2.688   6.069 -0.2097 -0.6468  0.4127
 8985SOL     OW38587   3.437   4.263   8.839 -0.7376  0.0232  0.9653
 8985SOL    HW138588   3.432   4.298   8.928  0.5902  1.1104  0.6288
 8985SOL    HW238589   3.524   4.222   8.838 -0.2977  1.0805 -4.1255
 8986SOL     OW38590   1.868   3.463   5.417 -0.1503 -0.0139 -0.3986
 8986SOL    HW138591   1.806   3.428   5.353  0.6138 -0.9239 -0.6321
 8986SOL    HW238592   1.798   3.481   5.481 -0.7795 -0.5729 -0.9281
 8987SOL     OW38593   0.828   0.796  13.924  0.7264 -0.5615 -0.1350
 8987SOL    HW138594   0.803   0.730  13.988 -1.8204  1.9111  1.4604
 8987SOL    HW238595   0.833   0.751  13.840  0.4109 -2.2667  0.7707
 8988SOL     OW38596   3.957   3.410   5.492  0.3342  0.3062  0.3305
 8988SOL    HW138597   3.949   3.504   5.506 -1.1755  0.6683 -2.9327
 8988SOL    HW238598   4.004   3.383   5.571 -1.6284 -0.4448  1.2405
 8989SOL     OW38599   3.769   2.769  12.595 -0.0157 -0.2699 -0.2546
 8989SOL    HW138600   3.690   2.815  12.622 -0.2715 -1.8920  1.7646
 8989SOL    HW238601   3.738   2.679  12.608  2.4906 -1.1573 -0.2913
 8990SOL     OW38602   3.199   0.025   1.893  0.3310  0.1736 -0.1422
 8990SOL    HW138603   3.213   0.118   1.876 -0.6711  0.5049  0.9268
 8990SOL    HW238604   3.277   4.731   1.844 -0.3544 -0.4761 -0.8661
 8991SOL     OW38605   1.272   2.872   6.381  0.1921  0.0708 -0.9328
 8991SOL    HW138606   1.313   2.958   6.370 -0.4761  0.2083 -2.4413
 8991SOL    HW238607   1.247   2.853   6.290  0.3696  1.5312 -1.2860
 8992SOL     OW38608   0.783   1.715   6.408 -0.1885  0.4421 -0.5941
 8992SOL    HW138609   0.796   1.620   6.407  0.1752  0.4956 -1.1542
 8992SOL    HW238610   0.790   1.735   6.315 -1.8132  1.1340 -0.5547
 8993SOL     OW38611   2.265   1.737  15.332 -0.4935  0.2144 -0.4427
 8993SOL    HW138612   2.261   1.782  15.247  0.0039  0.1316 -0.5083
 8993SOL    HW238613   2.304   1.654  15.304 -3.8575 -1.6254  0.3240
 8994SOL     OW38614   2.254   3.120   1.149 -0.0583 -0.2739  0.2230
 8994SOL    HW138615   2.166   3.120   1.187  0.4582 -2.2583  1.3995
 8994SOL    HW238616   2.240   3.182   1.077  0.1373 -2.1557 -1.4332
 8995SOL     OW38617   0.010   1.401   2.292 -0.4173  0.4184  0.1607
 8995SOL    HW138618   4.699   1.318   2.276  1.5393 -0.5229 -0.5966
 8995SOL    HW238619   0.092   1.377   2.249 -0.9851 -1.4786  0.1275
 8996SOL     OW38620   4.199   4.498  12.771  0.6106 -0.2965 -0.5098
 8996SOL    HW138621   4.188   4.589  12.744 -0.0993 -0.2911 -0.2080
 8996SOL    HW238622   4.293   4.497  12.788  0.1628  2.5101  2.0596
 8997SOL     OW38623   4.295   1.017  15.011  0.3660  0.1579 -0.1941
 8997SOL    HW138624   4.205   1.049  15.010  0.8376  1.5457  1.4423
 8997SOL    HW238625   4.333   1.058  15.088 -0.2934 -0.6423  0.5612
 8998SOL     OW38626   1.355   3.244   6.031 -0.2383  0.2138 -0.3598
 8998SOL    HW138627   1.292   3.261   6.101  0.9821 -0.4709  0.9156
 8998SOL    HW238628   1.441   3.233   6.073  0.2831  1.1074 -1.1973
 8999SOL     OW38629   1.173   1.142  17.017 -0.1546 -0.5190 -0.1154
 8999SOL    HW138630   1.192   1.102  16.932  0.6774 -0.4860  0.0575
 8999SOL    HW238631   1.208   1.070  17.069  0.9514 -0.7006 -1.1220
 9000SOL     OW38632   2.147   3.589  11.002  0.4718 -0.2957  0.0441
 9000SOL    HW138633   2.201   3.656  11.043  0.1806  0.9415 -1.6235
 9000SOL    HW238634   2.064   3.594  11.050 -0.2818  0.7371 -1.3720
 9001SOL     OW38635   2.617   2.397  14.829  0.1512 -0.3699  0.0202
 9001SOL    HW138636   2.543   2.370  14.883  0.4681  0.6097  0.9526
 9001SOL    HW238637   2.651   2.311  14.804  1.8482  0.9321 -2.2311
 9002SOL     OW38638   2.039   0.775  16.121 -0.0728  0.0668 -0.4993
 9002SOL    HW138639   2.065   0.705  16.061 -0.1712 -0.1721 -0.2661
 9002SOL    HW238640   2.125   0.809  16.145 -0.9807  1.4330  0.8386
 9003SOL     OW38641   1.789   0.978   2.965  0.8531 -0.5371  0.0308
 9003SOL    HW138642   1.700   0.982   2.929  1.4264 -0.4406 -1.3934
 9003SOL    HW238643   1.822   1.061   2.930 -0.6724  0.0857  0.0828
 9004SOL     OW38644   0.557   1.208   3.036  0.1992  0.2182 -0.0532
 9004SOL    HW138645   0.641   1.166   3.051 -1.5433 -3.8419 -1.4592
 9004SOL    HW238646   0.535   1.239   3.124  1.5243 -1.0579  0.7140
 9005SOL     OW38647   0.422   4.101   4.721  1.1193 -0.5171 -0.1135
 9005SOL    HW138648   0.369   4.096   4.801  0.2926  1.3732 -0.5553
 9005SOL    HW238649   0.493   4.042   4.745  2.8097  1.3441 -0.5706
 9006SOL     OW38650   0.270   0.971   3.426 -0.1835  0.4575  0.0022
 9006SOL    HW138651   0.252   0.977   3.332  2.2707  1.0515 -0.4245
 9006SOL    HW238652   0.268   0.876   3.440  1.6419  0.3625 -0.4402
 9007SOL     OW38653   2.448   1.112   4.396 -0.8756  0.1796  0.1828
 9007SOL    HW138654   2.355   1.097   4.411 -0.6948  0.4075  1.5337
 9007SOL    HW238655   2.449   1.101   4.301  1.4536 -0.8324  0.3046
 9008SOL     OW38656   2.134   3.074  13.318  0.0666  0.0976  0.1485
 9008SOL    HW138657   2.177   2.989  13.302 -1.3763 -0.7318  0.6764
 9008SOL    HW238658   2.060   3.043  13.370 -0.5409 -0.4452 -1.0313
 9009SOL     OW38659   1.075   0.861   7.661  0.0468  0.8210 -0.1527
 9009SOL    HW138660   1.124   0.810   7.725 -2.1123  0.0998  0.9310
 9009SOL    HW238661   1.050   0.944   7.702 -1.1643 -0.0675  0.9110
 9010SOL     OW38662   0.307   0.963   2.634 -0.1910 -0.0297  0.6104
 9010SOL    HW138663   0.213   0.979   2.627 -0.3504 -0.5924  1.4813
 9010SOL    HW238664   0.328   0.898   2.567  2.4948  0.4560  0.9933
 9011SOL     OW38665   4.698   0.501   0.040 -0.3548  0.0789 -0.4479
 9011SOL    HW138666   0.030   0.456  17.725 -0.3185  0.9388 -1.1537
 9011SOL    HW238667   4.709   0.592   0.011 -0.3360  1.2371  3.3036
 9012SOL     OW38668   2.570   3.865   8.462 -0.5478 -0.1914  0.0514
 9012SOL    HW138669   2.554   3.793   8.522 -1.4110 -0.3409 -0.3584
 9012SOL    HW238670   2.665   3.861   8.445 -0.6344  1.4742 -0.9134
 9013SOL     OW38671   3.822   2.975   3.559  0.3307 -0.1412  0.1541
 9013SOL    HW138672   3.850   2.890   3.593 -0.7790 -1.1673 -1.5282
 9013SOL    HW238673   3.881   3.036   3.603  2.6072  0.3326 -3.6114
 9014SOL     OW38674   4.346   4.398   0.264 -0.4178 -0.2927 -0.1427
 9014SOL    HW138675   4.360   4.306   0.240  0.8735  0.0409 -0.6810
 9014SOL    HW238676   4.336   4.434   0.176  0.7559 -0.6535 -0.4282
 9015SOL     OW38677   1.155   2.293   2.874 -0.0319 -0.9369 -0.1114
 9015SOL    HW138678   1.241   2.262   2.846  0.1644  0.8814 -1.5325
 9015SOL    HW238679   1.176   2.367   2.932 -1.3321 -0.7935  0.1652
 9016SOL     OW38680   1.015   2.276   8.562  0.2557  0.2253  0.3719
 9016SOL    HW138681   1.096   2.321   8.587  0.4282  0.2742 -0.2734
 9016SOL    HW238682   0.956   2.331   8.614 -2.4172 -1.0544 -1.2927
 9017SOL     OW38683   0.589   4.711  10.511  0.0397 -0.3003  0.0032
 9017SOL    HW138684   0.636   4.630  10.490 -0.2687 -0.6754  0.7438
 9017SOL    HW238685   0.656   0.024  10.560 -1.2619  1.0732  0.4465
 9018SOL     OW38686   2.342   2.088   0.660  0.0536  0.2799 -0.4080
 9018SOL    HW138687   2.415   2.135   0.619 -0.9117  1.7461 -0.4613
 9018SOL    HW238688   2.381   2.005   0.687 -0.1983 -0.3012 -1.8292
 9019SOL     OW38689   2.621   3.562   7.602 -0.3126  0.4442  0.2351
 9019SOL    HW138690   2.548   3.543   7.543  0.6213  0.6701 -0.9771
 9019SOL    HW238691   2.589   3.519   7.681 -0.2881  0.9598  0.5263
 9020SOL     OW38692   1.834   3.464  12.571 -0.3615  0.3470  0.0226
 9020SOL    HW138693   1.825   3.473  12.666 -0.6318  1.0729 -0.0793
 9020SOL    HW238694   1.782   3.389  12.544  0.7435 -0.1452 -0.7569
 9021SOL     OW38695   3.053   2.304   4.510  0.3019  0.2927 -0.0435
 9021SOL    HW138696   3.115   2.232   4.515 -1.1160 -0.9756 -0.6463
 9021SOL    HW238697   3.076   2.367   4.579  1.9582 -0.4127  0.0369
 9022SOL     OW38698   1.862   4.174   8.326 -0.3348  0.4467 -0.2014
 9022SOL    HW138699   1.911   4.135   8.399  0.5839 -0.1701 -1.1569
 9022SOL    HW238700   1.930   4.161   8.260  0.2888  0.0249  0.5243
 9023SOL     OW38701   3.678   4.629   2.588  0.5016 -0.1022  0.5994
 9023SOL    HW138702   3.738   4.625   2.663 -1.2263 -0.9877  1.9497
 9023SOL    HW238703   3.591   4.632   2.630 -0.4194  2.7146 -1.5454
 9024SOL     OW38704   1.519   2.646   5.746  0.3325  0.7337  0.1424
 9024SOL    HW138705   1.561   2.635   5.661 -2.1981 -2.3803 -0.6899
 9024SOL    HW238706   1.451   2.579   5.735  0.8090  0.3997 -0.7664
 9025SOL     OW38707   0.101   2.746   3.003 -0.2311  0.8137  0.0595
 9025SOL    HW138708   0.033   2.768   3.067 -0.3103  1.9356 -0.4194
 9025SOL    HW238709   0.125   2.661   3.041 -0.4197  0.7443  0.0205
 9026SOL     OW38710   3.176   0.145   5.127  0.2817 -0.1809  0.2879
 9026SOL    HW138711   3.118   0.138   5.203 -0.1667 -0.2828 -0.0633
 9026SOL    HW238712   3.146   0.219   5.075 -0.1082 -0.9357 -0.5464
 9027SOL     OW38713   4.229   2.103  17.531  0.5347 -0.2283  0.2753
 9027SOL    HW138714   4.231   2.046  17.608 -0.1496 -1.7545 -0.8598
 9027SOL    HW238715   4.303   2.163  17.546  1.1915 -0.6535 -1.2976
 9028SOL     OW38716   1.361   3.006   2.146 -0.4195  0.3140  0.1159
 9028SOL    HW138717   1.283   2.962   2.111 -0.8714 -0.3584  1.9793
 9028SOL    HW238718   1.380   2.951   2.221  2.4396  0.9730 -0.1484
 9029SOL     OW38719   2.046   0.277   1.052 -0.8590 -0.1746 -0.6056
 9029SOL    HW138720   2.019   0.363   1.084 -1.8089 -0.8031  0.2587
 9029SOL    HW238721   2.034   0.227   1.133  0.1357  0.7596  0.1271
 9030SOL     OW38722   2.192   3.142  15.968  0.5031 -0.2657  0.1362
 9030SOL    HW138723   2.169   3.206  15.900  0.5952 -1.8276 -1.3736
 9030SOL    HW238724   2.275   3.113  15.932  0.3908 -1.9376  1.2313
 9031SOL     OW38725   1.323   2.758   4.892 -0.5552  0.4217  0.3642
 9031SOL    HW138726   1.313   2.752   4.797 -0.9495 -2.9622  0.6158
 9031SOL    HW238727   1.399   2.814   4.909 -0.2577  0.1273 -0.0002
 9032SOL     OW38728   2.322   2.849   2.585 -0.2774 -0.1201 -0.3987
 9032SOL    HW138729   2.280   2.786   2.525 -0.3549 -0.8550  0.4220
 9032SOL    HW238730   2.281   2.829   2.669 -0.7527 -0.5854 -0.7372
 9033SOL     OW38731   0.375   4.265   2.851 -0.3762  0.4166 -0.2072
 9033SOL    HW138732   0.341   4.351   2.828 -0.2944  0.0349 -1.7292
 9033SOL    HW238733   0.320   4.238   2.925  0.4398  1.0928  0.6381
 9034SOL     OW38734   3.969   1.399   8.708 -0.3334  0.0450  0.1194
 9034SOL    HW138735   3.946   1.492   8.716 -2.3197 -0.1927 -2.9669
 9034SOL    HW238736   3.889   1.356   8.737 -0.3741  1.0638  1.5144
 9035SOL     OW38737   1.969   0.809   1.090  0.3731  0.1687 -0.2822
 9035SOL    HW138738   1.959   0.713   1.095  1.4858  0.0046 -1.1606
 9035SOL    HW238739   1.881   0.838   1.067  1.1820  2.8492  0.0274
 9036SOL     OW38740   0.807   1.500   4.324  0.2724 -0.2387 -0.1310
 9036SOL    HW138741   0.755   1.565   4.276 -0.8100 -0.2799  0.9775
 9036SOL    HW238742   0.845   1.445   4.255  1.2170  0.7865 -0.4320
 9037SOL     OW38743   2.662   2.882  12.389 -0.3520 -0.2472  0.3231
 9037SOL    HW138744   2.637   2.974  12.387  1.7203  0.3389  1.5910
 9037SOL    HW238745   2.577   2.844  12.365 -1.5786  1.8603  1.3387
 9038SOL     OW38746   4.699   2.088   0.405 -0.1240  0.8370 -0.5103
 9038SOL    HW138747   0.054   2.120   0.411  1.0701 -2.4340 -0.6469
 9038SOL    HW238748   4.661   2.151   0.345 -0.5733  1.0729  0.0209
 9039SOL     OW38749   1.041   2.044  13.660  0.2085 -0.1845  0.0815
 9039SOL    HW138750   0.966   2.103  13.671 -2.0864 -2.8889 -1.2947
 9039SOL    HW238751   1.010   1.969  13.610 -1.7697  0.0182  1.0376
 9040SOL     OW38752   4.325   0.823   5.341 -0.5001 -0.0506  0.0758
 9040SOL    HW138753   4.244   0.849   5.386 -1.1332 -2.0304  0.0998
 9040SOL    HW238754   4.293   0.822   5.251  1.1207 -0.5698 -0.4883
 9041SOL     OW38755   1.414   3.533  16.130 -0.2108  0.4413 -0.1676
 9041SOL    HW138756   1.445   3.593  16.062  0.6730 -0.2435 -0.3636
 9041SOL    HW238757   1.414   3.587  16.209 -1.6933  0.5589 -0.2486
 9042SOL     OW38758   2.578   3.886   9.978 -0.2437  0.0747 -0.1749
 9042SOL    HW138759   2.535   3.830  10.042 -0.6500  2.3002  1.4958
 9042SOL    HW238760   2.553   3.963  10.029  0.6634 -0.1942  0.6714
 9043SOL     OW38761   1.821   0.882   7.861 -0.0004 -0.1435 -0.4946
 9043SOL    HW138762   1.857   0.948   7.801 -1.3616 -0.6765 -1.8939
 9043SOL    HW238763   1.767   0.838   7.796  0.2269  0.2276 -0.9296
 9044SOL     OW38764   0.429   1.336   5.959 -0.2410 -0.3431  0.1615
 9044SOL    HW138765   0.440   1.407   6.022  0.4517 -0.0006 -0.3582
 9044SOL    HW238766   0.467   1.369   5.878  1.6203 -2.5798  0.1460
 9045SOL     OW38767   2.911   3.010   9.236  0.1418  0.2920  0.2522
 9045SOL    HW138768   2.895   3.084   9.177 -0.7356  1.3976  1.8851
 9045SOL    HW238769   2.858   3.023   9.314 -1.9352  0.5200 -1.1814
 9046SOL     OW38770   3.153   1.003  12.840 -0.0220  0.3127  0.6082
 9046SOL    HW138771   3.097   0.928  12.820 -0.1306 -0.0177  2.1198
 9046SOL    HW238772   3.222   0.984  12.777 -2.3926 -0.7000 -1.6797
 9047SOL     OW38773   3.574   2.215   4.491 -0.0138  0.0657 -0.0962
 9047SOL    HW138774   3.655   2.167   4.507  1.4549  2.1515 -1.3292
 9047SOL    HW238775   3.541   2.231   4.580  0.3480  0.8669 -0.1046
 9048SOL     OW38776   4.654   4.322   1.562  0.1879 -0.3862 -0.1500
 9048SOL    HW138777   4.653   4.399   1.504  3.8961  1.0136  1.6738
 9048SOL    HW238778   4.643   4.252   1.497 -0.3052  1.0273 -1.5957
 9049SOL     OW38779   2.171   3.502   6.328  0.2376  0.0459  0.2654
 9049SOL    HW138780   2.109   3.453   6.274  0.5669  0.4106 -0.4461
 9049SOL    HW238781   2.176   3.444   6.404  0.8155  0.3135  0.4301
 9050SOL     OW38782   1.262   0.580  12.554  0.2332 -0.2961 -0.5965
 9050SOL    HW138783   1.202   0.542  12.617 -1.6959  0.3105 -2.0904
 9050SOL    HW238784   1.250   0.675  12.560 -0.0044 -0.5355  2.6464
 9051SOL     OW38785   0.432   0.779  17.252  0.3629 -0.0149 -0.2157
 9051SOL    HW138786   0.399   0.837  17.320 -1.3476  0.0779 -1.1248
 9051SOL    HW238787   0.377   0.804  17.177 -2.5591 -0.5210  1.7361
 9052SOL     OW38788   0.742   2.559   8.920  0.5040 -0.4068 -0.1648
 9052SOL    HW138789   0.679   2.622   8.885 -0.0326  0.5967  2.5393
 9052SOL    HW238790   0.787   2.614   8.984 -0.4112  0.7082 -0.4882
 9053SOL     OW38791   2.770   0.820  10.523  0.6772 -0.0490  0.1269
 9053SOL    HW138792   2.694   0.812  10.580 -0.6302 -0.5132 -1.6855
 9053SOL    HW238793   2.806   0.889  10.578 -0.9123  1.1084 -0.2769
 9054SOL     OW38794   4.013   3.614  16.704  0.5506  0.1580  0.8319
 9054SOL    HW138795   3.950   3.557  16.661 -0.0576  0.3558  1.4615
 9054SOL    HW238796   3.985   3.699  16.668  0.6134  0.1660  0.8004
 9055SOL     OW38797   0.307   2.356   9.143  0.5757  0.4318 -0.4569
 9055SOL    HW138798   0.332   2.306   9.220 -1.6876  1.5852  1.0259
 9055SOL    HW238799   0.388   2.361   9.091  1.0533  1.1302  0.3533
 9056SOL     OW38800   1.228   4.729   5.337 -0.4834 -0.5168 -0.8789
 9056SOL    HW138801   1.261   4.638   5.340 -1.3052 -0.8251 -1.3979
 9056SOL    HW238802   1.294   0.023   5.401  1.1403 -3.0662 -1.3827
 9057SOL     OW38803   0.746   4.663   2.518  0.3913  0.1907 -0.0252
 9057SOL    HW138804   0.762   0.008   2.468  0.1992  0.5697  0.5179
 9057SOL    HW238805   0.787   4.682   2.603  1.8553  2.8674 -1.3583
 9058SOL     OW38806   2.042   0.406   4.027 -0.3664  0.5798  0.0793
 9058SOL    HW138807   2.007   0.317   4.019  2.0726 -0.2264 -1.3728
 9058SOL    HW238808   2.135   0.390   4.038 -0.5007 -0.2811 -0.0074
 9059SOL     OW38809   2.383   2.475   9.194  0.6420 -0.2669  0.0596
 9059SOL    HW138810   2.363   2.477   9.100  0.2419 -3.4910  0.0743
 9059SOL    HW238811   2.437   2.398   9.208  1.8419  0.5536 -0.1141
 9060SOL     OW38812   3.794   3.620   0.334  0.3359 -0.2961  0.1412
 9060SOL    HW138813   3.840   3.536   0.324 -0.4443 -0.7317  0.2473
 9060SOL    HW238814   3.791   3.622   0.429  1.1900 -0.7714  0.1782
 9061SOL     OW38815   2.656   1.783  10.124  0.0371 -0.2166  0.1472
 9061SOL    HW138816   2.674   1.742  10.208  2.0402  1.0901  0.3740
 9061SOL    HW238817   2.686   1.873  10.135  2.0674 -1.1297  2.0249
 9062SOL     OW38818   1.821   2.952   3.533 -0.7958 -0.1326  0.4857
 9062SOL    HW138819   1.820   2.902   3.614  1.1348 -2.1671 -0.7521
 9062SOL    HW238820   1.875   3.028   3.555  0.8444 -0.9490 -0.8105
 9063SOL     OW38821   1.875   1.436  17.081 -0.3445 -0.4715  0.1885
 9063SOL    HW138822   1.943   1.483  17.130 -0.6874 -2.0168  2.1165
 9063SOL    HW238823   1.841   1.501  17.020 -1.3565  0.2702  1.5393
 9064SOL     OW38824   0.138   3.106   0.427  0.3833  0.2958 -0.7032
 9064SOL    HW138825   0.072   3.039   0.441 -1.5271  2.0962 -0.9781
 9064SOL    HW238826   0.212   3.049   0.408  0.8958  0.6268  0.2884
 9065SOL     OW38827   2.388   1.618  16.585 -0.2247  0.7060  0.6385
 9065SOL    HW138828   2.475   1.617  16.625 -0.1466  2.5682  0.5063
 9065SOL    HW238829   2.395   1.552  16.516 -0.3519  0.5549  0.7691
 9066SOL     OW38830   2.273   4.490   8.146 -0.9655  0.0973 -0.3858
 9066SOL    HW138831   2.266   4.523   8.236  1.4346  1.1287 -0.5797
 9066SOL    HW238832   2.243   4.399   8.147 -1.5010  0.3111  2.6877
 9067SOL     OW38833   0.767   2.300  16.887  0.0058 -0.7152  0.1055
 9067SOL    HW138834   0.758   2.211  16.921 -1.9339  0.2367  2.0806
 9067SOL    HW238835   0.682   2.314  16.845  0.1413 -0.1543  0.0165
 9068SOL     OW38836   0.387   1.764   9.375  0.4873  0.5098 -0.3334
 9068SOL    HW138837   0.365   1.690   9.431  2.0311 -0.7429 -1.3909
 9068SOL    HW238838   0.319   1.758   9.307 -1.3936 -0.6334  1.6476
 9069SOL     OW38839   2.653   0.983  10.321  0.0848 -0.7954  0.1537
 9069SOL    HW138840   2.672   1.077  10.328  1.5889 -0.9251 -2.2699
 9069SOL    HW238841   2.718   0.939  10.376  0.5333 -0.4802 -0.1229
 9070SOL     OW38842   1.689   1.324   5.322  0.2313  0.4231  0.3483
 9070SOL    HW138843   1.738   1.279   5.253 -0.3051  0.8482 -0.3103
 9070SOL    HW238844   1.623   1.256   5.332 -0.5324  1.1707  0.3202
 9071SOL     OW38845   1.885   2.367   7.704  0.0662  0.5689  0.1877
 9071SOL    HW138846   1.799   2.401   7.729 -0.8032 -0.7844 -0.9413
 9071SOL    HW238847   1.870   2.272   7.711 -1.7004  0.9398  1.5081
 9072SOL     OW38848   3.025   4.648   7.683 -0.3355  0.0919 -0.1236
 9072SOL    HW138849   3.057   4.725   7.729 -1.6670  0.0728  0.8305
 9072SOL    HW238850   2.962   4.617   7.748  1.3421 -0.0290  1.4811
 9073SOL     OW38851   0.584   4.685   0.186 -0.2304 -0.0227  0.1431
 9073SOL    HW138852   0.633   4.604   0.173  1.2679  0.9959 -0.5350
 9073SOL    HW238853   0.494   4.657   0.204 -0.2732 -0.2764 -0.4718
 9074SOL     OW38854   3.189   1.837   6.274 -0.0340  0.1108  0.1674
 9074SOL    HW138855   3.182   1.837   6.370 -0.7514 -0.6191  0.1137
 9074SOL    HW238856   3.178   1.932   6.270  0.8904  0.2508  1.0295
 9075SOL     OW38857   1.304   1.562  11.742 -0.4979  0.2860 -0.2598
 9075SOL    HW138858   1.356   1.640  11.725  0.2569 -0.1980 -0.2146
 9075SOL    HW238859   1.278   1.560  11.834 -0.0802 -0.4045 -0.1538
 9076SOL     OW38860   1.922   4.585   4.852 -0.2365  0.1171  0.2201
 9076SOL    HW138861   2.008   4.577   4.894 -0.7288  1.7108  1.5205
 9076SOL    HW238862   1.861   4.557   4.921 -1.0888  1.7084  0.1023
 9077SOL     OW38863   3.564   2.722   8.239  0.7956  0.3215 -0.2449
 9077SOL    HW138864   3.522   2.736   8.154 -0.9206 -2.8602  0.0656
 9077SOL    HW238865   3.487   2.685   8.283  0.9880  0.9996  0.6711
 9078SOL     OW38866   1.248   3.958  11.437 -0.0530  0.5397  0.1233
 9078SOL    HW138867   1.283   4.031  11.488 -1.5589  0.6546  1.0170
 9078SOL    HW238868   1.235   3.894  11.507 -1.6462  1.0412  0.2931
 9079SOL     OW38869   0.380   1.666   1.221  0.4041  0.0411 -0.1113
 9079SOL    HW138870   0.307   1.615   1.256  0.6345 -0.9873 -1.1177
 9079SOL    HW238871   0.329   1.731   1.172 -2.0443  0.8011  3.4176
 9080SOL     OW38872   3.041   4.414   5.198 -0.1258  0.1332  0.7953
 9080SOL    HW138873   3.048   4.463   5.280 -1.4183 -1.1753  1.6734
 9080SOL    HW238874   2.979   4.345   5.220 -0.7437 -0.1055 -1.7194
 9081SOL     OW38875   4.352   1.493   2.274  0.0914  0.2764 -0.1189
 9081SOL    HW138876   4.448   1.503   2.278  0.1511 -0.0277 -0.8712
 9081SOL    HW238877   4.341   1.550   2.198  1.2628 -0.8377 -1.1190
 9082SOL     OW38878   1.772   2.054  11.352  0.1052 -0.0772 -0.0277
 9082SOL    HW138879   1.738   1.970  11.321  0.2463 -0.8773  2.0001
 9082SOL    HW238880   1.866   2.038  11.359  0.0584  0.0322  0.7914
 9083SOL     OW38881   4.404   1.288   7.207 -0.5291 -0.2400  0.2732
 9083SOL    HW138882   4.462   1.260   7.279 -0.3819 -1.8581 -0.4591
 9083SOL    HW238883   4.452   1.366   7.180 -3.2863  1.1885 -0.4308
 9084SOL     OW38884   1.411   4.131   5.642  0.3718  0.3205 -0.2284
 9084SOL    HW138885   1.341   4.196   5.645 -0.0793 -0.2225  1.0342
 9084SOL    HW238886   1.371   4.064   5.587 -0.8885  2.0750 -1.4227
 9085SOL     OW38887   3.036   0.447   3.648  0.3617 -0.2981 -0.7157
 9085SOL    HW138888   3.059   0.424   3.558 -1.1095  1.3238 -1.4832
 9085SOL    HW238889   3.093   0.519   3.676 -0.9129  0.9892 -1.4503
 9086SOL     OW38890   2.269   3.424  15.623 -0.0264 -0.3027  0.0110
 9086SOL    HW138891   2.362   3.441  15.610 -0.4147 -1.6008 -4.3064
 9086SOL    HW238892   2.248   3.476  15.701 -2.1949 -2.1205  0.6535
 9087SOL     OW38893   2.809   0.777   5.426  0.0732  0.2182 -0.1392
 9087SOL    HW138894   2.793   0.788   5.332 -0.3936 -1.2077 -0.2257
 9087SOL    HW238895   2.905   0.786   5.424 -0.0605  1.8566  0.7932
 9088SOL     OW38896   3.223   1.482  15.010  0.1905  0.0548  0.5641
 9088SOL    HW138897   3.306   1.527  15.023  1.0507 -1.7920  1.4194
 9088SOL    HW238898   3.159   1.539  15.054 -0.3432  1.7115 -2.3922
 9089SOL     OW38899   2.037   4.298   5.965 -0.3871  0.5631  0.0573
 9089SOL    HW138900   2.067   4.211   5.992 -3.6363 -0.1463  1.4426
 9089SOL    HW238901   2.042   4.346   6.047 -0.1618 -1.6559  1.3383
 9090SOL     OW38902   1.395   1.586   3.776 -0.1577  0.3990 -0.2428
 9090SOL    HW138903   1.401   1.527   3.701 -0.9715  0.1831 -0.1426
 9090SOL    HW238904   1.392   1.674   3.738 -0.9279  0.3108 -0.3860
 9091SOL     OW38905   3.606   3.446   7.923  0.9383  0.8049 -0.0827
 9091SOL    HW138906   3.514   3.463   7.899  0.4380 -0.7595  0.7709
 9091SOL    HW238907   3.595   3.395   8.003  1.1904  1.5889  0.4508
 9092SOL     OW38908   0.231   4.544   2.601 -0.6728 -0.1899 -0.8310
 9092SOL    HW138909   0.314   4.563   2.645 -2.5826  4.4849  0.7390
 9092SOL    HW238910   0.258   4.524   2.512 -1.9016 -2.1117 -0.7708
 9093SOL     OW38911   4.205   0.325   8.485  0.0274 -0.2709 -0.6598
 9093SOL    HW138912   4.136   0.382   8.520  2.2960  3.1045 -1.7117
 9093SOL    HW238913   4.149   0.258   8.446 -2.1609  1.3656 -0.3463
 9094SOL     OW38914   3.496   3.223   5.448 -0.5403 -0.3898  0.0362
 9094SOL    HW138915   3.454   3.308   5.436 -0.5351 -0.2278  1.1352
 9094SOL    HW238916   3.582   3.246   5.484  0.3552 -1.9841 -1.0886
 9095SOL     OW38917   4.058   0.855   4.753  0.4689 -0.4254  0.1691
 9095SOL    HW138918   4.075   0.762   4.740  0.4400 -0.2483 -1.2074
 9095SOL    HW238919   3.964   0.852   4.771  0.2134 -0.0908 -1.0924
 9096SOL     OW38920   3.562   0.898   0.265  0.5033 -0.0465  0.4130
 9096SOL    HW138921   3.513   0.885   0.346 -0.7833  0.0193 -0.3532
 9096SOL    HW238922   3.635   0.837   0.276  0.2731 -0.7325 -1.8428
 9097SOL     OW38923   2.254   0.759   1.340  0.1362  0.0737  0.1378
 9097SOL    HW138924   2.239   0.693   1.272 -1.3693 -0.2751  0.8011
 9097SOL    HW238925   2.342   0.726   1.357  0.0454  0.0303  0.5288
 9098SOL     OW38926   2.318   1.126   6.553 -0.4732  0.0495  0.2264
 9098SOL    HW138927   2.413   1.115   6.549 -0.2545  1.6198  1.0258
 9098SOL    HW238928   2.303   1.133   6.459 -2.1010 -2.0563  0.3372
 9099SOL     OW38929   3.618   1.400   7.297 -0.1671  0.3607  0.4752
 9099SOL    HW138930   3.695   1.399   7.354  1.7286  1.1526 -2.1113
 9099SOL    HW238931   3.580   1.487   7.309 -0.2603  0.2106  1.2712
 9100SOL     OW38932   2.506   4.635   3.157  0.2202  0.1436  0.1426
 9100SOL    HW138933   2.499   4.542   3.133 -1.8431  0.3794 -0.1266
 9100SOL    HW238934   2.437   4.638   3.223 -0.3016 -0.4958 -0.3781
 9101SOL     OW38935   4.510   0.671  15.656  0.0557  0.1502  0.2645
 9101SOL    HW138936   4.464   0.604  15.606 -1.5467 -0.1276  2.1536
 9101SOL    HW238937   4.491   0.642  15.745  0.6990  1.4685  0.8376
 9102SOL     OW38938   2.372   2.273   4.240 -0.2594 -0.2592  0.2488
 9102SOL    HW138939   2.347   2.270   4.148 -0.8045 -2.4868  0.4673
 9102SOL    HW238940   2.439   2.342   4.239 -0.7570  0.1874 -1.6274
 9103SOL     OW38941   4.396   2.837  15.973  0.4287 -0.0884  0.3652
 9103SOL    HW138942   4.466   2.882  15.925  0.0077 -0.3066 -0.4547
 9103SOL    HW238943   4.359   2.908  16.025  0.7845  0.6950 -0.4571
 9104SOL     OW38944   4.712   3.751   4.318  0.2807  0.0170  0.0668
 9104SOL    HW138945   4.679   3.676   4.268  2.7037 -0.7635 -0.3906
 9104SOL    HW238946   0.058   3.760   4.266  0.5060 -1.1228  0.2131
 9105SOL     OW38947   0.603   0.559  12.581 -0.1225  0.3825 -0.3127
 9105SOL    HW138948   0.676   0.518  12.535  0.5006  1.2954 -0.1534
 9105SOL    HW238949   0.532   0.574  12.519 -0.8181  0.1889  0.4440
 9106SOL     OW38950   3.290   1.180   5.583  0.0780  0.4554 -0.3195
 9106SOL    HW138951   3.363   1.143   5.633 -0.1246  0.0043 -0.3580
 9106SOL    HW238952   3.251   1.249   5.636 -1.4318  1.7449 -3.1211
 9107SOL     OW38953   0.871   3.710   5.227 -0.4632  0.1487 -0.7340
 9107SOL    HW138954   0.851   3.645   5.160  2.7972 -0.7560 -0.8401
 9107SOL    HW238955   0.931   3.770   5.183 -0.4043 -0.3149 -1.2776
 9108SOL     OW38956   1.758   1.589  15.924 -0.1560  0.1988 -0.6622
 9108SOL    HW138957   1.725   1.564  15.838 -0.5877 -2.4607  0.2856
 9108SOL    HW238958   1.728   1.524  15.987  2.3463  2.0148  2.4339
 9109SOL     OW38959   3.591   4.349   5.466 -0.0271  0.1333 -0.0994
 9109SOL    HW138960   3.597   4.308   5.552 -2.7284  0.1552  0.0731
 9109SOL    HW238961   3.509   4.316   5.429 -0.2416  0.0775  0.4323
 9110SOL     OW38962   0.872   4.467   8.563 -0.4378 -0.6803  0.0103
 9110SOL    HW138963   0.912   4.515   8.636  1.2974 -1.2748 -0.5490
 9110SOL    HW238964   0.783   4.500   8.552 -0.5115 -0.4503  1.2536
 9111SOL     OW38965   1.199   4.150   7.434  0.6025  0.4176  0.0902
 9111SOL    HW138966   1.265   4.194   7.381 -0.2955  0.5543 -0.9011
 9111SOL    HW238967   1.143   4.113   7.365  2.1402 -1.2251 -0.2905
 9112SOL     OW38968   4.033   0.371   8.252 -0.3812  0.1369 -0.6543
 9112SOL    HW138969   3.964   0.381   8.186 -1.2167  1.9906  0.5117
 9112SOL    HW238970   4.101   0.325   8.203 -0.0280  0.8887 -0.8728
 9113SOL     OW38971   0.209   3.522   2.500  0.0644 -0.1303 -0.1414
 9113SOL    HW138972   0.222   3.615   2.479 -0.8360 -0.6868 -3.1510
 9113SOL    HW238973   0.249   3.481   2.424 -0.9919 -1.5168  0.0526
 9114SOL     OW38974   3.767   1.830   6.628  0.1655 -0.0395  0.6778
 9114SOL    HW138975   3.838   1.767   6.627  2.6671  2.7512  0.5528
 9114SOL    HW238976   3.705   1.798   6.694 -1.7574  1.1095 -0.5589
 9115SOL     OW38977   0.408   3.056  15.871 -0.1849 -0.3342  0.1327
 9115SOL    HW138978   0.433   2.979  15.922 -1.0360 -0.3714  0.4902
 9115SOL    HW238979   0.435   3.021  15.786  0.5040 -1.5838  0.8576
 9116SOL     OW38980   2.349   0.636  17.024 -0.5794 -0.1072 -0.0662
 9116SOL    HW138981   2.350   0.601  16.935  1.5953 -0.1017 -0.0322
 9116SOL    HW238982   2.376   0.554  17.065 -0.7880 -0.0712  0.1431
 9117SOL     OW38983   1.256   2.347   6.345  0.2440  0.2406  0.0987
 9117SOL    HW138984   1.198   2.340   6.269  0.1043 -1.2018  0.3198
 9117SOL    HW238985   1.200   2.392   6.408 -0.7630 -1.3913  0.3753
 9118SOL     OW38986   4.224   4.685   7.659 -0.0213 -0.3582 -0.3163
 9118SOL    HW138987   4.163   4.612   7.660 -0.7158  0.2201 -0.8931
 9118SOL    HW238988   4.277   4.663   7.582 -0.0696 -1.7373  0.0575
 9119SOL     OW38989   0.018   3.818   2.934 -0.2759 -0.2243  0.3665
 9119SOL    HW138990   4.658   3.826   2.924 -0.6956 -2.4253  2.6538
 9119SOL    HW238991   0.027   3.780   3.021  0.2712  2.4173  1.4350
 9120SOL     OW38992   1.117   2.449  12.151 -0.2435  0.0530 -0.1901
 9120SOL    HW138993   1.047   2.387  12.173 -0.4451  0.9209  1.6307
 9120SOL    HW238994   1.119   2.448  12.055 -0.3509 -2.9347 -0.1838
 9121SOL     OW38995   2.119   3.054   6.173 -0.2501  0.2640  0.0431
 9121SOL    HW138996   2.129   3.021   6.084 -2.0420 -1.8144  0.5980
 9121SOL    HW238997   2.165   2.989   6.227  0.8794  0.1336 -1.0909
 9122SOL     OW38998   2.289   4.693   5.672 -0.0303 -0.1316 -0.2258
 9122SOL    HW138999   2.258   4.618   5.723 -0.3006  1.0423  1.3120
 9122SOL    HW239000   2.269   0.028   5.734 -1.5669  0.4633 -1.3698
 9123SOL     OW39001   4.289   1.878   8.641  0.1413  0.1484 -0.0535
 9123SOL    HW139002   4.369   1.826   8.633 -0.9290 -1.4062 -0.5327
 9123SOL    HW239003   4.312   1.943   8.574  1.0887 -0.4686 -0.3266
 9124SOL     OW39004   2.943   4.668   1.917 -0.0059 -0.1603  0.3173
 9124SOL    HW139005   3.029   4.705   1.897  0.2696 -0.7141  0.4778
 9124SOL    HW239006   2.895   0.008   1.952 -0.8994 -0.9363  0.7533
 9125SOL     OW39007   2.172   2.404   3.152  0.1493 -0.0140 -0.2914
 9125SOL    HW139008   2.103   2.423   3.215  1.5445  0.7332  1.0295
 9125SOL    HW239009   2.245   2.410   3.214  0.4560 -0.2040 -0.6342
 9126SOL     OW39010   2.078   4.354   8.442 -0.0418  0.2060  0.0568
 9126SOL    HW139011   2.118   4.274   8.408 -0.2506  0.0843  0.1013
 9126SOL    HW239012   2.118   4.352   8.529  0.4809  2.2826 -0.1426
 9127SOL     OW39013   0.483   4.701   3.110  0.4512  0.2571  0.3826
 9127SOL    HW139014   0.469   4.700   3.205  0.3811  0.8435  0.3794
 9127SOL    HW239015   0.525   0.053   3.108 -2.0381  1.4936  1.0774
 9128SOL     OW39016   2.216   0.012   6.747 -0.1250  0.6120  0.2361
 9128SOL    HW139017   2.211   4.698   6.830  1.7806  0.0566  0.0184
 9128SOL    HW239018   2.292   4.709   6.703 -0.9785  0.6979 -1.3153
 9129SOL     OW39019   0.186   0.402  17.678 -0.1760 -0.6555 -0.4990
 9129SOL    HW139020   0.203   0.365  17.591  2.1002  0.2021 -0.4066
 9129SOL    HW239021   0.251   0.363  17.736 -1.5182 -2.7309 -0.3978
 9130SOL     OW39022   0.968   3.653   3.514  0.0496  0.3958 -0.0284
 9130SOL    HW139023   0.970   3.590   3.586  2.0488 -0.6302 -0.9721
 9130SOL    HW239024   1.061   3.674   3.526  0.0757  0.3496 -0.1533
 9131SOL     OW39025   4.398   4.252   6.781  0.0606 -0.7372 -0.0752
 9131SOL    HW139026   4.476   4.305   6.800 -0.0483 -0.8202  0.6232
 9131SOL    HW239027   4.343   4.313   6.732  0.8800  2.1934  2.6220
 9132SOL     OW39028   3.101   3.026   8.341 -0.0609  0.8483 -0.4880
 9132SOL    HW139029   3.089   2.994   8.430  0.6104 -0.0567 -0.7242
 9132SOL    HW239030   3.031   2.979   8.295 -0.4264 -0.0500  0.9923
 9133SOL     OW39031   0.574   3.063   6.620  0.2749 -0.1371 -0.0854
 9133SOL    HW139032   0.513   3.136   6.609  0.7665  0.5303  1.5313
 9133SOL    HW239033   0.574   3.049   6.715 -0.7824  1.7685  0.1932
 9134SOL     OW39034   1.579   1.764   5.279  0.1179 -0.5667 -1.0126
 9134SOL    HW139035   1.545   1.853   5.262 -2.0064 -0.9598  1.1292
 9134SOL    HW239036   1.650   1.759   5.215 -0.4782  0.8827 -1.8060
 9135SOL     OW39037   1.705   3.316  15.241  0.0278  0.6259 -0.0436
 9135SOL    HW139038   1.619   3.345  15.211 -1.0982 -0.8715  1.7415
 9135SOL    HW239039   1.691   3.225  15.219  0.2440  0.5518  0.1176
 9136SOL     OW39040   3.914   3.300   7.513 -0.5019  0.0793 -0.3876
 9136SOL    HW139041   3.838   3.344   7.475  0.6538  2.0419 -0.4599
 9136SOL    HW239042   3.888   3.323   7.603 -1.5423  1.9229 -1.1655
 9137SOL     OW39043   3.319   0.703   5.748 -0.3039  0.1536 -0.4985
 9137SOL    HW139044   3.258   0.730   5.817 -0.9170  0.1661 -1.0523
 9137SOL    HW239045   3.387   0.655   5.795 -1.9691 -1.7600 -0.0634
 9138SOL     OW39046   0.509   1.904   3.776 -0.0636 -0.0609 -0.0161
 9138SOL    HW139047   0.481   1.993   3.758  1.2057  0.2997 -0.2474
 9138SOL    HW239048   0.592   1.921   3.822 -0.1686 -1.5684  0.7455
 9139SOL     OW39049   4.192   3.398   2.354  0.1690  0.0618  0.2531
 9139SOL    HW139050   4.165   3.377   2.264 -1.1356 -2.3735  1.2038
 9139SOL    HW239051   4.285   3.374   2.354  0.1169 -0.1826 -1.1081
 9140SOL     OW39052   4.394   1.188  17.634  0.4574  0.4665 -0.0317
 9140SOL    HW139053   4.404   1.239  17.714 -3.0783 -0.6075  1.1111
 9140SOL    HW239054   4.444   1.241  17.572 -1.7686  1.2318 -1.1607
 9141SOL     OW39055   1.321   0.361   9.862 -0.2424 -0.7038  0.4015
 9141SOL    HW139056   1.416   0.364   9.857 -0.3422  1.1399 -0.2960
 9141SOL    HW239057   1.306   0.304   9.937 -2.4800  2.6587  2.4945
 9142SOL     OW39058   4.372   1.063   3.405 -0.1088  0.4746  0.1256
 9142SOL    HW139059   4.378   1.038   3.497 -0.4905  0.7249  0.2182
 9142SOL    HW239060   4.393   1.156   3.406  1.2550  0.2100 -2.7418
 9143SOL     OW39061   3.903   1.659   3.730  0.5353  0.1273 -0.3487
 9143SOL    HW139062   3.974   1.698   3.678  0.8462  1.0693  0.7886
 9143SOL    HW239063   3.955   1.607   3.791  0.5571  2.0851  1.3102
 9144SOL     OW39064   0.964   2.200   3.117 -0.4541 -0.0885 -0.4956
 9144SOL    HW139065   0.988   2.288   3.145 -3.6279 -0.0955  2.2202
 9144SOL    HW239066   1.045   2.176   3.073 -0.7196  1.7175 -1.9730
 9145SOL     OW39067   3.874   2.481   8.837 -0.6927  0.7179 -0.1852
 9145SOL    HW139068   3.947   2.477   8.899 -0.5061  0.4227 -0.4246
 9145SOL    HW239069   3.905   2.405   8.788  0.4081  0.9408  0.1753
 9146SOL     OW39070   0.581   4.310   7.578 -0.3505  0.2984  0.2246
 9146SOL    HW139071   0.654   4.338   7.633 -0.4556 -0.2217  0.6303
 9146SOL    HW239072   0.604   4.230   7.531  0.4267  1.3609 -1.2146
 9147SOL     OW39073   3.736   4.673   7.085  0.5081 -0.1157 -0.1207
 9147SOL    HW139074   3.683   4.623   7.147  0.9624 -0.8720 -0.3289
 9147SOL    HW239075   3.739   4.617   7.007 -1.2958 -1.2150  0.6131
 9148SOL     OW39076   0.364   3.680   2.990 -0.1061  0.0636  0.6617
 9148SOL    HW139077   0.315   3.654   2.912  0.0259  0.8091  0.3291
 9148SOL    HW239078   0.414   3.601   3.009  0.4840  0.5895  1.2941
 9149SOL     OW39079   3.267   3.819   0.715 -0.1804 -0.1888 -0.4158
 9149SOL    HW139080   3.285   3.837   0.807  1.3148 -1.6613 -0.4298
 9149SOL    HW239081   3.240   3.906   0.686 -0.1348  0.4850  1.5934
 9150SOL     OW39082   1.370   2.341   5.217 -0.3037 -0.1137  0.2522
 9150SOL    HW139083   1.386   2.363   5.125 -0.1041  3.0772  1.0537
 9150SOL    HW239084   1.452   2.296   5.241 -0.5781 -0.7258  0.0242
 9151SOL     OW39085   0.249   0.595   8.362 -0.4352 -0.2815 -0.4928
 9151SOL    HW139086   0.345   0.594   8.354 -0.4223  4.5630 -0.6891
 9151SOL    HW239087   0.230   0.567   8.452  0.5738 -0.1959 -0.2455
 9152SOL     OW39088   2.065   0.959   5.319  0.4770  0.1462  0.2941
 9152SOL    HW139089   2.115   0.883   5.290 -1.2688 -1.2647  0.9578
 9152SOL    HW239090   2.086   0.965   5.412 -0.3285 -3.1277  0.7039
 9153SOL     OW39091   1.898   1.543  12.860 -0.1697  0.3681 -0.6299
 9153SOL    HW139092   1.977   1.545  12.913 -1.5635 -0.5709  1.5312
 9153SOL    HW239093   1.827   1.525  12.923  0.0564 -0.8027 -0.7035
 9154SOL     OW39094   1.088   3.492   6.484  0.9584 -0.3484  0.5253
 9154SOL    HW139095   1.048   3.576   6.505  0.8732 -0.3170  0.2399
 9154SOL    HW239096   1.176   3.512   6.517  0.3358  2.0006  0.8169
 9155SOL     OW39097   1.364   0.881   8.853 -0.0130  0.5318  0.1110
 9155SOL    HW139098   1.268   0.879   8.857  0.0208  0.0825  0.6835
 9155SOL    HW239099   1.389   0.794   8.821 -0.5481  0.1366  0.7671
 9156SOL     OW39100   3.876   0.419  15.942 -0.4435  0.2317 -0.8956
 9156SOL    HW139101   3.826   0.371  16.008  0.7629  1.5743  0.9997
 9156SOL    HW239102   3.852   0.509  15.960 -0.3517 -0.2869  1.7963
 9157SOL     OW39103   2.971   2.881   2.316  0.2706 -0.1367  0.2846
 9157SOL    HW139104   2.884   2.918   2.300  0.4893  0.7118  1.0923
 9157SOL    HW239105   3.029   2.955   2.298  0.5442 -0.5650 -0.6147
 9158SOL     OW39106   3.829   2.459   7.821 -0.7867 -0.4571 -0.5324
 9158SOL    HW139107   3.902   2.514   7.794 -1.0295 -0.7087 -1.6791
 9158SOL    HW239108   3.780   2.519   7.879  1.6425 -1.7828  2.8771
 9159SOL     OW39109   0.811   1.982   9.047  0.0216 -0.3060  0.8052
 9159SOL    HW139110   0.893   1.939   9.073  1.3667  1.6933 -0.1072
 9159SOL    HW239111   0.748   1.945   9.108  1.4204 -2.1868  1.1015
 9160SOL     OW39112   2.957   3.299   2.168  0.0065 -0.4515 -0.3434
 9160SOL    HW139113   2.960   3.209   2.201 -0.1965 -0.0909  0.6427
 9160SOL    HW239114   3.018   3.341   2.228  1.9225 -2.1815 -1.0503
 9161SOL     OW39115   0.210   3.621   9.419 -0.5288  0.0405 -0.1953
 9161SOL    HW139116   0.150   3.672   9.366  0.9779  1.0604 -0.9238
 9161SOL    HW239117   0.260   3.688   9.466  1.6400 -1.4478 -0.3579
 9162SOL     OW39118   0.063   1.661  14.031  0.0938  0.2265 -0.3305
 9162SOL    HW139119   0.156   1.670  14.053  0.0330  0.8320 -0.3214
 9162SOL    HW239120   0.032   1.752  14.028 -0.0430  0.1741 -0.5370
 9163SOL     OW39121   4.718   0.532  14.144  0.1944 -0.2637  0.1042
 9163SOL    HW139122   4.633   0.489  14.131  0.3356  0.0449 -1.8935
 9163SOL    HW239123   0.005   0.575  14.061  1.5166  2.6783  1.9558
 9164SOL     OW39124   1.589   0.603  10.044  0.5533  0.3217 -0.1649
 9164SOL    HW139125   1.569   0.521   9.999 -0.8600  1.3110 -1.3540
 9164SOL    HW239126   1.541   0.607  10.127 -1.4068 -1.4725 -1.2135
 9165SOL     OW39127   2.518   1.888   4.267 -0.0039  0.0905 -0.3844
 9165SOL    HW139128   2.530   1.797   4.294  0.8831  0.3993  0.2486
 9165SOL    HW239129   2.584   1.931   4.321 -1.0615  1.3980 -0.1614
 9166SOL     OW39130   1.430   4.034   0.215  0.5336  0.2290 -0.0851
 9166SOL    HW139131   1.512   3.985   0.221  1.2520  1.4822  0.5423
 9166SOL    HW239132   1.446   4.112   0.269 -3.5857  1.7329 -1.0283
 9167SOL     OW39133   1.097   2.126   2.151 -0.2601  0.7404 -0.2683
 9167SOL    HW139134   1.107   2.039   2.112  1.1986  0.8657 -0.1625
 9167SOL    HW239135   1.004   2.124   2.176 -0.5986 -0.6423 -1.6574
 9168SOL     OW39136   2.291   3.584   5.190  0.2486  0.9419 -0.3885
 9168SOL    HW139137   2.274   3.668   5.233 -1.1981  0.3472  0.1799
 9168SOL    HW239138   2.268   3.599   5.098 -0.5738  1.1359 -0.1532
 9169SOL     OW39139   1.522   0.716   2.313  0.6761  0.2838  0.2018
 9169SOL    HW139140   1.613   0.707   2.341  0.4701 -0.3155  0.6926
 9169SOL    HW239141   1.529   0.799   2.266  1.1799  0.1881  0.1039
 9170SOL     OW39142   3.000   1.719   2.111  0.3085 -0.2448  0.4260
 9170SOL    HW139143   2.930   1.743   2.171  0.1745  1.0930 -0.2602
 9170SOL    HW239144   2.988   1.626   2.128  0.3212 -0.1899  0.7282
 9171SOL     OW39145   4.003   0.303   2.007 -0.2330  0.5167 -0.6087
 9171SOL    HW139146   3.925   0.317   2.060  0.4757 -0.4249  0.6804
 9171SOL    HW239147   4.003   0.376   1.945  0.7714 -1.1409 -2.5631
 9172SOL     OW39148   3.145   3.579   2.636 -0.4937  1.0331 -0.2788
 9172SOL    HW139149   3.064   3.622   2.664 -1.2341 -0.7452  0.3520
 9172SOL    HW239150   3.119   3.487   2.635 -0.0096  0.8863  1.8718
 9173SOL     OW39151   1.682   4.436   6.418  0.3509  0.3206 -0.1943
 9173SOL    HW139152   1.726   4.516   6.448  1.1450  0.1922 -1.0372
 9173SOL    HW239153   1.613   4.472   6.363  0.6556  1.1898 -0.0094
 9174SOL     OW39154   2.208   4.060   4.341 -0.4540 -0.1068  0.0911
 9174SOL    HW139155   2.296   4.024   4.340 -0.3464  0.1652 -0.0858
 9174SOL    HW239156   2.200   4.082   4.434 -1.8108  1.5569 -0.4097
 9175SOL     OW39157   0.699   3.736   6.153  0.5250  0.0523 -0.5229
 9175SOL    HW139158   0.693   3.824   6.115  2.1792  1.1112  1.7231
 9175SOL    HW239159   0.654   3.681   6.089  2.2524 -1.5184 -0.3705
 9176SOL     OW39160   4.575   2.636   4.071  0.3042 -0.2371 -0.2078
 9176SOL    HW139161   4.658   2.591   4.082  0.2449  0.1779  2.0042
 9176SOL    HW239162   4.511   2.573   4.104  0.6609 -0.5080 -0.0407
 9177SOL     OW39163   0.323   3.471   5.475  0.3954  0.1900  0.0906
 9177SOL    HW139164   0.415   3.485   5.450  0.4746  1.0380  0.8485
 9177SOL    HW239165   0.291   3.536   5.413  0.7175 -0.2508 -0.5347
 9178SOL     OW39166   2.600   0.134   6.571  0.1856  0.5995  0.1406
 9178SOL    HW139167   2.674   0.074   6.572 -0.5326 -0.3121 -0.5391
 9178SOL    HW239168   2.629   0.194   6.639 -0.4849 -0.6346  1.5042
 9179SOL     OW39169   3.584   3.418   2.691 -1.0517  0.2573  0.5487
 9179SOL    HW139170   3.576   3.461   2.606 -0.6215  0.5053  0.6358
 9179SOL    HW239171   3.657   3.359   2.672 -0.5859  0.5310  1.5260
 9180SOL     OW39172   1.477   0.964   0.907 -0.4291  0.1574 -0.4617
 9180SOL    HW139173   1.419   1.039   0.921  0.3748  1.0376 -1.7473
 9180SOL    HW239174   1.498   0.991   0.817 -0.3097 -0.5269 -0.6353
 9181SOL     OW39175   0.969   3.249   4.744  0.0120 -0.4522  0.2162
 9181SOL    HW139176   1.039   3.263   4.807 -0.0687 -0.3127  0.2745
 9181SOL    HW239177   0.992   3.325   4.690 -0.4659  0.5971  1.4914
 9182SOL     OW39178   2.726   0.092   3.899 -0.6050  0.1370  0.0409
 9182SOL    HW139179   2.805   0.145   3.892  0.5519 -1.6794 -0.6370
 9182SOL    HW239180   2.750   0.016   3.846 -0.0794 -0.1270  0.6633
 9183SOL     OW39181   4.426   2.904   6.029  0.1944  0.1575  0.1984
 9183SOL    HW139182   4.479   2.967   6.077 -0.3842  1.4022 -0.7936
 9183SOL    HW239183   4.354   2.879   6.087  2.1348 -2.1070  1.5961
 9184SOL     OW39184   2.841   1.086   5.762  0.1245  0.2208  0.1743
 9184SOL    HW139185   2.933   1.066   5.743 -1.2361 -1.8931 -3.9948
 9184SOL    HW239186   2.805   1.101   5.675  0.1428 -1.2292 -0.0829
 9185SOL     OW39187   2.504   3.611   6.835  0.2915  0.0242  0.3518
 9185SOL    HW139188   2.471   3.700   6.819 -0.0546 -0.1965 -0.1713
 9185SOL    HW239189   2.471   3.596   6.923 -1.7591  2.8986  0.0968
 9186SOL     OW39190   3.313   1.857   1.052  0.4059  0.3235 -0.0729
 9186SOL    HW139191   3.365   1.797   0.999 -1.0393 -1.7874  0.9119
 9186SOL    HW239192   3.260   1.903   0.986  1.3386 -1.7129 -2.2057
 9187SOL     OW39193   1.360   3.702   4.353 -0.2583  0.4058  0.4867
 9187SOL    HW139194   1.307   3.715   4.275 -1.2935 -0.6564  1.0190
 9187SOL    HW239195   1.441   3.677   4.309 -0.9038 -0.9938  0.1002
 9188SOL     OW39196   1.140   4.319   6.712  0.2335 -0.1442 -0.2648
 9188SOL    HW139197   1.222   4.367   6.701  0.6881 -0.1185  3.3499
 9188SOL    HW239198   1.155   4.226   6.697 -0.4379 -0.0024 -1.7995
 9189SOL     OW39199   0.913   4.192   8.448 -0.0445  0.7961 -0.4612
 9189SOL    HW139200   0.979   4.207   8.380 -1.3428  0.2065 -1.8425
 9189SOL    HW239201   0.877   4.277   8.473  0.1543  0.4674  0.9641
 9190SOL     OW39202   4.585   2.921   0.131 -0.4706  0.5387  0.2759
 9190SOL    HW139203   4.540   2.839   0.110 -0.4062  0.6617 -0.3354
 9190SOL    HW239204   4.524   2.984   0.091 -1.8606 -0.1885  1.2458
 9191SOL     OW39205   3.882   3.644   7.602  0.2088  0.1086  0.3793
 9191SOL    HW139206   3.903   3.722   7.550 -0.5732  1.9427  2.8272
 9191SOL    HW239207   3.814   3.685   7.656 -0.3235 -0.0557 -0.1644
 9192SOL     OW39208   1.047   2.011   1.273 -0.4781  0.3066 -0.0401
 9192SOL    HW139209   0.979   1.944   1.263 -2.6698  2.8917 -2.4741
 9192SOL    HW239210   1.044   2.021   1.368 -0.7026  1.1641 -0.1375
 9193SOL     OW39211   3.348   3.156   8.302 -0.1208 -0.2462  0.2062
 9193SOL    HW139212   3.270   3.100   8.297 -0.5931  0.2842  1.3808
 9193SOL    HW239213   3.318   3.243   8.275 -0.7183 -0.8788 -1.1412
 9194SOL     OW39214   2.364   4.133   8.740  0.1337  0.4217  0.0528
 9194SOL    HW139215   2.346   4.214   8.787  1.2708  1.1643 -0.7978
 9194SOL    HW239216   2.294   4.081   8.778  0.6518 -0.0412  0.3900
 9195SOL     OW39217   4.620   0.399  12.238 -0.1274  0.1916  0.0538
 9195SOL    HW139218   4.554   0.439  12.295 -1.5409 -1.2604 -0.5628
 9195SOL    HW239219   4.634   0.309  12.269  1.4378  0.8276  1.1864
 9196SOL     OW39220   3.731   2.498   9.907  0.1679  0.2842  0.0227
 9196SOL    HW139221   3.760   2.555   9.978  2.8209  0.0605 -0.8520
 9196SOL    HW239222   3.679   2.554   9.849  2.8315  2.2557 -0.4978
 9197SOL     OW39223   2.463   4.348   3.094  0.5579  0.7579 -0.0334
 9197SOL    HW139224   2.379   4.313   3.124  0.7506  0.9512  0.7232
 9197SOL    HW239225   2.510   4.293   3.157 -0.6819 -0.9486 -0.5859
 9198SOL     OW39226   0.551   0.225   6.417 -0.0892 -0.0110 -0.4400
 9198SOL    HW139227   0.493   0.200   6.489  2.3877 -0.6084  1.3029
 9198SOL    HW239228   0.557   0.147   6.362  1.9371  0.3197 -0.6834
 9199SOL     OW39229   0.633   4.506  11.242  0.7120 -0.3490  0.5149
 9199SOL    HW139230   0.706   4.557  11.278  1.5291  0.2498 -2.0068
 9199SOL    HW239231   0.565   4.566  11.273 -0.2007 -1.3892  0.5074
 9200SOL     OW39232   0.061   1.354   0.190  0.1204 -0.0604  0.9788
 9200SOL    HW139233   0.027   1.444   0.195 -0.6904 -0.2995 -0.2765
 9200SOL    HW239234   4.731   1.304   0.239  2.6153 -1.7036  2.5549
 9201SOL     OW39235   1.339   3.959   4.857  0.6425 -0.3097  0.1964
 9201SOL    HW139236   1.308   3.983   4.770  1.1430  0.6462  0.2889
 9201SOL    HW239237   1.432   3.965   4.833  0.1738  3.0762 -0.8133
 9202SOL     OW39238   1.944   1.142   7.426  0.2538  0.2792 -0.4600
 9202SOL    HW139239   1.990   1.062   7.450 -0.1751  0.0642 -0.3608
 9202SOL    HW239240   1.935   1.142   7.330 -2.7774 -1.3979 -0.1873
 9203SOL     OW39241   2.225   3.162   3.749 -0.1811  0.9113 -0.2402
 9203SOL    HW139242   2.312   3.162   3.708  0.0799 -2.2687  0.3001
 9203SOL    HW239243   2.244   3.130   3.837  0.1177 -0.0964 -0.6715
 9204SOL     OW39244   3.732   3.913   0.831 -0.1982 -0.1128 -0.3545
 9204SOL    HW139245   3.679   3.924   0.752 -1.1680 -1.3080  0.1352
 9204SOL    HW239246   3.795   3.984   0.825  0.7773 -1.1235 -2.0651
 9205SOL     OW39247   0.227   0.670  16.610 -0.0191 -0.5327  0.5577
 9205SOL    HW139248   0.301   0.714  16.569 -1.7715  2.2339  0.3937
 9205SOL    HW239249   0.262   0.581  16.616  2.2052  0.2422 -1.0409
 9206SOL     OW39250   2.721   2.925   2.543  0.2419 -0.2685 -0.0496
 9206SOL    HW139251   2.642   2.973   2.516 -0.2653  0.9491  3.6445
 9206SOL    HW239252   2.730   2.939   2.637 -0.2720 -1.5682  0.1815
 9207SOL     OW39253   2.831   2.232   5.516  0.0644 -0.4558 -0.1430
 9207SOL    HW139254   2.925   2.253   5.520 -0.3952  1.7231 -0.8636
 9207SOL    HW239255   2.821   2.235   5.611  0.2851  2.3550 -0.2131
 9208SOL     OW39256   2.637   0.916   8.555  0.2606 -0.5388  0.5462
 9208SOL    HW139257   2.555   0.962   8.573  0.7696  0.2047  0.9477
 9208SOL    HW239258   2.656   0.951   8.468  1.1928 -0.5104  0.7581
 9209SOL     OW39259   1.038   4.061  11.302 -0.0111  0.7329  0.0013
 9209SOL    HW139260   1.011   3.986  11.250  0.8409 -1.0980  2.1588
 9209SOL    HW239261   1.127   4.039  11.330 -0.1884 -1.3093 -1.0930
 9210SOL     OW39262   2.537   3.881   6.358 -0.1282 -0.3619 -0.3209
 9210SOL    HW139263   2.455   3.831   6.351 -0.4984  0.1381  0.5442
 9210SOL    HW239264   2.505   3.948   6.418  1.2540 -0.9496  1.0705
 9211SOL     OW39265   0.559   0.853   1.202 -0.1987 -0.8700 -0.4020
 9211SOL    HW139266   0.582   0.942   1.176 -0.1253 -1.3883 -2.1435
 9211SOL    HW239267   0.466   0.856   1.224 -0.2590  1.0395 -0.9428
 9212SOL     OW39268   1.113   1.920   5.915  0.2079 -0.0776 -0.0322
 9212SOL    HW139269   1.153   1.833   5.904 -1.2233 -0.9691  1.8471
 9212SOL    HW239270   1.057   1.920   5.837 -0.1755 -1.0068  0.2354
 9213SOL     OW39271   1.796   3.960   3.921  0.6458 -0.0576  0.3219
 9213SOL    HW139272   1.769   4.051   3.912 -0.3402 -0.2982  0.8030
 9213SOL    HW239273   1.830   3.954   3.832  0.8944 -0.5619  0.4471
 9214SOL     OW39274   1.893   3.390   5.043  0.4108  0.0588  0.2889
 9214SOL    HW139275   1.861   3.473   5.007  0.7513 -0.4014 -1.0568
 9214SOL    HW239276   1.946   3.418   5.117 -0.7097 -0.5082  1.3036
 9215SOL     OW39277   2.036   1.443   2.460 -0.0986  0.3220 -0.2505
 9215SOL    HW139278   2.085   1.524   2.475  2.0472 -1.2696  1.4133
 9215SOL    HW239279   2.062   1.427   2.369  1.0386  1.6929 -0.1721
 9216SOL     OW39280   1.290   2.159  17.692 -0.0937  0.7137  0.2248
 9216SOL    HW139281   1.257   2.249  17.696  0.1956  0.8912 -1.4396
 9216SOL    HW239282   1.361   2.159  17.629 -1.6673  1.5753 -1.5600
 9217SOL     OW39283   0.020   3.680   6.457 -0.0860 -0.0097 -0.3289
 9217SOL    HW139284   4.677   3.690   6.512 -0.8001 -1.0645 -1.1455
 9217SOL    HW239285   4.720   3.693   6.369 -1.1163  1.2511  0.2724
 9218SOL     OW39286   1.977   4.582   7.257 -0.5556 -0.2968 -0.2340
 9218SOL    HW139287   2.042   4.524   7.217  0.6280 -0.3595  1.7772
 9218SOL    HW239288   1.987   4.558   7.350 -1.2208  1.3963  0.2770
 9219SOL     OW39289   4.128   2.218   8.990 -0.5935  0.2356  0.1486
 9219SOL    HW139290   4.110   2.234   8.898  1.9317  0.9992 -0.2041
 9219SOL    HW239291   4.067   2.147   9.011  1.9635 -2.2256 -0.7830
 9220SOL     OW39292   1.486   0.765  15.163 -0.8645 -0.2708 -0.1913
 9220SOL    HW139293   1.567   0.737  15.121 -0.0963  1.4524  0.1452
 9220SOL    HW239294   1.464   0.840  15.108  2.5762  0.6623 -0.2945
 9221SOL     OW39295   2.621   4.231   5.596  0.2145 -0.0127 -0.1396
 9221SOL    HW139296   2.546   4.223   5.655  0.3446  1.0203  0.1529
 9221SOL    HW239297   2.651   4.320   5.613  0.8937 -0.3072  0.2097
 9222SOL     OW39298   1.026   4.476   3.446 -0.4696 -0.4740 -0.6248
 9222SOL    HW139299   0.946   4.523   3.468 -0.7214 -2.4266  2.7378
 9222SOL    HW239300   0.974   4.408   3.403 -0.5483 -0.5826 -0.3602
 9223SOL     OW39301   4.390   2.545   5.713  0.2596 -0.0058  0.2014
 9223SOL    HW139302   4.353   2.619   5.760 -2.2607 -0.9294 -0.3558
 9223SOL    HW239303   4.484   2.554   5.732  0.1613 -1.0076  1.1587
 9224SOL     OW39304   1.820   0.395  12.077 -0.2843  0.1791  0.4785
 9224SOL    HW139305   1.727   0.407  12.097 -0.8592  0.4519 -2.3343
 9224SOL    HW239306   1.823   0.347  11.995 -0.3047 -0.4086  0.8242
 9225SOL     OW39307   2.696   2.383  10.001 -0.0399  0.5615 -0.6765
 9225SOL    HW139308   2.736   2.329   9.934 -1.1833 -1.2307  0.0866
 9225SOL    HW239309   2.768   2.396  10.063 -0.5814  0.2713  0.0120
 9226SOL     OW39310   0.271   3.543   7.551 -1.0057  0.0234 -0.4023
 9226SOL    HW139311   0.332   3.590   7.494 -0.6046 -0.6149 -0.5019
 9226SOL    HW239312   0.190   3.587   7.524 -0.5100  1.4572  0.4875
 9227SOL     OW39313   3.114   1.768   8.365 -0.4479  0.3619  0.4000
 9227SOL    HW139314   3.092   1.860   8.352 -0.6736 -0.0084 -1.8703
 9227SOL    HW239315   3.027   1.731   8.348 -0.4291  0.4050  0.2105
 9228SOL     OW39316   2.296   4.246  17.153  0.0280  0.3232 -0.0845
 9228SOL    HW139317   2.216   4.198  17.172  1.1920 -0.7202  2.2566
 9228SOL    HW239318   2.326   4.207  17.071  0.6238  0.6416 -0.0180
 9229SOL     OW39319   2.290   3.943   6.499  0.0796  0.1609 -0.2117
 9229SOL    HW139320   2.238   3.863   6.501  0.1353  0.1653  0.8809
 9229SOL    HW239321   2.231   4.011   6.532 -1.6492  0.0749 -3.0559
 9230SOL     OW39322   0.413   2.683   7.362  0.1538  0.0187 -0.3155
 9230SOL    HW139323   0.500   2.718   7.342 -0.3595  2.4123  1.6816
 9230SOL    HW239324   0.434   2.603   7.411 -3.0905  0.5186  1.8634
 9231SOL     OW39325   3.742   3.584   9.306  0.2610 -0.6905  0.0932
 9231SOL    HW139326   3.782   3.532   9.376 -0.2323 -1.4994 -0.2337
 9231SOL    HW239327   3.735   3.528   9.229  0.9129 -0.5474 -0.0731
 9232SOL     OW39328   3.418   3.704  13.188 -0.3551  0.0859  0.9115
 9232SOL    HW139329   3.422   3.613  13.157  0.0820  0.3382  0.2420
 9232SOL    HW239330   3.363   3.703  13.267 -0.0031  1.9519  1.1840
 9233SOL     OW39331   1.101   3.446   5.904  0.1469  0.2736 -0.1182
 9233SOL    HW139332   1.185   3.483   5.928  0.1739 -0.1030  0.3546
 9233SOL    HW239333   1.100   3.354   5.929 -2.6626  0.5151  0.6954
 9234SOL     OW39334   3.997   0.730   8.307  0.1107 -0.1391 -0.1461
 9234SOL    HW139335   3.952   0.765   8.385  0.0596 -0.2033 -0.1465
 9234SOL    HW239336   3.952   0.785   8.243 -0.8937 -2.7461 -1.6752
 9235SOL     OW39337   2.964   1.202   2.726 -0.2219  0.0726 -0.2184
 9235SOL    HW139338   3.038   1.144   2.746 -0.4083 -0.0683  0.0664
 9235SOL    HW239339   2.987   1.242   2.642 -0.5434 -2.1461 -1.3849
 9236SOL     OW39340   0.577   3.653  12.801  0.4006  0.7559 -0.6515
 9236SOL    HW139341   0.644   3.721  12.811  0.9721  0.0213  0.5231
 9236SOL    HW239342   0.506   3.687  12.855  0.6361  1.3062 -0.6848
 9237SOL     OW39343   3.709   0.594   3.054 -0.1692 -0.4541  0.3195
 9237SOL    HW139344   3.734   0.513   3.098  1.9374 -1.6787 -3.1207
 9237SOL    HW239345   3.797   0.631   3.047 -0.6629  0.5952 -0.3322
 9238SOL     OW39346   2.252   2.309   6.530 -0.4457  0.0719 -0.3665
 9238SOL    HW139347   2.176   2.314   6.588  0.4190  2.5845  0.5831
 9238SOL    HW239348   2.216   2.279   6.447 -1.5114 -2.0144  0.8506
 9239SOL     OW39349   4.280   2.587  10.106 -0.2925 -0.0623  0.0196
 9239SOL    HW139350   4.266   2.679  10.127 -2.8976 -0.2878 -0.6664
 9239SOL    HW239351   4.349   2.568  10.169  0.2658  1.2066 -0.1980
 9240SOL     OW39352   1.548   3.915   9.460  0.3454  0.3065  0.2205
 9240SOL    HW139353   1.483   3.909   9.530  1.4347 -1.6316  1.0903
 9240SOL    HW239354   1.519   3.997   9.421 -0.2435  0.1741  0.3729
 9241SOL     OW39355   1.465   3.999  12.364  0.0693 -0.4406  0.2513
 9241SOL    HW139356   1.418   3.999  12.448 -0.3484  1.9188 -0.0050
 9241SOL    HW239357   1.473   4.093  12.354  1.3179 -0.2589  2.9260
 9242SOL     OW39358   2.244   3.899   3.190  0.5133 -0.0078 -0.1389
 9242SOL    HW139359   2.330   3.913   3.150  0.3684  0.8298 -0.1575
 9242SOL    HW239360   2.250   3.947   3.273  1.0397 -1.4983  0.6978
 9243SOL     OW39361   3.242   1.609   5.645  0.5702  0.5614  0.6857
 9243SOL    HW139362   3.179   1.680   5.634 -1.2954 -1.2017 -0.0300
 9243SOL    HW239363   3.260   1.619   5.739  1.1753  0.5148  0.5733
 9244SOL     OW39364   0.361   1.188   1.480  0.5198  0.6423 -0.5522
 9244SOL    HW139365   0.446   1.190   1.525 -0.2191  0.3916  0.8189
 9244SOL    HW239366   0.327   1.275   1.502  1.4905  0.7321  0.5996
 9245SOL     OW39367   0.296   3.417   3.210 -0.0008 -0.3692 -0.6135
 9245SOL    HW139368   0.211   3.374   3.215 -0.1578 -0.3093 -2.7782
 9245SOL    HW239369   0.351   3.370   3.147 -1.5853 -1.9377 -0.7973
 9246SOL     OW39370   0.951   0.165   0.568 -0.0048 -0.0323 -0.1262
 9246SOL    HW139371   1.000   0.242   0.540 -0.9800  0.7468  0.3453
 9246SOL    HW239372   0.941   0.185   0.661 -0.4768 -2.1595  0.2834
 9247SOL     OW39373   0.722   0.344   7.911  0.9083  0.1675  0.2029
 9247SOL    HW139374   0.725   0.388   7.996 -2.5175 -0.2626  0.5646
 9247SOL    HW239375   0.671   0.272   7.947  0.2785  0.2415 -0.5428
 9248SOL     OW39376   3.837   1.443   3.016 -0.2367 -0.0011 -0.0659
 9248SOL    HW139377   3.753   1.454   2.972 -1.0409  0.3527  1.5448
 9248SOL    HW239378   3.870   1.532   3.025 -0.1661 -0.1417  1.0850
 9249SOL     OW39379   3.633   3.707   8.970  0.2635  0.0533 -0.5354
 9249SOL    HW139380   3.621   3.798   8.946  3.2661  1.4746  3.3010
 9249SOL    HW239381   3.728   3.711   8.969  0.4668 -4.0412  0.2770
 9250SOL     OW39382   4.628   2.270  17.728  1.0741  0.2536  0.5605
 9250SOL    HW139383   4.608   2.179  17.704  0.3579  0.6517 -0.3474
 9250SOL    HW239384   4.688   2.297  17.659  0.2159  2.4463  0.6676
 9251SOL     OW39385   3.090   3.680   6.000 -0.0635  0.4427  0.1001
 9251SOL    HW139386   3.092   3.766   5.960  0.3634  0.2273 -0.3490
 9251SOL    HW239387   3.165   3.632   5.965  0.4716  1.7236 -0.5096
 9252SOL     OW39388   0.383   2.008   2.965 -0.5348  0.4383 -0.6981
 9252SOL    HW139389   0.365   1.983   2.875  3.5209  0.0048 -1.3482
 9252SOL    HW239390   0.361   1.924   3.007 -0.5990  0.4640 -0.6794
 9253SOL     OW39391   4.695   4.043   3.104  0.1696 -0.4077  0.5117
 9253SOL    HW139392   4.701   3.958   3.060  0.3995 -0.8039  1.3013
 9253SOL    HW239393   4.625   4.086   3.056  0.4541 -0.7987 -0.2554
 9254SOL     OW39394   0.735   1.085   2.443 -0.3989 -0.0600 -0.3316
 9254SOL    HW139395   0.723   1.150   2.511  0.9135 -0.2342  0.0629
 9254SOL    HW239396   0.659   1.089   2.385  0.6195 -1.1652 -1.7437
 9255SOL     OW39397   0.882   2.774   7.518  0.1299 -0.2931  0.2523
 9255SOL    HW139398   0.812   2.799   7.578 -0.6841  0.5175 -1.0279
 9255SOL    HW239399   0.953   2.807   7.574 -0.0837  0.2803  0.1822
 9256SOL     OW39400   1.479   2.047   8.499 -0.0721  0.6646  0.1093
 9256SOL    HW139401   1.428   1.991   8.441  0.6044  1.3346 -1.1358
 9256SOL    HW239402   1.419   2.065   8.571 -0.6034  0.6284 -0.3272
 9257SOL     OW39403   4.456   4.448   7.616 -0.0252  0.0575 -0.6443
 9257SOL    HW139404   4.517   4.398   7.669 -1.7409 -0.2688  1.0352
 9257SOL    HW239405   4.511   4.486   7.547 -0.2246  0.1309 -0.7645
 9258SOL     OW39406   1.527   0.494   5.779  0.4420  0.3289 -0.0152
 9258SOL    HW139407   1.551   0.534   5.862 -0.7743 -1.0636  0.9929
 9258SOL    HW239408   1.553   0.402   5.781 -1.6414 -0.3174 -1.9489
 9259SOL     OW39409   2.791   1.014   3.288  0.2586 -0.3528  0.0323
 9259SOL    HW139410   2.702   1.038   3.312  0.8320  0.4671  1.3707
 9259SOL    HW239411   2.789   0.920   3.273  2.4991 -0.6588  1.6571
 9260SOL     OW39412   4.705   4.163   4.173 -0.4311  0.3757 -0.1618
 9260SOL    HW139413   4.623   4.155   4.125  0.7052 -3.0282 -1.5073
 9260SOL    HW239414   0.037   4.190   4.109 -0.3555  1.0108  0.1751
 9261SOL     OW39415   4.048   3.222  17.641  0.5201  0.1099 -0.0597
 9261SOL    HW139416   4.006   3.210  17.556 -0.6565  0.4948  0.4688
 9261SOL    HW239417   4.095   3.139  17.646 -1.5749 -1.1218 -1.2836
 9262SOL     OW39418   1.272   1.151   7.414  0.0186 -0.4842  0.0486
 9262SOL    HW139419   1.337   1.195   7.469  0.0608  1.5603 -1.6135
 9262SOL    HW239420   1.297   1.060   7.427  1.0316  0.0249  1.7341
 9263SOL     OW39421   1.087   1.621   7.966 -0.3904  0.0041 -0.0343
 9263SOL    HW139422   1.071   1.636   7.873  0.2554 -0.1295 -0.1680
 9263SOL    HW239423   1.079   1.526   7.971 -0.1079 -0.1001 -1.7013
 9264SOL     OW39424   4.613   0.111  15.587 -0.0195  0.0384  0.4044
 9264SOL    HW139425   4.630   0.041  15.525  0.9042  0.4252  0.2199
 9264SOL    HW239426   4.583   0.173  15.520 -0.3589 -0.3509  0.1991
 9265SOL     OW39427   4.428   1.221   6.099  0.3705 -0.8108 -0.2015
 9265SOL    HW139428   4.388   1.196   6.016 -1.3711  0.3223  0.3061
 9265SOL    HW239429   4.391   1.308   6.113  2.4849 -0.3519  2.5743
 9266SOL     OW39430   2.478   4.021   4.342 -0.3012  0.0615 -0.5070
 9266SOL    HW139431   2.532   4.022   4.262  2.1541 -0.5942  1.1209
 9266SOL    HW239432   2.472   3.927   4.357  0.3259  0.4579  2.1544
 9267SOL     OW39433   0.991   3.369   5.306 -0.4468  0.4385 -0.1072
 9267SOL    HW139434   0.904   3.349   5.340 -0.0898 -1.0101 -0.0201
 9267SOL    HW239435   0.994   3.329   5.219  0.3250 -1.6499  0.8664
 9268SOL     OW39436   1.963   1.022   8.410 -0.4232  0.0479  0.2034
 9268SOL    HW139437   1.873   0.988   8.404  0.1690 -1.3976 -0.5106
 9268SOL    HW239438   2.010   1.002   8.329 -2.1168 -0.5914 -0.6352
 9269SOL     OW39439   2.953   0.699   6.327 -0.1823 -0.0340 -0.2891
 9269SOL    HW139440   2.962   0.792   6.346 -2.8535  0.0571  0.5946
 9269SOL    HW239441   2.858   0.690   6.314 -0.6075  2.6395  1.1620
 9270SOL     OW39442   0.328   1.134   3.950  0.2332  0.2145 -0.0767
 9270SOL    HW139443   0.343   1.052   3.998  1.8438  1.4422  1.5588
 9270SOL    HW239444   0.254   1.102   3.898 -0.4849 -1.0193  1.7106
 9271SOL     OW39445   1.407   1.591   5.147 -0.0664 -0.2196 -0.3470
 9271SOL    HW139446   1.475   1.639   5.194 -0.3789 -0.9213  0.8451
 9271SOL    HW239447   1.336   1.599   5.210 -1.6325 -1.5647 -1.9461
 9272SOL     OW39448   2.678   0.348   5.489 -0.1628 -0.2484  0.2463
 9272SOL    HW139449   2.686   0.394   5.405  0.5067  0.4507  0.6877
 9272SOL    HW239450   2.660   0.259   5.461 -4.5612  0.3757  1.1772
 9273SOL     OW39451   3.644   1.224   8.324 -0.2003 -0.0089 -0.8036
 9273SOL    HW139452   3.732   1.230   8.362  0.3971  0.7437 -2.2966
 9273SOL    HW239453   3.633   1.313   8.290 -0.9347 -0.3752 -1.5105
 9274SOL     OW39454   0.532   3.099  12.310 -0.4326 -0.0955  0.1513
 9274SOL    HW139455   0.581   3.169  12.266 -2.5857  0.4641 -1.3339
 9274SOL    HW239456   0.507   3.136  12.394 -1.4874 -3.1769  1.1543
 9275SOL     OW39457   1.614   0.309   7.775 -0.1266  0.1906 -0.0161
 9275SOL    HW139458   1.551   0.257   7.726 -2.0798  1.9234  0.6644
 9275SOL    HW239459   1.619   0.258   7.856  0.3260 -1.8664 -1.3431
 9276SOL     OW39460   2.598   0.056   6.937 -0.0509 -0.2882 -0.1387
 9276SOL    HW139461   2.532   0.121   6.963  0.2065 -0.7455  1.6596
 9276SOL    HW239462   2.672   0.081   6.991 -0.4265  1.1445 -0.2800
 9277SOL     OW39463   4.046   3.490   7.119  0.4965 -0.4092 -0.0450
 9277SOL    HW139464   3.983   3.557   7.146 -0.7272 -1.2844 -0.7917
 9277SOL    HW239465   4.083   3.464   7.204 -0.2667  0.5826  0.6001
 9278SOL     OW39466   2.213   1.268   4.676  0.1877  0.2274 -0.2236
 9278SOL    HW139467   2.203   1.224   4.591  2.0061  1.1804 -0.9231
 9278SOL    HW239468   2.279   1.333   4.652  1.9176 -0.9692  1.3141
 9279SOL     OW39469   2.024   0.132   8.189  0.1335 -0.6741 -0.0540
 9279SOL    HW139470   1.953   0.196   8.198 -0.1001 -0.8801 -0.4365
 9279SOL    HW239471   2.023   0.123   8.094 -1.7512  2.3606 -0.3311
 9280SOL     OW39472   3.152   1.178   3.029 -0.0856 -0.5920  0.0751
 9280SOL    HW139473   3.226   1.170   2.969  1.0166  0.2572  1.3045
 9280SOL    HW239474   3.198   1.148   3.108 -0.3650  1.5383  1.0643
 9281SOL     OW39475   0.878   1.549   6.712 -0.5733 -0.2980  0.3094
 9281SOL    HW139476   0.861   1.456   6.728 -0.8916  0.0339  1.9208
 9281SOL    HW239477   0.853   1.556   6.620 -1.6718  1.4739  0.7232
 9282SOL     OW39478   0.956   2.975  17.545  0.6521  0.3830  0.3417
 9282SOL    HW139479   0.874   3.023  17.553  1.2357  0.9866  2.5552
 9282SOL    HW239480   0.941   2.955  17.453  0.7177  0.2348  0.3636
 9283SOL     OW39481   4.361   1.425  17.484  0.1434 -0.4570 -0.2112
 9283SOL    HW139482   4.337   1.382  17.402 -2.6382 -1.4036  1.0870
 9283SOL    HW239483   4.300   1.498  17.492 -0.4402 -0.8993 -0.6493
 9284SOL     OW39484   2.694   0.539   4.714 -0.1281  0.2347 -0.5171
 9284SOL    HW139485   2.618   0.530   4.657 -0.2644  0.1795 -0.3278
 9284SOL    HW239486   2.729   0.617   4.671 -0.8732  0.9399  0.1518
 9285SOL     OW39487   1.285   2.595   9.238  0.0646  0.3398  0.3561
 9285SOL    HW139488   1.340   2.575   9.314 -0.3623  0.3672  0.6722
 9285SOL    HW239489   1.202   2.557   9.268  0.0763  0.0671  0.0381
 9286SOL     OW39490   2.772   4.093   5.003 -0.0159 -0.3378  0.8874
 9286SOL    HW139491   2.803   4.135   4.923 -0.5987  0.1408  0.9072
 9286SOL    HW239492   2.682   4.125   5.006  0.2343  0.4514  0.0786
 9287SOL     OW39493   0.713   2.299   7.887  0.1392  0.0991  0.2112
 9287SOL    HW139494   0.737   2.259   7.971  3.2669  0.7023 -0.3958
 9287SOL    HW239495   0.712   2.220   7.832 -1.3883 -0.3729  0.9156
 9288SOL     OW39496   0.375   0.989  10.033 -0.2104 -0.5304 -0.0405
 9288SOL    HW139497   0.394   1.082  10.046  0.4596 -1.1246  3.2293
 9288SOL    HW239498   0.444   0.966   9.971  0.5685 -1.7308  1.2684
 9289SOL     OW39499   2.231   3.922   9.490  0.7081  0.2260  0.3762
 9289SOL    HW139500   2.199   3.865   9.561 -0.0194  0.3101  0.1119
 9289SOL    HW239501   2.287   3.979   9.542  0.4255 -0.7079  1.7044
 9290SOL     OW39502   3.743   4.224   7.251 -0.1040 -0.1198 -0.2546
 9290SOL    HW139503   3.838   4.235   7.250 -0.0795 -0.2971  0.2153
 9290SOL    HW239504   3.704   4.311   7.259  0.2300 -0.0617  0.7246
 9291SOL     OW39505   2.851   1.688   6.435 -0.2724 -0.1592 -0.4264
 9291SOL    HW139506   2.800   1.608   6.448 -1.8168  0.7505 -0.8928
 9291SOL    HW239507   2.885   1.715   6.520 -0.2196 -1.3085 -0.0821
 9292SOL     OW39508   4.001   0.630   6.307 -0.0211  0.2947  0.2236
 9292SOL    HW139509   4.076   0.647   6.364  1.0378  1.1223 -1.4106
 9292SOL    HW239510   3.972   0.721   6.302  1.8063  0.8962  0.5255
 9293SOL     OW39511   2.782   3.067   2.261 -0.3157  0.0277 -0.2768
 9293SOL    HW139512   2.827   3.053   2.178  0.3599 -0.6598  0.2103
 9293SOL    HW239513   2.710   3.125   2.235 -0.8215 -0.7498 -0.5842
 9294SOL     OW39514   0.977   4.137   5.150 -0.2733 -0.2023 -0.5037
 9294SOL    HW139515   0.897   4.094   5.119  0.8145 -1.1613 -1.9568
 9294SOL    HW239516   1.047   4.079   5.122  0.3294 -0.3961  1.4462
 9295SOL     OW39517   2.863   2.744  15.392 -0.4507 -0.8372  0.5233
 9295SOL    HW139518   2.888   2.739  15.484  3.3652 -1.5397 -0.5869
 9295SOL    HW239519   2.783   2.692  15.391  0.2467 -1.8791 -0.9533
 9296SOL     OW39520   2.652   0.903   4.815  0.3329 -0.3408 -0.0313
 9296SOL    HW139521   2.590   0.917   4.743 -0.0516 -1.3920  0.0903
 9296SOL    HW239522   2.732   0.921   4.767  0.2765 -1.4137 -0.5261
 9297SOL     OW39523   1.128   1.791   3.181 -0.0960  0.1815  0.0868
 9297SOL    HW139524   1.118   1.756   3.269 -0.5070 -0.7502 -0.3291
 9297SOL    HW239525   1.216   1.757   3.161  0.2673  1.8927 -1.2482
 9298SOL     OW39526   1.038   0.549   9.864 -0.2209 -0.0703 -0.6075
 9298SOL    HW139527   1.130   0.533   9.846  0.0344  0.5544  0.1433
 9298SOL    HW239528   1.007   0.583   9.780 -0.2638 -0.4988 -0.7663
 9299SOL     OW39529   0.220   0.047   4.899  0.6953  0.3808  0.2429
 9299SOL    HW139530   0.253   4.720   4.965  1.0747  1.1232  0.7476
 9299SOL    HW239531   0.127   0.030   4.910  0.8165 -2.1513 -2.5066
 9300SOL     OW39532   0.461   1.997  14.159 -0.2224 -0.1012 -0.0619
 9300SOL    HW139533   0.463   1.995  14.063  0.2113  0.6266 -0.0618
 9300SOL    HW239534   0.430   2.086  14.173  0.7192  0.1251  0.5516
 9301SOL     OW39535   1.510   4.090  13.109 -0.0981 -0.3967 -0.2478
 9301SOL    HW139536   1.580   4.050  13.161  0.8252  0.4738 -0.8073
 9301SOL    HW239537   1.528   4.183  13.119  0.3724 -0.8601  3.2560
 9302SOL     OW39538   2.336   1.290  10.921  0.5598 -1.1321  0.4719
 9302SOL    HW139539   2.342   1.239  10.840 -2.2319  1.9197 -1.6587
 9302SOL    HW239540   2.261   1.347  10.901  0.9535 -0.6244  0.4263
 9303SOL     OW39541   1.048   1.331   6.175 -0.4244 -0.4490 -0.1933
 9303SOL    HW139542   1.054   1.250   6.225  0.2416 -0.9177 -1.0426
 9303SOL    HW239543   1.021   1.303   6.088  2.1768 -0.4512 -0.9928
 9304SOL     OW39544   3.819   0.979   2.177 -0.0838  0.5124  0.6577
 9304SOL    HW139545   3.885   1.016   2.236 -0.2532  1.2223  0.4088
 9304SOL    HW239546   3.840   1.017   2.092  0.6098 -2.0977 -0.3090
 9305SOL     OW39547   2.244   0.625   7.109  0.4186  0.1411 -0.6296
 9305SOL    HW139548   2.189   0.564   7.060  1.0196 -1.5434  0.7990
 9305SOL    HW239549   2.199   0.636   7.193  1.0823  3.1264 -0.6714
 9306SOL     OW39550   4.209   0.793  11.223 -0.7024 -0.1285  0.7077
 9306SOL    HW139551   4.152   0.738  11.278 -1.9125  0.0358 -0.3827
 9306SOL    HW239552   4.158   0.874  11.211 -0.2120  0.1619  0.6153
 9307SOL     OW39553   2.853   4.156   8.522  0.1159 -0.7286  0.1206
 9307SOL    HW139554   2.770   4.195   8.550  0.0510  0.0114 -1.1223
 9307SOL    HW239555   2.911   4.216   8.570  1.4360 -1.8591 -0.0577
 9308SOL     OW39556   2.214   2.897   5.836 -0.3183  0.5824  0.3572
 9308SOL    HW139557   2.287   2.955   5.857  0.1576 -0.3661  1.3612
 9308SOL    HW239558   2.145   2.957   5.863 -0.8881  0.0361  0.1264
 9309SOL     OW39559   4.615   0.552   8.655 -0.3247 -0.6839  0.3218
 9309SOL    HW139560   4.705   0.533   8.631  0.2541  2.5954 -0.0958
 9309SOL    HW239561   4.594   0.621   8.592 -2.0937 -2.0631 -0.6183
 9310SOL     OW39562   3.996   0.107   2.555  0.1910  0.3390  0.6480
 9310SOL    HW139563   4.023   0.015   2.552  0.2842  0.2794  3.1136
 9310SOL    HW239564   4.067   0.159   2.593 -0.0307 -1.4361  3.4959
 9311SOL     OW39565   3.554   1.652  17.511 -0.0440 -0.5332 -0.6423
 9311SOL    HW139566   3.602   1.572  17.489 -1.8157 -2.2194  1.6298
 9311SOL    HW239567   3.532   1.688  17.425 -0.4770  0.5660 -0.0623
 9312SOL     OW39568   4.701   2.918   1.134 -0.3679 -0.3839  0.6061
 9312SOL    HW139569   4.660   2.898   1.218 -1.7332 -0.6737 -0.1411
 9312SOL    HW239570   4.634   2.980   1.106 -1.2249 -1.8767 -0.6471
 9313SOL     OW39571   3.224   3.187   7.949  0.1620  0.3547  0.4256
 9313SOL    HW139572   3.248   3.265   7.998 -0.6423  1.0857 -0.3485
 9313SOL    HW239573   3.238   3.215   7.858 -0.4773 -0.5850  0.0376
 9314SOL     OW39574   0.621   2.246   3.365  0.1292  0.2381 -0.4951
 9314SOL    HW139575   0.591   2.332   3.396 -1.2061 -0.3735 -0.1102
 9314SOL    HW239576   0.670   2.215   3.441 -0.1872 -0.5445 -0.6186
 9315SOL     OW39577   3.538   0.036   6.737  0.4209 -0.1295 -0.1453
 9315SOL    HW139578   3.603   0.063   6.802  0.2773  0.7159 -0.3529
 9315SOL    HW239579   3.567   4.685   6.704  1.5891 -0.2638  1.2448
 9316SOL     OW39580   3.969   0.538   2.331  0.3414 -0.1284 -0.0699
 9316SOL    HW139581   3.895   0.502   2.282  1.9502 -3.2620 -0.2036
 9316SOL    HW239582   3.939   0.523   2.420 -0.5786  1.0386 -0.1869
 9317SOL     OW39583   1.358   3.344  13.190  0.2051  0.4061 -0.4216
 9317SOL    HW139584   1.365   3.314  13.099 -0.2735  0.6072 -0.5257
 9317SOL    HW239585   1.451   3.358  13.210 -0.1209 -1.0521  2.0531
 9318SOL     OW39586   2.555   2.253   2.811 -0.5049 -0.5757  0.6113
 9318SOL    HW139587   2.462   2.243   2.832 -1.2574 -1.3934 -3.1017
 9318SOL    HW239588   2.594   2.263   2.898 -0.3611 -4.5405  1.0312
 9319SOL     OW39589   1.791   3.833  11.051 -0.4519 -0.4557  0.4077
 9319SOL    HW139590   1.810   3.812  10.959  1.6136  1.5233  0.3943
 9319SOL    HW239591   1.715   3.776  11.063  0.2815 -1.3718  0.7156
 9320SOL     OW39592   1.561   1.752   0.753  0.2476  0.0391 -0.2064
 9320SOL    HW139593   1.579   1.730   0.844  0.5166  0.2933 -0.1983
 9320SOL    HW239594   1.632   1.816   0.742  0.0108  0.1955 -0.8238
 9321SOL     OW39595   3.483   1.903   6.820  0.3487  0.0395 -0.3168
 9321SOL    HW139596   3.535   1.909   6.901 -0.2054  0.1138  0.0322
 9321SOL    HW239597   3.483   1.994   6.791 -1.3697  0.3173  0.5863
 9322SOL     OW39598   0.031   1.095  11.207 -0.0296  0.4073 -0.0307
 9322SOL    HW139599   0.115   1.074  11.249  0.0225  0.3099 -0.1849
 9322SOL    HW239600   0.051   1.177  11.162  1.3373  0.9735  1.5961
 9323SOL     OW39601   3.599   0.475   7.870  0.5349  0.6962  0.1553
 9323SOL    HW139602   3.678   0.504   7.824  1.0845 -0.8336  0.1556
 9323SOL    HW239603   3.537   0.468   7.797  0.1243 -0.7575  0.6532
 9324SOL     OW39604   2.175   0.970  16.567 -0.5777  0.6753  0.9767
 9324SOL    HW139605   2.179   1.060  16.535 -0.0607  1.0313  2.0401
 9324SOL    HW239606   2.167   0.989  16.661  0.2695 -1.2360  1.4284
 9325SOL     OW39607   0.046   1.577   2.063 -0.0086 -0.3074 -0.1509
 9325SOL    HW139608   0.054   1.512   2.133  1.2556  0.3368  0.3025
 9325SOL    HW239609   0.077   1.541   1.980  0.3652 -0.0146 -0.1379
 9326SOL     OW39610   2.959   1.877   4.589 -0.4795  0.7449 -0.2063
 9326SOL    HW139611   2.885   1.895   4.530 -0.8916 -0.9653 -0.2182
 9326SOL    HW239612   2.957   1.781   4.595  1.5622  0.7295  0.1983
 9327SOL     OW39613   2.766   1.733   5.639  0.0870 -0.3364 -0.0294
 9327SOL    HW139614   2.722   1.733   5.554  0.1248  1.3793 -0.0396
 9327SOL    HW239615   2.753   1.826   5.656  1.0915  0.4656 -3.6450
 9328SOL     OW39616   1.476   4.617   5.082 -0.4217  0.5484  0.3561
 9328SOL    HW139617   1.441   4.530   5.102  0.1786  0.3232  0.4446
 9328SOL    HW239618   1.511   4.655   5.162 -0.1377 -1.1411  1.0449
 9329SOL     OW39619   4.567   1.305  15.598  0.1136 -0.0062 -0.2849
 9329SOL    HW139620   4.551   1.296  15.504 -0.6268 -1.6843 -0.0003
 9329SOL    HW239621   4.522   1.229  15.633 -0.4031  0.5128  0.1759
 9330SOL     OW39622   1.934   4.669   0.342 -0.3107 -0.0014 -0.7932
 9330SOL    HW139623   1.963   4.600   0.401  0.8405 -0.8705 -2.3809
 9330SOL    HW239624   1.953   4.634   0.255  2.8009 -2.8503  1.0343
 9331SOL     OW39625   3.143   1.988  17.225 -0.2801 -0.6090 -0.0116
 9331SOL    HW139626   3.058   2.014  17.261  0.3856 -0.9101  1.8135
 9331SOL    HW239627   3.168   2.069  17.181  0.4661 -1.3480 -0.9564
 9332SOL     OW39628   2.169   0.047   6.133 -0.2164 -0.1133  0.3642
 9332SOL    HW139629   2.215   4.730   6.199  0.5552  0.4420  0.2762
 9332SOL    HW239630   2.114   0.090   6.198 -2.3007  0.6299 -1.8825
 9333SOL     OW39631   3.325   3.975   2.544  0.1599 -0.2837 -0.6778
 9333SOL    HW139632   3.376   3.994   2.465 -0.3493  1.3422 -0.6224
 9333SOL    HW239633   3.355   3.886   2.562  1.0041  0.2601  0.5187
 9334SOL     OW39634   1.430   1.817  17.438 -0.2058 -0.1139 -0.1999
 9334SOL    HW139635   1.360   1.752  17.437  0.6680 -1.0401 -0.9968
 9334SOL    HW239636   1.438   1.832  17.344  2.4140 -3.4000 -0.5170
 9335SOL     OW39637   0.921   2.320  10.474  0.1675 -0.3430  0.1132
 9335SOL    HW139638   0.905   2.291  10.563 -0.4204 -1.2103 -0.2737
 9335SOL    HW239639   0.891   2.245  10.423 -0.0029  0.1662 -0.5332
 9336SOL     OW39640   2.701   1.253   7.028 -0.4101  0.4799  0.0133
 9336SOL    HW139641   2.711   1.158   7.023  1.4692  0.6295  0.9525
 9336SOL    HW239642   2.791   1.274   7.052 -0.0521 -2.3263  1.0228
 9337SOL     OW39643   4.729   1.698   3.956 -0.0512  0.0188 -0.0028
 9337SOL    HW139644   4.676   1.756   3.901  1.9368  0.3139 -1.6150
 9337SOL    HW239645   4.712   1.609   3.924 -1.4082 -0.3566  1.7373
 9338SOL     OW39646   3.625   2.130   2.137 -0.5340  0.5672 -0.3213
 9338SOL    HW139647   3.615   2.209   2.190 -0.3274 -0.9686  2.0218
 9338SOL    HW239648   3.537   2.090   2.143  0.0618 -0.6354  0.4652
 9339SOL     OW39649   0.342   3.858   6.634 -0.1163  0.0879  0.0146
 9339SOL    HW139650   0.303   3.893   6.714 -2.0306  1.6229 -1.5919
 9339SOL    HW239651   0.397   3.933   6.614  0.5668 -0.7028 -1.0842
 9340SOL     OW39652   1.940   2.516   4.849  0.0816 -0.4789  0.7399
 9340SOL    HW139653   2.030   2.483   4.851  1.6617  3.8630  1.8346
 9340SOL    HW239654   1.919   2.466   4.770  0.1197  0.7861 -0.0614
 9341SOL     OW39655   4.568   1.405   5.299 -0.6018  0.2415  0.0840
 9341SOL    HW139656   4.649   1.372   5.339 -1.9218 -1.2519  1.5208
 9341SOL    HW239657   4.572   1.380   5.207  0.6958 -0.2793  0.2803
 9342SOL     OW39658   2.406   0.179   2.518  0.2005  0.3849  0.0542
 9342SOL    HW139659   2.439   0.265   2.545 -0.4545 -0.1213  2.5422
 9342SOL    HW239660   2.408   0.129   2.600  1.3605  0.7294  0.2289
 9343SOL     OW39661   0.678   1.174   7.831  0.1535 -0.5862 -0.2272
 9343SOL    HW139662   0.734   1.219   7.767 -0.1556 -0.0901 -0.1539
 9343SOL    HW239663   0.677   1.241   7.900 -1.4427 -0.0096 -0.8257
 9344SOL     OW39664   3.972   3.568   5.920 -0.0543 -0.4517 -0.0680
 9344SOL    HW139665   4.048   3.546   5.866  0.4062 -1.2501  0.9072
 9344SOL    HW239666   4.010   3.643   5.965 -2.2690  0.7661 -0.2111
 9345SOL     OW39667   1.087   0.229   6.158 -0.7061 -0.0010  0.0395
 9345SOL    HW139668   1.011   0.274   6.195 -1.3395  0.1714 -1.4537
 9345SOL    HW239669   1.045   0.148   6.127  1.1771 -0.0399 -2.3701
 9346SOL     OW39670   1.497   0.750   1.050  0.1465  0.0584 -0.3479
 9346SOL    HW139671   1.520   0.792   1.133  0.2590 -1.6489  0.4705
 9346SOL    HW239672   1.477   0.834   1.009 -1.5261 -1.0390 -1.7358
 9347SOL     OW39673   1.961   4.663   3.475 -0.0189 -0.1116  0.8883
 9347SOL    HW139674   2.017   4.635   3.402  0.9604  2.0319  0.8095
 9347SOL    HW239675   1.876   4.639   3.440  0.5093  0.0447 -0.5060
 9348SOL     OW39676   0.619   3.369   3.691 -0.1973  0.0704 -0.2034
 9348SOL    HW139677   0.609   3.412   3.775 -1.7068  0.2983 -0.4861
 9348SOL    HW239678   0.592   3.280   3.714 -1.0042  0.1149 -0.9393
 9349SOL     OW39679   4.575   2.794   3.838 -0.3688 -0.4637  0.4803
 9349SOL    HW139680   4.589   2.730   3.908  2.1495 -0.6465 -0.1763
 9349SOL    HW239681   4.667   2.809   3.813 -0.4708  1.3394  1.2267
 9350SOL     OW39682   3.166   4.449   6.823 -0.1022 -0.2232 -0.6125
 9350SOL    HW139683   3.116   4.529   6.838  2.7026  1.4635 -0.2555
 9350SOL    HW239684   3.163   4.407   6.909  1.3704  0.7046 -0.1059
 9351SOL     OW39685   0.760   1.527   7.784  0.3368 -0.1825 -0.1351
 9351SOL    HW139686   0.753   1.535   7.689  2.9278  0.3466 -0.2707
 9351SOL    HW239687   0.816   1.454   7.810  1.1922  0.4877 -0.1068
 9352SOL     OW39688   0.497   0.915   4.102  0.0443  0.5461 -0.2324
 9352SOL    HW139689   0.538   0.848   4.047 -1.3760  0.3754 -1.0799
 9352SOL    HW239690   0.549   0.993   4.085  1.6822  0.0047  2.2300
 9353SOL     OW39691   0.704   2.237   3.085 -0.6062 -0.1513  0.3388
 9353SOL    HW139692   0.686   2.290   3.163 -1.8950  3.1394 -2.2026
 9353SOL    HW239693   0.794   2.207   3.099  0.0914  0.7491 -2.3034
 9354SOL     OW39694   2.608   0.766  11.846  0.3191  0.2525  0.3836
 9354SOL    HW139695   2.654   0.800  11.770 -2.1841  2.6468 -0.0457
 9354SOL    HW239696   2.516   0.781  11.825  0.5256  1.6244  0.4812
 9355SOL     OW39697   4.553   0.302  11.516 -0.4006 -0.5394 -0.0850
 9355SOL    HW139698   4.485   0.235  11.524 -0.7688  0.1189  2.2640
 9355SOL    HW239699   4.619   0.252  11.467  0.3737 -1.0192  1.4404
 9356SOL     OW39700   1.189   4.418  16.327 -0.2810 -0.1761 -0.3673
 9356SOL    HW139701   1.244   4.496  16.340  1.0982 -1.2497  0.2101
 9356SOL    HW239702   1.238   4.382  16.253 -1.1359  0.5279 -1.2807
 9357SOL     OW39703   0.425   2.661   8.688  0.1281 -0.6119  0.5301
 9357SOL    HW139704   0.419   2.717   8.766 -0.0857  2.7551 -1.8896
 9357SOL    HW239705   0.336   2.645   8.656  0.1451 -0.2368  0.2862
 9358SOL     OW39706   2.512   1.661  14.718 -0.1737 -0.5879 -0.0965
 9358SOL    HW139707   2.439   1.626  14.768 -1.2981  0.3287 -1.0942
 9358SOL    HW239708   2.583   1.613  14.760 -1.7891 -1.5909  1.4862
 9359SOL     OW39709   2.339   3.597   3.006  0.3213 -0.1293  0.5082
 9359SOL    HW139710   2.370   3.682   2.973 -0.3757 -0.3897 -0.8195
 9359SOL    HW239711   2.401   3.596   3.079  0.1410  0.2655  0.6692
 9360SOL     OW39712   4.639   4.462  15.166  0.6085  0.3623  0.0271
 9360SOL    HW139713   4.637   4.542  15.113  0.4420  0.0615 -0.4240
 9360SOL    HW239714   4.629   4.394  15.098  0.5099 -2.0623  2.4519
 9361SOL     OW39715   1.130   1.703   8.236  0.3752  0.0327  0.5290
 9361SOL    HW139716   1.044   1.724   8.274 -0.2117 -2.2885  0.5057
 9361SOL    HW239717   1.109   1.683   8.145  2.0301 -2.7185  0.7505
 9362SOL     OW39718   1.806   3.985   6.786 -0.0888  0.1746 -0.1156
 9362SOL    HW139719   1.774   4.070   6.755 -2.9295 -0.5613  0.7517
 9362SOL    HW239720   1.735   3.933   6.748 -0.3756  0.4729  0.0108
 9363SOL     OW39721   4.347   1.650   7.869 -0.2311  0.1972 -0.1964
 9363SOL    HW139722   4.292   1.595   7.813  1.3323 -1.4342 -0.1409
 9363SOL    HW239723   4.436   1.624   7.846  0.3249  1.2613  0.7752
 9364SOL     OW39724   0.722   1.462   3.725  0.1152 -0.0854 -0.2224
 9364SOL    HW139725   0.769   1.382   3.703 -0.7554 -0.6159 -0.1088
 9364SOL    HW239726   0.630   1.440   3.710  0.1500 -0.4468  0.1117
 9365SOL     OW39727   1.497   3.197   3.585  0.6664 -0.0045  0.6898
 9365SOL    HW139728   1.487   3.116   3.635 -0.3909  0.0929  0.6224
 9365SOL    HW239729   1.522   3.164   3.498 -1.0441  1.1623 -0.2413
 9366SOL     OW39730   0.003   3.302   4.480  0.3660 -0.0305 -0.0380
 9366SOL    HW139731   0.054   3.376   4.447  1.7394  0.1779  2.5922
 9366SOL    HW239732   0.060   3.283   4.554  1.2744  0.6668 -0.5535
 9367SOL     OW39733   3.913   2.028   0.973  0.0877  0.3290 -0.8877
 9367SOL    HW139734   3.899   1.985   0.889  0.7925  0.8011 -1.2404
 9367SOL    HW239735   3.966   2.103   0.945  0.6152  0.9438  1.7617
 9368SOL     OW39736   1.462   1.236  11.161  0.2521 -0.3887  0.0718
 9368SOL    HW139737   1.386   1.207  11.111 -0.6923  0.4586  0.9941
 9368SOL    HW239738   1.414   1.259  11.241  0.3398 -0.9166  0.2785
 9369SOL     OW39739   2.459   2.940   2.191  0.3768 -0.3697 -0.1209
 9369SOL    HW139740   2.493   3.014   2.241 -0.3967 -0.4040  0.4726
 9369SOL    HW239741   2.499   2.867   2.238  0.3017 -0.0624  0.4221
 9370SOL     OW39742   3.896   2.307   3.399  0.0254  0.1242 -0.6242
 9370SOL    HW139743   3.972   2.294   3.342  0.6039  0.3598  0.0950
 9370SOL    HW239744   3.924   2.262   3.478  0.1694  0.0672 -0.7068
 9371SOL     OW39745   1.416   3.085  11.580 -0.4255 -0.2901  0.3607
 9371SOL    HW139746   1.511   3.102  11.579 -0.5534  0.4213  0.8209
 9371SOL    HW239747   1.381   3.103  11.667 -0.4285 -1.8768  0.6879
 9372SOL     OW39748   2.799   0.193   5.980 -0.2985 -0.1774  0.6145
 9372SOL    HW139749   2.764   0.281   5.994 -1.2348 -0.3067 -0.9058
 9372SOL    HW239750   2.724   0.151   5.940 -0.1712 -0.5070  0.7170
 9373SOL     OW39751   3.694   0.196   8.618 -0.5445  0.8854 -0.9273
 9373SOL    HW139752   3.723   0.225   8.532  0.1295 -1.3568 -1.4353
 9373SOL    HW239753   3.721   0.105   8.619  0.1583  1.0916 -1.6811
 9374SOL     OW39754   4.493   3.958  16.290  0.1592  0.3268 -0.2039
 9374SOL    HW139755   4.557   3.985  16.224 -1.1919 -1.3148 -2.2010
 9374SOL    HW239756   4.419   4.003  16.248  0.7722  1.2672 -0.2791
 9375SOL     OW39757   1.414   2.519  13.842 -0.2776  0.7107  0.4127
 9375SOL    HW139758   1.496   2.481  13.874 -1.1869 -0.4221  1.3983
 9375SOL    HW239759   1.445   2.583  13.778  0.2024  0.6720  0.6123
 9376SOL     OW39760   1.582   1.657   9.136 -0.3884  0.1866  0.1129
 9376SOL    HW139761   1.492   1.656   9.168 -0.4189  0.7290  0.0409
 9376SOL    HW239762   1.634   1.681   9.212  2.6575  0.1479 -1.9302
 9377SOL     OW39763   2.765   0.737   4.246  0.0787  0.3556 -0.5578
 9377SOL    HW139764   2.859   0.746   4.262  0.4488  1.1201 -3.1634
 9377SOL    HW239765   2.757   0.787   4.165 -2.5841  1.3124  0.2959
 9378SOL     OW39766   2.334   4.148  16.882 -0.6003  0.0659 -0.3319
 9378SOL    HW139767   2.257   4.205  16.883 -0.2835  0.4725  0.7814
 9378SOL    HW239768   2.332   4.122  16.790  0.1655 -0.7489 -0.1096
 9379SOL     OW39769   4.177   0.502  12.462  0.3290 -0.3741  0.6890
 9379SOL    HW139770   4.096   0.472  12.420 -0.5135 -0.3088  2.2842
 9379SOL    HW239771   4.141   0.567  12.522 -1.7478 -2.3142  1.5773
 9380SOL     OW39772   4.159   1.698   6.156  0.0534 -0.0864 -0.2934
 9380SOL    HW139773   4.110   1.779   6.140  0.4784  0.2629  0.1740
 9380SOL    HW239774   4.144   1.700   6.250  1.4734  2.0156 -0.1139
 9381SOL     OW39775   3.753   3.740   6.686 -0.4878  0.1491  0.5184
 9381SOL    HW139776   3.840   3.772   6.710  0.0885  0.0024 -1.3200
 9381SOL    HW239777   3.765   3.706   6.597 -2.2559  1.0312 -0.0540
 9382SOL     OW39778   0.504   4.141   8.671 -0.5791 -0.0493 -0.0674
 9382SOL    HW139779   0.573   4.076   8.679  0.4125  0.8551 -1.1688
 9382SOL    HW239780   0.441   4.089   8.621 -1.2352  0.8209 -0.1577
 9383SOL     OW39781   1.869   1.600   0.818  0.0698  0.4256 -0.1489
 9383SOL    HW139782   1.818   1.601   0.737  1.0872 -0.1909 -0.7965
 9383SOL    HW239783   1.804   1.600   0.888  0.3533 -0.7468  0.1262
 9384SOL     OW39784   1.746   0.967   0.974  0.0280  0.1420  0.0836
 9384SOL    HW139785   1.652   0.953   0.970  0.0347  0.6089 -1.8092
 9384SOL    HW239786   1.780   0.930   0.892 -1.2188  3.3076 -1.8581
 9385SOL     OW39787   3.264   3.388   8.472  0.2584 -0.0877  0.0744
 9385SOL    HW139788   3.334   3.390   8.537  0.8839 -1.9651 -0.5488
 9385SOL    HW239789   3.295   3.444   8.401 -1.0224 -0.4491 -0.7605
 9386SOL     OW39790   2.069   2.372   9.248  0.0284 -0.4006  0.1776
 9386SOL    HW139791   2.070   2.407   9.159  1.3778 -0.0543  0.3315
 9386SOL    HW239792   2.162   2.363   9.271  0.0146 -0.4397  0.2166
 9387SOL     OW39793   4.406   4.052   9.298 -0.3469 -0.5208  0.0930
 9387SOL    HW139794   4.337   4.118   9.302 -0.2959 -0.4568 -0.1017
 9387SOL    HW239795   4.472   4.077   9.363  0.7041  0.1769 -1.2485
 9388SOL     OW39796   1.682   2.861   7.069  0.0089  0.1266 -0.0070
 9388SOL    HW139797   1.663   2.927   7.003  2.0835  0.0066 -0.7340
 9388SOL    HW239798   1.660   2.910   7.148  0.9790 -0.5792  0.7116
 9389SOL     OW39799   0.800   1.919   6.050 -0.2003 -0.0879 -0.2203
 9389SOL    HW139800   0.853   1.840   6.063 -0.8237 -0.7200 -1.5481
 9389SOL    HW239801   0.708   1.896   6.061 -0.0692 -0.5361 -0.0341
 9390SOL     OW39802   0.743   0.537   9.114 -0.0367  0.3860 -0.8768
 9390SOL    HW139803   0.697   0.619   9.099 -1.3003 -0.0859  0.4799
 9390SOL    HW239804   0.805   0.576   9.176  1.0509 -2.0530 -0.4339
 9391SOL     OW39805   2.423   3.264   0.414 -0.2539  0.7238 -0.3597
 9391SOL    HW139806   2.351   3.201   0.413  1.7319 -1.5386  1.7004
 9391SOL    HW239807   2.494   3.225   0.361 -0.4380  3.4646 -2.6427
 9392SOL     OW39808   0.216   2.694   6.945 -0.1908  0.2324  0.0926
 9392SOL    HW139809   0.257   2.608   6.936 -0.6817  0.1604 -1.4286
 9392SOL    HW239810   0.246   2.730   6.862  0.3339  2.9804  1.4704
 9393SOL     OW39811   1.555   2.199   4.055  0.3250  0.3692  0.2448
 9393SOL    HW139812   1.506   2.276   4.085 -2.6441 -2.1724  1.9371
 9393SOL    HW239813   1.610   2.187   4.133  1.3136  0.7491 -0.4046
 9394SOL     OW39814   2.046   1.154   7.164  0.5072 -0.1491  0.3762
 9394SOL    HW139815   2.104   1.219   7.125 -1.0294  0.7373 -0.4246
 9394SOL    HW239816   2.090   1.079   7.126  0.1307  0.9773 -2.2374
 9395SOL     OW39817   4.074   1.335   4.892 -0.2944  0.4133  0.1984
 9395SOL    HW139818   4.166   1.336   4.921 -0.1680 -3.5564 -0.1331
 9395SOL    HW239819   4.041   1.408   4.945  0.2555  0.9111 -0.1498
 9396SOL     OW39820   4.291   1.618   1.404 -0.0870 -0.1101 -0.4093
 9396SOL    HW139821   4.296   1.680   1.331  4.0819 -0.4027 -0.3926
 9396SOL    HW239822   4.341   1.661   1.474 -1.4538  3.2869 -1.5402
 9397SOL     OW39823   3.627   3.699  11.584  0.4441  0.2731  0.1279
 9397SOL    HW139824   3.675   3.777  11.554  2.2385 -0.2048  1.7788
 9397SOL    HW239825   3.699   3.659  11.633  1.5805  0.8394 -1.0620
 9398SOL     OW39826   1.266   3.973   7.625 -0.2694  0.0961  0.1512
 9398SOL    HW139827   1.188   3.918   7.632 -0.1117 -0.2786 -1.0532
 9398SOL    HW239828   1.241   4.033   7.555 -0.0980  1.6066  1.3951
 9399SOL     OW39829   3.938   2.722   7.978 -0.2719  0.3407 -0.6620
 9399SOL    HW139830   3.945   2.773   7.897 -0.3430 -0.4351 -1.1643
 9399SOL    HW239831   4.010   2.659   7.969  0.1364  0.6889  0.1588
 9400SOL     OW39832   1.598   1.222  17.296 -0.8269 -0.2694  0.0997
 9400SOL    HW139833   1.572   1.272  17.219 -1.4355  0.4213  0.7550
 9400SOL    HW239834   1.520   1.168  17.310 -2.1545  1.4689 -0.6043
 9401SOL     OW39835   3.855   2.383   2.106  0.2532 -0.1136 -0.5869
 9401SOL    HW139836   3.862   2.454   2.170 -1.4855 -2.4198  2.1698
 9401SOL    HW239837   3.775   2.416   2.064  0.2736 -0.5866 -1.0031
 9402SOL     OW39838   3.892   0.018   6.349 -0.6347  0.1948  0.0706
 9402SOL    HW139839   3.839   0.054   6.420 -1.0938 -1.6786  0.6875
 9402SOL    HW239840   3.959   0.085   6.334 -1.4185  1.2620  1.3506
 9403SOL     OW39841   4.571   0.136   1.593 -0.1925  0.1646 -0.4642
 9403SOL    HW139842   4.521   0.201   1.642 -1.2716 -0.8216 -0.2488
 9403SOL    HW239843   4.549   0.168   1.505  0.1417  0.3287 -0.4858
 9404SOL     OW39844   4.696   2.621   6.867 -0.1170 -0.6923  0.1630
 9404SOL    HW139845   0.007   2.591   6.789  2.9331 -0.4456  1.8628
 9404SOL    HW239846   0.037   2.649   6.919 -1.9600  4.6120 -0.0295
 9405SOL     OW39847   1.322   4.228  13.950  0.3156  0.5208 -0.2210
 9405SOL    HW139848   1.287   4.152  13.996 -0.4356 -0.5810 -2.6185
 9405SOL    HW239849   1.325   4.293  14.021 -0.2924  0.4972 -0.1766
 9406SOL     OW39850   1.100   3.478   6.905  0.0270  0.0363  0.2779
 9406SOL    HW139851   1.041   3.453   6.834  1.1362 -0.6201 -0.4106
 9406SOL    HW239852   1.036   3.502   6.973  1.6938 -0.0484  1.8953
 9407SOL     OW39853   1.839   0.099  10.427 -0.1909 -0.0204 -0.4603
 9407SOL    HW139854   1.781   0.053  10.366  0.5222  0.5595 -1.5777
 9407SOL    HW239855   1.909   0.134  10.372 -0.0573 -1.6597 -1.3545
 9408SOL     OW39856   3.763   4.054  14.683  0.8839  0.1034  0.1369
 9408SOL    HW139857   3.706   4.003  14.626 -0.6488  1.0740  0.7961
 9408SOL    HW239858   3.694   4.115  14.710 -1.3994 -0.6223 -4.0611
 9409SOL     OW39859   2.896   4.370   7.178 -0.1401 -0.1750 -0.8994
 9409SOL    HW139860   2.830   4.346   7.112 -0.5949 -1.4589  0.0221
 9409SOL    HW239861   2.925   4.452   7.137 -0.7501 -0.1174 -1.2301
 9410SOL     OW39862   2.772   1.444   6.597 -0.0020 -0.8353  0.4219
 9410SOL    HW139863   2.812   1.500   6.664  0.9706  0.5071 -1.2829
 9410SOL    HW239864   2.705   1.388   6.636 -0.4466 -0.3659  0.3397
 9411SOL     OW39865   2.400   3.783   7.420 -0.1741  0.2775 -0.1354
 9411SOL    HW139866   2.461   3.710   7.426  0.3566  0.7329  0.0291
 9411SOL    HW239867   2.454   3.853   7.458  2.0042 -0.1704 -2.3596
 9412SOL     OW39868   0.726   2.941   6.206 -0.8173 -0.0607 -0.5338
 9412SOL    HW139869   0.788   2.952   6.134 -0.4659 -1.2160 -0.4218
 9412SOL    HW239870   0.642   2.957   6.164 -0.9214 -0.3809 -0.4480
 9413SOL     OW39871   1.019   4.333   6.437  1.1727 -0.1686 -0.0618
 9413SOL    HW139872   1.066   4.255   6.409  2.0325  0.2652  0.1612
 9413SOL    HW239873   1.059   4.348   6.523  1.0199 -3.0355  0.5050
 9414SOL     OW39874   4.604   0.305   5.980 -0.0009 -0.3271 -0.1180
 9414SOL    HW139875   4.659   0.318   6.057 -1.2087 -0.4642  0.7656
 9414SOL    HW239876   4.519   0.288   6.020 -0.0201 -1.2439 -0.5537
 9415SOL     OW39877   2.334   0.784   4.456 -0.2545  0.6625  0.5447
 9415SOL    HW139878   2.243   0.756   4.467  0.5243 -2.2803 -0.7787
 9415SOL    HW239879   2.337   0.798   4.362 -0.2994  0.9635  0.5859
 9416SOL     OW39880   4.158   2.124  12.575 -0.4838 -0.5625 -0.0924
 9416SOL    HW139881   4.117   2.172  12.503 -0.2400  0.5063  0.4939
 9416SOL    HW239882   4.158   2.184  12.649 -0.2246  0.5920 -1.0421
 9417SOL     OW39883   3.581   4.475   6.589  0.1335 -0.4715  0.0196
 9417SOL    HW139884   3.662   4.427   6.605  0.6027  0.8610  1.5634
 9417SOL    HW239885   3.520   4.428   6.647 -1.9122  2.5880  0.3521
 9418SOL     OW39886   0.464   1.787   1.469  0.3610 -0.4499  0.2767
 9418SOL    HW139887   0.461   1.701   1.428  0.6769 -0.4270  0.2091
 9418SOL    HW239888   0.493   1.761   1.557 -1.1438 -2.1152  0.2673
 9419SOL     OW39889   2.126   3.505  15.389 -0.5379  0.0660 -0.1402
 9419SOL    HW139890   2.097   3.416  15.371 -0.0862 -0.0749 -0.1605
 9419SOL    HW239891   2.154   3.490  15.479 -4.8055  0.0891  1.1865
 9420SOL     OW39892   0.564   3.226   4.158 -0.5430 -0.0437 -0.1958
 9420SOL    HW139893   0.547   3.158   4.224  2.2946 -0.2765  0.2805
 9420SOL    HW239894   0.474   3.258   4.160 -1.1731 -1.7081 -1.2052
 9421SOL     OW39895   2.383   0.640  12.587 -0.3452  0.4290 -0.0397
 9421SOL    HW139896   2.465   0.615  12.546 -1.3739 -0.3599 -1.6411
 9421SOL    HW239897   2.364   0.727  12.551 -0.4527  0.4065 -0.0373
 9422SOL     OW39898   0.006   2.915   6.567 -0.0974  0.0142 -0.3264
 9422SOL    HW139899   4.690   2.935   6.647 -0.6397 -0.2539 -0.6009
 9422SOL    HW239900   0.092   2.947   6.595  0.1810 -0.1281 -1.0298
 9423SOL     OW39901   3.005   3.030   7.720  0.4817  0.6824  0.2824
 9423SOL    HW139902   3.071   2.971   7.757 -0.4204  0.2520  1.2190
 9423SOL    HW239903   3.059   3.108   7.718 -0.1254  1.1168  0.8408
 9424SOL     OW39904   2.384   2.008   8.310 -0.5893  0.0478  0.1236
 9424SOL    HW139905   2.320   1.975   8.247  0.3725  0.8134 -1.2496
 9424SOL    HW239906   2.416   2.088   8.267  0.9091 -0.1927  0.7908
 9425SOL     OW39907   4.512   3.252   8.438  0.9067 -0.0407 -0.3416
 9425SOL    HW139908   4.487   3.301   8.359 -0.5492 -1.0242 -0.4971
 9425SOL    HW239909   4.504   3.165   8.399  2.1793  0.1471 -1.0143
 9426SOL     OW39910   0.037   1.388   8.793  0.5296  0.1956 -0.3637
 9426SOL    HW139911   4.701   1.428   8.742  0.1037 -1.2225 -0.8680
 9426SOL    HW239912   0.108   1.446   8.764  0.8271  0.9188  1.7616
 9427SOL     OW39913   4.207   1.431   5.745 -0.3048 -0.2574 -0.1370
 9427SOL    HW139914   4.273   1.364   5.765  0.5612  0.6427 -0.0289
 9427SOL    HW239915   4.153   1.409   5.821  2.5921 -0.7468  1.7766
 9428SOL     OW39916   2.185   1.607   8.382 -0.4739 -0.1094  0.0319
 9428SOL    HW139917   2.174   1.626   8.289  2.6936  1.3931 -0.0350
 9428SOL    HW239918   2.154   1.690   8.419 -1.9507 -0.1959 -1.0161
 9429SOL     OW39919   0.287   0.836   1.210 -0.3536  0.0917  0.2612
 9429SOL    HW139920   0.237   0.831   1.292 -0.4363 -1.2296  0.1231
 9429SOL    HW239921   0.218   0.806   1.152  0.7309  2.8366 -2.4921
 9430SOL     OW39922   4.599   4.655  17.406 -0.6878 -0.1172  0.3716
 9430SOL    HW139923   4.530   4.720  17.419 -0.8717  0.0592 -1.3694
 9430SOL    HW239924   4.674   4.714  17.416 -0.0162 -1.1129  1.1385
 9431SOL     OW39925   0.844   2.408  16.072 -0.0060 -0.5145  0.1899
 9431SOL    HW139926   0.804   2.449  15.996 -0.0600  0.1529  0.5840
 9431SOL    HW239927   0.935   2.403  16.043 -0.9117 -1.7333 -2.4332
 9432SOL     OW39928   1.190   0.773   4.868  1.0286 -0.4629 -0.3017
 9432SOL    HW139929   1.193   0.867   4.853 -0.3179 -0.3641  0.0763
 9432SOL    HW239930   1.103   0.763   4.907  0.2191 -0.8245 -2.2173
 9433SOL     OW39931   1.583   1.976  11.597  0.2991  0.2189 -0.3693
 9433SOL    HW139932   1.639   2.006  11.525  1.9870  0.4037  1.0217
 9433SOL    HW239933   1.608   2.034  11.669 -1.7514  0.5965  0.0264
 9434SOL     OW39934   2.498   1.376   5.106 -0.2313 -0.6705  0.3393
 9434SOL    HW139935   2.555   1.449   5.132  0.0941 -0.6275 -0.4938
 9434SOL    HW239936   2.460   1.415   5.028  0.5021  2.0112  1.3120
 9435SOL     OW39937   1.775   0.684   2.359 -0.0109 -0.4012 -0.5078
 9435SOL    HW139938   1.813   0.758   2.312  0.5884 -0.5428 -0.2435
 9435SOL    HW239939   1.837   0.618   2.330  0.6161 -0.3617  0.7684
 9436SOL     OW39940   3.123   2.163   7.637 -0.8750 -0.8619 -0.1472
 9436SOL    HW139941   3.118   2.096   7.568  0.9991 -1.9709  0.7859
 9436SOL    HW239942   3.082   2.239   7.597  1.9846 -0.1809 -1.8314
 9437SOL     OW39943   1.512   1.820   6.446 -0.9475  0.1886  0.0322
 9437SOL    HW139944   1.476   1.757   6.383 -0.1497 -0.5518  0.3032
 9437SOL    HW239945   1.477   1.903   6.415  2.1050  1.5175  0.1335
 9438SOL     OW39946   1.108   2.723   5.871 -0.1174 -0.0695 -0.1457
 9438SOL    HW139947   1.141   2.657   5.811  1.4396 -0.6055  1.2958
 9438SOL    HW239948   1.069   2.786   5.811 -0.8790 -0.2766  0.1294
 9439SOL     OW39949   2.118   0.481   6.046  0.2039  0.3245 -0.1804
 9439SOL    HW139950   2.168   0.554   6.082 -0.2219  0.1910  0.6844
 9439SOL    HW239951   2.193   0.425   6.066 -1.0381 -1.1320  0.4250
 9440SOL     OW39952   2.168   1.232   1.857 -0.3322 -0.5461  0.6510
 9440SOL    HW139953   2.118   1.153   1.880  0.0265 -0.0016  3.3448
 9440SOL    HW239954   2.118   1.271   1.786  0.1246  1.0902  1.2365
 9441SOL     OW39955   1.580   1.898   7.342 -0.1348  0.0135 -0.7398
 9441SOL    HW139956   1.580   1.879   7.248 -1.3392 -1.6558 -0.4038
 9441SOL    HW239957   1.533   1.819   7.369  2.1356 -0.9516  0.3859
 9442SOL     OW39958   0.740   2.882   7.722 -0.4458 -0.3897  0.5245
 9442SOL    HW139959   0.658   2.853   7.762 -0.4537  1.1668  1.6264
 9442SOL    HW239960   0.792   2.911   7.797  0.1468  1.2391 -0.5232
 9443SOL     OW39961   2.240   2.330  12.267  0.0702 -0.2094 -0.0768
 9443SOL    HW139962   2.179   2.290  12.205  1.9248 -2.6853 -0.2862
 9443SOL    HW239963   2.322   2.281  12.274  2.1585  2.8204 -3.8388
 9444SOL     OW39964   3.081   3.034  10.464  0.6513 -0.0225  0.2641
 9444SOL    HW139965   3.068   3.050  10.557 -0.2886  1.6735 -0.1564
 9444SOL    HW239966   3.130   3.114  10.445  1.6000 -1.0675 -1.6975
 9445SOL     OW39967   0.077   4.007   4.730 -0.4432 -0.4818  0.2658
 9445SOL    HW139968   0.056   4.030   4.639 -0.0268 -2.4432 -0.3316
 9445SOL    HW239969   0.110   4.092   4.758 -1.4043  0.2591 -0.8409
 9446SOL     OW39970   1.454   3.295  10.342  0.3164 -0.4483  0.5513
 9446SOL    HW139971   1.483   3.256  10.424  2.8858  2.3053  0.9421
 9446SOL    HW239972   1.398   3.227  10.303 -0.0962 -0.8923  1.9311
 9447SOL     OW39973   3.939   0.790   5.922  0.4426 -0.7948 -0.1289
 9447SOL    HW139974   4.019   0.754   5.960  0.6243  2.3883  2.5331
 9447SOL    HW239975   3.907   0.708   5.884  2.1672 -0.0802 -3.1264
 9448SOL     OW39976   4.659   0.106   0.608 -0.1933 -0.3811  0.0901
 9448SOL    HW139977   4.587   0.043   0.617 -0.7377 -0.0849 -2.2405
 9448SOL    HW239978   4.633   0.169   0.675 -2.1113 -2.2033  1.0693
 9449SOL     OW39979   0.368   4.294  15.230  0.1891  0.5949 -0.1898
 9449SOL    HW139980   0.356   4.202  15.251 -0.1589  0.6384 -0.2013
 9449SOL    HW239981   0.280   4.327  15.251  0.6312  0.6748  1.5411
 9450SOL     OW39982   3.411   3.411  17.111 -0.1594 -0.2371  0.0799
 9450SOL    HW139983   3.494   3.449  17.082  0.7494 -1.5824  0.8691
 9450SOL    HW239984   3.359   3.441  17.037 -2.2275 -1.1301  1.1649
 9451SOL     OW39985   0.585   2.322  13.932 -0.8979  0.0058 -0.4070
 9451SOL    HW139986   0.675   2.290  13.931 -1.2194 -0.9178  0.5824
 9451SOL    HW239987   0.576   2.366  14.017 -2.4366 -2.3643  0.6551
 9452SOL     OW39988   0.431   3.014  14.546 -0.4914 -0.5143 -0.1071
 9452SOL    HW139989   0.423   2.952  14.474  1.2284 -1.3106  0.3963
 9452SOL    HW239990   0.468   3.091  14.501 -1.4703  0.4359  0.7094
 9453SOL     OW39991   2.105   2.740  12.031  0.3355  1.0330 -0.1436
 9453SOL    HW139992   2.045   2.809  12.003  0.0746 -0.4541 -3.1253
 9453SOL    HW239993   2.170   2.797  12.073 -0.9279  1.9608  0.5474
 9454SOL     OW39994   0.756   4.190   5.764 -0.6716  0.4755  0.8210
 9454SOL    HW139995   0.799   4.266   5.802  0.3661 -0.1880  0.9922
 9454SOL    HW239996   0.760   4.204   5.669 -0.6574  2.0735  1.0561
 9455SOL     OW39997   4.291   1.761  14.397  0.2675 -0.8852 -0.2780
 9455SOL    HW139998   4.255   1.672  14.400  0.8641 -1.0891  0.5698
 9455SOL    HW239999   4.319   1.767  14.306 -1.5582  0.8645 -0.7352
 9456SOL     OW40000   3.948   1.838  17.566 -0.2747 -0.3116 -0.2843
 9456SOL    HW140001   3.968   1.926  17.535 -1.2413  0.2565  0.6873
 9456SOL    HW240002   3.952   1.784  17.486  0.1524 -1.4593  0.5174
 9457SOL     OW40003   2.022   1.811   2.109  0.2274  0.0243 -0.0136
 9457SOL    HW140004   2.034   1.748   2.037  0.5331  0.4252 -0.3124
 9457SOL    HW240005   2.009   1.753   2.184 -1.8379  2.0711  1.1792
 9458SOL     OW40006   0.008   1.754  17.113 -0.1415 -0.4124 -0.2631
 9458SOL    HW140007   0.052   1.733  17.196 -0.4447 -3.7362 -0.9463
 9458SOL    HW240008   0.006   1.668  17.071 -2.3886  0.7595 -2.5294
 9459SOL     OW40009   2.081   2.386  10.095  0.4651  0.0419  0.7754
 9459SOL    HW140010   2.142   2.315  10.074 -1.8662 -1.8572  0.5122
 9459SOL    HW240011   1.999   2.338  10.107  0.0735  0.1675 -1.3418
 9460SOL     OW40012   1.776   4.614   5.547 -0.1195 -0.5086  0.1480
 9460SOL    HW140013   1.761   4.601   5.640  0.7435 -0.5561  0.2799
 9460SOL    HW240014   1.868   4.637   5.555 -0.1209 -0.6246  0.4962
 9461SOL     OW40015   1.704   0.677  16.154 -0.2442 -0.1987 -0.6938
 9461SOL    HW140016   1.646   0.733  16.103  0.4044  0.7959 -0.3460
 9461SOL    HW240017   1.753   0.748  16.194  1.1968 -1.6364  0.1111
 9462SOL     OW40018   4.418   2.790   5.784 -0.0642 -0.0744 -0.7412
 9462SOL    HW140019   4.449   2.837   5.862  0.7144  0.7312 -1.5336
 9462SOL    HW240020   4.477   2.831   5.720 -1.3534  2.0797 -0.5622
 9463SOL     OW40021   2.038   2.795   0.205  0.2950  0.7498  0.0936
 9463SOL    HW140022   2.066   2.862   0.267 -0.8405  0.9151  0.4311
 9463SOL    HW240023   2.042   2.721   0.266 -2.6386 -1.7948 -2.7729
 9464SOL     OW40024   3.107   3.932  17.429 -0.0641  0.4184  0.7002
 9464SOL    HW140025   3.170   3.966  17.492 -0.7272  1.7261  0.6399
 9464SOL    HW240026   3.033   3.927  17.489  0.6803 -0.9312  1.5295
 9465SOL     OW40027   1.724   0.205   7.240 -0.4786 -0.7359  0.0024
 9465SOL    HW140028   1.673   0.130   7.268 -3.6252  1.2540 -0.4289
 9465SOL    HW240029   1.660   0.275   7.224  0.5949  0.2402 -0.0841
 9466SOL     OW40030   1.776   0.806  12.754  0.1622  0.1402 -0.1964
 9466SOL    HW140031   1.835   0.770  12.689 -0.5805 -0.7067 -0.3982
 9466SOL    HW240032   1.805   0.778  12.841  3.1424 -0.3344 -1.3449
 9467SOL     OW40033   0.910   3.892   8.220  0.1264 -0.5069 -0.0493
 9467SOL    HW140034   0.997   3.881   8.256 -0.3187 -0.8889  0.9088
 9467SOL    HW240035   0.901   3.820   8.157  2.1816 -0.4593 -0.3809
 9468SOL     OW40036   3.863   1.049   4.076  0.6761  0.5039 -0.4204
 9468SOL    HW140037   3.839   1.073   4.165 -0.4845  0.9067 -0.8318
 9468SOL    HW240038   3.882   1.129   4.027  0.0068  0.4002 -0.8534
 9469SOL     OW40039   3.226   4.047   1.777 -0.2674  0.3425 -0.1731
 9469SOL    HW140040   3.243   4.135   1.810  1.4254 -0.4687  1.1032
 9469SOL    HW240041   3.136   4.037   1.808 -0.3598  1.5331 -0.0798
 9470SOL     OW40042   3.878   0.664  11.885 -0.1307  0.5649  0.2508
 9470SOL    HW140043   3.929   0.685  11.963 -2.5007  3.0474  1.0999
 9470SOL    HW240044   3.884   0.568  11.878 -1.0385  0.5838 -0.6618
 9471SOL     OW40045   1.596   4.371   3.159 -0.0229  0.0580  0.3907
 9471SOL    HW140046   1.645   4.355   3.078 -2.0435 -0.2951 -0.7906
 9471SOL    HW240047   1.533   4.439   3.134 -1.8582 -1.9286 -0.4581
 9472SOL     OW40048   4.370   0.066  11.281 -0.2639  0.5107  0.0347
 9472SOL    HW140049   4.407   0.049  11.367 -2.3635  0.2272  0.8918
 9472SOL    HW240050   4.284   0.099  11.308 -1.4387 -2.3849 -0.1856
 9473SOL     OW40051   0.788   0.617   1.709 -0.3110  0.5670  0.7366
 9473SOL    HW140052   0.702   0.594   1.745 -0.2773 -0.6076  0.0749
 9473SOL    HW240053   0.853   0.559   1.749 -1.7960 -0.9392  0.9785
 9474SOL     OW40054   1.173   1.869  14.179  0.4637 -0.4392  0.6926
 9474SOL    HW140055   1.106   1.877  14.247 -1.1863  0.1981 -1.0186
 9474SOL    HW240056   1.153   1.778  14.154  2.4960 -0.8530  0.5836
 9475SOL     OW40057   1.486   2.426  17.424 -0.2725  0.5589  0.3029
 9475SOL    HW140058   1.468   2.485  17.497 -0.3324  1.8231 -0.7305
 9475SOL    HW240059   1.435   2.467  17.355  2.7524  3.5548 -0.1541
 9476SOL     OW40060   0.199   4.172   0.474  0.0770 -0.3132  0.6499
 9476SOL    HW140061   0.181   4.083   0.506 -3.2027  0.7726  1.7957
 9476SOL    HW240062   0.118   4.218   0.495  0.1576  1.2046 -2.3600
 9477SOL     OW40063   0.442   3.493  14.476  0.1686 -0.7164  0.2947
 9477SOL    HW140064   0.443   3.473  14.569  1.6060 -1.8640  0.0340
 9477SOL    HW240065   0.461   3.411  14.429  1.9233 -0.1674  0.0727
 9478SOL     OW40066   4.468   2.598  12.688  0.4152 -0.4033  0.3091
 9478SOL    HW140067   4.535   2.557  12.633  0.7567 -0.8166  1.0288
 9478SOL    HW240068   4.474   2.536  12.761  0.5855  0.6776  1.2185
 9479SOL     OW40069   0.639   1.248   4.748 -0.1687  0.2514 -0.4605
 9479SOL    HW140070   0.662   1.322   4.693 -0.1323  1.6601  1.4362
 9479SOL    HW240071   0.655   1.289   4.833 -2.7535  1.5332 -0.5771
 9480SOL     OW40072   4.375   3.560  13.183  0.2271 -0.1347 -0.2599
 9480SOL    HW140073   4.289   3.538  13.148  1.0070 -0.9442 -1.6585
 9480SOL    HW240074   4.392   3.629  13.118 -0.0077  0.0180 -0.1612
 9481SOL     OW40075   0.655   2.141   8.831 -0.1139 -0.4858 -0.2764
 9481SOL    HW140076   0.606   2.083   8.772 -1.4146  0.7167 -0.3763
 9481SOL    HW240077   0.660   2.079   8.904 -1.0942  1.8607  1.7594
 9482SOL     OW40078   1.758   2.334   5.728  0.4531 -0.0166 -0.0187
 9482SOL    HW140079   1.773   2.425   5.700 -1.9529 -0.0780 -1.4241
 9482SOL    HW240080   1.695   2.301   5.665  1.1750 -1.1278 -0.1488
 9483SOL     OW40081   2.399   2.870   0.793 -0.7719 -0.4986  0.0945
 9483SOL    HW140082   2.454   2.792   0.790  1.4928  1.1263 -0.2905
 9483SOL    HW240083   2.453   2.928   0.847 -0.4607 -0.1183 -0.6313
 9484SOL     OW40084   3.696   1.057   1.155  0.2291  0.5154  0.3993
 9484SOL    HW140085   3.758   1.047   1.082 -2.3904 -0.5495 -1.6767
 9484SOL    HW240086   3.695   0.967   1.187  1.1336  0.4522  0.2497
 9485SOL     OW40087   0.169   0.107   8.699 -0.0245 -0.0616 -0.1028
 9485SOL    HW140088   0.079   0.134   8.718 -0.2791 -1.3228  0.5080
 9485SOL    HW240089   0.197   0.189   8.659 -0.7310  1.0284  1.6042
 9486SOL     OW40090   1.586   1.539   4.295 -0.3754  0.0372 -0.2494
 9486SOL    HW140091   1.564   1.602   4.364  0.8194 -1.4734  1.5189
 9486SOL    HW240092   1.521   1.570   4.231 -0.9481 -0.0033  0.3060
 9487SOL     OW40093   4.208   0.033   7.960 -0.7935 -0.5048 -0.1175
 9487SOL    HW140094   4.256   0.010   7.880  0.4724  0.0966  0.4711
 9487SOL    HW240095   4.204   4.677   7.993 -0.8179  0.0554  1.4155
 9488SOL     OW40096   0.565   1.726   3.570 -0.1875  0.3718 -0.2115
 9488SOL    HW140097   0.495   1.780   3.534 -1.9383 -2.1387 -0.5230
 9488SOL    HW240098   0.595   1.778   3.644 -3.0454  0.1816  1.0515
 9489SOL     OW40099   4.228   3.173  11.892 -0.1756 -0.2100 -0.0624
 9489SOL    HW140100   4.134   3.186  11.901  0.2369  0.4360  3.2532
 9489SOL    HW240101   4.242   3.085  11.928 -2.7643 -0.6271 -0.0924
 9490SOL     OW40102   0.910   2.086   6.222 -0.3037 -0.5486 -0.6107
 9490SOL    HW140103   0.859   2.038   6.157 -0.3109 -0.9073 -0.3397
 9490SOL    HW240104   0.968   2.016   6.253  1.3179  0.4806 -1.3397
 9491SOL     OW40105   4.656   0.083  17.078 -0.6314 -0.1636 -0.3260
 9491SOL    HW140106   4.603   0.031  17.018  0.0236  0.1928 -1.2316
 9491SOL    HW240107   4.690   0.019  17.140 -2.3759  0.9497  1.7707
 9492SOL     OW40108   1.418   2.500   7.102  0.2456  0.2053 -0.6752
 9492SOL    HW140109   1.381   2.516   7.189  1.4373 -2.0855  0.2487
 9492SOL    HW240110   1.510   2.522   7.117  0.3101 -0.2239 -0.4393
 9493SOL     OW40111   0.606   4.259  13.468  0.3990  0.2368 -0.2221
 9493SOL    HW140112   0.566   4.338  13.505 -0.5848 -0.2495 -0.2544
 9493SOL    HW240113   0.540   4.235  13.403  1.5204 -0.9786 -0.9000
 9494SOL     OW40114   4.593   0.398   8.882  0.0084  0.4244 -0.3323
 9494SOL    HW140115   4.572   0.337   8.810  1.3138 -1.6452  1.0370
 9494SOL    HW240116   4.598   0.479   8.831 -0.1229 -0.0411 -1.0932
 9495SOL     OW40117   0.192   1.582  13.220  0.2593 -0.4499  0.0697
 9495SOL    HW140118   0.279   1.555  13.249  0.3386  0.9244  1.1628
 9495SOL    HW240119   0.154   1.622  13.299 -0.2606 -0.4499 -0.1810
 9496SOL     OW40120   1.619   4.331   7.602  0.0203 -0.6825  0.3006
 9496SOL    HW140121   1.574   4.306   7.682  1.1665  0.8803  1.4356
 9496SOL    HW240122   1.624   4.250   7.552  0.2763  0.3202 -1.3107
 9497SOL     OW40123   1.570   0.726  10.317  0.0298 -0.7423  0.6325
 9497SOL    HW140124   1.536   0.680  10.393 -1.7757  1.1126  0.9559
 9497SOL    HW240125   1.537   0.815  10.331 -0.7164 -0.5378 -2.4034
 9498SOL     OW40126   4.415   3.908   8.722  0.2034 -0.8270  0.0196
 9498SOL    HW140127   4.424   3.944   8.810  1.6410  0.5503 -0.6798
 9498SOL    HW240128   4.421   3.987   8.668  0.3595  0.1844  1.5243
 9499SOL     OW40129   1.673   1.341   7.227 -0.2536  0.4748 -0.1469
 9499SOL    HW140130   1.625   1.260   7.247  0.4944 -0.9310 -4.0060
 9499SOL    HW240131   1.700   1.322   7.137  1.9297  3.7623 -0.1546
 9500SOL     OW40132   1.065   2.694  12.968 -0.2812 -0.8601 -0.1297
 9500SOL    HW140133   1.121   2.768  12.947 -0.1735 -0.5567  1.2220
 9500SOL    HW240134   1.053   2.719  13.060  1.7675  2.0520 -0.6689
 9501SOL     OW40135   4.040   1.514   1.456 -0.0429 -0.0220  0.3094
 9501SOL    HW140136   4.030   1.609   1.457  2.0636  0.2316 -3.2779
 9501SOL    HW240137   4.131   1.517   1.428 -0.3296  1.9399 -0.4405
 9502SOL     OW40138   0.045   0.774   3.812 -0.4658  0.0559 -0.1803
 9502SOL    HW140139   0.118   0.732   3.767 -2.4062 -1.2007 -2.1940
 9502SOL    HW240140   0.071   0.864   3.796 -1.7037  0.3793 -0.3936
 9503SOL     OW40141   1.213   4.703   4.975  0.6756  0.3940  0.2828
 9503SOL    HW140142   1.308   4.694   4.973  0.5566 -1.2454  1.9615
 9503SOL    HW240143   1.196   4.631   4.915  0.0125  0.2802  0.6078
 9504SOL     OW40144   0.521   2.440   5.994  0.3792 -0.7072 -0.2824
 9504SOL    HW140145   0.430   2.413   6.002 -0.6030  2.2748 -1.3945
 9504SOL    HW240146   0.520   2.512   6.057  1.2462  0.4146 -1.5400
 9505SOL     OW40147   1.760   0.360  10.274  0.3619  0.3400 -0.0510
 9505SOL    HW140148   1.849   0.367  10.307 -0.4246  1.3796  1.8657
 9505SOL    HW240149   1.776   0.359  10.180 -1.2327 -1.4000 -0.2957
 9506SOL     OW40150   2.034   3.941  10.992 -0.2499 -0.0705 -0.0213
 9506SOL    HW140151   1.965   3.935  11.059  0.1978 -1.1398  0.3367
 9506SOL    HW240152   2.002   3.883  10.924 -1.0178 -0.2137  0.4594
 9507SOL     OW40153   3.318   3.243   5.795  0.4284  0.4669  0.0873
 9507SOL    HW140154   3.257   3.202   5.734  0.6699  1.1891 -0.6429
 9507SOL    HW240155   3.355   3.169   5.843 -2.7443  1.0689  3.4440
 9508SOL     OW40156   0.331   0.244   2.134  0.1525  0.2991  0.3832
 9508SOL    HW140157   0.268   0.182   2.098 -1.4765  2.4103 -0.4480
 9508SOL    HW240158   0.413   0.197   2.120  0.8289  1.6720 -0.3349
 9509SOL     OW40159   0.990   1.162   7.428  0.2747 -0.1309 -0.1145
 9509SOL    HW140160   1.082   1.187   7.433  0.7927 -1.9907 -0.1460
 9509SOL    HW240161   0.948   1.223   7.489  0.9705  0.3679 -0.1340
 9510SOL     OW40162   0.520   3.402   2.426  0.6684 -0.1132  0.7379
 9510SOL    HW140163   0.481   3.464   2.363  0.3223 -1.4600 -0.3751
 9510SOL    HW240164   0.450   3.338   2.414 -0.7343  1.6058 -0.5015
 9511SOL     OW40165   4.238   3.708   4.022 -0.0151  0.0360 -0.0008
 9511SOL    HW140166   4.288   3.773   3.973  0.7753 -2.5518 -2.6448
 9511SOL    HW240167   4.160   3.723   3.967 -0.9663 -0.9836  1.0728
 9512SOL     OW40168   3.532   2.871  12.685  0.0861  0.2662  0.6429
 9512SOL    HW140169   3.459   2.810  12.691  0.4339 -0.2970 -0.7505
 9512SOL    HW240170   3.524   2.906  12.597 -2.8092 -3.0163 -0.4123
 9513SOL     OW40171   0.430   0.013   1.733  0.2907 -0.5428  0.1268
 9513SOL    HW140172   0.470   0.099   1.741 -1.1035  0.1100  0.1525
 9513SOL    HW240173   0.443   4.722   1.642  0.8969 -0.7123  0.2636
 9514SOL     OW40174   4.018   1.910  12.381  0.4803  0.3290  0.4492
 9514SOL    HW140175   3.992   1.997  12.409  2.4220  0.5298  1.5922
 9514SOL    HW240176   4.070   1.884  12.457  0.4527  0.4218  0.4990
 9515SOL     OW40177   1.746   2.428   8.783 -0.4349 -0.4017 -0.3477
 9515SOL    HW140178   1.688   2.486   8.832 -0.7389 -0.0333 -1.1389
 9515SOL    HW240179   1.723   2.350   8.834  0.6865  1.3697  2.8378
 9516SOL     OW40180   2.888   1.482   1.086  0.2987 -0.0380 -0.3178
 9516SOL    HW140181   2.911   1.567   1.049  1.9245 -1.4604 -2.6203
 9516SOL    HW240182   2.950   1.423   1.042  1.6298  2.0558 -1.2210
 9517SOL     OW40183   0.265   3.284   7.024  0.3888  0.3055  0.0056
 9517SOL    HW140184   0.291   3.293   7.116  4.2456  0.0526 -1.0770
 9517SOL    HW240185   0.190   3.225   7.022 -1.1922  2.3582 -1.7849
 9518SOL     OW40186   1.364   4.221   7.251  0.3628 -0.8407  0.0474
 9518SOL    HW140187   1.324   4.232   7.164  0.5037  0.7546  0.1849
 9518SOL    HW240188   1.441   4.171   7.224  0.3607  0.6648 -2.7126
 9519SOL     OW40189   2.569   2.404   0.537 -0.1856  0.4366 -0.6054
 9519SOL    HW140190   2.545   2.311   0.529 -0.8773  0.5212  0.5405
 9519SOL    HW240191   2.614   2.424   0.455 -0.3445  1.5562 -0.4127
 9520SOL     OW40192   3.817   2.876   6.271 -0.0330 -0.5629  0.2344
 9520SOL    HW140193   3.826   2.901   6.362  0.9903  0.5731 -0.1801
 9520SOL    HW240194   3.741   2.931   6.250  0.7009  0.1740 -0.4852
 9521SOL     OW40195   2.649   1.782   5.418 -0.2742  0.1646  0.3597
 9521SOL    HW140196   2.618   1.709   5.364 -2.4375  1.4368 -0.1079
 9521SOL    HW240197   2.640   1.863   5.369 -0.4113 -0.5244 -0.7531
 9522SOL     OW40198   1.261   4.527   3.551 -0.5187  0.1891  0.3798
 9522SOL    HW140199   1.246   4.622   3.549 -3.4348 -0.2977 -0.8588
 9522SOL    HW240200   1.178   4.502   3.510 -0.8299 -2.4996  2.7036
 9523SOL     OW40201   3.070   3.482   8.739 -0.0123 -0.1408  0.1304
 9523SOL    HW140202   3.069   3.417   8.810 -0.7619  1.1388  1.2823
 9523SOL    HW240203   3.044   3.440   8.656  0.6221 -0.2708 -0.0025
 9524SOL     OW40204   4.209   1.704   5.145 -0.0117  0.4273  0.0695
 9524SOL    HW140205   4.284   1.662   5.187  0.0368 -1.3790 -1.8450
 9524SOL    HW240206   4.139   1.665   5.197 -0.7873 -0.5627 -1.7355
 9525SOL     OW40207   1.534   1.872   7.980 -0.7001 -0.0994 -0.7582
 9525SOL    HW140208   1.444   1.890   7.953 -0.8755 -3.0000 -2.0957
 9525SOL    HW240209   1.538   1.932   8.055  2.5707  0.0998 -1.0863
 9526SOL     OW40210   1.809   0.285   1.748  0.0929  0.2892  0.5425
 9526SOL    HW140211   1.861   0.237   1.812  1.7039  0.4310 -0.6779
 9526SOL    HW240212   1.824   0.377   1.770  1.8311  0.2047 -0.3120
 9527SOL     OW40213   1.901   3.229  15.009 -0.3661 -0.0096 -0.0237
 9527SOL    HW140214   1.827   3.231  15.071 -0.3403  1.3353 -0.0227
 9527SOL    HW240215   1.896   3.317  14.972 -2.4905  0.0856  0.4724
 9528SOL     OW40216   3.873   0.709   1.902  0.4239  0.1027  0.2304
 9528SOL    HW140217   3.876   0.614   1.889  0.6845 -0.1060  1.8146
 9528SOL    HW240218   3.866   0.756   1.819  0.7761 -0.2675 -0.0107
 9529SOL     OW40219   4.226   0.007  14.608 -0.0589 -0.3542  0.6510
 9529SOL    HW140220   4.311   0.048  14.620 -0.3254 -0.2055  2.0682
 9529SOL    HW240221   4.176   0.062  14.669 -2.2223 -0.9686 -0.5592
 9530SOL     OW40222   0.280   0.202  12.111  0.1779 -0.1504 -0.2011
 9530SOL    HW140223   0.194   0.203  12.069  0.2368 -0.1590 -0.3208
 9530SOL    HW240224   0.298   0.108  12.103 -1.2233 -0.5833  1.8118
 9531SOL     OW40225   1.864   1.903   1.425 -0.5932 -0.6590 -0.7071
 9531SOL    HW140226   1.775   1.924   1.455  0.0540  0.0674  0.6687
 9531SOL    HW240227   1.869   1.890   1.330 -0.0186 -0.7679 -0.6625
 9532SOL     OW40228   4.715   3.272   0.560 -0.1579 -0.1015  0.3224
 9532SOL    HW140229   4.629   3.279   0.519  1.3425  1.3828 -2.5290
 9532SOL    HW240230   0.034   3.224   0.498 -0.1843 -0.5598  0.6557
 9533SOL     OW40231   3.988   4.008   5.563 -0.3240 -0.6444 -0.0708
 9533SOL    HW140232   4.045   3.985   5.490  2.0163  1.7383  0.9716
 9533SOL    HW240233   3.905   3.983   5.523 -0.8753 -1.1801  1.3888
 9534SOL     OW40234   2.520   3.267   4.862 -0.4803  0.1779  0.4193
 9534SOL    HW140235   2.585   3.247   4.795 -0.8706 -2.9028  0.9789
 9534SOL    HW240236   2.514   3.363   4.866  0.6040  0.1519  2.4584
 9535SOL     OW40237   1.049   1.618   4.664  0.5472  0.8838  0.9050
 9535SOL    HW140238   1.092   1.539   4.695  1.6115  1.8502  1.9026
 9535SOL    HW240239   1.049   1.598   4.570 -0.8461 -0.8889  1.2994
 9536SOL     OW40240   0.035   3.138   6.385 -0.1460  0.4583  0.2481
 9536SOL    HW140241   0.046   3.209   6.449 -4.0920  1.1815  0.0912
 9536SOL    HW240242   0.055   3.058   6.434  0.0666  0.0176 -0.5695
 9537SOL     OW40243   2.726   3.881  13.427  0.0584  0.5244 -0.5836
 9537SOL    HW140244   2.632   3.867  13.440  0.4666 -1.6174 -0.0186
 9537SOL    HW240245   2.733   3.865  13.333 -2.4469  0.4684 -0.7666
 9538SOL     OW40246   2.087   0.660   4.421  0.1899 -0.4779 -0.4319
 9538SOL    HW140247   2.097   0.633   4.330 -0.9025 -0.2711 -0.6067
 9538SOL    HW240248   2.022   0.598   4.455 -1.3291  0.3141 -1.8965
 9539SOL     OW40249   3.773   2.004   9.212 -0.3571  0.3430  0.3254
 9539SOL    HW140250   3.713   2.065   9.169  0.9021  1.1938 -0.2453
 9539SOL    HW240251   3.848   1.992   9.153  0.3491  1.3745  1.0102
 9540SOL     OW40252   3.717   2.240   2.426 -0.3290 -0.2081  0.3642
 9540SOL    HW140253   3.744   2.296   2.499  1.3804  0.8624 -1.1040
 9540SOL    HW240254   3.680   2.309   2.370  0.3947 -0.5305 -0.5037
 9541SOL     OW40255   0.330   2.889   8.083  0.3013  0.3684  0.2519
 9541SOL    HW140256   0.313   2.821   8.149  1.7851  0.3197  0.5698
 9541SOL    HW240257   0.409   2.924   8.124 -0.5620  0.3597  1.9349
 9542SOL     OW40258   2.869   2.529   5.234  0.1040 -0.7638 -0.4445
 9542SOL    HW140259   2.850   2.545   5.326 -1.0811  0.3516 -0.8724
 9542SOL    HW240260   2.801   2.585   5.195  0.8631 -0.7548 -1.7529
 9543SOL     OW40261   1.878   0.044  15.224  0.1660  0.0583  0.0103
 9543SOL    HW140262   1.913   0.132  15.216  0.0851  0.1244  0.3707
 9543SOL    HW240263   1.893   0.008  15.137 -0.1661  2.5481 -1.0723
 9544SOL     OW40264   1.268   0.261   5.055 -0.2599  0.0925  0.0758
 9544SOL    HW140265   1.231   0.177   5.026  0.8604 -0.0903 -0.7886
 9544SOL    HW240266   1.192   0.319   5.054 -0.3686 -0.0139  1.8374
 9545SOL     OW40267   4.327   2.017   3.245 -0.5690 -0.0799 -0.5177
 9545SOL    HW140268   4.399   2.018   3.307 -3.3472  0.9212  2.6843
 9545SOL    HW240269   4.370   1.985   3.166 -1.6867  0.5742 -1.4018
 9546SOL     OW40270   2.267   1.948   2.155 -0.1460 -0.3405 -0.1278
 9546SOL    HW140271   2.249   1.928   2.246  0.4815  0.3084  0.1391
 9546SOL    HW240272   2.196   1.898   2.114 -0.2084 -0.0710 -0.3506
 9547SOL     OW40273   2.307   2.411  14.977 -0.6554 -0.3283 -0.1786
 9547SOL    HW140274   2.229   2.399  14.924 -0.5288 -2.4549  0.1263
 9547SOL    HW240275   2.337   2.320  14.982 -0.9756 -0.5065 -1.4458
 9548SOL     OW40276   3.527   4.571   4.858  0.6242 -0.3343  0.1382
 9548SOL    HW140277   3.574   4.552   4.940  1.0543  0.2777  0.0332
 9548SOL    HW240278   3.434   4.561   4.879 -0.1930  2.1317 -2.2697
 9549SOL     OW40279   1.310   1.567   1.479  0.3792 -0.1860  0.2976
 9549SOL    HW140280   1.325   1.543   1.388  0.7088 -2.1695  0.8677
 9549SOL    HW240281   1.403   1.579   1.500  0.1369  1.3583  0.4289
 9550SOL     OW40282   1.586   4.710   7.275 -0.4649  0.0330  0.2046
 9550SOL    HW140283   1.577   4.620   7.306 -0.6569  0.7130  2.1126
 9550SOL    HW240284   1.532   4.707   7.196  0.8398 -0.8067 -0.6602
 9551SOL     OW40285   1.463   0.114   7.644 -0.2399 -0.7006  0.1661
 9551SOL    HW140286   1.504   0.028   7.641 -2.5812 -1.7971 -0.3241
 9551SOL    HW240287   1.444   0.121   7.550 -0.0834  0.0037  0.1890
 9552SOL     OW40288   1.718   1.791   2.888 -0.1194 -0.6708 -0.1758
 9552SOL    HW140289   1.635   1.779   2.934 -0.7054  2.9547 -0.2864
 9552SOL    HW240290   1.709   1.885   2.903 -0.8005 -1.2700  3.0215
 9553SOL     OW40291   0.996   2.349   6.221  0.0746  0.5296 -0.0746
 9553SOL    HW140292   0.958   2.261   6.222  2.6190 -0.5226  1.5231
 9553SOL    HW240293   0.915   2.399   6.233  1.8798  3.0974  1.0852
 9554SOL     OW40294   0.964   2.011   8.747 -0.6978 -0.1902  0.3930
 9554SOL    HW140295   0.904   2.037   8.817 -0.1780 -0.6854  1.0134
 9554SOL    HW240296   1.049   2.040   8.780 -0.8007  0.5881 -0.0132
 9555SOL     OW40297   1.379   3.328  11.435 -0.2187  0.4138  0.4694
 9555SOL    HW140298   1.389   3.262  11.505  1.0940 -1.5480 -1.5431
 9555SOL    HW240299   1.394   3.268  11.362 -0.9394  0.7215  0.0675
 9556SOL     OW40300   0.404   1.722   5.060 -0.3578 -0.2898 -0.0032
 9556SOL    HW140301   0.470   1.774   5.014 -1.0044  0.0938 -0.4975
 9556SOL    HW240302   0.347   1.703   4.986 -1.5404 -0.4149  0.9427
 9557SOL     OW40303   1.738   0.643   0.955  0.1285 -0.0540  0.1578
 9557SOL    HW140304   1.708   0.614   0.869 -4.2692  0.3170  1.5719
 9557SOL    HW240305   1.655   0.686   0.976 -0.5526 -0.8190 -0.9935
 9558SOL     OW40306   1.402   1.553   5.842  0.3133  0.0783  0.2278
 9558SOL    HW140307   1.405   1.547   5.746 -1.5175  1.1296  0.1048
 9558SOL    HW240308   1.489   1.588   5.861  1.5605 -1.2477 -2.9590
 9559SOL     OW40309   0.500   2.035  14.797  0.0642 -0.2104 -0.3704
 9559SOL    HW140310   0.524   1.950  14.762 -0.0761 -0.1129 -0.7013
 9559SOL    HW240311   0.549   2.036  14.879 -1.6417  1.8129  0.6424
 9560SOL     OW40312   0.566   1.148   7.010 -0.5972  0.9670 -0.1835
 9560SOL    HW140313   0.471   1.135   7.016 -0.4178 -0.1121  0.3070
 9560SOL    HW240314   0.579   1.089   7.084 -2.6670  0.3633 -0.3022
 9561SOL     OW40315   3.027   4.731   5.808 -0.5355 -0.2246 -0.0054
 9561SOL    HW140316   2.939   0.020   5.779  0.1289  2.4236  0.1501
 9561SOL    HW240317   3.060   0.083   5.785  0.2229 -0.7051 -0.7287
 9562SOL     OW40318   4.051   3.131   2.343 -0.2909 -0.2372  0.4927
 9562SOL    HW140319   3.983   3.197   2.330  1.6974  1.8371  0.7138
 9562SOL    HW240320   4.095   3.141   2.259 -0.6632 -0.1524  0.3036
 9563SOL     OW40321   3.462   2.097  10.695  0.0120  0.3766  0.2557
 9563SOL    HW140322   3.398   2.156  10.733 -0.3472  0.1455  0.0045
 9563SOL    HW240323   3.424   2.010  10.685  1.7287 -0.2357 -0.9993
 9564SOL     OW40324   1.784   0.455  16.899 -0.3306 -0.6087  0.1742
 9564SOL    HW140325   1.773   0.540  16.858  0.5412 -0.4194  0.3350
 9564SOL    HW240326   1.847   0.475  16.968 -0.9019 -3.3461  1.4998
 9565SOL     OW40327   3.884   1.379  14.203  0.1725  0.7431 -0.6180
 9565SOL    HW140328   3.831   1.370  14.124 -0.1715 -2.5821 -0.0275
 9565SOL    HW240329   3.927   1.464  14.193 -3.3064  2.5680  0.1909
 9566SOL     OW40330   2.585   1.063  17.514 -0.1433  0.6075 -0.4887
 9566SOL    HW140331   2.670   1.026  17.491  0.3352  0.2823  1.7637
 9566SOL    HW240332   2.541   1.069  17.429  1.4229 -1.6326 -1.4776
 9567SOL     OW40333   2.575   1.073  13.667  0.0530  0.1458 -0.7510
 9567SOL    HW140334   2.626   1.136  13.617 -2.8568  2.0759 -1.2487
 9567SOL    HW240335   2.553   1.116  13.750  1.9301 -1.7047  0.7244
 9568SOL     OW40336   0.514   0.668  13.153  0.2096 -0.1176  0.2847
 9568SOL    HW140337   0.567   0.631  13.224 -0.4520 -0.6885  0.4811
 9568SOL    HW240338   0.509   0.763  13.167  1.6052  0.1115 -0.7684
 9569SOL     OW40339   2.434   0.599  16.172 -0.3554  0.9288 -0.0751
 9569SOL    HW140340   2.454   0.538  16.100  0.2774 -0.6670  1.4676
 9569SOL    HW240341   2.486   0.673  16.141  1.0138 -0.0449 -0.0972
 9570SOL     OW40342   1.898   4.563   0.081  0.4231 -0.8753 -0.1555
 9570SOL    HW140343   1.829   4.507   0.116 -0.4991 -1.1158 -2.3517
 9570SOL    HW240344   1.883   4.556  17.724 -0.3531 -0.5273 -0.0523
 9571SOL     OW40345   3.364   0.363   2.153 -0.2800  0.1873  0.4119
 9571SOL    HW140346   3.344   0.285   2.205 -0.0442 -0.6305 -0.7135
 9571SOL    HW240347   3.285   0.370   2.099 -0.9727 -0.4519  1.3404
   4.73463   4.73463  17.73746
