Membrane in water
40347
    1TMC1    C1    1   4.593   4.457  11.439 -0.1605  0.4777 -0.2687
    1TMC1    C2    2   4.510   4.553  11.370 -0.2702 -0.2514  0.4604
    1TMC1    C3    3   4.546   4.588  11.244 -0.1084  0.3016 -0.0194
    1TMC1    C4    4   4.704   4.405  11.379 -0.2785  0.2749 -0.3069
    1TMC1    C5    5   4.729   4.433  11.251  0.2332  0.6178 -0.7277
    1TMC1    C6    6   4.653   4.533  11.183 -0.3384 -0.1419  0.4025
    1TMC1     C    7   4.547   4.411  11.568  0.3720  0.4809  0.2655
    1TMC1     O    8   4.437   4.456  11.596 -0.8522 -0.3513 -0.1276
    1TMC1     H    9   4.421   4.597  11.412 -2.1975 -2.5372 -1.2310
    1TMC1    H1   10   0.022   4.322  11.422  0.9818  0.7049 -1.0755
    1TMC1    H2   11   4.679   4.563  11.082  2.0983  2.7471  1.8808
    1TMC1    C7   12   0.130   4.417  11.204 -0.4289 -0.3786  0.1587
    1TMC1    C8   13   4.460   4.671  11.164 -0.8105 -0.5894 -0.0495
    1TMC1    O1   14   0.157   4.434  11.088 -0.1664 -0.6362  0.0619
    1TMC1    O2   15   4.453   4.648  11.042 -0.3240  0.4614  0.1554
    1TMC1    O3   16   0.207   4.446  11.305  0.0774  0.5873 -0.1962
    1TMC1    H3   17   0.155   4.476  11.383  1.2723  2.8065 -0.2412
    1TMC1    O5   18   4.424   0.050  11.223  0.2035 -0.1024  0.2180
    1TMC1    H5   19   4.450   0.063  11.317  2.8860 -1.6856 -0.3367
    2MPD2     C   20   4.560   4.147  11.999 -0.0748 -0.1869  0.0625
    2MPD2    C1   21   4.452   4.205  11.938 -0.2331  0.0471 -0.4559
    2MPD2    C2   22   4.477   4.267  11.818  0.8237 -0.3462 -1.0206
    2MPD2    C3   23   4.600   4.265  11.758  0.1231  0.3383 -0.0039
    2MPD2    C4   24   4.701   4.188  11.812 -0.6902  0.0637  0.3510
    2MPD2    C5   25   4.678   4.133  11.936 -0.0934  0.4196 -0.1292
    2MPD2     H   26   4.396   4.319  11.769 -0.8004  1.0851  3.1966
    2MPD2    H1   27   0.065   4.185  11.773 -0.7579 -0.5030  0.2128
    2MPD2    H2   28   4.553   4.098  12.095  0.9224  2.1673  1.3268
    2MPD2    H3   29   0.016   4.075  11.989  1.1873  0.7835 -1.5387
    2MPD2     N   30   4.637   4.329  11.641 -0.0613 -0.1969 -0.2457
    2MPD2    H5   31   4.733   4.311  11.616 -0.5931 -0.9358 -1.7675
    2MPD2    N1   32   4.328   4.216  11.996 -0.2639  0.0325  0.0422
    2MPD2    H7   33   4.267   4.286  11.953  2.2098  2.2437  0.1494
    3TMC1    C1   34   3.361   4.678  11.243 -0.6684  0.2493 -0.5766
    3TMC1    C2   35   3.385   4.737  11.119  0.4278  0.3637 -0.2597
    3TMC1    C3   36   3.389   4.652  11.010 -0.1603  0.5889 -0.2048
    3TMC1    C4   37   3.340   4.537  11.258  0.2409  0.6973  0.2410
    3TMC1    C5   38   3.358   4.463  11.147 -0.1095 -1.1316  0.4112
    3TMC1    C6   39   3.388   4.514  11.019 -0.3253 -0.2984  0.8263
    3TMC1     C   40   3.345   0.024  11.365  0.4449  0.1547 -0.3950
    3TMC1     O   41   3.283   4.707  11.455  0.7594 -0.6658  0.5772
    3TMC1     H   42   3.391   0.106  11.098  0.3519  0.1851 -1.1787
    3TMC1    H1   43   3.330   4.485  11.353  0.6224  2.5343  1.2897
    3TMC1    H2   44   3.374   4.456  10.929 -0.0532 -0.5325  0.9337
    3TMC1    C7   45   3.365   4.322  11.172  0.0080 -1.2511  1.0997
    3TMC1    C8   46   3.409   4.727  10.890  0.0409  0.4994 -0.2104
    3TMC1    O1   47   3.366   4.278  11.284 -0.1227  0.2805  0.9068
    3TMC1    O2   48   3.382   0.109  10.885  0.1119  0.1668 -0.2219
    3TMC1    O3   49   3.402   4.241  11.061  0.0041 -0.5452  0.3922
    3TMC1    H3   50   3.384   4.274  10.970 -0.9330 -0.5026  0.5923
    3TMC1    O5   51   3.401   4.638  10.790 -0.3536 -0.0644 -0.2887
    3TMC1    H5   52   3.437   4.549  10.807  0.7375  0.5695  0.7280
    4MPD2     C   53   3.220   0.469  11.584 -0.0821  0.2249  0.3562
    4MPD2    C1   54   3.250   0.489  11.456  0.3941  0.3068 -0.0369
    4MPD2    C2   55   3.297   0.385  11.375 -0.1592 -0.2045  0.4952
    4MPD2    C3   56   3.308   0.254  11.428  0.3775 -0.6320 -0.1244
    4MPD2    C4   57   3.280   0.235  11.562 -0.3346 -0.0193 -0.1537
    4MPD2    C5   58   3.243   0.343  11.639 -0.1064  0.2048 -0.5259
    4MPD2     H   59   3.316   0.400  11.270  0.7526  2.1300  0.9796
    4MPD2    H1   60   3.283   0.134  11.602 -2.2447  0.1922  0.5317
    4MPD2    H2   61   3.196   0.549  11.652  2.0334  1.5932 -0.4947
    4MPD2    H3   62   3.229   0.341  11.747  0.3819 -0.4172 -0.4728
    4MPD2     N   63   3.355   0.159  11.340  0.1172 -0.1951 -0.0933
    4MPD2    H5   64   3.397   0.191  11.254 -0.6460 -0.3615 -0.5273
    4MPD2    N1   65   3.238   0.613  11.398 -0.6034 -0.2719  0.0173
    4MPD2    H7   66   3.251   0.620  11.297 -1.2026 -1.9429 -0.1659
    5TCq1    O1   67   4.304   2.372  12.165  0.1932 -0.4135 -0.3486
    5TCq1    C1   68   4.220   2.366  12.272 -0.0040  0.1317  0.2072
    5TCq1    O2   69   4.252   2.342  12.391 -0.2829 -0.1091 -0.2863
    5TCq1    C2   70   4.086   2.390  12.230 -0.2720 -0.2016  0.1934
    5TCq1    C3   71   4.018   2.465  12.314 -0.6257 -0.8243  0.7331
    5TCq1    C4   72   3.887   2.490  12.294 -0.4798  0.1741 -0.3449
    5TCq1    C5   73   3.826   2.443  12.180 -0.2957 -0.3006 -0.6347
    5TCq1    C6   74   3.901   2.378  12.090  0.4723  0.1044  0.0136
    5TCq1    C7   75   4.032   2.344  12.117 -0.5511  0.5701 -0.2647
    5TCq1    C8   76   3.831   2.323  11.970 -0.5941  0.2353  0.0898
    5TCq1    O4   77   3.907   2.289  11.884 -0.3301 -0.2443 -1.0227
    5TCq1    C9   78   3.799   2.545  12.399  0.0724 -0.0288  0.0031
    5TCq1    O5   79   3.675   2.543  12.388  0.1994  0.3635 -0.2299
    5TCq1    O6   80   3.850   2.581  12.510  0.1775 -0.2654 -0.5266
    5TCq1    H1   81   4.246   2.389  12.088  1.7968 -1.3213 -1.7659
    5TCq1    H2   82   4.062   2.508  12.404 -2.4911 -0.6804  1.5844
    5TCq1    H3   83   3.723   2.474  12.166 -0.9002 -1.0626  2.2058
    5TCq1    H4   84   4.084   2.278  12.048 -2.6289 -1.5992  0.2538
    6MPD2     C   85   3.470   2.295  11.902 -0.1074 -0.2977  0.1955
    6MPD2    C1   86   3.603   2.293  11.872 -0.7311 -0.7887 -0.1367
    6MPD2    C2   87   3.641   2.254  11.748 -0.1484  0.3076 -0.2654
    6MPD2    C3   88   3.538   2.214  11.650 -0.7675 -0.4728  0.4207
    6MPD2    C4   89   3.406   2.222  11.687 -0.7699  0.2410  0.4279
    6MPD2    C5   90   3.373   2.267  11.813 -0.2162  0.1810  0.7085
    6MPD2     H   91   3.741   2.226  11.717 -0.6777 -2.0724  0.2059
    6MPD2    H1   92   3.325   2.204  11.617 -1.6633  1.0768  1.2381
    6MPD2    H2   93   3.439   2.335  11.997 -0.0581 -3.3176  1.4992
    6MPD2    H3   94   3.269   2.274  11.845 -0.6580  0.2522 -0.7035
    6MPD2     N   95   3.574   2.152  11.530 -0.0179 -0.8158 -0.1522
    6MPD2    H5   96   3.673   2.136  11.514  0.1451 -0.0701  0.0898
    6MPD2    N1   97   3.695   2.317  11.977  0.5404  0.2215 -0.1583
    6MPD2    H7   98   3.661   2.330  12.072 -0.8441 -0.1354 -0.6074
    7TCq1    O1   99   1.682   2.275  12.552 -0.1858 -0.4728  0.4542
    7TCq1    C1  100   1.567   2.197  12.562 -0.0865  0.3671 -0.3620
    7TCq1    O2  101   1.447   2.224  12.551 -0.1436 -0.8455 -0.0783
    7TCq1    C2  102   1.606   2.057  12.574 -0.1317  0.1574  0.5216
    7TCq1    C3  103   1.541   1.963  12.498 -0.1264 -0.3844  0.6559
    7TCq1    C4  104   1.586   1.833  12.499 -0.9534 -0.0386  0.3469
    7TCq1    C5  105   1.702   1.804  12.571  1.0103  0.8769 -0.1294
    7TCq1    C6  106   1.765   1.901  12.636  0.1446  0.1965  0.1056
    7TCq1    C7  107   1.720   2.032  12.646 -0.2580  0.5275  0.2953
    7TCq1    C8  108   1.845   1.854  12.751  0.1013 -0.6476  0.1349
    7TCq1    O4  109   1.922   1.933  12.791 -0.0551 -0.0484  0.1121
    7TCq1    C9  110   1.521   1.719  12.435  0.6286  0.3222  0.2660
    7TCq1    O5  111   1.404   1.748  12.403 -0.2593  0.4508  0.2646
    7TCq1    O6  112   1.573   1.607  12.451 -0.4553 -0.5329  0.3696
    7TCq1    H1  113   1.763   2.222  12.536 -0.3243 -0.7228  0.5630
    7TCq1    H2  114   1.450   1.979  12.441  1.5274  4.2549 -0.6750
    7TCq1    H3  115   1.752   1.708  12.569  1.5603  1.1892 -1.4723
    7TCq1    H4  116   1.761   2.108  12.711  2.4411  0.1953 -1.0290
    8MPD2     C  117   1.938   1.539  13.141 -0.4047 -0.3765  0.5376
    8MPD2    C1  118   1.823   1.489  13.080 -0.5691  0.6105 -0.1184
    8MPD2    C2  119   1.777   1.557  12.967 -0.2679 -0.4412  0.5130
    8MPD2    C3  120   1.845   1.670  12.924  0.1740  0.0448  0.0831
    8MPD2    C4  121   1.965   1.711  12.978 -0.3265  0.4409 -0.5758
    8MPD2    C5  122   2.008   1.646  13.095  0.1311  0.4722 -0.2913
    8MPD2     H  123   1.690   1.535  12.907 -0.2514  3.3191 -0.8421
    8MPD2    H1  124   2.035   1.776  12.927  0.1166  0.0870 -0.4293
    8MPD2    H2  125   1.978   1.493  13.231 -1.1012  0.3134  1.1888
    8MPD2    H3  126   2.097   1.669  13.154  0.4058  0.0326 -0.5387
    8MPD2     N  127   1.801   1.730  12.803  0.3906  0.2951 -0.4127
    8MPD2    H5  128   1.719   1.690  12.760  0.2131  1.1044 -0.8202
    8MPD2    N1  129   1.764   1.374  13.141 -0.2195 -0.3242 -0.0409
    8MPD2    H7  130   1.814   1.341  13.223  0.0394  0.1813  0.0046
    9TMC1    C1  131   4.211   1.302  11.295 -0.1221  0.5538  0.3635
    9TMC1    C2  132   4.306   1.324  11.203 -0.5511 -0.8200  0.5708
    9TMC1    C3  133   4.350   1.451  11.188 -0.0167  0.2122  0.7779
    9TMC1    C4  134   4.151   1.405  11.365 -0.6927  0.3314  0.1084
    9TMC1    C5  135   4.207   1.529  11.349 -0.3940 -0.0453 -0.4514
    9TMC1    C6  136   4.310   1.561  11.264 -0.4908 -0.2765 -0.1444
    9TMC1     C  137   4.144   1.176  11.281 -0.0549 -0.6893  0.7825
    9TMC1     O  138   4.156   1.123  11.170  0.1983  0.9625  0.1629
    9TMC1     H  139   4.338   1.245  11.136  0.4476 -0.0588  0.1431
    9TMC1    H1  140   4.079   1.380  11.442 -4.5353  1.3503 -3.1409
    9TMC1    H2  141   4.346   1.663  11.254  2.0237 -1.2501 -1.1575
    9TMC1    C7  142   4.145   1.650  11.394 -0.3095 -0.1082  0.3351
    9TMC1    C8  143   4.451   1.464  11.085 -0.7893 -0.1102  0.0041
    9TMC1    O1  144   4.023   1.657  11.423 -0.2088  0.0409 -0.5430
    9TMC1    O2  145   4.499   1.369  11.019 -0.0730  0.2689 -0.0849
    9TMC1    O3  146   4.242   1.715  11.464 -0.0921 -0.0887  0.2886
    9TMC1    H3  147   4.326   1.669  11.445  1.0295  0.7622  3.1557
    9TMC1    O5  148   4.503   1.586  11.097  0.2704 -0.3846  0.0469
    9TMC1    H5  149   4.587   1.600  11.049 -0.6920  1.2580 -1.1623
   10MPD2     C  150   4.027   0.910  11.308 -0.0998 -0.2635 -0.0662
   10MPD2    C1  151   4.085   0.983  11.410  0.3101 -0.4426  0.4439
   10MPD2    C2  152   4.105   0.930  11.537  0.0875 -0.1667 -0.2089
   10MPD2    C3  153   4.061   0.798  11.561 -0.1780  0.0966 -0.6036
   10MPD2    C4  154   4.005   0.730  11.456 -0.0095 -0.1278  0.2878
   10MPD2    C5  155   3.984   0.783  11.333 -0.1192  0.0785 -0.1059
   10MPD2     H  156   4.140   1.002  11.611 -1.4772  0.3132  0.0667
   10MPD2    H1  157   3.973   0.627  11.466 -2.6768  1.0095  3.3863
   10MPD2    H2  158   3.999   0.950  11.211  2.4224  2.8344  0.4958
   10MPD2    H3  159   3.945   0.725  11.250 -0.5949  1.6104 -0.9456
   10MPD2     N  160   4.050   0.730  11.682  0.0173 -0.0741 -0.1080
   10MPD2    H5  161   4.019   0.633  11.686 -0.8866  0.1160 -2.9987
   10MPD2    N1  162   4.113   1.118  11.398  0.4613 -0.2267 -0.4934
   10MPD2    H7  163   4.166   1.158  11.475  0.2232 -0.1200 -0.3853
   11TCq1    O1  164   0.732   0.725  13.941 -0.2613  0.2957  0.6522
   11TCq1    C1  165   0.766   0.848  13.986 -0.1367 -0.4114  0.1215
   11TCq1    O2  166   0.849   0.928  13.945  0.1278  0.3398  0.5399
   11TCq1    C2  167   0.715   0.859  14.119  0.5052 -0.5104  0.0924
   11TCq1    C3  168   0.788   0.930  14.212 -0.2336 -0.5161 -0.2660
   11TCq1    C4  169   0.733   0.942  14.336  0.2712  0.3630  0.3243
   11TCq1    C5  170   0.617   0.885  14.371 -0.1039 -0.1081  0.6704
   11TCq1    C6  171   0.552   0.813  14.277 -0.3570  0.0030 -0.0869
   11TCq1    C7  172   0.603   0.791  14.151 -0.7708 -0.0123  0.7298
   11TCq1    C8  173   0.432   0.745  14.329 -0.1461 -0.0107 -0.1321
   11TCq1    O4  174   0.396   0.778  14.441  0.2191 -0.9257  0.4286
   11TCq1    C9  175   0.807   1.021  14.436 -0.1825 -0.3021 -0.0229
   11TCq1    O5  176   0.756   1.050  14.547  0.1885  0.7534 -0.3402
   11TCq1    O6  177   0.922   1.053  14.394  0.4888  0.2079 -0.8009
   11TCq1    H1  178   0.699   0.663  14.010  0.3335 -0.1908  0.4944
   11TCq1    H2  179   0.886   0.972  14.188 -1.1391  1.5933 -0.2773
   11TCq1    H3  180   0.575   0.911  14.468 -2.5199 -0.8516 -0.1658
   11TCq1    H4  181   0.544   0.749  14.070 -0.7553 -1.3887  1.4328
   12MPD2     C  182   0.166   0.600  14.367 -0.2544 -0.3206  0.5064
   12MPD2    C1  183   0.263   0.576  14.267  0.1071 -0.3594  0.0186
   12MPD2    C2  184   0.221   0.474  14.178 -0.1216 -0.3318  0.1651
   12MPD2    C3  185   0.105   0.394  14.203  0.1128  0.7404 -0.5165
   12MPD2    C4  186   0.026   0.416  14.309 -0.1478  0.1199 -0.3568
   12MPD2    C5  187   0.059   0.518  14.392  0.1370  0.5291  0.3420
   12MPD2     H  188   0.285   0.453  14.093 -0.4551 -1.6445  0.2503
   12MPD2    H1  189   4.678   0.355  14.337  1.7865 -0.8018  3.4582
   12MPD2    H2  190   0.177   0.691  14.425  0.6262 -2.2465  3.3680
   12MPD2    H3  191   4.733   0.538  14.478  2.7644  0.6670  2.2681
   12MPD2     N  192   0.062   0.296  14.110  0.4537 -0.3530 -0.1779
   12MPD2    H5  193   4.713   0.247  14.130  0.9166 -0.7851  0.7562
   12MPD2    N1  194   0.380   0.649  14.237  0.0549  0.6467 -0.1806
   12MPD2    H7  195   0.428   0.638  14.148 -0.3955 -0.2151 -0.3145
   13TCq1    O1  196   4.092   0.394  10.491 -0.2892  0.5402  0.0144
   13TCq1    C1  197   3.982   0.393  10.414 -0.7997  0.5723  0.6446
   13TCq1    O2  198   3.987   0.424  10.296  0.0439 -0.8632  0.2081
   13TCq1    C2  199   3.883   0.310  10.472 -0.2412  0.0903 -0.1280
   13TCq1    C3  200   3.812   0.230  10.390  0.2575  0.2403  0.4407
   13TCq1    C4  201   3.730   0.139  10.447 -0.1897 -0.0407  0.5948
   13TCq1    C5  202   3.683   0.156  10.564  0.2418  0.1377 -0.2690
   13TCq1    C6  203   3.749   0.246  10.645 -0.1883  0.4390 -0.5830
   13TCq1    C7  204   3.857   0.325  10.605  0.2200 -0.6889  0.5861
   13TCq1    C8  205   3.742   0.214  10.781  0.3438 -0.2886 -0.4450
   13TCq1    O4  206   3.753   0.298  10.870 -0.0645  0.0175  0.0192
   13TCq1    C9  207   3.652   0.055  10.358 -0.0925 -0.0549  0.5859
   13TCq1    O5  208   3.559   4.717  10.399 -0.0277 -0.7652 -0.0736
   13TCq1    O6  209   3.670   0.081  10.234  0.3339 -0.6678 -0.2410
   13TCq1    H1  210   4.086   0.321  10.557  1.8365  0.1139 -0.2723
   13TCq1    H2  211   3.826   0.230  10.283 -1.1143 -0.2241  0.2561
   13TCq1    H3  212   3.596   0.105  10.607 -0.8283  1.1239 -1.2708
   13TCq1    H4  213   3.916   0.386  10.672  2.0471 -0.0674 -1.5968
   14MPD2     C  214   3.727   4.596  10.919 -0.2545 -0.5487  0.6737
   14MPD2    C1  215   3.729   4.734  10.920 -1.1204 -0.4461  0.2367
   14MPD2    C2  216   3.715   0.056  11.054  0.1573  0.1629  0.0173
   14MPD2    C3  217   3.708   4.720  11.170  0.6279  0.1214  0.0732
   14MPD2    C4  218   3.700   4.578  11.155  0.4332  0.2169 -0.0809
   14MPD2    C5  219   3.709   4.522  11.029  0.1337  0.2032  0.5087
   14MPD2     H  220   3.713   0.162  11.073  0.4404  0.1439  0.1465
   14MPD2    H1  221   3.694   4.503  11.233 -0.5181  0.3358 -0.0417
   14MPD2    H2  222   3.750   4.550  10.824  0.3645  1.8896 -0.3540
   14MPD2    H3  223   3.718   4.414  11.014 -2.4778  0.4038 -2.4611
   14MPD2     N  224   3.699   0.050  11.296 -0.0120  0.7775 -0.1774
   14MPD2    H5  225   3.689   0.151  11.300 -1.4681  0.5611  1.8256
   14MPD2    N1  226   3.739   0.073  10.799  0.1662 -0.2391 -0.3406
   14MPD2    H7  227   3.761   0.018  10.717 -2.0314 -1.4631 -0.1333
   15TCq1    O1  228   1.941   4.679   1.856 -0.2395 -0.4242  0.0689
   15TCq1    C1  229   1.900   4.627   1.737 -0.3483 -0.1912 -0.0169
   15TCq1    O2  230   1.964   4.639   1.633 -0.2026  0.0010  0.0700
   15TCq1    C2  231   1.804   4.515   1.751 -0.2679  0.2972  0.6949
   15TCq1    C3  232   1.698   4.533   1.823 -0.5678 -0.6074 -0.2968
   15TCq1    C4  233   1.613   4.429   1.857  0.0316 -0.2397  0.4346
   15TCq1    C5  234   1.651   4.309   1.810 -0.5420  0.2039  0.7337
   15TCq1    C6  235   1.758   4.288   1.729  0.1612  0.3885 -0.0336
   15TCq1    C7  236   1.837   4.395   1.696 -0.0434 -0.3606  0.0906
   15TCq1    C8  237   1.805   4.163   1.682 -0.2620 -0.1784  0.2083
   15TCq1    O4  238   1.921   4.158   1.643 -0.2122 -0.1061 -0.0609
   15TCq1    C9  239   1.491   4.460   1.923  0.2659  0.7707 -0.3186
   15TCq1    O5  240   1.478   4.581   1.958  0.6479 -0.8739 -0.5720
   15TCq1    O6  241   1.413   4.362   1.960 -0.4865  0.1766  0.2013
   15TCq1    H1  242   1.890   4.645   1.933  1.7994  0.8234  1.9597
   15TCq1    H2  243   1.668   4.635   1.845 -0.1018 -0.7677  1.0751
   15TCq1    H3  244   1.584   4.232   1.846  0.2622 -1.7564 -1.9452
   15TCq1    H4  245   1.932   4.375   1.649 -0.3343  1.0005 -1.1022
   16MPD2     C  246   1.600   3.859   1.701  0.4444  0.2625 -0.2850
   16MPD2    C1  247   1.710   3.930   1.681 -0.0882  0.4571 -0.1920
   16MPD2    C2  248   1.828   3.866   1.654 -0.6581  0.8498 -0.7275
   16MPD2    C3  249   1.831   3.725   1.645  0.4774 -0.6149 -0.0892
   16MPD2    C4  250   1.712   3.657   1.662 -0.6152  0.1012  0.6952
   16MPD2    C5  251   1.602   3.730   1.684  0.0381  0.4309 -0.6803
   16MPD2     H  252   1.908   3.935   1.631 -0.2884  0.8367  0.5153
   16MPD2    H1  253   1.701   3.549   1.669 -1.5184  0.1911  0.7012
   16MPD2    H2  254   1.505   3.909   1.716  0.2777 -0.5540  1.3330
   16MPD2    H3  255   1.507   3.678   1.691  0.3110 -0.4853 -4.0536
   16MPD2     N  256   1.952   3.663   1.598  0.0630 -0.2257  0.0426
   16MPD2    H5  257   2.019   3.728   1.559 -0.3277  0.1241 -0.0424
   16MPD2    N1  258   1.703   4.070   1.693  0.4235  0.2862  0.3821
   16MPD2    H7  259   1.612   4.099   1.727 -0.3156 -0.4674 -0.9341
   17TMC1    C1  260   4.464   0.674  11.610  0.0091  0.9418 -0.2417
   17TMC1    C2  261   4.505   0.559  11.667 -0.0156 -0.6088  0.1412
   17TMC1    C3  262   4.618   0.567  11.741  1.2657 -0.7727  0.1848
   17TMC1    C4  263   4.539   0.790  11.616  0.7649 -0.2766 -0.4799
   17TMC1    C5  264   4.658   0.791  11.687  0.1078 -0.5635 -0.6390
   17TMC1    C6  265   4.701   0.677  11.749  0.1749  0.0033  0.1566
   17TMC1     C  266   4.385   0.673  11.483 -0.4290  0.4424 -0.2921
   17TMC1     O  267   4.413   0.769  11.410  0.3413  0.3419 -0.1292
   17TMC1     H  268   4.466   0.460  11.648  0.1791 -0.3651 -1.4786
   17TMC1    H1  269   4.513   0.880  11.561 -0.4164  0.5813  1.4655
   17TMC1    H2  270   0.064   0.680  11.789  1.1220 -3.8509 -1.9004
   17TMC1    C7  271   0.016   0.896  11.679 -0.6529 -0.6681 -0.1357
   17TMC1    C8  272   4.656   0.447  11.806  0.9074 -0.1694 -0.4818
   17TMC1    O1  273   0.139   0.883  11.685 -0.0007 -0.5597  0.4386
   17TMC1    O2  274   4.581   0.348  11.805  0.3807 -0.0251 -0.3640
   17TMC1    O3  275   4.685   1.014  11.684 -0.0538 -0.4278 -0.4117
   17TMC1    H3  276   4.588   1.000  11.685 -0.4581  2.4012 -0.5802
   17TMC1    O5  277   0.028   0.468  11.886  0.0196 -0.2571 -0.5264
   17TMC1    H5  278   0.030   0.560  11.919 -0.8752 -0.2476 -0.5046
   18MPD2     C  279   4.269   0.607  11.220 -0.6043 -0.5189  0.5028
   18MPD2    C1  280   4.271   0.524  11.327 -0.3593  0.0193 -0.6781
   18MPD2    C2  281   4.215   0.397  11.313  0.6219  0.6846  0.3419
   18MPD2    C3  282   4.157   0.360  11.190  0.5157 -0.2980  0.5522
   18MPD2    C4  283   4.144   0.455  11.095 -0.3607 -0.3447  0.3666
   18MPD2    C5  284   4.197   0.577  11.107 -0.0271  0.6601  0.1918
   18MPD2     H  285   4.219   0.328  11.396  1.2668 -0.5533 -0.7096
   18MPD2    H1  286   4.098   0.431  11.000  0.8039 -2.8406  0.4430
   18MPD2    H2  287   4.330   0.696  11.212 -1.9538  0.2787 -0.8850
   18MPD2    H3  288   4.184   0.645  11.023  1.6125 -0.2484 -0.7858
   18MPD2     N  289   4.114   0.232  11.156  0.0221 -0.0879 -0.3043
   18MPD2    H5  290   4.113   0.216  11.056 -0.1764  1.7301 -0.6085
   18MPD2    N1  291   4.322   0.561  11.460  0.3053  0.1788  0.0875
   18MPD2    H7  292   4.325   0.490  11.532  1.5652 -1.6276 -1.7369
   19TMC2    C1  293   1.231   0.148  13.764  0.3885  0.2715  0.4705
   19TMC2    C2  294   1.203   0.157  13.627  0.1497 -0.2696 -0.2973
   19TMC2    C3  295   1.091   0.095  13.584  0.2739 -0.1653 -0.4998
   19TMC2    C4  296   1.151   0.085  13.855  0.1878  0.3272  0.2130
   19TMC2    C5  297   1.046   0.017  13.796 -0.2090  0.4177 -0.5538
   19TMC2    C6  298   1.006   0.025  13.665 -0.2221  0.1291 -0.7682
   19TMC2     C  299   1.369   0.176  13.788 -0.5018 -0.6117  0.4701
   19TMC2     O  300   1.433   0.218  13.691 -0.9167 -0.1658  0.8561
   19TMC2     H  301   1.272   0.205  13.558  0.5548 -1.2819 -0.5875
   19TMC2    H1  302   1.188   0.072  13.957 -2.3727 -2.7763  0.7455
   19TMC2    H2  303   0.912   4.717  13.637 -1.0874  1.4831 -0.0785
   19TMC2    C7  304   0.957   4.670  13.878 -0.6208 -0.3279 -0.4507
   19TMC2    C8  305   1.072   0.074  13.449  0.6527 -0.4633  0.0230
   19TMC2    O1  306   0.864   4.612  13.822  0.7525 -0.5383  0.2483
   19TMC2    O2  307   1.160   0.023  13.383  0.3999  0.0877  0.1830
   19TMC2    O5  308   0.946   0.080  13.407 -0.2808 -0.0338  0.6741
   19TMC2    H5  309   0.893   0.155  13.440 -0.5999  1.2478 -2.7867
   20MPD2     C  310   1.647   0.214  13.864  0.1803 -0.0767  0.6244
   20MPD2    C1  311   1.556   0.155  13.945 -0.4277 -0.2702  0.2163
   20MPD2    C2  312   1.599   0.101  14.062 -0.6240 -0.3150 -0.0856
   20MPD2    C3  313   1.723   0.119  14.115  0.1464 -0.4312 -0.2331
   20MPD2    C4  314   1.811   0.196  14.041 -0.7281 -0.2466 -0.2919
   20MPD2    C5  315   1.769   0.229  13.915 -0.2639  1.0377  0.4263
   20MPD2     H  316   1.521   0.045  14.113 -1.1910  0.1029 -0.4944
   20MPD2    H1  317   1.913   0.213  14.073 -0.4218  0.2761 -1.5592
   20MPD2    H2  318   1.636   0.251  13.763 -1.1443 -2.1200  0.0139
   20MPD2    H3  319   1.838   0.289  13.857 -0.2632  1.6400  1.0542
   20MPD2     N  320   1.760   0.061  14.239 -0.3613 -0.2163 -0.5308
   20MPD2    H5  321   1.847   0.095  14.279 -1.4333  0.6228  1.0998
   20MPD2    N1  322   1.425   0.127  13.908  0.1041 -0.0540  0.4778
   20MPD2    H7  323   1.380   0.057  13.966  0.4514 -0.2694  0.4879
   21TMC2    C1  324   3.583   4.708  14.821  0.2258 -0.3494 -0.4074
   21TMC2    C2  325   3.496   4.650  14.732 -0.5326  0.2475  0.4580
   21TMC2    C3  326   3.371   4.697  14.720  0.5132 -0.4071 -0.1842
   21TMC2    C4  327   3.538   0.073  14.898  0.1457 -0.2141 -1.0486
   21TMC2    C5  328   3.411   0.124  14.884  0.2419  0.3762  0.9122
   21TMC2    C6  329   3.324   0.063  14.796 -0.4450 -0.6005  0.1037
   21TMC2     C  330   3.719   4.688  14.795 -0.0552 -0.5844  0.6272
   21TMC2     O  331   3.763   4.600  14.723 -0.2677 -0.4724 -0.1451
   21TMC2     H  332   3.520   4.560  14.677  0.3249 -0.0548  1.3383
   21TMC2    H1  333   3.608   0.120  14.966 -1.1895 -2.1794  1.6696
   21TMC2    H2  334   3.220   0.095  14.790  0.2087  1.7415  1.4441
   21TMC2    C7  335   3.385   0.247  14.943 -0.9425 -0.4350 -0.0326
   21TMC2    C8  336   3.276   4.609  14.653 -0.0774 -0.6678 -0.4331
   21TMC2    O1  337   3.437   0.274  15.051 -0.0680 -0.2534 -0.5251
   21TMC2    O2  338   3.163   4.602  14.701  0.3433  0.1118 -0.2453
   21TMC2    O5  339   3.302   4.570  14.527  0.2369 -0.2438  0.4911
   21TMC2    H5  340   3.381   4.619  14.496  0.6932 -0.3855  1.4465
   22MPD2     C  341   4.183   0.194  14.747 -0.4008  0.4118 -0.1496
   22MPD2    C1  342   4.161   0.061  14.727  0.1380 -0.3399 -1.1278
   22MPD2    C2  343   4.028   0.015  14.745  0.0095 -0.4929 -0.1028
   22MPD2    C3  344   3.924   0.100  14.786  0.6650 -0.7084  0.5354
   22MPD2    C4  345   3.957   0.228  14.816  0.1697  0.2655 -0.3398
   22MPD2    C5  346   4.086   0.273  14.804  0.4952  0.4230 -0.3225
   22MPD2     H  347   4.009   4.649  14.717 -0.5961 -1.1882  2.9225
   22MPD2    H1  348   3.887   0.306  14.844  1.2239  0.4183  1.8360
   22MPD2    H2  349   4.278   0.246  14.743 -0.9219  1.3675  0.0527
   22MPD2    H3  350   4.110   0.377  14.822  0.2705  0.3530  0.4086
   22MPD2     N  351   3.792   0.063  14.815 -0.4559 -0.1070 -0.0683
   22MPD2    H5  352   3.748   0.142  14.862  0.9611  0.8907 -0.4075
   22MPD2    N1  353   4.274   4.711  14.717 -0.4429  0.3929 -0.5803
   22MPD2    H7  354   4.260   4.610  14.725 -2.0267  0.6060 -0.6142
   23TMC2    C1  355   0.312   1.559  14.787 -0.1106  0.3541 -0.8795
   23TMC2    C2  356   0.349   1.581  14.658  0.8093  0.1026  0.6046
   23TMC2    C3  357   0.279   1.518  14.557  0.2767 -0.4598  0.2176
   23TMC2    C4  358   0.218   1.465  14.823  1.0371 -0.3243  0.0332
   23TMC2    C5  359   0.162   1.389  14.714  0.5607  0.1036 -0.1307
   23TMC2    C6  360   0.195   1.416  14.586 -0.5090 -0.5672 -0.1822
   23TMC2     C  361   0.365   1.636  14.899  0.0730 -0.9301 -0.2301
   23TMC2     O  362   0.359   1.573  15.005  0.5165 -0.2240  0.2904
   23TMC2     H  363   0.429   1.653  14.641 -0.3600  1.3159  0.2205
   23TMC2    H1  364   0.185   1.439  14.923  0.6436  0.1454  0.0250
   23TMC2    H2  365   0.166   1.345  14.509  2.3554  1.1595 -2.8911
   23TMC2    C7  366   0.068   1.286  14.747 -0.4562  0.1267 -0.0162
   23TMC2    C8  367   0.344   1.510  14.434  0.5801  0.3362  0.2386
   23TMC2    O1  368   0.082   1.226  14.854 -0.0570  0.3661  0.2643
   23TMC2    O2  369   0.454   1.564  14.418 -0.3724 -0.0846  0.1324
   23TMC2    O5  370   0.252   1.506  14.336 -0.1681  0.0569  0.2132
   23TMC2    H5  371   0.161   1.484  14.365 -0.5390 -0.8450 -1.6246
   24MPD2     C  372   0.527   1.998  15.196  0.0591 -0.0982  1.0047
   24MPD2    C1  373   0.552   1.865  15.202  0.9982 -0.7371 -0.2238
   24MPD2    C2  374   0.508   1.788  15.091 -0.1783  0.6705  0.7190
   24MPD2    C3  375   0.450   1.845  14.984 -0.2524  0.1873 -0.4807
   24MPD2    C4  376   0.421   1.977  14.983  0.3515  0.0426  0.0558
   24MPD2    C5  377   0.458   2.051  15.090 -0.3815 -0.6974 -0.2269
   24MPD2     H  378   0.537   1.685  15.078  1.0255  1.0891  0.0550
   24MPD2    H1  379   0.364   2.028  14.906 -0.3573  0.8018  1.0806
   24MPD2    H2  380   0.559   2.063  15.277  0.7330  1.0360 -0.1776
   24MPD2    H3  381   0.453   2.158  15.073 -0.2886 -1.0225 -2.2257
   24MPD2     N  382   0.388   1.769  14.878 -0.5194  0.1202 -0.2047
   24MPD2    H5  383   0.350   1.815  14.796 -2.0810  1.2324  1.1350
   24MPD2    N1  384   0.620   1.811  15.316  0.7991 -0.0398  0.3190
   24MPD2    H7  385   0.631   1.874  15.395  2.5970 -1.1092  0.9390
   25TMC2    C1  386   3.597   3.955  11.649 -0.2217 -0.1600  0.3139
   25TMC2    C2  387   3.525   4.070  11.641  0.5680 -0.2303 -0.0213
   25TMC2    C3  388   3.512   4.150  11.753 -0.0507 -0.6183 -0.1189
   25TMC2    C4  389   3.652   3.910  11.767  0.1084  0.9987 -1.0326
   25TMC2    C5  390   3.641   3.993  11.874 -0.3896  0.9805 -0.8895
   25TMC2    C6  391   3.567   4.107  11.872  0.4652  0.7699  0.3874
   25TMC2     C  392   3.603   3.865  11.538  0.5532  0.1420  0.2491
   25TMC2     O  393   3.610   3.913  11.423 -0.2239 -0.3462 -0.8080
   25TMC2     H  394   3.467   4.094  11.553 -0.6249 -2.0747  0.2610
   25TMC2    H1  395   3.706   3.816  11.768 -1.6515 -0.0081 -0.5901
   25TMC2    H2  396   3.563   4.170  11.960 -1.0902  1.3556 -0.1110
   25TMC2    C7  397   3.694   3.961  12.004 -0.0057 -0.2972 -0.1827
   25TMC2    C8  398   3.419   4.261  11.762 -0.3956  1.0508  0.2025
   25TMC2    O1  399   3.620   3.977  12.102 -0.2383 -0.1095  0.2760
   25TMC2    O2  400   3.346   4.266  11.862 -0.1136  0.2931 -0.4049
   25TMC2    O5  401   3.386   4.298  11.635  0.4876 -0.3590  0.0271
   25TMC2    H5  402   3.463   4.298  11.575 -2.7411 -0.0109 -4.0780
   26MPD2     C  403   3.646   3.386  11.335  0.2364  0.0467  0.5618
   26MPD2    C1  404   3.633   3.378  11.469  0.0687  0.6332  0.4912
   26MPD2    C2  405   3.607   3.492  11.531  0.3950 -0.0299 -0.0602
   26MPD2    C3  406   3.606   3.623  11.482 -0.1679  1.0230 -0.5794
   26MPD2    C4  407   3.643   3.632  11.346  0.0070  0.0111 -0.0384
   26MPD2    C5  408   3.653   3.511  11.275  0.5994  0.5122  0.0149
   26MPD2     H  409   3.597   3.496  11.638 -0.3774  2.0067 -0.2144
   26MPD2    H1  410   3.653   3.724  11.289  1.4809  0.2108  0.5478
   26MPD2    H2  411   3.658   3.298  11.273 -1.5380  0.6321 -0.6163
   26MPD2    H3  412   3.656   3.526  11.168  2.5334  1.0516  0.1482
   26MPD2     N  413   3.585   3.730  11.568 -0.6696  0.6237 -0.2366
   26MPD2    H5  414   3.573   3.709  11.667  0.7691  1.7152  0.1778
   26MPD2    N1  415   3.609   3.257  11.537  0.0779  0.3952  0.1827
   26MPD2    H7  416   3.601   3.177  11.475  0.0470 -0.6697  1.5654
   27TMC2    C1  417   2.566   0.844  12.200  0.1296 -0.0478  0.5666
   27TMC2    C2  418   2.511   0.917  12.106 -0.3207 -0.2597 -0.3151
   27TMC2    C3  419   2.547   1.046  12.100 -0.2488  0.7747  0.1791
   27TMC2    C4  420   2.645   0.901  12.292 -0.5932 -0.0896  0.3545
   27TMC2    C5  421   2.688   1.029  12.285  0.0211  0.0344 -0.4817
   27TMC2    C6  422   2.631   1.107  12.190 -0.0765  0.2882 -0.2294
   27TMC2     C  423   2.480   0.743  12.259  0.3762 -0.0812  0.0140
   27TMC2     O  424   2.445   0.652  12.190  0.4521 -0.3516  0.5680
   27TMC2     H  425   2.435   0.874  12.041  0.4858  0.6278 -1.8231
   27TMC2    H1  426   2.686   0.845  12.375  1.8046  1.8984  0.4898
   27TMC2    H2  427   2.647   1.214  12.189  1.6581  0.0293 -0.9818
   27TMC2    C7  428   2.650   1.088  12.415  0.0624 -0.3757  0.3824
   27TMC2    C8  429   2.475   1.141  12.012 -0.0608  0.0768 -0.2534
   27TMC2    O1  430   2.553   1.029  12.461  0.1136 -0.4544 -0.0680
   27TMC2    O2  431   2.522   1.237  11.963 -0.0281  0.4531 -0.2964
   27TMC2    O5  432   2.340   1.122  12.019  0.1744  0.1651  0.7211
   27TMC2    H5  433   2.311   1.044  12.071 -1.5975 -1.0980 -2.1793
   28MPD2     C  434   2.162   0.639  12.663 -0.1716 -0.6082 -0.1179
   28MPD2    C1  435   2.222   0.763  12.674  0.6173 -0.4703  0.1157
   28MPD2    C2  436   2.315   0.816  12.586 -0.8026  0.1128  0.2748
   28MPD2    C3  437   2.343   0.743  12.469 -0.0486  0.0962  0.5137
   28MPD2    C4  438   2.287   0.620  12.451 -0.5424  0.0817 -0.9004
   28MPD2    C5  439   2.203   0.566  12.549  0.1654  0.0370 -0.3340
   28MPD2     H  440   2.362   0.912  12.599 -0.8859  0.3492 -1.1827
   28MPD2    H1  441   2.303   0.552  12.368 -0.1796  1.4858 -1.9842
   28MPD2    H2  442   2.088   0.603  12.733  0.9521 -1.3165  0.7115
   28MPD2    H3  443   2.173   0.465  12.525  0.6632 -0.7072  2.1553
   28MPD2     N  444   2.443   0.796  12.379  0.2610  0.5937  0.0354
   28MPD2    H5  445   2.481   0.887  12.401 -1.5520  1.5124 -0.5830
   28MPD2    N1  446   2.182   0.839  12.786  0.0959 -0.1683  0.0388
   28MPD2    H7  447   2.103   0.805  12.841 -1.1266  0.3458 -1.3936
   29TMC2    C1  448   2.322   3.650  14.513 -0.0216 -0.4352 -0.2821
   29TMC2    C2  449   2.259   3.736  14.589  0.4202  0.0305  0.4302
   29TMC2    C3  450   2.321   3.851  14.626  0.2409 -0.6081 -0.2018
   29TMC2    C4  451   2.442   3.680  14.452  0.8652 -0.8804  0.2364
   29TMC2    C5  452   2.506   3.786  14.497  0.1280  0.7553  0.5499
   29TMC2    C6  453   2.453   3.873  14.592  0.5023 -0.6906 -0.5405
   29TMC2     C  454   2.235   3.555  14.453 -0.2632  0.3900  0.2463
   29TMC2     O  455   2.113   3.566  14.461  0.2150 -0.3428 -0.2066
   29TMC2     H  456   2.165   3.710  14.636 -0.2226 -1.9237 -1.8874
   29TMC2    H1  457   2.493   3.618  14.379  2.3274  1.3045 -0.5856
   29TMC2    H2  458   2.492   3.966  14.632  0.4684 -1.5964  1.6044
   29TMC2    C7  459   2.625   3.832  14.421 -0.3849 -0.3416  0.9949
   29TMC2    C8  460   2.270   3.926  14.747  0.3122 -0.5446 -0.1466
   29TMC2    O1  461   2.638   3.790  14.307  0.1895  0.3972 -0.5282
   29TMC2    O2  462   2.344   3.980  14.825 -1.0605  0.5557 -0.0890
   29TMC2    O5  463   2.142   3.892  14.771  0.2529 -1.0288 -0.2556
   29TMC2    H5  464   2.102   3.862  14.687  1.0602  2.4328 -1.9000
   30MPD2     C  465   2.203   3.221  14.056 -0.9052  0.5825 -0.3520
   30MPD2    C1  466   2.295   3.176  14.143 -0.3344  0.0720  0.4229
   30MPD2    C2  467   2.331   3.254  14.252 -0.3683 -0.4849  0.0867
   30MPD2    C3  468   2.269   3.371  14.285 -0.2503  0.2258 -0.3208
   30MPD2    C4  469   2.169   3.407  14.195  0.8426  0.5291  0.4473
   30MPD2    C5  470   2.133   3.334  14.085 -0.3238  0.7476 -0.2092
   30MPD2     H  471   2.422   3.231  14.307 -0.4700 -1.2726 -0.0633
   30MPD2    H1  472   2.106   3.494  14.212  1.1697  0.3669  2.4588
   30MPD2    H2  473   2.187   3.168  13.964 -0.0648 -0.5526  0.1647
   30MPD2    H3  474   2.063   3.372  14.012 -1.6193 -0.6854  0.2879
   30MPD2     N  475   2.306   3.445  14.402  0.4771  0.1839 -0.4550
   30MPD2    H5  476   2.400   3.426  14.435  0.7024  0.4925 -0.9248
   30MPD2    N1  477   2.357   3.051  14.128  0.1453  0.7598 -0.5208
   30MPD2    H7  478   2.428   3.029  14.198  0.3080 -0.5485 -1.0985
   31TMC2    C1  479   4.563   2.336  15.553  0.0732  0.1443  0.0984
   31TMC2    C2  480   4.431   2.352  15.525  0.4032  0.1324 -0.0577
   31TMC2    C3  481   4.342   2.297  15.607  0.4752 -0.3351 -0.4153
   31TMC2    C4  482   4.608   2.264  15.661  0.3488 -0.1951  0.8513
   31TMC2    C5  483   4.510   2.201  15.730  0.2325 -0.5097  0.2457
   31TMC2    C6  484   4.376   2.222  15.712  0.4060  0.0044 -0.0331
   31TMC2     C  485   4.645   2.343  15.432 -0.0169  0.5193 -0.2747
   31TMC2     O  486   4.599   2.396  15.331  0.1920  0.5221 -0.3979
   31TMC2     H  487   4.401   2.395  15.431  0.8180 -0.1685 -0.3320
   31TMC2    H1  488   4.707   2.278  15.703  0.3918  1.1273  0.2866
   31TMC2    H2  489   4.304   2.165  15.771 -0.9475  1.6575 -0.0878
   31TMC2    C7  490   4.542   2.123  15.855  0.1333 -0.2791 -0.2947
   31TMC2    C8  491   4.195   2.301  15.570  0.1869 -0.1654  0.0027
   31TMC2    O1  492   4.451   2.067  15.916 -0.0564  0.0381  0.3828
   31TMC2    O2  493   4.119   2.243  15.638 -0.2325 -0.4618  0.4855
   31TMC2    O5  494   4.168   2.408  15.497  0.0196  0.1787 -0.3631
   31TMC2    H5  495   4.245   2.462  15.469 -0.8244  0.3764 -2.2708
   32MPD2     C  496   0.371   2.373  15.219  0.3055  0.1332  0.7593
   32MPD2    C1  497   0.257   2.441  15.185  0.0455  0.5294  0.2274
   32MPD2    C2  498   0.142   2.416  15.258  0.8400  0.1343  0.7575
   32MPD2    C3  499   0.137   2.328  15.365  0.1041  0.3966  1.1568
   32MPD2    C4  500   0.254   2.250  15.387  0.0579  0.3018 -0.6770
   32MPD2    C5  501   0.365   2.286  15.322 -0.4628 -0.7812 -0.1118
   32MPD2     H  502   0.057   2.477  15.230  1.3159  0.3764 -0.1436
   32MPD2    H1  503   0.250   2.166  15.455 -0.0233  1.0539  0.2546
   32MPD2    H2  504   0.461   2.398  15.164  0.1536 -1.4390 -0.2196
   32MPD2    H3  505   0.455   2.235  15.354 -0.1540  0.8082  1.5662
   32MPD2     N  506   0.034   2.300  15.452 -0.2673 -0.2648 -0.2268
   32MPD2    H5  507   0.047   2.229  15.524  2.9359 -1.4646 -1.9413
   32MPD2    N1  508   0.269   2.525  15.072 -0.4490  0.4068 -0.2876
   32MPD2    H7  509   0.361   2.522  15.029  0.4684  1.1532  1.6160
   33TMC2    C1  510   4.052   0.070  10.189  0.8411  0.1601 -0.6657
   33TMC2    C2  511   3.941   0.070  10.112 -0.0545 -0.7942  0.1907
   33TMC2    C3  512   3.922   0.175  10.020  0.4468 -0.4639 -0.1811
   33TMC2    C4  513   4.151   0.165  10.177  0.1526 -0.8455  0.1992
   33TMC2    C5  514   4.135   0.262  10.086  0.3875 -0.1441 -0.3292
   33TMC2    C6  515   4.020   0.268  10.004  0.6521  0.7800  0.0858
   33TMC2     C  516   4.071   4.710  10.297 -0.6953  0.3309 -0.2776
   33TMC2     O  517   4.165   4.725  10.371 -0.5482  0.3537  0.3688
   33TMC2     H  518   3.868   4.727  10.114 -1.5735  0.5475 -0.9668
   33TMC2    H1  519   4.237   0.161  10.243  0.6931  0.3193 -0.4300
   33TMC2    H2  520   3.999   0.355   9.943  0.4134  0.7699  0.1556
   33TMC2    C7  521   4.235   0.358  10.081  0.6160  0.0642  0.6583
   33TMC2    C8  522   3.813   0.180   9.921 -0.6171  0.5961  0.4609
   33TMC2    O1  523   4.311   0.358  10.175 -0.4955  0.9092 -0.0272
   33TMC2    O2  524   3.816   0.235   9.811  0.5569 -0.6127  0.3462
   33TMC2    O5  525   3.702   0.130   9.976  0.0825 -0.0705  0.6573
   33TMC2    H5  526   3.716   0.110  10.071  0.5365  1.2260  0.8594
   34MPD2     C  527   3.957   4.330  10.610 -0.1579  0.0917 -0.0958
   34MPD2    C1  528   3.997   4.457  10.638 -0.5408  0.1306 -0.2470
   34MPD2    C2  529   3.999   4.549  10.533 -0.5738  0.5818  0.4730
   34MPD2    C3  530   3.960   4.522  10.411 -0.0669 -0.4151  0.3286
   34MPD2    C4  531   3.906   4.398  10.386  0.0552  0.3318 -0.3334
   34MPD2    C5  532   3.912   4.304  10.484  0.2206  0.0055 -0.5965
   34MPD2     H  533   4.045   4.646  10.543  0.8035  0.0918 -1.0937
   34MPD2    H1  534   3.873   4.372  10.286 -2.4678  1.6335  0.1396
   34MPD2    H2  535   3.966   4.246  10.678  0.9356 -1.0202 -1.6155
   34MPD2    H3  536   3.877   4.203  10.468  2.7771 -0.6177 -2.2590
   34MPD2     N  537   3.978   4.610  10.305  0.3541 -0.0981 -0.1465
   34MPD2    H5  538   3.916   4.598  10.225 -1.4355 -0.4825  1.3168
   34MPD2    N1  539   4.031   4.488  10.776 -0.3244  0.1549 -0.3671
   34MPD2    H7  540   4.056   4.411  10.837 -0.0391  1.5328  1.2313
   35TMC2    C1  541   1.358   0.910  11.310  0.7414  0.4905 -1.2385
   35TMC2    C2  542   1.330   1.042  11.324  0.1437 -0.3861  0.0646
   35TMC2    C3  543   1.198   1.076  11.291  0.4225  0.0415  1.2881
   35TMC2    C4  544   1.265   0.818  11.276 -1.4469  0.2796  0.5082
   35TMC2    C5  545   1.138   0.856  11.249 -0.0192 -0.9427  0.5183
   35TMC2    C6  546   1.104   0.988  11.257 -0.1194  0.0887 -0.7407
   35TMC2     C  547   1.473   0.854  11.385 -0.5448 -0.6558 -0.2498
   35TMC2     O  548   1.491   0.730  11.384 -0.1668  0.0614  0.1485
   35TMC2     H  549   1.408   1.112  11.351  1.1770 -1.8686  0.9593
   35TMC2    H1  550   1.294   0.714  11.272  1.0063  1.0788 -2.4707
   35TMC2    H2  551   1.002   1.016  11.233  0.3283  0.1224 -2.5895
   35TMC2    C7  552   1.037   0.765  11.294 -0.1298  0.0009 -0.7255
   35TMC2    C8  553   1.164   1.209  11.254  0.0525  0.0590 -0.2633
   35TMC2    O1  554   1.080   0.657  11.337  0.4289  0.2070  0.0966
   35TMC2    O2  555   1.068   1.239  11.184  0.3556  0.5876 -0.2794
   35TMC2    O5  556   1.221   1.295  11.345  0.0194  0.3157 -0.1849
   35TMC2    H5  557   1.254   1.263  11.432  0.4717 -1.9303 -1.1809
   36MPD2     C  558   1.685   0.815  11.852  0.7322 -0.0497 -1.1670
   36MPD2    C1  559   1.611   0.933  11.837  0.6129  0.3336  0.2127
   36MPD2    C2  560   1.572   0.975  11.714 -0.5511  0.3382  0.1409
   36MPD2    C3  561   1.585   0.893  11.607  0.3828 -0.1034  0.0317
   36MPD2    C4  562   1.656   0.781  11.616 -1.4637 -0.3643  0.2566
   36MPD2    C5  563   1.711   0.748  11.735  0.2334 -0.5493 -0.4710
   36MPD2     H  564   1.523   1.070  11.700 -3.3487 -0.6671  2.9911
   36MPD2    H1  565   1.676   0.717  11.531  1.3495  2.8547 -1.5248
   36MPD2    H2  566   1.728   0.785  11.947 -1.9125  0.0646  0.0750
   36MPD2    H3  567   1.769   0.657  11.746 -0.2310 -1.0243 -1.9336
   36MPD2     N  568   1.513   0.937  11.490 -0.4838  0.6149 -0.0870
   36MPD2    H5  569   1.472   1.030  11.492  0.9434  1.2517 -0.6887
   36MPD2    N1  570   1.574   0.996  11.953 -0.2912 -0.6014 -0.0504
   36MPD2    H7  571   1.599   0.949  12.039  2.2009 -1.1256 -1.0438
   37TMC2    C1  572   3.309   0.733  12.380  0.0853 -0.1005  0.3854
   37TMC2    C2  573   3.241   0.655  12.289  0.1032 -0.6565  0.6060
   37TMC2    C3  574   3.261   0.670  12.152 -0.1415  0.3148 -0.0730
   37TMC2    C4  575   3.392   0.830  12.340 -0.2797 -0.6442 -0.1669
   37TMC2    C5  576   3.416   0.846  12.203  0.9345  0.2412 -0.6826
   37TMC2    C6  577   3.344   0.768  12.108  0.4318 -0.1094 -0.5491
   37TMC2     C  578   3.274   0.719  12.518  0.2432 -0.2261 -0.1626
   37TMC2     O  579   3.218   0.613  12.548  0.2007  0.7300  0.3578
   37TMC2     H  580   3.186   0.573  12.332  1.8224 -1.6473  0.9343
   37TMC2    H1  581   3.448   0.889  12.412 -0.6524  0.1210 -0.5050
   37TMC2    H2  582   3.351   0.791  12.003  0.5202  1.3155 -0.2314
   37TMC2    C7  583   3.532   0.925  12.160 -0.6403 -0.4034 -0.4520
   37TMC2    C8  584   3.230   0.562  12.055 -1.0583  0.8602  0.0562
   37TMC2    O1  585   3.591   0.987  12.244  0.2489  0.2575 -0.1112
   37TMC2    O2  586   3.162   0.566  11.955  1.0693  0.0590  0.0878
   37TMC2    O5  587   3.250   0.451  12.130 -0.2010  0.0939 -0.2889
   37TMC2    H5  588   3.314   0.464  12.204  0.7148  0.8508 -1.2000
   38MPD2     C  589   3.258   0.879  13.008 -0.3170  0.1233  0.0413
   38MPD2    C1  590   3.308   0.980  12.928 -0.2779 -0.1876  0.5933
   38MPD2    C2  591   3.316   0.967  12.789 -0.4102  0.6930 -0.0505
   38MPD2    C3  592   3.285   0.846  12.733 -0.0501  0.7458 -0.7338
   38MPD2    C4  593   3.228   0.745  12.814 -0.2873 -0.1097 -0.2862
   38MPD2    C5  594   3.219   0.760  12.951  0.9095  1.0024 -0.6691
   38MPD2     H  595   3.344   1.050  12.725  0.9172  1.0676  1.0156
   38MPD2    H1  596   3.199   0.649  12.771  2.5216  0.1185 -2.6607
   38MPD2    H2  597   3.250   0.892  13.115  0.0903  0.5770  0.0138
   38MPD2    H3  598   3.188   0.674  13.009 -0.6677  1.6599 -0.5518
   38MPD2     N  599   3.307   0.826  12.595 -0.1826  0.3372  0.3627
   38MPD2    H5  600   3.331   0.908  12.540  0.6680  1.2576  2.0892
   38MPD2    N1  601   3.361   1.104  12.983  0.2293  0.2805  0.1450
   38MPD2    H7  602   3.415   1.165  12.923  2.8961 -0.5630  1.7006
   39TMC2    C1  603   2.116   3.851   2.000 -0.7149  0.0759 -0.0901
   39TMC2    C2  604   2.036   3.928   2.076  0.1329 -0.1705  0.0859
   39TMC2    C3  605   2.046   4.064   2.055  0.0405 -0.3966 -0.2935
   39TMC2    C4  606   2.189   3.902   1.898 -0.3316 -0.3141 -0.2626
   39TMC2    C5  607   2.204   4.036   1.897  0.7015  0.1983  0.1232
   39TMC2    C6  608   2.125   4.120   1.962 -0.0254  0.2924 -0.9121
   39TMC2     C  609   2.075   3.714   1.978  0.2118  0.1951 -0.3814
   39TMC2     O  610   1.964   3.683   2.015  0.9400 -0.1418  0.0490
   39TMC2     H  611   1.987   3.883   2.161  0.8589 -0.9796  0.0775
   39TMC2    H1  612   2.225   3.843   1.815  0.7801  1.5678 -1.1200
   39TMC2    H2  613   2.141   4.227   1.966 -2.7968  0.7185 -1.2734
   39TMC2    C7  614   2.271   4.095   1.777  0.6345 -0.3883  0.4928
   39TMC2    C8  615   1.990   4.159   2.149  0.9260 -0.1328 -0.4221
   39TMC2    O1  616   2.265   4.022   1.682 -0.1472 -0.0850  0.5195
   39TMC2    O2  617   2.030   4.271   2.166 -0.1665  0.3915  0.2991
   39TMC2    O5  618   1.869   4.101   2.182 -0.1693  0.0394  0.2611
   39TMC2    H5  619   1.835   4.019   2.140 -2.2907 -0.0322  2.1453
   40MPD2     C  620   2.262   3.425   1.847 -0.6639 -0.0125  0.2561
   40MPD2    C1  621   2.153   3.495   1.890  0.1146 -0.0038 -0.6369
   40MPD2    C2  622   2.026   3.442   1.868  0.1641  0.4668 -0.1304
   40MPD2    C3  623   2.012   3.322   1.804 -0.1034 -0.2864 -0.5283
   40MPD2    C4  624   2.119   3.249   1.781 -1.0703  1.4961 -0.7795
   40MPD2    C5  625   2.247   3.297   1.799 -0.1445 -0.3578  0.3889
   40MPD2     H  626   1.947   3.517   1.876  1.2267  1.7159 -1.2905
   40MPD2    H1  627   2.116   3.143   1.763  1.3477  0.9261  2.2456
   40MPD2    H2  628   2.363   3.460   1.860 -0.3958 -0.6977  0.0382
   40MPD2    H3  629   2.331   3.237   1.769 -0.8774 -1.9795  1.5713
   40MPD2     N  630   1.893   3.247   1.799  0.3087  0.2293 -0.2037
   40MPD2    H5  631   1.905   3.154   1.760  2.1832 -0.0538  1.0065
   40MPD2    N1  632   2.168   3.632   1.926  0.7530  0.4836 -0.2927
   40MPD2    H7  633   2.263   3.668   1.922  1.0199 -0.3641 -1.4616
   41TMC2    C1  634   1.187   1.716  13.534  0.3565  0.9778  0.0126
   41TMC2    C2  635   1.288   1.773  13.612 -0.0664 -0.1229 -0.1217
   41TMC2    C3  636   1.360   1.875  13.562  0.1437 -0.4078  0.2260
   41TMC2    C4  637   1.172   1.753  13.399 -0.1906 -0.1638  0.2262
   41TMC2    C5  638   1.247   1.856  13.355 -0.5467 -0.0926  0.1635
   41TMC2    C6  639   1.340   1.918  13.433 -0.8816 -0.9265 -0.0692
   41TMC2     C  640   1.119   1.596  13.576  0.2067  0.2383 -0.3705
   41TMC2     O  641   1.070   1.537  13.483  0.1318  0.1479 -0.2284
   41TMC2     H  642   1.322   1.725  13.703 -0.2567 -1.1241 -0.5826
   41TMC2    H1  643   1.089   1.713  13.342  3.1100 -3.3433 -2.3411
   41TMC2    H2  644   1.419   1.986  13.402 -0.4929 -2.0080 -1.4586
   41TMC2    C7  645   1.272   1.884  13.216 -0.4684  0.2754  0.2040
   41TMC2    C8  646   1.487   1.893  13.624  0.2979 -0.1409 -0.2634
   41TMC2    O1  647   1.349   1.976  13.191  0.3579 -0.4545 -0.8988
   41TMC2    O2  648   1.536   1.799  13.697 -0.1575  0.2197  0.7925
   41TMC2    O5  649   1.538   2.020  13.613 -0.0545 -0.8041 -0.5258
   41TMC2    H5  650   1.465   2.081  13.589  0.7978  0.7051  0.7412
   42MPD2     C  651   1.006   1.358  13.710 -0.1127  0.1540  0.0839
   42MPD2    C1  652   1.089   1.448  13.778 -0.0418  0.1470 -0.4617
   42MPD2    C2  653   1.097   1.440  13.914 -0.3299 -0.2228  0.4216
   42MPD2    C3  654   1.041   1.339  13.990 -0.2355 -0.1976  0.1328
   42MPD2    C4  655   0.964   1.244  13.925 -0.6783 -0.2009 -0.1493
   42MPD2    C5  656   0.947   1.258  13.787  0.1312  0.8621 -0.0147
   42MPD2     H  657   1.158   1.520  13.956 -1.2008 -0.3611  1.9394
   42MPD2    H1  658   0.911   1.168  13.980  0.4540 -0.8410  0.0586
   42MPD2    H2  659   0.989   1.356  13.603 -1.4312  1.0879  0.2735
   42MPD2    H3  660   0.892   1.185  13.729  0.9027  0.6998 -0.5465
   42MPD2     N  661   1.064   1.316  14.130 -0.2347 -0.0643  0.4724
   42MPD2    H5  662   1.028   1.233  14.174  1.6271 -1.2702 -0.2961
   42MPD2    N1  663   1.132   1.568  13.712  0.4608  0.3438  0.0912
   42MPD2    H7  664   1.187   1.630  13.771  0.0968 -2.3680  3.3333
   43TMC2    C1  665   2.068   4.385   0.922  0.5707  0.6245 -0.5373
   43TMC2    C2  666   1.953   4.395   1.001 -1.2239  0.0571 -0.0698
   43TMC2    C3  667   1.936   4.500   1.088  0.0230  0.8550  0.1385
   43TMC2    C4  668   2.167   4.480   0.944  0.7447  0.0360 -0.0117
   43TMC2    C5  669   2.147   4.584   1.029  0.5009 -0.0670  0.2638
   43TMC2    C6  670   2.032   4.598   1.101 -0.1940  0.0716 -0.2116
   43TMC2     C  671   2.107   4.258   0.863  1.1023 -0.1214 -1.0894
   43TMC2     O  672   2.219   4.267   0.811  0.4253 -0.6683 -0.5801
   43TMC2     H  673   1.873   4.326   0.979 -1.3135  0.2243 -0.2745
   43TMC2    H1  674   2.265   4.464   0.901  0.4862  0.7363 -0.8672
   43TMC2    H2  675   2.009   4.683   1.163 -0.0937 -0.6158  0.7653
   43TMC2    C7  676   2.272   4.625   1.087  0.2160 -0.5156  0.1533
   43TMC2    C8  677   1.800   4.528   1.130  0.9219 -0.0377 -0.2837
   43TMC2    O1  678   2.372   4.606   1.028  0.1449 -0.0422 -0.4077
   43TMC2    O2  679   1.698   4.496   1.068  0.0327 -0.1585 -0.2381
   43TMC2    O5  680   1.800   4.582   1.257  0.7053  0.0532 -0.9610
   43TMC2    H5  681   1.891   4.588   1.294 -0.0608  3.1824  0.4563
   44MPD2     C  682   2.093   3.749   0.813  0.1072 -0.7604 -0.6129
   44MPD2    C1  683   2.132   3.848   0.721  0.2408 -0.7373 -0.4106
   44MPD2    C2  684   2.119   3.980   0.756 -1.1311 -0.3916  0.5229
   44MPD2    C3  685   2.055   4.014   0.873 -0.0272 -0.7407 -0.4740
   44MPD2    C4  686   2.019   3.911   0.961 -0.3394 -0.3938 -0.5968
   44MPD2    C5  687   2.037   3.785   0.928 -0.5486  0.3342 -0.1085
   44MPD2     H  688   2.155   4.061   0.693 -0.3610 -1.2428 -0.1427
   44MPD2    H1  689   1.971   3.947   1.051  1.6250  0.0905  0.2400
   44MPD2    H2  690   2.108   3.643   0.797  2.5302 -0.1575 -2.1853
   44MPD2    H3  691   2.010   3.708   0.999 -1.0702  0.5713 -0.0528
   44MPD2     N  692   2.035   4.153   0.911  0.2582 -0.5876  0.5583
   44MPD2    H5  693   1.974   4.172   0.990  0.1644 -0.0831  0.3631
   44MPD2    N1  694   2.185   3.803   0.602 -0.4411  0.2704  0.0985
   44MPD2    H7  695   2.204   3.704   0.595  0.4903  0.4508  0.0558
   45TMC2    C1  696   2.773   1.719   9.982  0.4706  0.1607  0.2201
   45TMC2    C2  697   2.686   1.802   9.913  0.3846  0.1128  0.1143
   45TMC2    C3  698   2.712   1.932   9.921 -0.6575 -0.2313  0.8411
   45TMC2    C4  699   2.886   1.767  10.038  0.4608 -0.1278  0.0863
   45TMC2    C5  700   2.896   1.905  10.048 -0.0679  0.6121 -0.1871
   45TMC2    C6  701   2.812   1.993   9.990 -0.7043 -0.5944  0.3772
   45TMC2     C  702   2.732   1.581  10.027  0.9788  0.7875  0.5593
   45TMC2     O  703   2.794   1.538  10.124  0.1492  0.6474  0.4802
   45TMC2     H  704   2.601   1.761   9.860  1.3043 -1.0266 -0.4791
   45TMC2    H1  705   2.944   1.703  10.103 -0.0724  0.7466  1.4274
   45TMC2    H2  706   2.809   2.101  10.004  0.1504 -0.3133 -1.5897
   45TMC2    C7  707   3.005   1.956  10.131  0.3114 -0.1512  0.3108
   45TMC2    C8  708   2.605   2.016   9.878  0.1975  0.5814 -0.3530
   45TMC2    O1  709   3.033   1.875  10.222 -0.5827  0.1996 -0.0155
   45TMC2    O2  710   2.494   1.971   9.846  0.7776 -0.3470  0.1199
   45TMC2    O5  711   2.661   2.115   9.810 -0.2181  0.2558  0.9476
   45TMC2    H5  712   2.755   2.142   9.806  0.2570 -1.3965  1.1187
   46MPD2     C  713   2.653   1.294  10.094  1.7121  0.3450 -0.8359
   46MPD2    C1  714   2.594   1.381  10.002  0.0751 -0.0655  0.3007
   46MPD2    C2  715   2.507   1.324   9.912  0.7416  0.0188 -0.4512
   46MPD2    C3  716   2.490   1.185   9.902  0.6049  0.0859 -0.2333
   46MPD2    C4  717   2.547   1.104   9.994  0.0527 -0.3223  0.4736
   46MPD2    C5  718   2.630   1.161  10.084 -0.2792 -0.1149  0.3538
   46MPD2     H  719   2.466   1.381   9.830 -0.8668  0.5060  0.6906
   46MPD2    H1  720   2.542   0.996   9.985 -1.5420 -0.2642  0.6844
   46MPD2    H2  721   2.728   1.324  10.168  0.4622 -2.9807  1.7711
   46MPD2    H3  722   2.694   1.095  10.140  1.6687 -0.3422 -2.1575
   46MPD2     N  723   2.391   1.146   9.809 -0.2619  0.3659 -0.9308
   46MPD2    H5  724   2.367   1.218   9.742  2.5150  0.3619 -1.9124
   46MPD2    N1  725   2.629   1.514   9.966 -0.4222 -0.2766  0.1431
   46MPD2    H7  726   2.581   1.563   9.891 -2.5360 -1.3155  0.8284
   47TMC2    C1  727   0.296   0.938   9.133  0.3225  0.2692 -0.5226
   47TMC2    C2  728   0.244   0.915   9.009 -0.3328 -0.3862  0.1192
   47TMC2    C3  729   0.112   0.905   8.995 -0.8313 -0.2382  1.0128
   47TMC2    C4  730   0.223   0.924   9.242 -0.0511 -0.1020 -0.2285
   47TMC2    C5  731   0.096   0.881   9.229 -0.1884  0.2986  0.0999
   47TMC2    C6  732   0.031   0.879   9.106  0.3791  0.5205 -0.1113
   47TMC2     C  733   0.441   0.917   9.137 -0.4147 -0.4830 -0.8861
   47TMC2     O  734   0.485   0.870   9.035  0.2425  0.0085 -0.0918
   47TMC2     H  735   0.304   0.925   8.919  0.5046 -0.0487  0.7219
   47TMC2    H1  736   0.267   0.930   9.341 -2.4677 -0.2692  0.8815
   47TMC2    H2  737   4.667   0.842   9.096  0.5296 -0.0900  0.6276
   47TMC2    C7  738   0.064   0.796   9.334 -0.4437 -0.0351  0.1495
   47TMC2    C8  739   0.069   0.869   8.863  0.9004  0.6045  0.1359
   47TMC2    O1  740   0.135   0.789   9.432  0.1760 -0.4505 -0.7248
   47TMC2    O2  741   0.139   0.813   8.775  0.7606 -0.3029 -0.1832
   47TMC2    O5  742   4.680   0.922   8.841 -0.0967 -0.0379  0.1244
   47TMC2    H5  743   4.649   0.979   8.914 -0.7869 -1.6229  1.0729
   48MPD2     C  744   0.719   0.859   9.196  0.0336  0.6703 -0.1228
   48MPD2    C1  745   0.640   0.928   9.289 -0.1303 -0.0883 -0.1613
   48MPD2    C2  746   0.684   0.967   9.411 -0.7824 -0.3642 -0.7028
   48MPD2    C3  747   0.820   0.946   9.446 -0.2554  0.6787 -0.7249
   48MPD2    C4  748   0.899   0.889   9.352  0.0974  0.3731 -1.6413
   48MPD2    C5  749   0.847   0.836   9.235 -0.0429  0.4292  0.9530
   48MPD2     H  750   0.611   1.011   9.478  0.5591 -0.5410  0.9010
   48MPD2    H1  751   1.004   0.865   9.360  0.2512  1.8118  0.4449
   48MPD2    H2  752   0.688   0.825   9.098 -0.8484 -2.0990  1.0932
   48MPD2    H3  753   0.914   0.780   9.170  1.1099 -0.3213  2.8040
   48MPD2     N  754   0.866   0.984   9.574  0.0176 -0.0370 -0.2321
   48MPD2    H5  755   0.802   1.034   9.635  0.1408  1.9410 -1.7070
   48MPD2    N1  756   0.503   0.949   9.256  0.1987  0.2814  0.5147
   48MPD2    H7  757   0.449   1.003   9.324 -1.2767 -0.6222  0.0331
   49TMC2    C1  758   3.410   3.275  10.440  0.2287 -0.1063 -0.6653
   49TMC2    C2  759   3.454   3.199  10.339 -0.0276  0.0217  0.5642
   49TMC2    C3  760   3.516   3.081  10.370 -0.7380  0.1713 -1.0346
   49TMC2    C4  761   3.450   3.246  10.571 -0.5211 -0.4480  0.2549
   49TMC2    C5  762   3.520   3.135  10.594 -0.5318  0.0057 -0.2217
   49TMC2    C6  763   3.552   3.046  10.496  0.3802  0.1997  0.3247
   49TMC2     C  764   3.368   3.416  10.409 -0.2394  0.1180  0.3356
   49TMC2     O  765   3.382   3.453  10.295 -0.3940  0.0239 -0.4796
   49TMC2     H  766   3.426   3.222  10.237  0.6600  3.0778  1.0641
   49TMC2    H1  767   3.423   3.304  10.658  0.2454 -2.4589  1.8439
   49TMC2    H2  768   3.603   2.955  10.526 -0.0808 -0.6574 -1.4510
   49TMC2    C7  769   3.601   3.118  10.717  0.7194  0.2394 -0.6553
   49TMC2    C8  770   3.544   2.978  10.273 -0.3804 -0.2879 -0.0748
   49TMC2    O1  771   3.611   3.003  10.757 -0.4563  0.3526  0.2376
   49TMC2    O2  772   3.536   2.856  10.279 -0.4327 -0.3703  0.2409
   49TMC2    O5  773   3.542   3.040  10.148 -0.2152 -0.2266  0.3453
   49TMC2    H5  774   3.564   3.135  10.142  0.2251 -0.2487  1.6893
   50MPD2     C  775   3.326   3.711  10.422 -0.2339  0.0983 -0.2218
   50MPD2    C1  776   3.296   3.624  10.527  0.5700 -0.4977  0.3444
   50MPD2    C2  777   3.245   3.657  10.645  0.2178  0.2937 -0.3793
   50MPD2    C3  778   3.221   3.792  10.665 -0.6069 -0.1894 -0.2853
   50MPD2    C4  779   3.247   3.882  10.562 -0.4597 -0.4107 -0.2681
   50MPD2    C5  780   3.307   3.844  10.442  0.0425  0.0376  0.5555
   50MPD2     H  781   3.230   3.585  10.724  2.2338  1.5345  1.1412
   50MPD2    H1  782   3.216   3.984  10.581 -0.1192  0.0970 -2.5005
   50MPD2    H2  783   3.370   3.679  10.328 -2.1703 -1.0175 -0.7612
   50MPD2    H3  784   3.342   3.921  10.374  0.9510 -1.6470 -0.8896
   50MPD2     N  785   3.166   3.844  10.783 -0.5781 -0.3496 -0.1643
   50MPD2    H5  786   3.144   3.943  10.786 -1.6617 -0.5857 -0.2466
   50MPD2    N1  787   3.317   3.484  10.513  0.2883  0.2489  0.3074
   50MPD2    H7  788   3.307   3.434  10.601  0.9796  0.3444  0.4408
   51TMC2    C1  789   3.593   3.449   1.095 -0.2114  0.0027 -0.1015
   51TMC2    C2  790   3.569   3.474   0.959  0.2309 -0.2207 -0.1603
   51TMC2    C3  791   3.594   3.599   0.914  0.1183  0.7129 -0.9308
   51TMC2    C4  792   3.669   3.537   1.170 -0.0840  0.3706  0.2109
   51TMC2    C5  793   3.690   3.661   1.110 -0.3676 -0.5390 -0.2135
   51TMC2    C6  794   3.647   3.696   0.987 -0.1364 -0.1819 -0.0021
   51TMC2     C  795   3.589   3.317   1.139  0.3215  0.0850 -1.3377
   51TMC2     O  796   3.544   3.234   1.058  0.2471  0.3535 -0.0624
   51TMC2     H  797   3.527   3.398   0.895  0.3875  1.7267 -2.5983
   51TMC2    H1  798   3.711   3.521   1.268 -0.1516 -1.5829 -0.0811
   51TMC2    H2  799   3.660   3.796   0.948  2.2206 -0.4775  0.0470
   51TMC2    C7  800   3.783   3.748   1.176 -0.7803 -0.0489  0.0825
   51TMC2    C8  801   3.513   3.632   0.797  0.4550 -0.4968  0.5600
   51TMC2    O1  802   3.873   3.696   1.244  0.0860 -0.7427  0.5359
   51TMC2    O2  803   3.401   3.603   0.773  0.2090  0.0176  0.1534
   51TMC2    O5  804   3.586   3.709   0.720  0.1451  0.0778 -0.3761
   51TMC2    H5  805   3.671   3.737   0.759 -0.2638  0.4723  0.2444
   52MPD2     C  806   3.670   2.980   1.523  0.8497 -0.1459  0.6351
   52MPD2    C1  807   3.668   2.957   1.384 -0.5870  0.8687  0.1590
   52MPD2    C2  808   3.639   3.064   1.299  0.4232 -0.5921  0.3700
   52MPD2    C3  809   3.616   3.191   1.354 -0.2143  0.3878  0.3088
   52MPD2    C4  810   3.622   3.217   1.490  0.2141 -0.4895 -0.8356
   52MPD2    C5  811   3.654   3.108   1.574 -0.8346  0.2617 -0.1847
   52MPD2     H  812   3.626   3.051   1.192  1.9747 -2.3370  0.3954
   52MPD2    H1  813   3.621   3.320   1.525 -0.9666 -0.9883  0.6454
   52MPD2    H2  814   3.699   2.897   1.587  0.0467  0.5658  1.9095
   52MPD2    H3  815   3.642   3.130   1.679 -2.7294 -3.3013  0.3691
   52MPD2     N  816   3.608   3.308   1.272 -0.1119  0.7238 -0.1541
   52MPD2    H5  817   3.607   3.400   1.316 -2.8187 -0.1818  1.6491
   52MPD2    N1  818   3.707   2.832   1.334  0.6584  0.7638  0.0560
   52MPD2    H7  819   3.725   2.818   1.235  0.6978  0.5925  0.0865
   53TMC2    C1  820   3.951   1.490  11.929 -0.6478  0.3342  0.2544
   53TMC2    C2  821   4.066   1.546  11.883 -0.8682 -0.0816 -0.7297
   53TMC2    C3  822   4.135   1.628  11.958 -0.1245 -0.1529 -0.7244
   53TMC2    C4  823   3.883   1.525  12.046  0.2911  0.2283  0.7379
   53TMC2    C5  824   3.956   1.616  12.119 -0.4626 -0.1650  0.3373
   53TMC2    C6  825   4.077   1.666  12.079 -0.1382 -0.4362  0.4460
   53TMC2     C  826   3.907   1.368  11.863 -0.7030  0.0243 -0.6440
   53TMC2     O  827   3.940   1.352  11.744 -0.1951 -0.0299 -0.0272
   53TMC2     H  828   4.097   1.529  11.780  0.4310 -1.3620 -0.1252
   53TMC2    H1  829   3.793   1.481  12.087  0.0441  0.3330  0.3054
   53TMC2    H2  830   4.125   1.740  12.143 -1.7034  1.2530 -0.3206
   53TMC2    C7  831   3.899   1.662  12.243  0.0478 -0.0488 -0.2667
   53TMC2    C8  832   4.271   1.658  11.922  0.3086  0.1343  0.3442
   53TMC2    O1  833   3.781   1.638  12.262 -0.1658 -0.0124 -0.3601
   53TMC2    O2  834   4.313   1.652  11.810 -0.2484  0.4679  0.3902
   53TMC2    O5  835   4.336   1.680  12.040 -0.0301 -0.1476  0.1509
   53TMC2    H5  836   4.283   1.657  12.120  0.1009 -2.2715 -0.3829
   54MPD2     C  837   3.850   1.081  11.791 -0.1418  0.6230 -0.1881
   54MPD2    C1  838   3.808   1.146  11.905 -0.1228 -0.5145  0.1248
   54MPD2    C2  839   3.716   1.083  11.987  0.0810 -0.2189 -0.2686
   54MPD2    C3  840   3.674   0.956  11.967 -0.4329  0.5567 -0.4447
   54MPD2    C4  841   3.730   0.891  11.853 -0.0712  0.5540 -0.5555
   54MPD2    C5  842   3.818   0.949  11.772  0.4958  0.6059 -0.7917
   54MPD2     H  843   3.672   1.142  12.066  1.7755 -1.2231  1.4322
   54MPD2    H1  844   3.702   0.791  11.823 -2.0433  0.8383  0.3304
   54MPD2    H2  845   3.920   1.128  11.722  0.2574  0.4653  0.1089
   54MPD2    H3  846   3.854   0.895  11.686  1.6090  2.1286 -1.2918
   54MPD2     N  847   3.580   0.887  12.043  0.2426  0.1665  0.0872
   54MPD2    H5  848   3.539   0.802  12.004 -0.1900 -0.2341  1.4104
   54MPD2    N1  849   3.839   1.276  11.935  0.5176 -0.0095 -0.6083
   54MPD2    H7  850   3.814   1.306  12.029  3.2333 -0.0373  0.1313
   55TMC2    C1  851   0.472   4.009   0.142 -0.4436  0.0958 -0.5176
   55TMC2    C2  852   0.416   3.961   0.027 -0.1044 -0.5304 -0.2214
   55TMC2    C3  853   0.398   3.829   0.017 -0.7390 -0.0341  0.6376
   55TMC2    C4  854   0.494   3.935   0.258 -0.9992 -0.5429  0.2960
   55TMC2    C5  855   0.463   3.802   0.244 -0.1485  0.1968  0.9717
   55TMC2    C6  856   0.423   3.745   0.123 -0.7254 -0.3577 -0.2754
   55TMC2     C  857   0.481   4.153   0.173 -0.1201  0.3504  0.1458
   55TMC2     O  858   0.464   4.182   0.292 -0.0289  0.3358 -0.6715
   55TMC2     H  859   0.372   4.035  17.709 -1.8178  0.0019  1.5299
   55TMC2    H1  860   0.526   3.972   0.355 -1.2141  0.4787 -0.0239
   55TMC2    H2  861   0.406   3.638   0.116 -0.5271 -0.4059 -0.0135
   55TMC2    C7  862   0.451   3.710   0.352  0.4191 -0.6295 -0.4255
   55TMC2    C8  863   0.326   3.781  17.649 -0.2613  0.1534  0.1669
   55TMC2    O1  864   0.457   3.590   0.330  0.2669  0.2446  0.0172
   55TMC2    O2  865   0.272   3.671  17.650 -0.2049  0.1461  0.3761
   55TMC2    O5  866   0.386   3.833  17.548 -0.1431  0.4612  0.0140
   55TMC2    H5  867   0.438   3.914  17.567  0.7142  0.2443 -1.4941
   56MPD2     C  868   0.512   4.409  17.656  0.2862 -0.5093 -0.0924
   56MPD2    C1  869   0.504   4.368   0.041 -0.7622  0.3944  0.2169
   56MPD2    C2  870   0.460   4.451   0.142 -1.3221  0.3523 -0.3971
   56MPD2    C3  871   0.423   4.577   0.121 -0.7098 -0.3575  0.6117
   56MPD2    C4  872   0.433   4.625  17.734  0.5372  0.1105 -0.0677
   56MPD2    C5  873   0.471   4.539  17.632  0.3661  0.7255  0.2559
   56MPD2     H  874   0.448   4.408   0.241 -0.3635 -1.2381 -0.9662
   56MPD2    H1  875   0.400   4.724  17.704 -0.1969  0.6165  2.4180
   56MPD2    H2  876   0.534   4.339  17.576 -1.0604  0.1489 -1.0485
   56MPD2    H3  877   0.469   4.576  17.531 -0.7089 -0.4608 -0.1478
   56MPD2     N  878   0.379   4.650   0.229 -0.3710 -0.4316 -0.4581
   56MPD2    H5  879   0.411   4.618   0.319  0.5185  1.4683 -0.1121
   56MPD2    N1  880   0.499   4.229   0.056  0.3238  0.1777  0.1783
   56MPD2    H7  881   0.525   4.177  17.721 -0.8223  1.0175 -0.6997
   57TMC2    C1  882   4.481   0.620  13.500 -0.2907 -0.4462 -0.2349
   57TMC2    C2  883   4.494   0.755  13.487 -0.1723  0.0414 -0.3022
   57TMC2    C3  884   4.578   0.811  13.392  0.5019 -0.5038 -0.5226
   57TMC2    C4  885   4.540   0.536  13.406 -0.4732 -0.2746  0.5163
   57TMC2    C5  886   4.623   0.600  13.306  0.8352  0.9646 -1.1192
   57TMC2    C6  887   4.636   0.737  13.295  0.0845  0.0392 -0.0835
   57TMC2     C  888   4.399   0.578  13.613  0.4321 -0.0240  0.4904
   57TMC2     O  889   4.377   0.651  13.708  0.4138 -0.3359 -0.1394
   57TMC2     H  890   4.458   0.823  13.563 -1.3945 -0.5396 -0.3594
   57TMC2    H1  891   4.514   0.432  13.389 -2.6297  0.6410 -1.8241
   57TMC2    H2  892   4.701   0.786  13.224  1.4274  0.2074  1.2741
   57TMC2    C7  893   4.695   0.532  13.200 -0.2008  0.3966 -0.6436
   57TMC2    C8  894   4.567   0.952  13.382  0.3063  0.9895 -0.6726
   57TMC2    O1  895   4.720   0.592  13.097  0.5434 -0.0283 -0.1203
   57TMC2    O2  896   4.620   1.032  13.456 -0.3524 -0.4811 -0.2997
   57TMC2    O5  897   4.447   0.976  13.327 -0.1519 -0.4688  0.3560
   57TMC2    H5  898   4.409   0.895  13.287  1.1218 -1.2041  0.6035
   58MPD2     C  899   4.080   0.226  13.818  0.6977  0.9065  0.3725
   58MPD2    C1  900   4.097   0.360  13.845  0.5426 -0.7337  0.4876
   58MPD2    C2  901   4.192   0.430  13.777  0.7276  0.2419 -0.0240
   58MPD2    C3  902   4.269   0.368  13.679 -0.0207 -0.5806 -0.0654
   58MPD2    C4  903   4.246   0.232  13.649 -0.9705 -0.1894  0.5342
   58MPD2    C5  904   4.147   0.165  13.718  0.5534  0.4540  0.6867
   58MPD2     H  905   4.200   0.535  13.804  0.8074 -0.2769  1.9648
   58MPD2    H1  906   4.300   0.192  13.564 -0.0639  1.1199  0.4978
   58MPD2    H2  907   4.025   0.158  13.883  0.8547 -0.2218 -0.6661
   58MPD2    H3  908   4.145   0.060  13.692 -1.3477  0.4965  0.6917
   58MPD2     N  909   4.363   0.440  13.602 -0.7943 -0.1588 -0.3553
   58MPD2    H5  910   4.411   0.383  13.533 -0.5845 -0.4623  0.0404
   58MPD2    N1  911   4.032   0.429  13.948 -0.0950  0.3289 -0.1611
   58MPD2    H7  912   4.074   0.516  13.977 -0.5993  0.0089  1.5405
   59TMC2    C1  913   1.611   0.346  13.148  0.6412  0.1450 -0.1248
   59TMC2    C2  914   1.641   0.468  13.199  0.6256 -0.6272  0.9091
   59TMC2    C3  915   1.608   0.579  13.123  0.7246  0.0587 -0.2355
   59TMC2    C4  916   1.558   0.329  13.023  0.5231 -0.6997 -0.1878
   59TMC2    C5  917   1.526   0.440  12.954 -0.2415 -0.3639  0.1171
   59TMC2    C6  918   1.555   0.566  13.000 -0.4970 -0.1360  0.1492
   59TMC2     C  919   1.692   0.233  13.187 -0.2753 -0.7107 -0.3569
   59TMC2     O  920   1.701   0.138  13.112 -0.0898  0.7329  0.6215
   59TMC2     H  921   1.678   0.489  13.299  1.6444 -1.5486  0.7232
   59TMC2    H1  922   1.523   0.238  12.976 -0.6847 -0.4641  0.2639
   59TMC2    H2  923   1.536   0.658  12.948 -0.9029 -1.1665 -1.5053
   59TMC2    C7  924   1.426   0.428  12.845  0.3933  0.1334  0.0523
   59TMC2    C8  925   1.659   0.707  13.167  0.5371  1.0314  0.1326
   59TMC2    O1  926   1.352   0.330  12.842  0.1954  0.3069  0.3598
   59TMC2    O2  927   1.642   0.754  13.279  0.1391  0.3751  0.7909
   59TMC2    O5  928   1.755   0.750  13.086  0.4490 -0.5313  0.0209
   59TMC2    H5  929   1.763   0.692  13.007  1.9396 -0.7115  0.3108
   60MPD2     C  930   1.912   0.069  13.303  0.1068  0.3691  0.1730
   60MPD2    C1  931   1.852   0.176  13.372 -0.1694 -0.0591 -0.6837
   60MPD2    C2  932   1.907   0.218  13.488  0.1972  0.5348 -0.1773
   60MPD2    C3  933   2.012   0.143  13.549 -0.1873 -0.4520  0.0399
   60MPD2    C4  934   2.050   0.023  13.492  0.5302 -0.3917 -0.2054
   60MPD2    C5  935   1.995   4.730  13.367  0.3697 -0.6677  0.2588
   60MPD2     H  936   1.894   0.323  13.514 -0.8320  0.3709 -0.0341
   60MPD2    H1  937   2.121   4.697  13.545  2.9109  1.1807 -1.5361
   60MPD2    H2  938   1.873   0.035  13.208  0.0565 -1.9756  1.0194
   60MPD2    H3  939   2.010   4.636  13.315  0.4269 -0.0789 -0.7955
   60MPD2     N  940   2.086   0.194  13.659 -0.0654  0.3968 -0.2595
   60MPD2    H5  941   2.155   0.131  13.697  0.1212  1.5558  1.3282
   60MPD2    N1  942   1.751   0.257  13.310 -0.1687  0.9676  0.3238
   60MPD2    H7  943   1.726   0.336  13.368  0.7388  1.8191 -0.4619
   61TMC2    C1  944   1.667   1.883  15.111 -0.0866 -0.8700 -0.3918
   61TMC2    C2  945   1.576   1.849  15.205 -0.1611 -0.1088 -0.1463
   61TMC2    C3  946   1.544   1.940  15.298 -0.1612  0.1094 -0.1687
   61TMC2    C4  947   1.710   2.010  15.092  0.2795  0.2101  0.7979
   61TMC2    C5  948   1.667   2.102  15.182 -0.0518  0.4317 -0.8505
   61TMC2    C6  949   1.598   2.069  15.294  0.1013  0.7184 -0.0273
   61TMC2     C  950   1.687   1.770  15.017  0.0756 -0.1451  0.0416
   61TMC2     O  951   1.608   1.678  15.035  0.2547  0.3735  0.4034
   61TMC2     H  952   1.531   1.754  15.229 -1.7514  0.5298 -0.5490
   61TMC2    H1  953   1.764   2.042  15.003  0.1273  1.2033  1.0644
   61TMC2    H2  954   1.574   2.153  15.358  0.2088  0.5445  0.2383
   61TMC2    C7  955   1.645   2.238  15.139  0.0087  0.3159 -0.2930
   61TMC2    C8  956   1.459   1.891  15.411 -0.2831 -0.1281  1.2189
   61TMC2    O1  957   1.727   2.285  15.063  0.9637 -0.1215  0.4436
   61TMC2    O2  958   1.474   1.771  15.438 -0.3458 -0.5498  1.1855
   61TMC2    O5  959   1.442   1.997  15.499 -0.5456 -0.5905  0.0322
   61TMC2    H5  960   1.422   2.077  15.446  1.3708  0.9599  1.6611
   62MPD2     C  961   1.690   1.619  14.751  0.6684 -0.1089  0.2285
   62MPD2    C1  962   1.779   1.718  14.784  0.0553 -0.0891 -0.6790
   62MPD2    C2  963   1.879   1.744  14.695 -0.4564  0.8351  0.3620
   62MPD2    C3  964   1.892   1.679  14.570  0.2495 -0.2975 -0.4434
   62MPD2    C4  965   1.804   1.576  14.548 -0.0204 -0.4866  0.2467
   62MPD2    C5  966   1.706   1.549  14.637  0.1266  0.0512 -0.0217
   62MPD2     H  967   1.946   1.824  14.723 -0.8365  0.7901  1.3910
   62MPD2    H1  968   1.806   1.512  14.460 -0.4571 -1.5289  0.9935
   62MPD2    H2  969   1.599   1.594  14.805  1.4545 -1.0571  1.1026
   62MPD2    H3  970   1.631   1.474  14.613  1.6219 -1.8718  1.3752
   62MPD2     N  971   1.999   1.709  14.481 -0.5530 -0.4068  0.2339
   62MPD2    H5  972   2.013   1.636  14.412 -0.9291 -1.2371  1.0377
   62MPD2    N1  973   1.773   1.796  14.912 -0.0730  0.0655  0.1258
   62MPD2    H7  974   1.842   1.871  14.920 -2.5663  2.5723 -1.8427
   63TMC2    C1  975   4.687   2.329  10.352 -0.1483  0.3958 -0.0329
   63TMC2    C2  976   4.668   2.463  10.336 -0.2826  1.1285  0.5392
   63TMC2    C3  977   4.682   2.522  10.209  0.8113  0.1153 -0.0638
   63TMC2    C4  978   4.706   2.252  10.237  1.3728  0.2321 -0.5923
   63TMC2    C5  979   4.726   2.310  10.118  0.2446  0.4379  0.0721
   63TMC2    C6  980   4.705   2.445  10.097 -0.0615 -0.1031 -0.5438
   63TMC2     C  981   4.634   2.267  10.474 -0.0607 -0.1048 -0.7161
   63TMC2     O  982   4.556   2.338  10.531 -0.7197  0.7868  0.0297
   63TMC2     H  983   4.653   2.528  10.422  0.1390  1.2707  0.5040
   63TMC2    H1  984   4.733   2.147  10.242  1.5639  0.3435  0.8494
   63TMC2    H2  985   4.695   2.493  10.000 -0.4988  0.5757 -0.1697
   63TMC2    C7  986   0.023   2.228  10.008 -0.2583 -0.0640  0.4734
   63TMC2    C8  987   4.621   2.647  10.167 -0.4508  0.3237 -0.2564
   63TMC2    O1  988   4.732   2.109  10.016  0.0852 -0.4623 -0.1948
   63TMC2    O2  989   4.648   2.710  10.062  0.0054 -0.4241  0.0062
   63TMC2    O5  990   4.495   2.610  10.193 -0.4216  0.5952 -0.5038
   63TMC2    H5  991   4.478   2.554  10.272 -2.5637  4.1087  1.5307
   64MPD2     C  992   4.609   1.892  10.809  0.5539  0.2337 -0.0418
   64MPD2    C1  993   4.708   1.856  10.721  0.3768  0.0358  0.7881
   64MPD2    C2  994   4.726   1.941  10.615  0.0594  0.5220  0.9999
   64MPD2    C3  995   4.657   2.066  10.609  0.0666  0.8603  0.1548
   64MPD2    C4  996   4.556   2.098  10.696 -0.0743  0.1269 -0.4341
   64MPD2    C5  997   4.531   2.002  10.795  0.1702 -0.1140  0.0613
   64MPD2     H  998   0.067   1.925  10.541  0.7729  2.0753  1.4117
   64MPD2    H1  999   4.490   2.184  10.697  2.2557  1.8938 -1.0145
   64MPD2    H2 1000   4.585   1.835  10.898 -1.2174  0.5249 -0.3201
   64MPD2    H3 1001   4.457   2.035  10.867 -0.0516 -1.8725  0.6376
   64MPD2     N 1002   4.694   2.148  10.501  0.0084 -0.0364 -0.0286
   64MPD2    H5 1003   0.036   2.122  10.443  0.1967  0.2440  0.1034
   64MPD2    N1 1004   0.046   1.735  10.734  0.1443  1.2230  0.0001
   64MPD2    H7 1005   0.114   1.704  10.666 -0.1497 -2.4824  1.3468
   65TMC2    C1 1006   2.073   1.632  15.913 -0.2043 -0.9999  0.1152
   65TMC2    C2 1007   2.045   1.598  15.782  0.1324 -0.2522  0.4488
   65TMC2    C3 1008   2.023   1.690  15.691  0.7514  0.7874 -0.0494
   65TMC2    C4 1009   2.090   1.769  15.943  0.2811  0.1397  0.1480
   65TMC2    C5 1010   2.078   1.858  15.846 -0.3258 -0.3962 -0.4155
   65TMC2    C6 1011   2.048   1.820  15.716  0.4478  0.1133  0.1371
   65TMC2     C 1012   2.095   1.547  16.023 -0.4869  0.4005  0.9148
   65TMC2     O 1013   2.072   1.598  16.128 -0.0388 -0.9604  0.0885
   65TMC2     H 1014   2.032   1.494  15.754  1.2153 -0.6284  1.3659
   65TMC2    H1 1015   2.103   1.801  16.046 -3.0134  2.5671 -0.2222
   65TMC2    H2 1016   2.036   1.888  15.633  2.4591  0.9150  0.4947
   65TMC2    C7 1017   2.083   2.002  15.858 -0.3999 -0.2637  0.1613
   65TMC2    C8 1018   2.049   1.647  15.551 -0.0686  0.2334  0.4922
   65TMC2    O1 1019   2.084   2.068  15.753  0.3433 -0.0186  0.3612
   65TMC2    O2 1020   2.153   1.591  15.513  1.0451  0.0464  0.0319
   65TMC2    O5 1021   1.935   1.683  15.481 -0.4029 -0.4202  0.1829
   65TMC2    H5 1022   1.867   1.732  15.531  2.2985  1.1507  2.3381
   66MPD2     C 1023   2.103   1.318  16.204  0.3505 -0.2952  0.1206
   66MPD2    C1 1024   2.109   1.310  16.063  0.0810 -0.6965  0.1210
   66MPD2    C2 1025   2.117   1.188  15.998  0.4631 -0.2444  0.4764
   66MPD2    C3 1026   2.092   1.073  16.077  0.2329 -0.1816  0.1637
   66MPD2    C4 1027   2.066   1.089  16.212 -0.3411 -0.5503 -0.4639
   66MPD2    C5 1028   2.072   1.207  16.274 -0.2000 -0.7891 -0.0795
   66MPD2     H 1029   2.135   1.183  15.892 -2.3670 -1.1009  0.0094
   66MPD2    H1 1030   2.042   1.005  16.276  1.7353 -0.7075  0.1146
   66MPD2    H2 1031   2.111   1.409  16.263 -0.6333 -0.7938  1.0198
   66MPD2    H3 1032   2.051   1.207  16.380 -1.5101 -0.8233 -0.3357
   66MPD2     N 1033   2.096   0.940  16.022 -0.2967  0.0428 -0.3000
   66MPD2    H5 1034   2.073   0.861  16.082 -0.6768  0.5125  0.1719
   66MPD2    N1 1035   2.108   1.414  15.977  0.3841 -0.6931 -0.1811
   66MPD2    H7 1036   2.113   1.395  15.877 -1.8321  0.6096 -0.5415
   67TMC2    C1 1037   1.978   0.472  14.406  0.4029  0.5145 -0.0094
   67TMC2    C2 1038   1.885   0.547  14.477  0.1763  0.4214  0.4390
   67TMC2    C3 1039   1.925   0.603  14.596 -0.0802  0.2163  0.3897
   67TMC2    C4 1040   2.105   0.457  14.448  0.0273  0.1158 -0.1995
   67TMC2    C5 1041   2.137   0.511  14.570  0.3518  0.1168 -0.0290
   67TMC2    C6 1042   2.051   0.593  14.640 -0.0471 -0.0051 -0.0351
   67TMC2     C 1043   1.950   0.463  14.265 -0.3818  0.0464  0.6311
   67TMC2     O 1044   2.048   0.444  14.197  0.2417  0.0346  0.1909
   67TMC2     H 1045   1.795   0.590  14.436  0.0882  0.0621  0.2526
   67TMC2    H1 1046   2.182   0.403  14.394  0.6090 -0.8425  1.5774
   67TMC2    H2 1047   2.071   0.622  14.742  2.5740 -0.7821 -0.3198
   67TMC2    C7 1048   2.269   0.481  14.615  0.7705 -0.2188  0.3118
   67TMC2    C8 1049   1.831   0.652  14.692  0.2556  0.2976 -0.3154
   67TMC2    O1 1050   2.332   0.394  14.552 -0.0957 -0.1863  0.0516
   67TMC2    O2 1051   1.854   0.727  14.785 -0.1754  0.3409  0.1106
   67TMC2    O5 1052   1.759   0.540  14.699  0.0403 -0.2997  0.2129
   67TMC2    H5 1053   1.789   0.474  14.633 -1.1420 -0.9884  0.3570
   68MPD2     C 1054   1.840   0.551  14.007  0.5396  0.3794 -0.5035
   68MPD2    C1 1055   1.761   0.512  14.111 -0.0671 -0.0829  0.0304
   68MPD2    C2 1056   1.626   0.517  14.097  0.0497 -0.1804 -0.6187
   68MPD2    C3 1057   1.570   0.565  13.977  0.8712  0.1954 -0.7769
   68MPD2    C4 1058   1.650   0.628  13.885  0.1450 -0.1318 -0.3578
   68MPD2    C5 1059   1.785   0.607  13.898  0.5627 -0.0672 -0.6109
   68MPD2     H 1060   1.565   0.491  14.183 -3.1218  1.1501 -2.4923
   68MPD2    H1 1061   1.611   0.682  13.799  1.7299  0.3745 -0.7622
   68MPD2    H2 1062   1.948   0.540  14.011  0.2888 -2.4667 -1.8352
   68MPD2    H3 1063   1.846   0.639  13.814  1.7682 -3.0440 -0.8868
   68MPD2     N 1064   1.432   0.580  13.948 -0.1260  0.3669 -0.2608
   68MPD2    H5 1065   1.407   0.642  13.872  2.4967  0.2757 -1.1715
   68MPD2    N1 1066   1.813   0.470  14.241 -0.7998 -0.6718 -0.2888
   68MPD2    H7 1067   1.742   0.453  14.312 -0.6003 -0.5441 -0.0585
   69TMC2    C1 1068   3.852   2.257  12.756 -0.3695 -0.3776  0.3040
   69TMC2    C2 1069   3.734   2.314  12.742  0.3866  1.0569  0.3004
   69TMC2    C3 1070   3.676   2.319  12.619 -0.0870  0.2303  0.1623
   69TMC2    C4 1071   3.907   2.191  12.646 -0.7703 -0.5379 -0.0364
   69TMC2    C5 1072   3.842   2.190  12.525 -0.5840 -0.7364  0.3672
   69TMC2    C6 1073   3.722   2.252  12.511  0.3820 -0.3094 -0.4197
   69TMC2     C 1074   3.880   2.200  12.890 -0.1090  0.2462  0.8233
   69TMC2     O 1075   3.796   2.209  12.979 -0.0432  0.3522  0.2882
   69TMC2     H 1076   3.688   2.362  12.827  1.3784  0.0559  1.4002
   69TMC2    H1 1077   3.994   2.127  12.645 -0.6966 -0.4458  0.7891
   69TMC2    H2 1078   3.664   2.253  12.419  1.0637  0.2292 -0.8439
   69TMC2    C7 1079   3.903   2.121  12.413  0.2207 -0.2955  1.0536
   69TMC2    C8 1080   3.533   2.339  12.633  0.1197 -0.3610 -0.3274
   69TMC2    O1 1081   4.023   2.112  12.415  0.2037 -0.4020 -0.1947
   69TMC2    O2 1082   3.468   2.294  12.725 -0.4157 -0.1412  0.8346
   69TMC2    O5 1083   3.504   2.444  12.547  0.1286  0.2478 -0.1259
   69TMC2    H5 1084   3.578   2.477  12.492  0.1043  0.2497 -0.1572
   70MPD2     C 1085   4.195   2.032  12.952  0.5001 -0.3749 -0.1911
   70MPD2    C1 1086   4.066   2.069  12.979 -0.2038  0.5513 -0.9940
   70MPD2    C2 1087   4.000   2.011  13.081  0.6586  0.4222 -0.0453
   70MPD2    C3 1088   4.068   1.917  13.163 -0.5393  0.3012  0.7939
   70MPD2    C4 1089   4.198   1.874  13.133  0.3991  0.5014  0.0921
   70MPD2    C5 1090   4.256   1.932  13.021 -0.7072 -0.3828 -0.3097
   70MPD2     H 1091   3.895   2.033  13.098  0.2634 -0.6398 -1.0335
   70MPD2    H1 1092   4.252   1.809  13.202 -0.6991 -0.5833 -0.0744
   70MPD2    H2 1093   4.242   2.077  12.865  1.5691  0.6449  0.9293
   70MPD2    H3 1094   4.362   1.923  13.000 -0.8451 -0.4975 -0.9527
   70MPD2     N 1095   4.014   1.881  13.289  0.6189  0.0751 -0.1191
   70MPD2    H5 1096   4.071   1.817  13.342 -0.6596  1.2770  2.6729
   70MPD2    N1 1097   4.006   2.151  12.888 -0.7663  0.0802 -0.6004
   70MPD2    H7 1098   4.057   2.169  12.802 -1.9153  3.4110 -0.5596
   71TMC2    C1 1099   1.734   2.470   2.042 -0.1929 -0.4718  0.4515
   71TMC2    C2 1100   1.848   2.436   2.117 -0.3419 -0.3367 -0.1518
   71TMC2    C3 1101   1.838   2.459   2.253  0.2642 -0.6084 -0.1159
   71TMC2    C4 1102   1.623   2.526   2.092 -0.2262  0.6774 -0.0465
   71TMC2    C5 1103   1.629   2.564   2.220  0.5016 -0.8075  0.3860
   71TMC2    C6 1104   1.727   2.522   2.308 -0.7691  0.0021  0.2478
   71TMC2     C 1105   1.747   2.449   1.898 -0.4840  0.0366 -0.0869
   71TMC2     O 1106   1.846   2.402   1.855 -0.7615 -0.5298  0.4201
   71TMC2     H 1107   1.945   2.417   2.072  0.0389  0.6114  0.2605
   71TMC2    H1 1108   1.543   2.569   2.033 -1.0870 -0.6824  0.1410
   71TMC2    H2 1109   1.724   2.546   2.413  1.7836  0.6604  0.1761
   71TMC2    C7 1110   1.517   2.632   2.286  0.3642  0.0421  0.6726
   71TMC2    C8 1111   1.933   2.403   2.345 -0.3498  0.7690 -0.0203
   71TMC2    O1 1112   1.548   2.677   2.396  0.1730  0.2823 -0.1975
   71TMC2    O2 1113   1.975   2.462   2.442  1.0615  0.4223 -0.1596
   71TMC2    O5 1114   1.991   2.301   2.278 -0.1617  0.6575  0.4128
   71TMC2    H5 1115   1.919   2.252   2.232  0.5386 -2.1644  2.3017
   72MPD2     C 1116   1.588   2.463   1.420 -0.3025  0.4661  0.2650
   72MPD2    C1 1117   1.712   2.453   1.473  0.0007  0.4808  0.0911
   72MPD2    C2 1118   1.727   2.466   1.611 -0.5045 -0.2590  0.4923
   72MPD2    C3 1119   1.614   2.462   1.693 -0.3872 -0.1943  0.3646
   72MPD2    C4 1120   1.492   2.480   1.633  0.1746  0.5698 -0.3891
   72MPD2    C5 1121   1.478   2.480   1.500 -0.6888 -0.2225 -0.4342
   72MPD2     H 1122   1.826   2.468   1.655 -0.5363 -0.3186  0.5672
   72MPD2    H1 1123   1.400   2.491   1.690 -0.0166 -1.1361 -0.3503
   72MPD2    H2 1124   1.564   2.459   1.314 -1.5713 -1.4246  0.6246
   72MPD2    H3 1125   1.381   2.488   1.452 -0.3000  2.4724 -0.7437
   72MPD2     N 1126   1.625   2.470   1.830 -0.8129 -0.0174 -0.0505
   72MPD2    H5 1127   1.541   2.478   1.887 -0.4546 -0.4578  0.5481
   72MPD2    N1 1128   1.823   2.436   1.388  0.0116 -0.7054 -0.0040
   72MPD2    H7 1129   1.915   2.445   1.431  0.7268 -1.7808 -1.3313
   73TMC2    C1 1130   1.197   4.159  14.099 -0.0525 -0.6570  0.0724
   73TMC2    C2 1131   1.123   4.210  14.207  0.2762  0.0986 -0.1930
   73TMC2    C3 1132   1.145   4.165  14.328 -0.1931 -0.0682 -0.0374
   73TMC2    C4 1133   1.298   4.072  14.134  0.0507  0.2654  0.1663
   73TMC2    C5 1134   1.321   4.031  14.263  0.5992 -0.2128  0.4403
   73TMC2    C6 1135   1.248   4.078  14.368 -0.0238 -0.0242 -0.1856
   73TMC2     C 1136   1.243   4.248  13.994 -0.0455 -0.2978 -0.6303
   73TMC2     O 1137   1.367   4.253  13.987 -0.3825 -0.4784 -0.2559
   73TMC2     H 1138   1.042   4.278  14.183 -1.4575 -1.4634  1.2140
   73TMC2    H1 1139   1.372   4.035  14.063  0.2681  0.2125  0.4197
   73TMC2    H2 1140   1.257   4.030  14.464 -0.2641  1.3681  0.5419
   73TMC2    C7 1141   1.458   4.040  14.285 -0.2867  0.0087  0.0820
   73TMC2    C8 1142   1.051   4.201  14.430  0.8667  0.4050  0.1656
   73TMC2    O1 1143   1.511   3.973  14.374 -0.1573  0.2271 -0.1789
   73TMC2    O2 1144   1.007   4.114  14.507  0.4340  0.1870 -0.1332
   73TMC2    O5 1145   1.077   4.323  14.464  0.3674 -0.6870  0.4407
   73TMC2    H5 1146   1.114   4.381  14.394  1.6805 -0.7455  1.0811
   74MPD2     C 1147   1.257   4.505  13.552 -0.0982  0.7882  0.4630
   74MPD2    C1 1148   1.345   4.501  13.663  0.3626 -0.2941  0.9533
   74MPD2    C2 1149   1.317   4.426  13.780 -0.0306  0.5578 -0.2025
   74MPD2    C3 1150   1.197   4.365  13.787  0.0635  0.3439 -0.0093
   74MPD2    C4 1151   1.103   4.381  13.681 -0.3465  0.1892 -0.9206
   74MPD2    C5 1152   1.138   4.447  13.571 -0.1216  0.2098 -0.7900
   74MPD2     H 1153   1.395   4.409  13.854  0.2517 -3.6656 -1.4951
   74MPD2    H1 1154   1.008   4.329  13.688 -0.6545  1.0113  1.1271
   74MPD2    H2 1155   1.272   4.558  13.458  0.1902 -0.1151  0.0056
   74MPD2    H3 1156   1.077   4.437  13.482 -2.0825 -0.1196  0.5869
   74MPD2     N 1157   1.156   4.292  13.900  0.2685 -0.6466 -0.0187
   74MPD2    H5 1158   1.057   4.271  13.894  0.4481 -1.0661 -1.6693
   74MPD2    N1 1159   1.461   4.585  13.646  0.3341 -0.1275  0.0047
   74MPD2    H7 1160   1.472   4.636  13.559 -0.9232  2.9424  1.6470
   75TMC2    C1 1161   1.210   0.504  13.957  0.3549 -0.1458  0.5868
   75TMC2    C2 1162   1.117   0.410  14.000 -0.2370 -0.1680  0.2549
   75TMC2    C3 1163   0.996   0.414  13.935  0.0537 -0.3054  0.5568
   75TMC2    C4 1164   1.172   0.600  13.864 -0.2523 -0.3695 -0.1237
   75TMC2    C5 1165   1.041   0.601  13.815  0.1823  0.1686 -0.1537
   75TMC2    C6 1166   0.959   0.494  13.834  0.5687 -0.2040  0.5124
   75TMC2     C 1167   1.344   0.498  14.014  0.1924  0.0208 -0.2835
   75TMC2     O 1168   1.357   0.402  14.086  0.6828  0.1329 -0.3538
   75TMC2     H 1169   1.143   0.337  14.075  4.1054  1.1562  0.0422
   75TMC2    H1 1170   1.236   0.682  13.835  1.1241 -1.1486  0.7698
   75TMC2    H2 1171   0.857   0.505  13.800  0.7851  0.5090  0.0997
   75TMC2    C7 1172   1.015   0.659  13.680 -0.0819 -0.2877  0.2937
   75TMC2    C8 1173   0.911   0.304  13.986 -0.0062 -0.5351 -0.2314
   75TMC2    O1 1174   1.112   0.657  13.604  0.1955 -0.3684 -0.2332
   75TMC2    O2 1175   0.959   0.233  14.076 -0.0047  0.4188  0.2782
   75TMC2    O5 1176   0.845   0.243  13.889 -0.5415  0.0314 -0.1945
   75TMC2    H5 1177   0.821   0.290  13.806 -1.9352  0.6198  0.5410
   76TMC2    C1 1178   4.598   1.204  12.368  0.6208 -0.3060  0.5948
   76TMC2    C2 1179   4.480   1.135  12.385  0.1998  0.7988  1.0412
   76TMC2    C3 1180   4.469   1.060  12.495  0.2687  0.4378 -0.4003
   76TMC2    C4 1181   4.700   1.199  12.462 -0.1306  0.0999  0.4573
   76TMC2    C5 1182   4.684   1.118  12.564 -0.4724 -0.3916 -0.4320
   76TMC2    C6 1183   4.573   1.045  12.587  0.1952  0.6632  0.4676
   76TMC2     C 1184   4.593   1.299  12.250  0.0836  0.4961 -0.8438
   76TMC2     O 1185   4.488   1.321  12.191 -0.5969  0.6022  0.0944
   76TMC2     H 1186   4.389   1.161  12.332  0.2971  0.7443  0.8482
   76TMC2    H1 1187   0.050   1.264  12.463 -2.3100  3.0601 -2.0469
   76TMC2    H2 1188   4.575   0.965  12.661 -1.8521  0.7306  0.5963
   76TMC2    C7 1189   0.048   1.099  12.667  0.5946  0.7141 -0.6217
   76TMC2    C8 1190   4.340   0.999  12.521 -0.5246  0.2899  0.0024
   76TMC2    O1 1191   0.005   1.070  12.778 -0.4232 -0.0975  0.4984
   76TMC2    O2 1192   4.256   0.979  12.435 -0.3941 -0.2843 -0.4044
   76TMC2    O5 1193   4.335   0.950  12.649  0.6341  0.4326  0.0800
   76TMC2    H5 1194   4.415   0.980  12.698  1.4711  1.1997 -1.7756
   77MPD2     C 1195   0.097   1.663  11.991  0.2074 -0.3371 -0.4051
   77MPD2    C1 1196   4.704   1.640  12.005 -0.1919  0.3790 -0.3025
   77MPD2    C2 1197   4.655   1.533  12.084 -0.0251  0.0271 -0.6225
   77MPD2    C3 1198   0.016   1.443  12.130 -0.0262  0.6839  0.1297
   77MPD2    C4 1199   0.151   1.459  12.097 -0.4404  0.8580  0.3429
   77MPD2    C5 1200   0.196   1.571  12.032  0.0330 -0.4767 -0.3548
   77MPD2     H 1201   4.548   1.518  12.089 -0.2886  2.4783  1.5306
   77MPD2    H1 1202   0.226   1.395  12.143 -0.0981  1.1726  0.2310
   77MPD2    H2 1203   0.127   1.760  11.955 -1.6656 -0.0085 -1.1032
   77MPD2    H3 1204   0.300   1.591  12.006 -0.2547 -0.3582 -1.3921
   77MPD2     N 1205   4.720   1.340  12.221 -0.8261  0.2861  0.1561
   77MPD2    H5 1206   0.057   1.301  12.278 -0.1955  2.6077  0.9076
   77MPD2    N1 1207   4.609   1.740  11.957  0.1112  0.2713 -0.4031
   77MPD2    H7 1208   4.518   1.738  12.003  0.0487  1.3837 -0.4901
   78TMC2    C1 1209   1.597   1.838   1.091  0.0766  0.6801  0.6666
   78TMC2    C2 1210   1.555   1.855   1.222  0.3299  0.2939  0.3956
   78TMC2    C3 1211   1.652   1.871   1.316  0.1054  0.3530  0.2110
   78TMC2    C4 1212   1.732   1.848   1.054  0.0328 -0.2744 -0.5771
   78TMC2    C5 1213   1.826   1.861   1.151 -0.4541  0.0577  0.2181
   78TMC2    C6 1214   1.787   1.860   1.287  0.2478  0.3261 -0.4247
   78TMC2     C 1215   1.506   1.796   0.989  0.1132  0.0177  0.5968
   78TMC2     O 1216   1.383   1.807   1.006  0.4224 -0.0477 -0.2571
   78TMC2     H 1217   1.452   1.842   1.253  0.9712  1.3431  2.9518
   78TMC2    H1 1218   1.763   1.860   0.950  0.7302 -0.0395 -0.3419
   78TMC2    H2 1219   1.859   1.864   1.368 -0.1364  0.7860 -0.1066
   78TMC2    C7 1220   1.952   1.913   1.103 -0.4016  0.2836 -0.3606
   78TMC2    C8 1221   1.622   1.842   1.459 -0.1803  0.1621  0.0456
   78TMC2    O1 1222   2.003   1.890   0.995  0.0133 -0.3672 -0.1679
   78TMC2    O2 1223   1.699   1.805   1.543 -0.1427 -0.6328 -0.0486
   78TMC2    O5 1224   1.488   1.844   1.478  0.9641  0.0369 -0.2041
   78TMC2    H5 1225   1.436   1.901   1.418 -1.7382 -1.0404  1.0765
   79MPD1     C 1226   1.378   1.576   0.534  0.2092  1.0682  0.1153
   79MPD1    C1 1227   1.311   1.673   0.611 -0.3761  0.1906 -0.3140
   79MPD1    C2 1228   1.369   1.720   0.729  0.3891  0.3047 -0.0493
   79MPD1    C3 1229   1.501   1.685   0.763  0.1578 -0.1357 -0.2914
   79MPD1    C4 1230   1.570   1.594   0.678 -0.0703  0.4289 -0.1111
   79MPD1    C5 1231   1.509   1.542   0.566 -0.5971 -0.4303 -0.6699
   79MPD1     H 1232   1.308   1.783   0.793  0.9082  1.1114 -0.3422
   79MPD1    H1 1233   1.675   1.571   0.695 -0.0428 -0.5435 -1.5878
   79MPD1    H2 1234   1.336   1.540   0.441  0.9400  3.8144 -1.2709
   79MPD1    H3 1235   1.557   1.488   0.485  0.1224  2.0502 -1.8969
   79MPD1     N 1236   1.560   1.721   0.883 -1.1782  0.0116  0.7469
   79MPD1    H5 1237   1.657   1.690   0.892 -0.8173  0.7354 -0.5866
   79MPD1    N1 1238   1.185   1.710   0.561 -0.2842 -0.0385 -0.3090
   79MPD1    H6 1239   1.174   1.807   0.590 -1.4388 -0.5536  1.0012
   79MPD1    H7 1240   1.188   1.718   0.460 -2.1133 -0.7419 -0.4112
   80TMC2    C1 1241   3.995   1.186  12.310  0.1479 -0.0313 -0.2733
   80TMC2    C2 1242   4.056   1.209  12.192 -0.3439  0.3244  0.0404
   80TMC2    C3 1243   4.083   1.095  12.114  0.9882 -0.0576  0.0470
   80TMC2    C4 1244   3.968   1.053  12.347 -0.5598 -0.4298 -0.4065
   80TMC2    C5 1245   3.992   0.949  12.262 -0.2524  0.6423 -1.0395
   80TMC2    C6 1246   4.057   0.965  12.137  0.0568 -0.0346 -0.4580
   80TMC2     C 1247   4.042   1.265  12.421 -0.2791  0.1001 -0.9439
   80TMC2     O 1248   4.147   1.330  12.403 -0.6708  0.3094  0.5881
   80TMC2     H 1249   4.092   1.308  12.167  0.2931 -0.4227 -2.0862
   80TMC2    H1 1250   3.923   1.042  12.445  0.5679  0.0848  0.1631
   80TMC2    H2 1251   4.087   0.887  12.069 -1.7197 -0.9321 -0.2141
   80TMC2    C7 1252   3.975   0.811  12.295  1.1753  0.1339 -0.5365
   80TMC2    C8 1253   4.186   1.122  12.016 -0.3340  0.0132 -0.2083
   80TMC2    O1 1254   3.983   0.737  12.199 -0.4384  0.6089 -0.0191
   80TMC2    O2 1255   4.196   1.229  11.967  0.2500 -0.5196 -0.2362
   80TMC2    O5 1256   4.295   1.049  12.052 -0.6072  0.4354 -0.0952
   80TMC2    H5 1257   4.275   0.968  12.103 -0.6673  0.6814  0.2674
   81MPD2     C 1258   4.072   1.441  12.655 -0.3835  0.2659  0.0828
   81MPD2    C1 1259   3.956   1.372  12.618 -1.2519  0.0941 -0.7080
   81MPD2    C2 1260   3.841   1.391  12.703 -0.6999 -0.1448 -0.5193
   81MPD2    C3 1261   3.849   1.473  12.817  0.6826 -0.2966  0.2380
   81MPD2    C4 1262   3.969   1.542  12.844  0.1757 -0.3644 -0.2722
   81MPD2    C5 1263   4.077   1.519  12.770 -0.0720  0.5918  0.1288
   81MPD2     H 1264   3.742   1.355  12.679 -0.6757  0.2295 -1.1935
   81MPD2    H1 1265   3.982   1.599  12.935 -1.2524  1.1004 -0.9873
   81MPD2    H2 1266   4.168   1.425  12.607 -2.1982 -2.4638 -2.6487
   81MPD2    H3 1267   4.170   1.569  12.794  0.8871 -1.4636  0.6758
   81MPD2     N 1268   3.737   1.491  12.905  0.3387  0.0821 -0.1602
   81MPD2    H5 1269   3.766   1.542  12.988  0.0968  0.8757 -0.5682
   81MPD2    N1 1270   3.946   1.289  12.507 -0.3284  0.3501 -0.1316
   81MPD2    H7 1271   3.856   1.242  12.497 -0.0989 -0.1104 -0.0531
   82TMC2    C1 1272   2.509   0.039  11.000 -0.3146  0.4543 -0.3778
   82TMC2    C2 1273   2.549   0.058  11.131  0.3344 -0.6069  0.1666
   82TMC2    C3 1274   2.644   4.709  11.182 -0.7627  0.6177 -0.7025
   82TMC2    C4 1275   2.546   4.671  10.923 -0.1492 -0.0076 -0.3299
   82TMC2    C5 1276   2.640   4.591  10.976  0.5098  0.6372  0.9384
   82TMC2    C6 1277   2.694   4.613  11.100 -0.4794 -0.1230  0.0671
   82TMC2     C 1278   2.388   0.122  10.961 -0.7631  0.1543  0.7027
   82TMC2     O 1279   2.332   0.073  10.869 -0.2838 -0.1276  0.5272
   82TMC2     H 1280   2.505   0.126  11.202 -1.8873 -1.3092 -0.5603
   82TMC2    H1 1281   2.503   4.647  10.826 -1.0409 -1.2440  0.3759
   82TMC2    H2 1282   2.775   4.551  11.136  1.1040  1.1021 -1.4006
   82TMC2    C7 1283   2.589   4.464  10.997  0.9136  0.4732  0.2498
   82TMC2    C8 1284   2.652   4.689  11.324 -0.3968  0.0487  0.1022
   82TMC2    O1 1285   2.609   4.416  11.106 -0.5022 -0.0592 -0.8581
   82TMC2    O2 1286   2.633   0.039  11.409 -0.4569  0.5638 -0.7156
   82TMC2    O5 1287   2.642   4.551  11.339 -0.7515  0.1012 -0.2576
   82TMC2    H5 1288   2.634   4.496  11.258 -1.4938  0.8164 -0.6749
   83MPD2     C 1289   2.061   0.505  10.997  0.3986 -0.5328  0.7689
   83MPD2    C1 1290   2.054   0.392  10.924  0.4708 -0.3871 -0.5926
   83MPD2    C2 1291   2.161   0.298  10.921  0.2934 -0.0769  0.0224
   83MPD2    C3 1292   2.257   0.319  11.018  0.2835 -0.5877  0.1163
   83MPD2    C4 1293   2.259   0.433  11.102 -0.7562  0.3172 -0.4336
   83MPD2    C5 1294   2.157   0.526  11.079  0.0663 -0.6374 -0.3858
   83MPD2     H 1295   2.157   0.208  10.861 -2.0564  0.9264 -1.3240
   83MPD2    H1 1296   2.332   0.450  11.180 -0.9525 -0.6241 -0.0502
   83MPD2    H2 1297   1.980   0.577  10.997  0.6872 -0.2197  2.2889
   83MPD2    H3 1298   2.151   0.615  11.140 -1.1939 -2.0846  1.6149
   83MPD2     N 1299   2.361   0.228  11.041  0.1273  0.1339 -0.0555
   83MPD2    H5 1300   2.427   0.248  11.116  1.5611 -0.1417 -1.2503
   83MPD2    N1 1301   1.938   0.373  10.856  0.1254 -0.0667 -0.3143
   83MPD2    H7 1302   1.874   0.452  10.851 -0.2868 -0.4415 -1.0029
   84TMC2    C1 1303   2.994   4.046  11.105 -0.3722 -0.0059 -0.3137
   84TMC2    C2 1304   2.906   3.977  11.176 -0.1352 -0.2643  0.4783
   84TMC2    C3 1305   2.884   3.842  11.152 -0.0396  0.5100 -0.4474
   84TMC2    C4 1306   3.068   3.991  11.008  0.1332 -0.5213 -0.3020
   84TMC2    C5 1307   3.060   3.851  10.999  0.0658  0.7080  0.1265
   84TMC2    C6 1308   2.964   3.778  11.065  0.0310  0.2068  0.0436
   84TMC2     C 1309   3.006   4.184  11.132 -0.5484 -0.3924  0.0547
   84TMC2     O 1310   2.971   4.236  11.238  0.0957  0.2201  0.4698
   84TMC2     H 1311   2.847   4.042  11.239 -1.6738 -0.5649 -0.6301
   84TMC2    H1 1312   3.148   4.040  10.954 -1.7465  0.6917 -2.0055
   84TMC2    H2 1313   2.928   3.684  11.025  0.7735 -0.6799  1.4611
   84TMC2    C7 1314   3.125   3.773  10.894 -0.4756 -0.3254  0.1031
   84TMC2    C8 1315   2.763   3.779  11.191  0.1388  0.5214 -0.1670
   84TMC2    O1 1316   3.127   3.654  10.918 -0.0717 -0.2042  0.5776
   84TMC2    O2 1317   2.720   3.703  11.108 -0.3114 -0.2435 -0.2980
   84TMC2    O5 1318   2.689   3.867  11.269  0.3225  0.5244  0.0960
   84TMC2    H5 1319   2.750   3.883  11.344  0.6907 -0.2555 -0.0341
   85TMC2    C1 1320   4.301   2.766  16.130  0.3738  0.0839 -0.2090
   85TMC2    C2 1321   4.187   2.846  16.132 -0.1440 -0.0241  0.4070
   85TMC2    C3 1322   4.199   2.975  16.082 -0.5206  0.7182  0.2194
   85TMC2    C4 1323   4.422   2.808  16.076 -0.1911 -0.8987  0.6310
   85TMC2    C5 1324   4.424   2.933  16.027 -0.4005 -0.1223  0.1280
   85TMC2    C6 1325   4.316   3.017  16.034  0.2629  0.1222 -0.5701
   85TMC2     C 1326   4.287   2.630  16.170  0.1428  0.3064 -0.5561
   85TMC2     O 1327   4.172   2.588  16.179  0.0154  0.0671  0.4057
   85TMC2     H 1328   4.094   2.798  16.161 -0.9506  0.6345 -1.1057
   85TMC2    H1 1329   4.493   2.733  16.042  0.5850  0.4989 -0.8342
   85TMC2    H2 1330   4.332   3.123  16.013  0.4312  0.5267  1.5425
   85TMC2    C7 1331   4.544   2.966  15.956 -0.2910  0.3091  0.3934
   85TMC2    C8 1332   4.094   3.069  16.108  0.0296  0.3161  0.2228
   85TMC2    O1 1333   4.642   2.898  15.988 -0.4890  0.4549  0.4651
   85TMC2    O2 1334   4.107   3.188  16.067  0.3689  0.1109 -0.4643
   85TMC2    O5 1335   4.039   3.049  16.227  0.0576  0.0342 -0.3715
   85TMC2    H5 1336   4.034   2.957  16.260 -3.6636 -0.9665 -3.6609
   86MPD2     C 1337   4.410   2.180  16.338 -0.4563 -0.5679  0.0407
   86MPD2    C1 1338   4.328   2.210  16.233 -0.5404 -0.1206  0.3123
   86MPD2    C2 1339   4.320   2.342  16.194 -0.3618  0.0746 -0.1655
   86MPD2    C3 1340   4.407   2.429  16.252  0.2376 -0.0014  0.1803
   86MPD2    C4 1341   4.515   2.394  16.337  0.0530 -0.1784  0.1986
   86MPD2    C5 1342   4.510   2.270  16.385  0.1854 -0.3147 -0.2474
   86MPD2     H 1343   4.252   2.369  16.113 -0.1480 -1.6082 -0.9028
   86MPD2    H1 1344   4.586   2.463  16.380  1.1796  0.6290 -2.9554
   86MPD2    H2 1345   4.413   2.079  16.378  0.9634 -1.1088 -1.4258
   86MPD2    H3 1346   4.575   2.229  16.461  1.4853  0.4474 -0.9590
   86MPD2     N 1347   4.399   2.568  16.218  0.3064  0.4149 -0.4835
   86MPD2    H5 1348   4.480   2.624  16.243  1.1119 -0.9909  0.0656
   86MPD2    N1 1349   4.224   2.121  16.187 -0.3716 -0.3472  0.4945
   86MPD2    H7 1350   4.188   2.141  16.094 -1.1767 -0.6274  0.7472
   87TMC2    C1 1351   1.287   0.665   1.022 -0.3916 -0.2311  0.0074
   87TMC2    C2 1352   1.191   0.593   0.957  0.0827 -0.1547 -0.3994
   87TMC2    C3 1353   1.088   0.666   0.897  0.1965 -0.0736 -0.4635
   87TMC2    C4 1354   1.294   0.801   1.023 -0.2480 -0.4551 -0.7731
   87TMC2    C5 1355   1.190   0.858   0.961 -0.0385 -0.2582  0.9218
   87TMC2    C6 1356   1.080   0.800   0.900  0.3345  0.0718 -0.5760
   87TMC2     C 1357   1.406   0.597   1.053  0.1191 -0.8271 -0.3520
   87TMC2     O 1358   1.503   0.673   1.058  0.2659 -0.8714 -0.6482
   87TMC2     H 1359   1.187   0.485   0.947  0.3388 -0.0612 -1.4922
   87TMC2    H1 1360   1.349   0.857   1.098 -1.4904 -0.7492  0.3612
   87TMC2    H2 1361   1.001   0.855   0.850  0.1496 -0.2383 -0.6212
   87TMC2    C7 1362   1.174   1.003   0.967 -0.3514 -0.3215 -0.7076
   87TMC2    C8 1363   0.966   0.608   0.835 -0.2560 -0.5936  0.5342
   87TMC2    O1 1364   1.066   1.045   0.931  0.0296 -0.2542  0.0998
   87TMC2    O2 1365   0.863   0.655   0.883  0.5017 -0.2251 -0.3619
   87TMC2    O5 1366   0.996   0.479   0.808 -0.2515  0.1216  0.0274
   87TMC2    H5 1367   1.091   0.479   0.780 -0.4970 -3.0420 -0.7512
   88MPD2     C 1368   1.421   1.258   1.017 -0.4141 -0.3163  0.2130
   88MPD2    C1 1369   1.293   1.213   0.998 -0.3616  0.1298  0.2526
   88MPD2    C2 1370   1.191   1.310   0.999  0.3234 -0.0573 -0.6198
   88MPD2    C3 1371   1.220   1.443   1.006  0.4808  0.5221  0.3088
   88MPD2    C4 1372   1.343   1.482   1.035 -0.1869  0.5325 -0.5402
   88MPD2    C5 1373   1.441   1.392   1.033  0.2541  0.3033 -0.5763
   88MPD2     H 1374   1.091   1.270   0.990  0.1740  0.4400 -1.1448
   88MPD2    H1 1375   1.363   1.588   1.049 -1.4519  0.2755  3.3526
   88MPD2    H2 1376   1.509   1.195   1.021  1.0597  1.8360  1.1849
   88MPD2    H3 1377   1.541   1.432   1.045  0.4082  0.1342 -1.3069
   88MPD2     N 1378   1.119   1.548   0.996  0.1789  0.2013 -0.2748
   88MPD2    H5 1379   1.156   1.643   1.006  1.2784 -0.4411  1.7984
   88MPD2    N1 1380   1.285   1.072   0.995 -1.0573 -0.5611  0.5709
   88MPD2    H7 1381   1.372   1.032   1.028 -0.3562 -0.2213 -0.8831
   89TMC2    C1 1382   2.661   0.095   1.747 -0.2582  0.5731  0.1554
   89TMC2    C2 1383   2.608   0.079   1.878 -0.2623  0.0592 -0.7906
   89TMC2    C3 1384   2.628   0.183   1.959 -0.0903  0.1969 -0.0073
   89TMC2    C4 1385   2.741   0.201   1.704  0.2795  0.1345  0.4924
   89TMC2    C5 1386   2.741   0.305   1.794 -0.3551  0.1954 -0.2352
   89TMC2    C6 1387   2.692   0.299   1.925 -0.0412  0.1061 -0.8069
   89TMC2     C 1388   2.634   4.726   1.653  0.5523 -0.4031 -0.4717
   89TMC2     O 1389   2.719   4.701   1.565  0.1575 -0.1619 -0.4474
   89TMC2     H 1390   2.538   0.002   1.910 -2.0570  2.0991  0.1257
   89TMC2    H1 1391   2.754   0.225   1.599 -0.6490  2.6182  0.9442
   89TMC2    H2 1392   2.689   0.389   1.985  1.4336  0.2504 -0.9513
   89TMC2    C7 1393   2.791   0.430   1.750 -0.5387 -0.0861 -0.4295
   89TMC2    C8 1394   2.526   0.194   2.058 -0.7552  0.5461  0.2513
   89TMC2    O1 1395   2.750   0.531   1.806 -0.1043 -0.3960 -0.2354
   89TMC2    O2 1396   2.407   0.178   2.027 -0.0241  0.6969 -0.6216
   89TMC2    O5 1397   2.576   0.242   2.178 -0.8613  0.2465 -0.2261
   89TMC2    H5 1398   2.671   0.221   2.164 -0.6116 -0.8400  3.1278
   90MPD2     C 1399   2.423   4.254   1.580  1.3797 -0.0206  0.0241
   90MPD2    C1 1400   2.391   4.300   1.700  0.6307 -0.4086  0.0197
   90MPD2    C2 1401   2.430   4.425   1.735 -0.4593  0.1937  0.8069
   90MPD2    C3 1402   2.509   4.509   1.659  0.3684 -0.4437  0.4015
   90MPD2    C4 1403   2.551   4.457   1.539 -0.1977 -0.1169 -0.1822
   90MPD2    C5 1404   2.507   4.334   1.506  0.0196 -0.2077  0.4440
   90MPD2     H 1405   2.392   4.465   1.828 -2.3681  0.7566 -0.2235
   90MPD2    H1 1406   2.625   4.503   1.475 -0.9470 -1.0673 -1.7503
   90MPD2    H2 1407   2.385   4.159   1.546  1.0640  0.2676 -0.4328
   90MPD2    H3 1408   2.528   4.305   1.403  0.8368 -0.0031  0.5548
   90MPD2     N 1409   2.537   4.641   1.709  0.2401  0.2954  0.1050
   90MPD2    H5 1410   2.468   4.677   1.775 -0.6948  2.1968 -1.8995
   90MPD2    N1 1411   2.321   4.221   1.796 -0.8042 -0.0282  0.2386
   90MPD2    H7 1412   2.305   4.256   1.890  5.1747 -0.5791  1.4704
   91TMC2    C1 1413   3.918   3.364  16.718 -0.1411  0.1690  0.1404
   91TMC2    C2 1414   3.955   3.321  16.847 -0.1346  0.1105  0.1121
   91TMC2    C3 1415   3.856   3.301  16.942 -0.6287 -0.0837  0.0472
   91TMC2    C4 1416   3.785   3.361  16.690  0.2259  0.0848 -0.1044
   91TMC2    C5 1417   3.690   3.324  16.783 -0.3697  0.1470 -0.2095
   91TMC2    C6 1418   3.726   3.290  16.912  0.3938  0.2305 -0.7500
   91TMC2     C 1419   4.010   3.387  16.613  0.1790  0.0717  0.1293
   91TMC2     O 1420   3.960   3.388  16.502 -0.4014  0.0885  0.8265
   91TMC2     H 1421   4.059   3.322  16.878  0.6092 -1.7005 -2.2489
   91TMC2    H1 1422   3.757   3.390  16.589  2.5028  1.2141 -0.4221
   91TMC2    H2 1423   3.653   3.266  16.989  1.5147 -1.2343 -0.1358
   91TMC2    C7 1424   3.575   3.247  16.733  0.9196  0.1986 -0.6880
   91TMC2    C8 1425   3.881   3.333  17.076  0.5072  0.0054  0.0928
   91TMC2    O1 1426   3.536   3.152  16.798 -0.1541  0.2489  0.2605
   91TMC2    O2 1427   3.805   3.307  17.164  0.5203  0.4074 -0.2294
   91TMC2    O5 1428   3.973   3.435  17.077  0.2676 -0.4524  0.2144
   91TMC2    H5 1429   3.996   3.461  16.986  0.3834 -0.4009  0.2576
   92MPD2     C 1430   4.248   3.367  16.425  0.4185  0.2648 -0.1433
   92MPD2    C1 1431   4.255   3.389  16.556 -0.2577  0.0486  0.4573
   92MPD2    C2 1432   4.383   3.410  16.611  0.2171 -0.1283 -0.6475
   92MPD2    C3 1433   4.497   3.383  16.538 -0.8581 -0.4146  1.1333
   92MPD2    C4 1434   4.486   3.341  16.407  0.0903 -0.0330  0.6717
   92MPD2    C5 1435   4.366   3.346  16.349  0.3524 -0.3319 -0.1159
   92MPD2     H 1436   4.390   3.414  16.719 -0.1240  1.2936 -0.6778
   92MPD2    H1 1437   4.577   3.335  16.349  1.0213 -1.2507  2.2636
   92MPD2    H2 1438   4.155   3.344  16.374 -0.0094 -1.1114  1.2754
   92MPD2    H3 1439   4.353   3.326  16.244 -0.3069  0.7683 -0.2411
   92MPD2     N 1440   4.627   3.392  16.596 -0.1224  0.2700 -0.3313
   92MPD2    H5 1441   4.631   3.435  16.688  1.5785 -2.5041  0.8828
   92MPD2    N1 1442   4.143   3.389  16.649  0.7088 -0.0831 -0.1783
   92MPD2    H7 1443   4.169   3.398  16.747 -0.7770 -1.0935  0.3097
   93TMC2    C1 1444   1.848   3.844  14.137  0.1855 -0.2978  0.3844
   93TMC2    C2 1445   1.813   3.828  14.269  0.0027 -0.0941 -0.2045
   93TMC2    C3 1446   1.915   3.841  14.358  0.9621  0.5944 -0.1379
   93TMC2    C4 1447   1.974   3.857  14.097 -0.7151  0.0443 -0.2104
   93TMC2    C5 1448   2.078   3.857  14.189 -0.0001  0.7467 -0.3943
   93TMC2    C6 1449   2.045   3.859  14.325 -0.1841  0.9075 -0.8067
   93TMC2     C 1450   1.746   3.838  14.036  0.7525  0.2306  0.2448
   93TMC2     O 1451   1.771   3.899  13.932  0.1618 -0.1280 -0.2547
   93TMC2     H 1452   1.706   3.828  14.291 -0.1764  1.1548 -1.0793
   93TMC2    H1 1453   1.984   3.852  13.989  0.2160  1.6519 -0.1954
   93TMC2    H2 1454   2.124   3.874  14.397 -0.6089  1.0587 -0.3781
   93TMC2    C7 1455   2.216   3.873  14.150 -0.1878  0.6625  0.1502
   93TMC2    C8 1456   1.886   3.826  14.503  0.4229 -0.7134 -0.6683
   93TMC2    O1 1457   2.295   3.860  14.239  0.1248  0.5533 -0.2419
   93TMC2    O2 1458   1.966   3.833  14.593  0.2680 -0.0070 -0.3950
   93TMC2    O5 1459   1.792   3.732  14.495 -0.5685  0.2106 -0.0904
   93TMC2    H5 1460   1.782   3.675  14.575  0.3812 -1.5238 -1.2030
   94MPD2     C 1461   1.497   3.813  13.869 -0.3254  0.5576  0.3399
   94MPD2    C1 1462   1.521   3.734  13.984 -0.0514  0.9460  0.9081
   94MPD2    C2 1463   1.430   3.633  14.014  0.1218  0.6085 -0.1857
   94MPD2    C3 1464   1.321   3.621  13.935  0.5404  0.4321 -0.2353
   94MPD2    C4 1465   1.294   3.704  13.831  0.6818  0.3062  0.0012
   94MPD2    C5 1466   1.390   3.789  13.786 -0.4765  0.6954 -0.3022
   94MPD2     H 1467   1.430   3.576  14.106 -0.8718 -2.6228 -2.1951
   94MPD2    H1 1468   1.201   3.703  13.776 -0.8683 -0.4423  2.6915
   94MPD2    H2 1469   1.559   3.899  13.844  1.6227 -0.6857  0.8795
   94MPD2    H3 1470   1.367   3.855  13.703 -1.7489  1.0687  0.3500
   94MPD2     N 1471   1.214   3.530  13.965 -0.5378 -0.6531 -0.5841
   94MPD2    H5 1472   1.147   3.515  13.891 -1.5910 -1.7259  0.5919
   94MPD2    N1 1473   1.637   3.757  14.068 -0.9953 -0.1372  0.5895
   94MPD2    H7 1474   1.653   3.701  14.151  0.5626  0.7363  0.8846
   95TMC2    C1 1475   1.536   0.158  16.343 -0.1441  0.3792 -0.0727
   95TMC2    C2 1476   1.522   0.025  16.365  0.7602  0.4607 -0.2042
   95TMC2    C3 1477   1.471   4.721  16.484 -0.5146  0.0472  0.5191
   95TMC2    C4 1478   1.513   0.249  16.440 -0.7869  0.2568  0.5453
   95TMC2    C5 1479   1.468   0.210  16.563 -0.4313  0.1879 -0.2770
   95TMC2    C6 1480   1.451   0.076  16.592 -0.5267 -0.0393  0.3267
   95TMC2     C 1481   1.618   0.206  16.231 -0.4040  0.5358  0.0617
   95TMC2     O 1482   1.646   0.327  16.221 -0.1105 -0.6653 -0.1068
   95TMC2     H 1483   1.581   4.693  16.306  1.2633 -1.4638  2.5298
   95TMC2    H1 1484   1.535   0.354  16.425 -0.5570 -0.0804 -1.5436
   95TMC2    H2 1485   1.448   0.027  16.689  0.2286  0.1014  0.4211
   95TMC2    C7 1486   1.473   0.304  16.673  0.6719 -0.3535  0.1331
   95TMC2    C8 1487   1.495   4.579  16.514  0.5142 -0.1635  0.5071
   95TMC2    O1 1488   1.548   0.404  16.666  0.6691 -0.0786 -0.2954
   95TMC2    O2 1489   1.590   4.525  16.463  0.2017  0.1502 -0.2478
   95TMC2    O5 1490   1.408   4.537  16.611 -0.4233 -0.5213  0.0703
   95TMC2    H5 1491   1.338   4.603  16.628 -0.3971 -0.8999  1.6383
   96MPD2     C 1492   1.839   0.155  15.777 -0.1396 -0.3860 -0.3617
   96MPD2    C1 1493   1.852   0.257  15.868 -0.1283 -0.3409  0.3208
   96MPD2    C2 1494   1.776   0.244  15.981 -0.6587 -0.0335 -0.4983
   96MPD2    C3 1495   1.694   0.129  16.009  0.2589 -1.2938  0.5551
   96MPD2    C4 1496   1.674   0.044  15.911  0.0487 -0.0367 -0.5014
   96MPD2    C5 1497   1.745   0.060  15.796 -0.3013 -0.0876 -0.8272
   96MPD2     H 1498   1.785   0.325  16.052  2.3204 -1.5701  0.8894
   96MPD2    H1 1499   1.598   4.705  15.914  0.8906 -0.9180 -1.6661
   96MPD2    H2 1500   1.903   0.153  15.690 -0.8957  0.8065 -0.9293
   96MPD2    H3 1501   1.725   4.726  15.717 -3.2110 -1.3396  1.0679
   96MPD2     N 1502   1.625   0.113  16.131  0.5365 -0.0267 -0.4179
   96MPD2    H5 1503   1.557   0.038  16.142  1.1557 -0.3264  1.3620
   96MPD2    N1 1504   1.943   0.361  15.839 -0.7540 -0.2178 -0.4019
   96MPD2    H7 1505   2.016   0.337  15.773  0.0258 -1.0591  0.7654
   97TMC2    C1 1506   3.528   3.293   0.181  0.3871  0.3019  0.1026
   97TMC2    C2 1507   3.398   3.265   0.200 -0.5028 -0.2924 -0.0454
   97TMC2    C3 1508   3.326   3.358   0.266 -0.3485 -0.0567  0.1269
   97TMC2    C4 1509   3.591   3.402   0.218  0.3537 -0.8555  0.7170
   97TMC2    C5 1510   3.512   3.499   0.273 -0.2141  0.0061  0.4391
   97TMC2    C6 1511   3.378   3.482   0.297 -0.0169 -0.5331  0.7807
   97TMC2     C 1512   3.597   3.168   0.196  0.3736 -0.4910  0.4080
   97TMC2     O 1513   3.534   3.079   0.245  0.5247 -0.1680  0.1693
   97TMC2     H 1514   3.359   3.178   0.149  0.5948 -2.2059  2.3999
   97TMC2    H1 1515   3.691   3.428   0.185 -0.3930  1.9529  0.7179
   97TMC2    H2 1516   3.318   3.557   0.348  0.5397 -0.1862  0.9296
   97TMC2    C7 1517   3.583   3.620   0.323  0.7223  0.3162 -0.0542
   97TMC2    C8 1518   3.184   3.352   0.254  0.3828 -0.8443 -0.3604
   97TMC2    O1 1519   3.700   3.606   0.346  0.3344  0.2476 -0.0454
   97TMC2    O2 1520   3.130   3.306   0.153 -0.2349 -0.5057 -0.2903
   97TMC2    O5 1521   3.117   3.417   0.352 -0.1646 -0.5417 -0.3811
   97TMC2    H5 1522   3.173   3.422   0.432 -0.3937  0.8561 -0.3064
   98MPD2     C 1523   4.030   2.885   0.235  0.1893  0.7488  0.0656
   98MPD2    C1 1524   3.908   2.866   0.293  0.6689 -0.0163 -0.0161
   98MPD2    C2 1525   3.807   2.958   0.258 -0.6778  0.2858  0.0626
   98MPD2    C3 1526   3.835   3.071   0.177  0.3679  0.5001  0.2344
   98MPD2    C4 1527   3.963   3.093   0.141 -0.0746  0.5443  0.5824
   98MPD2    C5 1528   4.057   2.993   0.159  0.4000  0.3119 -0.2684
   98MPD2     H 1529   3.711   2.942   0.307 -0.5325  1.4730  0.7539
   98MPD2    H1 1530   3.985   3.180   0.081  2.4464 -0.4558  0.0378
   98MPD2    H2 1531   4.108   2.810   0.242 -1.4559 -0.8903  0.7180
   98MPD2    H3 1532   4.148   3.014   0.104  0.4081 -0.5816 -0.5911
   98MPD2     N 1533   3.732   3.177   0.157 -0.6175 -0.4048  0.3631
   98MPD2    H5 1534   3.757   3.257   0.101  0.9604 -1.7553 -0.8815
   98MPD2    N1 1535   3.887   2.779   0.399  0.4509 -0.4809 -0.0403
   98MPD2    H7 1536   3.794   2.774   0.438 -0.1621  1.4600 -1.2489
   99TMC2    C1 1537   2.296   0.410   1.752 -0.4004  0.1343  0.2854
   99TMC2    C2 1538   2.354   0.450   1.870 -0.4615 -0.5059 -0.4363
   99TMC2    C3 1539   2.292   0.554   1.930 -0.9175 -0.5843 -0.1504
   99TMC2    C4 1540   2.174   0.457   1.714 -0.1374 -0.2018  0.0458
   99TMC2    C5 1541   2.110   0.548   1.795  0.4972 -0.0396 -0.4930
   99TMC2    C6 1542   2.166   0.598   1.904  0.0272 -0.0969 -0.8623
   99TMC2     C 1543   2.384   0.347   1.654 -0.1641 -0.4256  0.1926
   99TMC2     O 1544   2.501   0.390   1.649  0.1206 -0.1410 -0.0056
   99TMC2     H 1545   2.451   0.413   1.901  0.4921  2.5910  0.2199
   99TMC2    H1 1546   2.135   0.433   1.616  0.6122 -1.7498  0.1178
   99TMC2    H2 1547   2.118   0.669   1.971  0.1137  1.0960 -2.0562
   99TMC2    C7 1548   1.974   0.588   1.773  0.2420 -0.2263  0.9528
   99TMC2    C8 1549   2.353   0.610   2.052  0.1681  0.3429 -0.8082
   99TMC2    O1 1550   1.924   0.680   1.831 -0.5555  0.6384  0.3043
   99TMC2    O2 1551   2.475   0.602   2.054 -0.3725  0.3253 -0.4532
   99TMC2    O5 1552   2.265   0.582   2.147  0.6130  0.4667 -0.3602
   99TMC2    H5 1553   2.173   0.560   2.123  1.1548 -0.8424 -1.2480
  100MPD2     C 1554   2.512   0.198   1.430 -0.7209  0.9019  0.4607
  100MPD2    C1 1555   2.378   0.185   1.467 -0.2489  0.0817 -0.4750
  100MPD2    C2 1556   2.300   0.096   1.399 -0.1655 -0.3615  0.1001
  100MPD2    C3 1557   2.341   0.036   1.281  0.7709  0.4935  0.0367
  100MPD2    C4 1558   2.479   0.041   1.247  0.3210  0.4196  0.2224
  100MPD2    C5 1559   2.556   0.128   1.320  0.4770  0.4373 -0.0324
  100MPD2     H 1560   2.195   0.093   1.424 -0.5299 -0.3426 -1.4514
  100MPD2    H1 1561   2.518   4.713   1.171 -1.6807  0.3226 -0.7333
  100MPD2    H2 1562   2.577   0.271   1.478 -0.1110  0.6433  0.0341
  100MPD2    H3 1563   2.661   0.120   1.295  0.3233  0.6117 -0.7364
  100MPD2     N 1564   2.252   4.690   1.205  0.2319  0.1810 -0.3530
  100MPD2    H5 1565   2.154   4.697   1.229  0.5713  3.7011  0.0497
  100MPD2    N1 1566   2.318   0.247   1.574  0.5204 -0.0003 -0.5343
  100MPD2    H7 1567   2.221   0.224   1.589  0.2427 -0.2071 -2.6984
  101TMC2    C1 1568   2.758   1.172  13.469 -0.2093 -0.0191 -0.3125
  101TMC2    C2 1569   2.690   1.249  13.554  0.1749  0.3178  0.3277
  101TMC2    C3 1570   2.706   1.389  13.543  0.0660  1.2741  0.1881
  101TMC2    C4 1571   2.843   1.223  13.371  0.0023 -0.1968  0.7692
  101TMC2    C5 1572   2.848   1.359  13.354 -0.0828  1.0667  0.2515
  101TMC2    C6 1573   2.789   1.439  13.448  0.2656  0.3269 -0.3466
  101TMC2     C 1574   2.760   1.032  13.501  0.1744 -0.0047 -0.0146
  101TMC2     O 1575   2.733   1.014  13.619  0.2732 -0.3976 -0.1985
  101TMC2     H 1576   2.621   1.199  13.622  0.9907 -0.4333  0.6066
  101TMC2    H1 1577   2.905   1.151  13.320 -0.6180 -0.2234  0.0466
  101TMC2    H2 1578   2.805   1.546  13.437  0.7110  0.3501  0.5011
  101TMC2    C7 1579   2.907   1.418  13.237  0.1885  0.3830 -0.2595
  101TMC2    C8 1580   2.613   1.477  13.603  0.7360 -0.2396  0.2973
  101TMC2    O1 1581   2.938   1.536  13.243 -0.6537  0.3682 -0.2721
  101TMC2    O2 1582   2.583   1.586  13.557 -0.9094  0.0037 -0.7079
  101TMC2    O5 1583   2.593   1.432  13.728 -0.0651 -0.4088 -0.1285
  101TMC2    H5 1584   2.645   1.350  13.738 -1.0716 -0.5725  3.5756
  102MPD2     C 1585   2.725   0.758  13.260 -0.3726 -0.0382  0.0168
  102MPD2    C1 1586   2.728   0.816  13.384 -0.2078  0.8790  0.0115
  102MPD2    C2 1587   2.678   0.746  13.493  0.0343  0.6219 -0.3609
  102MPD2    C3 1588   2.640   0.618  13.483  0.7008 -0.7209 -0.7081
  102MPD2    C4 1589   2.653   0.564  13.362 -0.2029  0.8541  0.4972
  102MPD2    C5 1590   2.694   0.630  13.251  0.0695 -0.0507 -0.0013
  102MPD2     H 1591   2.657   0.798  13.586  3.1404  0.7007  0.2958
  102MPD2    H1 1592   2.638   0.459  13.341 -0.6700  0.5893  2.1250
  102MPD2    H2 1593   2.760   0.814  13.174  0.0841  1.2696  1.0575
  102MPD2    H3 1594   2.704   0.583  13.154 -2.5199  0.4419 -0.4891
  102MPD2     N 1595   2.573   0.556  13.592 -0.3032 -0.6175  0.7776
  102MPD2    H5 1596   2.568   0.618  13.672 -0.6037 -1.5343  1.4706
  102MPD2    N1 1597   2.764   0.957  13.390 -0.0496  0.0291  1.1056
  102MPD2    H7 1598   2.776   0.998  13.298 -1.0319  0.0450  0.9842
  103TMC2    C1 1599   0.794   1.345  12.490  0.4707 -0.1770  0.5311
  103TMC2    C2 1600   0.815   1.396  12.370  0.0324  0.0109  0.4172
  103TMC2    C3 1601   0.909   1.490  12.350  0.5421  0.2841  0.3212
  103TMC2    C4 1602   0.872   1.380  12.597  0.3621  0.3440  0.7475
  103TMC2    C5 1603   0.964   1.477  12.577 -0.4348  0.4349 -0.2137
  103TMC2    C6 1604   0.990   1.529  12.450  0.6534  0.2666  0.2441
  103TMC2     C 1605   0.664   1.278  12.516 -0.4352 -0.6260 -0.5498
  103TMC2     O 1606   0.578   1.285  12.429  0.1594 -0.3099 -0.2609
  103TMC2     H 1607   0.741   1.391  12.290  1.0790 -0.3051 -0.5280
  103TMC2    H1 1608   0.859   1.358  12.702 -0.1366  1.5495  0.9438
  103TMC2    H2 1609   1.059   1.611  12.438 -0.0793  1.1783  2.1819
  103TMC2    C7 1610   1.010   1.550  12.694 -0.0009  0.0275 -0.1864
  103TMC2    C8 1611   0.912   1.572  12.228 -0.5409  0.6965  0.0349
  103TMC2    O1 1612   0.950   1.545  12.798 -0.7507  0.2286 -0.0238
  103TMC2    O2 1613   0.835   1.562  12.140  0.0610 -0.1370  0.6223
  103TMC2    O5 1614   1.046   1.589  12.206  0.1091 -0.3555  0.2750
  103TMC2    H5 1615   1.110   1.574  12.279  2.1561 -0.0824 -1.4652
  104MPD2     C 1616   0.535   1.134  12.820 -0.7554 -0.1640  0.0946
  104MPD2    C1 1617   0.533   1.178  12.694 -0.5810 -0.5373 -0.5292
  104MPD2    C2 1618   0.409   1.171  12.632 -0.2647  0.6194 -0.3341
  104MPD2    C3 1619   0.290   1.122  12.690  0.0230  0.0274 -0.3260
  104MPD2    C4 1620   0.295   1.079  12.825 -0.3165 -0.0859 -0.4322
  104MPD2    C5 1621   0.421   1.088  12.886  0.3708 -0.5459 -0.0713
  104MPD2     H 1622   0.388   1.224  12.540 -0.5845 -1.6455 -1.5514
  104MPD2    H1 1623   0.213   1.032  12.878 -0.2290 -0.2307 -0.4241
  104MPD2    H2 1624   0.626   1.150  12.876 -1.3261 -2.4180  1.6443
  104MPD2    H3 1625   0.418   1.053  12.989 -1.0368 -3.3230 -1.0296
  104MPD2     N 1626   0.169   1.135  12.622 -0.5304  0.7007  0.2315
  104MPD2    H5 1627   0.174   1.163  12.525  3.0090  0.6192  0.3818
  104MPD2    N1 1628   0.654   1.225  12.646  0.0110 -0.0970  0.2045
  104MPD2    H7 1629   0.736   1.221  12.707 -0.3530  0.5771  0.7379
  105TMC2    C1 1630   2.136   0.305   0.700  0.4112  0.5027 -0.0884
  105TMC2    C2 1631   2.148   0.439   0.707 -1.2118 -0.5801 -0.3900
  105TMC2    C3 1632   2.102   0.504   0.823  0.5674 -0.4930 -0.5397
  105TMC2    C4 1633   2.087   0.231   0.802  0.2987 -0.1343 -0.4624
  105TMC2    C5 1634   2.041   0.301   0.910 -0.3667  0.0759  0.0768
  105TMC2    C6 1635   2.046   0.438   0.927  0.0426  0.1828  0.2035
  105TMC2     C 1636   2.206   0.235   0.588  0.3393  0.9201  0.3049
  105TMC2     O 1637   2.233   0.116   0.606 -0.1362  0.4706 -0.0102
  105TMC2     H 1638   2.203   0.502   0.638 -1.5907  0.1131 -0.0625
  105TMC2    H1 1639   2.080   0.124   0.790  0.8212 -0.3637  1.3135
  105TMC2    H2 1640   2.040   0.483   1.026 -1.6924 -0.6854  0.4908
  105TMC2    C7 1641   1.940   0.242   0.993 -0.5823 -0.1896  0.2356
  105TMC2    C8 1642   2.085   0.647   0.828  0.2369 -0.1726  0.0954
  105TMC2    O1 1643   1.946   0.121   0.997 -0.0971 -0.0956  0.0636
  105TMC2    O2 1644   2.098   0.711   0.931  0.0891  0.3528 -0.3365
  105TMC2    O5 1645   2.028   0.690   0.720 -0.4203  0.6409  0.2097
  105TMC2    H5 1646   1.988   0.620   0.664  0.6594 -0.8876  1.3466
  106MPD2     C 1647   2.520   0.212   0.178 -0.4102  0.4845 -0.0138
  106MPD2    C1 1648   2.459   0.341   0.178 -0.2594 -0.1690 -0.6626
  106MPD2    C2 1649   2.380   0.365   0.293  0.3928  0.1691  0.0469
  106MPD2    C3 1650   2.338   0.272   0.385 -0.1352  0.7469 -0.6040
  106MPD2    C4 1651   2.389   0.146   0.367 -0.6013 -0.8503 -0.2065
  106MPD2    C5 1652   2.490   0.117   0.273  0.5527  0.6450  0.2070
  106MPD2     H 1653   2.352   0.468   0.311 -2.6403 -0.9375  1.6684
  106MPD2    H1 1654   2.367   0.068   0.440 -2.8240  0.1705  0.2261
  106MPD2    H2 1655   2.576   0.165   0.098  0.2867  0.1782  0.6507
  106MPD2    H3 1656   2.526   0.016   0.255 -2.7087 -0.7415  1.5606
  106MPD2     N 1657   2.262   0.315   0.491  0.1558  0.6326  0.5275
  106MPD2    H5 1658   2.248   0.415   0.493  1.3869  0.8777 -3.2540
  106MPD2    N1 1659   2.477   0.442   0.074 -0.1850  0.4189  0.3696
  106MPD2    H7 1660   2.434   0.533   0.085 -0.8981  0.1701 -0.3658
  107TMC2    C1 1661   2.901   0.196  11.503 -0.2787 -0.3116  0.2294
  107TMC2    C2 1662   2.824   0.304  11.481 -0.1387  0.0168  0.3312
  107TMC2    C3 1663   2.781   0.337  11.356 -0.1196 -0.0147  0.2279
  107TMC2    C4 1664   2.964   0.129  11.397  0.6655  0.4227  0.1137
  107TMC2    C5 1665   2.928   0.167  11.271 -0.1924  0.3937  0.2610
  107TMC2    C6 1666   2.832   0.264  11.249  0.3994 -0.5151  0.2520
  107TMC2     C 1667   2.939   0.171  11.639 -0.2661  0.4420 -0.0708
  107TMC2     O 1668   2.881   0.241  11.721 -0.5741 -0.1861 -0.0735
  107TMC2     H 1669   2.766   0.352  11.559 -1.0358 -0.2077 -0.2008
  107TMC2    H1 1670   3.047   0.060  11.409  2.2639  2.4227  0.6276
  107TMC2    H2 1671   2.782   0.268  11.153  3.1515 -0.6904 -1.1815
  107TMC2    C7 1672   2.988   0.101  11.156  0.5949 -0.2300 -0.5540
  107TMC2    C8 1673   2.648   0.400  11.338 -0.5114  0.3239  0.7739
  107TMC2    O1 1674   2.993   0.168  11.055  0.5318 -0.5299  0.5004
  107TMC2    O2 1675   2.564   0.348  11.267 -0.0045 -0.0143 -0.1470
  107TMC2    O5 1676   2.621   0.489  11.434 -0.5891 -0.2209  0.1313
  107TMC2    H5 1677   2.702   0.537  11.462 -0.6453  0.1872 -0.4187
  108MPD2     C 1678   3.118   4.610  11.775  0.1007 -0.4397 -0.3571
  108MPD2    C1 1679   3.024   4.711  11.772 -0.1009  1.1205  0.2626
  108MPD2    C2 1680   2.932   4.727  11.879  0.4171  0.5015  0.0150
  108MPD2    C3 1681   2.935   4.647  11.985 -0.0568  0.4311  0.7835
  108MPD2    C4 1682   3.032   4.545  11.982 -0.1828  0.2805 -0.4067
  108MPD2    C5 1683   3.122   4.527  11.881 -0.1904  0.1658  0.5769
  108MPD2     H 1684   2.858   0.069  11.879 -0.9323 -0.8017 -4.1060
  108MPD2    H1 1685   3.042   4.481  12.069  0.0119  0.1241 -0.5434
  108MPD2    H2 1686   3.195   4.608  11.698 -1.6534 -0.5770 -2.1276
  108MPD2    H3 1687   3.183   4.438  11.894  0.3318  0.1927 -1.7661
  108MPD2     N 1688   2.849   4.666  12.101  0.3243 -0.1691 -0.2404
  108MPD2    H5 1689   2.858   4.592  12.170 -1.4293 -0.1065  0.0740
  108MPD2    N1 1690   3.012   0.051  11.655  0.8396  0.3698 -0.1640
  108MPD2    H7 1691   3.051   0.010  11.571  0.0477 -0.8570  0.0602
  109TMC2    C1 1692   3.317   1.554   0.392  0.1692 -0.3006 -0.7336
  109TMC2    C2 1693   3.358   1.501   0.270 -0.0224  1.0271  0.0956
  109TMC2    C3 1694   3.489   1.520   0.235  0.7871  0.5817  0.7363
  109TMC2    C4 1695   3.400   1.626   0.468  0.4393  0.7442  0.3694
  109TMC2    C5 1696   3.525   1.651   0.416  0.3831 -0.1740  0.2536
  109TMC2    C6 1697   3.579   1.592   0.303 -0.0490 -0.0836 -0.2024
  109TMC2     C 1698   3.185   1.513   0.431  0.6741  0.7766  0.3455
  109TMC2     O 1699   3.139   1.411   0.379  0.8034  0.6015  0.0983
  109TMC2     H 1700   3.290   1.446   0.205  1.1086 -0.0092 -0.2222
  109TMC2    H1 1701   3.381   1.673   0.564 -2.0230 -1.4570  0.9370
  109TMC2    H2 1702   3.673   1.621   0.258 -0.0993 -0.5897 -0.6314
  109TMC2    C7 1703   3.598   1.768   0.474  0.1009  0.6209  0.2569
  109TMC2    C8 1704   3.543   1.462   0.111  0.9068  0.2098 -0.4900
  109TMC2    O1 1705   3.534   1.856   0.533  0.0304 -0.7236  0.6349
  109TMC2    O2 1706   3.665   1.463   0.103 -0.1102 -0.0601  0.3971
  109TMC2    O5 1707   3.467   1.515   0.017 -0.0993 -0.3110  0.1552
  109TMC2    H5 1708   3.381   1.545   0.054 -0.3399 -2.3711  1.2472
  110MPD2     C 1709   2.709   1.607   0.582  0.8339  0.2776  0.0127
  110MPD2    C1 1710   2.778   1.730   0.567 -0.6435  0.6427  0.4965
  110MPD2    C2 1711   2.911   1.725   0.531  0.1740  0.1352  0.5085
  110MPD2    C3 1712   2.981   1.605   0.521  0.5245 -0.3428 -0.1767
  110MPD2    C4 1713   2.913   1.486   0.548  0.6546 -0.0042  0.0309
  110MPD2    C5 1714   2.782   1.490   0.586  0.2130 -0.1287  0.2018
  110MPD2     H 1715   2.960   1.821   0.516  0.1833  0.0905  0.2603
  110MPD2    H1 1716   2.945   1.382   0.553  0.7918  0.0197 -0.3461
  110MPD2    H2 1717   2.603   1.616   0.601  0.4767 -0.4311 -1.6835
  110MPD2    H3 1718   2.737   1.399   0.622 -0.1742 -0.5178 -1.2709
  110MPD2     N 1719   3.115   1.609   0.495  0.2113  0.1178 -0.2118
  110MPD2    H5 1720   3.160   1.700   0.496 -2.6412  1.4942  3.3888
  110MPD2    N1 1721   2.706   1.848   0.584  0.1482  0.5731 -1.3744
  110MPD2    H7 1722   2.607   1.836   0.604  0.6028  0.0112  0.5328
  111TMC2    C1 1723   2.397   1.777  12.162  0.1559 -0.1610 -0.0994
  111TMC2    C2 1724   2.320   1.673  12.209  0.5110 -0.0892  0.6347
  111TMC2    C3 1725   2.373   1.599  12.309 -0.1723 -0.6059 -0.4097
  111TMC2    C4 1726   2.521   1.805  12.214  0.1332  0.5671 -0.4050
  111TMC2    C5 1727   2.556   1.740  12.326  0.1814  0.1137  0.3196
  111TMC2    C6 1728   2.486   1.636  12.377 -0.7521 -0.2576  0.1636
  111TMC2     C 1729   2.359   1.857  12.046 -0.2479  0.6714  0.2592
  111TMC2     O 1730   2.445   1.939  12.015  0.1333 -0.2478 -0.3384
  111TMC2     H 1731   2.227   1.630  12.172  0.3225 -0.7837  1.8883
  111TMC2    H1 1732   2.586   1.881  12.172  1.0665 -0.2655 -0.4683
  111TMC2    H2 1733   2.513   1.588  12.470  0.0407  0.1069  0.1194
  111TMC2    C7 1734   2.672   1.790  12.411  0.1278 -0.6145  0.4530
  111TMC2    C8 1735   2.306   1.478  12.351 -0.3661 -0.3117  0.1996
  111TMC2    O1 1736   2.738   1.717  12.484  0.7485 -0.1239  0.3776
  111TMC2    O2 1737   2.187   1.469  12.325  0.3282 -0.3973 -0.5597
  111TMC2    O5 1738   2.407   1.394  12.315  0.3723 -0.1700  0.1678
  111TMC2    H5 1739   2.493   1.440  12.320 -1.1892  2.8933 -1.3091
  112MPD2     C 1740   2.015   2.119  11.774  0.6051  0.3123 -0.3932
  112MPD2    C1 1741   2.158   2.105  11.761  0.1215  0.1498 -0.0939
  112MPD2    C2 1742   2.220   2.018  11.846 -0.9411  0.9658  0.5037
  112MPD2    C3 1743   2.152   1.951  11.950  0.0126 -0.4989 -0.1583
  112MPD2    C4 1744   2.015   1.967  11.960  0.3304 -0.1347  0.3681
  112MPD2    C5 1745   1.950   2.049  11.872 -0.1082  0.3146 -0.3956
  112MPD2     H 1746   2.328   2.016  11.845 -0.9579  0.0301  0.5046
  112MPD2    H1 1747   1.962   1.907  12.033  0.5070 -0.1291  0.5016
  112MPD2    H2 1748   1.964   2.187  11.708 -1.6565 -1.4004 -0.3788
  112MPD2    H3 1749   1.841   2.046  11.877 -0.0409 -1.4598  0.0951
  112MPD2     N 1750   2.220   1.865  12.041 -0.2778 -0.4971  0.0204
  112MPD2    H5 1751   2.167   1.818  12.114  0.5673 -1.7129 -0.1549
  112MPD2    N1 1752   2.237   2.156  11.656 -1.0836  0.1931  0.7940
  112MPD2    H7 1753   2.335   2.129  11.659 -0.7246  1.4452  0.6138
  113TMC2    C1 1754   0.892   4.427   0.709  0.3799 -0.2713  0.3820
  113TMC2    C2 1755   0.830   4.501   0.609  0.7638 -0.3419  0.2793
  113TMC2    C3 1756   0.730   4.438   0.540 -0.1686  0.3194  0.6073
  113TMC2    C4 1757   0.868   4.296   0.743  1.0368 -0.5043  0.8670
  113TMC2    C5 1758   0.765   4.240   0.662 -0.0931 -0.0778  0.2060
  113TMC2    C6 1759   0.690   4.314   0.572  0.2658 -0.5675  0.4088
  113TMC2     C 1760   0.986   4.497   0.800 -0.3801  0.9536 -0.0507
  113TMC2     O 1761   1.080   4.438   0.851 -0.0925 -0.2465 -0.0212
  113TMC2     H 1762   0.862   4.601   0.581 -1.5618 -0.7938 -4.1579
  113TMC2    H1 1763   0.923   4.240   0.818  0.4526  0.5457  2.0675
  113TMC2    H2 1764   0.626   4.264   0.500  0.7162  1.5054 -1.3927
  113TMC2    C7 1765   0.746   4.096   0.649  0.0812 -0.0999  0.9743
  113TMC2    C8 1766   0.635   4.509   0.459 -0.0722 -0.7897 -0.2515
  113TMC2    O1 1767   0.746   4.060   0.529 -0.2223  0.0323 -0.0846
  113TMC2    O2 1768   0.518   4.468   0.446 -0.1780 -0.6513  0.4909
  113TMC2    O5 1769   0.682   4.622   0.405 -0.3286 -0.0423 -0.6463
  113TMC2    H5 1770   0.779   4.623   0.415 -0.2277 -3.9297 -1.3370
  114MPD2     C 1771   1.115   0.139   1.100 -0.2435  0.4785 -0.1395
  114MPD2    C1 1772   0.998   0.167   1.049  0.3870 -0.1701 -0.0100
  114MPD2    C2 1773   0.947   0.084   0.949  0.3353 -0.2494 -0.1494
  114MPD2    C3 1774   1.013   4.709   0.905  0.6425  0.0290 -0.1402
  114MPD2    C4 1775   1.134   4.681   0.961 -0.7787 -0.5466  0.2446
  114MPD2    C5 1776   1.188   0.029   1.054  0.1365  0.1123 -0.3721
  114MPD2     H 1777   0.853   0.112   0.903 -0.0712 -0.0052  0.8246
  114MPD2    H1 1778   1.199   4.598   0.935 -0.1967 -0.0630  0.1635
  114MPD2    H2 1779   1.156   0.196   1.183 -1.0468  0.8961 -0.0266
  114MPD2    H3 1780   1.287   0.018   1.099  0.2121  0.2391 -0.5061
  114MPD2     N 1781   0.953   4.622   0.817 -0.0043  0.4086 -0.5560
  114MPD2    H5 1782   0.867   4.659   0.777 -0.5951  1.2247  1.4755
  114MPD2    N1 1783   0.927   0.280   1.096  0.3073  0.0875  0.3111
  114MPD2    H7 1784   0.832   0.285   1.061  0.1339 -1.4728  0.5371
  115TMC2    C1 1785   2.281   2.325   0.078 -0.4601 -0.0296 -0.1121
  115TMC2    C2 1786   2.412   2.315   0.029  0.1936 -0.6861  1.5068
  115TMC2    C3 1787   2.482   2.427   0.019  0.0167  0.0484 -1.0730
  115TMC2    C4 1788   2.227   2.441   0.124 -0.4306 -0.9429  0.2319
  115TMC2    C5 1789   2.305   2.552   0.112  0.6132 -0.1204 -0.1515
  115TMC2    C6 1790   2.430   2.550   0.050  0.4265  0.6960 -0.1230
  115TMC2     C 1791   2.204   2.205   0.058  0.1874 -0.3423 -0.3724
  115TMC2     O 1792   2.247   2.123  17.722  0.4448  0.1338  0.0671
  115TMC2     H 1793   2.448   2.216   0.006 -1.4012 -0.7647 -0.6688
  115TMC2    H1 1794   2.129   2.449   0.171 -0.6057  1.5822 -0.5920
  115TMC2    H2 1795   2.494   2.637   0.042  1.8617 -0.4643 -1.3065
  115TMC2    C7 1796   2.246   2.669   0.170  0.5576  0.2847  0.2371
  115TMC2    C8 1797   2.626   2.420   0.038 -0.1944  0.9399 -0.0242
  115TMC2    O1 1798   2.159   2.656   0.252  0.8086 -1.1870 -0.6247
  115TMC2    O2 1799   2.694   2.499   0.108  0.2959 -0.0220  0.0045
  115TMC2    O5 1800   2.664   2.311  17.716  0.5480  0.4332 -0.4628
  115TMC2    H5 1801   2.600   2.262  17.660  1.2521  0.8769 -1.6622
  116MPD2     C 1802   1.743   1.963   0.050 -0.3565  0.6029  0.5572
  116MPD2    C1 1803   1.855   1.944  17.721  0.2529  0.2427 -0.4185
  116MPD2    C2 1804   1.971   2.021   0.003 -0.4720  0.3781  0.0734
  116MPD2    C3 1805   1.966   2.127   0.093 -0.5982 -0.8298  0.3280
  116MPD2    C4 1806   1.848   2.141   0.163  0.6322  0.0597 -0.0870
  116MPD2    C5 1807   1.740   2.064   0.143 -0.1358  0.0456  0.4869
  116MPD2     H 1808   2.058   2.005  17.689  0.8592  0.7829  1.8609
  116MPD2    H1 1809   1.844   2.220   0.237  0.1026 -0.1336  0.0904
  116MPD2    H2 1810   1.654   1.910   0.021 -0.1712 -0.0614  1.1913
  116MPD2    H3 1811   1.647   2.082   0.195  0.5226  1.3226  1.2088
  116MPD2     N 1812   2.079   2.212   0.118 -0.2758  0.3899 -0.7851
  116MPD2    H5 1813   2.066   2.280   0.192 -0.8024 -0.9352  0.3214
  116MPD2    N1 1814   1.842   1.855  17.615 -0.0749  0.1645  0.2965
  116MPD2    H7 1815   1.746   1.825  17.601 -0.0831  0.6629 -0.7271
  117TMC2    C1 1816   0.514   3.948  13.988  0.6967 -0.1241 -0.5315
  117TMC2    C2 1817   0.581   3.845  13.931  0.4477 -0.0709 -0.0722
  117TMC2    C3 1818   0.713   3.861  13.885  1.4497 -0.0894  0.1174
  117TMC2    C4 1819   0.584   4.061  14.023 -0.2137 -0.5354  0.5940
  117TMC2    C5 1820   0.712   4.068  13.982  0.0712  0.1728  0.8638
  117TMC2    C6 1821   0.776   3.973  13.908  0.7974  0.8569  0.3525
  117TMC2     C 1822   0.377   3.967  13.950  0.4782 -0.2706  0.0188
  117TMC2     O 1823   0.306   3.877  13.912  0.3610 -0.0769 -0.1388
  117TMC2     H 1824   0.530   3.755  13.898 -2.7121  1.8164 -0.3158
  117TMC2    H1 1825   0.539   4.127  14.097 -1.5517  0.9448 -1.5541
  117TMC2    H2 1826   0.881   3.990  13.887  0.6103 -1.5838 -2.6227
  117TMC2    C7 1827   0.798   4.173  14.024  0.7433  0.0627 -0.2457
  117TMC2    C8 1828   0.782   3.737  13.842  0.1107 -0.3872 -0.2489
  117TMC2    O1 1829   0.897   4.192  13.958  0.2536  0.0591  0.0385
  117TMC2    O2 1830   0.739   3.634  13.889 -0.2444  0.8143 -0.4495
  117TMC2    O5 1831   0.912   3.766  13.811  0.2975  0.0648 -0.0895
  117TMC2    H5 1832   0.920   3.855  13.770 -0.2765 -0.1359 -0.6397
  118MPD2     C 1833   0.782   4.427  14.288 -0.2634  0.7240 -0.5080
  118MPD2    C1 1834   0.801   4.381  14.160  0.5126 -0.3279 -0.3962
  118MPD2    C2 1835   0.860   4.462  14.066 -0.5305 -0.4749  0.2232
  118MPD2    C3 1836   0.913   4.587  14.101 -0.4402  0.3427 -0.6402
  118MPD2    C4 1837   0.887   4.634  14.231 -0.3904 -0.0582 -0.4692
  118MPD2    C5 1838   0.822   4.554  14.320 -0.5246  0.4130 -0.7122
  118MPD2     H 1839   0.859   4.431  13.962 -0.5588  1.2690 -0.2917
  118MPD2    H1 1840   0.913   4.736  14.260  0.4700 -0.6620  0.8907
  118MPD2    H2 1841   0.747   4.369  14.373  1.7058 -0.6371 -0.6368
  118MPD2    H3 1842   0.803   4.587  14.421 -0.6639 -1.9549  0.0247
  118MPD2     N 1843   0.975   4.677  14.013  0.1986  0.2459  0.2165
  118MPD2    H5 1844   1.009   0.032  14.038 -0.0290  0.2051  0.6829
  118MPD2    N1 1845   0.758   4.253  14.132 -0.1601 -0.4356  0.4398
  118MPD2    H7 1846   0.699   4.208  14.202  1.5483 -0.2905  1.9784
  119TMC2    C1 1847   3.925   0.899  13.778  0.2551 -0.7377  0.4789
  119TMC2    C2 1848   3.933   1.037  13.780  0.1620  0.5134  0.5836
  119TMC2    C3 1849   3.834   1.107  13.718  0.1940  0.2808  0.4252
  119TMC2    C4 1850   3.821   0.828  13.728 -0.5511  0.9704  1.2693
  119TMC2    C5 1851   3.725   0.907  13.666 -0.0128  0.3635  0.1984
  119TMC2    C6 1852   3.736   1.042  13.655  0.2416 -0.8352 -0.1225
  119TMC2     C 1853   3.974   0.833  13.896 -0.2003  0.2609  0.0409
  119TMC2     O 1854   3.892   0.759  13.954 -0.6331  0.3153  0.1680
  119TMC2     H 1855   4.012   1.095  13.827 -1.1684  2.1868  0.7893
  119TMC2    H1 1856   3.826   0.721  13.740  2.3725  0.8397 -1.1587
  119TMC2    H2 1857   3.659   1.090  13.596  0.1539 -0.1341  0.5585
  119TMC2    C7 1858   3.595   0.844  13.648 -1.2860  0.0240 -0.0318
  119TMC2    C8 1859   3.835   1.245  13.739 -0.7764  0.1256 -0.5107
  119TMC2    O1 1860   3.513   0.915  13.590  0.0946  0.2596  0.0815
  119TMC2    O2 1861   3.925   1.309  13.786 -0.1165  0.4913 -0.7678
  119TMC2    O5 1862   3.698   1.273  13.752 -0.4086  0.1755  0.4657
  119TMC2    H5 1863   3.682   1.368  13.771  0.7378  0.1043  1.7674
  120MPD2     C 1864   4.342   0.758  14.228 -0.3273  0.8593  0.5194
  120MPD2    C1 1865   4.212   0.725  14.239 -1.1088 -1.3671 -0.2064
  120MPD2    C2 1866   4.125   0.763  14.141  0.5056 -0.1376 -0.3425
  120MPD2    C3 1867   4.183   0.814  14.027 -0.1404 -0.5541  0.1979
  120MPD2    C4 1868   4.326   0.818  14.005  0.3280 -0.3224 -0.5127
  120MPD2    C5 1869   4.405   0.798  14.115 -1.2315 -0.2922  0.0340
  120MPD2     H 1870   4.018   0.769  14.157  0.9459  1.0563  2.1419
  120MPD2    H1 1871   4.366   0.853  13.910 -0.4841 -1.1025 -1.1474
  120MPD2    H2 1872   4.410   0.743  14.312  0.5049 -2.2624 -0.6972
  120MPD2    H3 1873   4.511   0.802  14.092 -1.5267 -2.4222 -1.7407
  120MPD2     N 1874   4.106   0.854  13.916 -0.3619  0.5226  0.3483
  120MPD2    H5 1875   4.157   0.903  13.843 -0.6782 -0.6510 -0.6562
  120MPD2    N1 1876   4.174   0.683  14.369  0.7606  0.4205 -0.1979
  120MPD2    H7 1877   4.238   0.708  14.444 -0.8001  0.2560  1.1929
  121TMC2    C1 1878   0.713   2.139  14.456  0.4118 -0.5851  0.3515
  121TMC2    C2 1879   0.794   2.104  14.557  0.2468 -0.0012  0.2867
  121TMC2    C3 1880   0.755   2.011  14.641 -0.4258  0.0706  0.1831
  121TMC2    C4 1881   0.584   2.091  14.442  0.5877  0.0622  0.7492
  121TMC2    C5 1882   0.545   1.995  14.537  0.0918  0.0121 -0.1715
  121TMC2    C6 1883   0.632   1.958  14.636  0.5067  0.7704  0.1251
  121TMC2     C 1884   0.730   2.274  14.400  0.3854  0.5017  0.5689
  121TMC2     O 1885   0.778   2.357  14.478 -0.0528  0.1395  0.1042
  121TMC2     H 1886   0.891   2.147  14.578 -1.3582  3.0246  1.4682
  121TMC2    H1 1887   0.516   2.128  14.366 -1.4611  0.7271  2.8988
  121TMC2    H2 1888   0.606   1.884  14.711  0.2920 -0.0214 -0.7374
  121TMC2    C7 1889   0.405   1.942  14.542 -0.2008  0.4539 -0.7213
  121TMC2    C8 1890   0.820   1.991  14.767 -0.6141 -0.0654 -0.0922
  121TMC2    O1 1891   0.360   1.913  14.653 -0.4753 -0.2193 -0.4581
  121TMC2    O2 1892   0.755   2.008  14.869  0.4334  0.3331  0.2428
  121TMC2    O5 1893   0.960   1.992  14.754  0.1614 -0.3876  0.6312
  121TMC2    H5 1894   0.992   1.968  14.665 -2.4737  0.6502 -0.5790
  122MPD2     C 1895   0.763   2.515  14.237  0.1621  0.3567  0.2574
  122MPD2    C1 1896   0.757   2.389  14.185 -0.3868 -0.6892 -0.0167
  122MPD2    C2 1897   0.812   2.369  14.055 -0.0786  0.1577  0.2238
  122MPD2    C3 1898   0.860   2.475  13.978 -0.0500  0.9386 -0.4153
  122MPD2    C4 1899   0.845   2.597  14.028  0.7335 -0.2551 -0.0885
  122MPD2    C5 1900   0.803   2.612  14.158 -0.2965 -0.1674 -0.0480
  122MPD2     H 1901   0.849   2.270  14.033  2.2622  0.9251  0.7307
  122MPD2    H1 1902   0.871   2.689  13.977 -1.8789  0.0861 -0.8239
  122MPD2    H2 1903   0.731   2.535  14.338  3.5504 -1.7310  1.7388
  122MPD2    H3 1904   0.805   2.708  14.209 -0.3557 -0.1102 -0.1556
  122MPD2     N 1905   0.930   2.462  13.857  0.7246  0.7020 -0.2105
  122MPD2    H5 1906   0.935   2.549  13.805  0.2170  0.5389 -0.5336
  122MPD2    N1 1907   0.730   2.278  14.263 -0.7012  0.1863  0.0941
  122MPD2    H7 1908   0.708   2.190  14.217 -1.0000  0.1808  0.2489
  123TMC2    C1 1909   3.434   4.483   9.832  0.2392 -0.2150  0.3879
  123TMC2    C2 1910   3.505   4.512   9.946  0.6839  0.1144 -0.1362
  123TMC2    C3 1911   3.542   4.410  10.026  0.5441  0.3181  0.2218
  123TMC2    C4 1912   3.395   4.354   9.815 -0.0266 -0.3027  0.8926
  123TMC2    C5 1913   3.425   4.262   9.903  0.8659 -0.8682  0.1522
  123TMC2    C6 1914   3.503   4.281  10.009 -0.8107 -0.2231  0.3988
  123TMC2     C 1915   3.350   4.582   9.772 -0.6100  0.4245 -0.2791
  123TMC2     O 1916   3.410   4.686   9.747 -0.0916  0.0456  0.1219
  123TMC2     H 1917   3.522   4.615   9.976  3.0055 -0.4868  0.6223
  123TMC2    H1 1918   3.321   4.326   9.741 -0.3945  1.1492  0.7120
  123TMC2    H2 1919   3.524   4.201  10.080 -2.3823 -0.2687  0.8045
  123TMC2    C7 1920   3.379   4.119   9.890 -0.1169  0.4640 -0.2045
  123TMC2    C8 1921   3.637   4.432  10.138  0.7733 -0.3600 -0.3659
  123TMC2    O1 1922   3.376   4.065   9.998 -0.0440  0.0737 -0.3035
  123TMC2    O2 1923   3.635   4.367  10.243  0.4338  0.3107 -0.2044
  123TMC2    O5 1924   3.735   4.523  10.100  0.0711 -0.0639  0.5130
  123TMC2    H5 1925   3.743   4.534  10.003 -1.0385  0.2535  0.4571
  124MPD2     C 1926   2.898   0.078   9.708 -0.4975  0.5641  0.6387
  124MPD2    C1 1927   2.877   4.692   9.764  0.3549  0.3878 -0.0801
  124MPD2    C2 1928   2.987   4.607   9.773  0.1598  0.5939  0.5086
  124MPD2    C3 1929   3.115   4.640   9.740  0.8270 -0.8054 -0.3996
  124MPD2    C4 1930   3.132   0.031   9.690 -0.1819  0.2710 -0.2934
  124MPD2    C5 1931   3.026   0.117   9.671  0.0886  0.1046 -0.1297
  124MPD2     H 1932   2.973   4.512   9.824 -0.4186 -0.2609 -1.2491
  124MPD2    H1 1933   3.226   0.070   9.655  0.6850 -1.2466  0.3407
  124MPD2    H2 1934   2.821   0.153   9.698 -0.2509  0.8591  0.9651
  124MPD2    H3 1935   3.057   0.210   9.624  0.9576 -1.5961 -2.8926
  124MPD2     N 1936   3.219   4.551   9.777 -0.2537  0.0677  0.7154
  124MPD2    H5 1937   3.188   4.455   9.786  0.3963 -0.1219  0.8922
  124MPD2    N1 1938   2.747   4.668   9.813  0.6483  0.2216 -0.1190
  124MPD2    H7 1939   2.672   4.731   9.788 -0.4801 -1.5301 -1.1769
  125TMC2    C1 1940   0.103   0.410  10.086  0.0031  0.4829  0.3948
  125TMC2    C2 1941   0.027   0.350  10.186 -0.5823  0.5091 -0.0900
  125TMC2    C3 1942   4.645   0.288  10.151 -0.5600 -0.3681  0.0541
  125TMC2    C4 1943   0.077   0.380   9.950  0.5085 -0.0084  0.4477
  125TMC2    C5 1944   4.699   0.315   9.922  0.6457 -0.0793  0.3815
  125TMC2    C6 1945   4.615   0.269  10.018  0.3006  0.2687 -0.3145
  125TMC2     C 1946   0.220   0.482  10.127  0.1614  0.3071 -0.4412
  125TMC2     O 1947   0.223   0.519  10.243  0.2134  0.5972 -0.1018
  125TMC2     H 1948   0.047   0.353  10.293 -2.0364  1.7981  0.1341
  125TMC2    H1 1949   0.151   0.401   9.874  1.8400 -2.5614  1.0558
  125TMC2    H2 1950   4.531   0.214   9.978 -1.1730  1.9564  0.4945
  125TMC2    C7 1951   4.651   0.316   9.784  0.2922 -0.6899 -0.3831
  125TMC2    C8 1952   4.615   0.185  10.242 -0.4811  0.8150  0.4766
  125TMC2    O1 1953   4.579   0.225   9.752 -0.2718  0.2360 -0.3509
  125TMC2    O2 1954   4.703   0.104  10.273  0.1883 -0.4583  0.2669
  125TMC2    O5 1955   4.479   0.155  10.219  0.4245 -0.6901 -0.1009
  125TMC2    H5 1956   4.432   0.241  10.209  1.7102 -0.2087 -1.9476
  126MPD1     C 1957   0.651   0.737  10.067  0.2098 -0.0659  0.4693
  126MPD1    C1 1958   0.595   0.726   9.941 -0.5986  0.2454  0.3732
  126MPD1    C2 1959   0.471   0.668   9.935  0.6977  0.4645 -0.5899
  126MPD1    C3 1960   0.413   0.595  10.039  0.2444  0.0510 -0.5156
  126MPD1    C4 1961   0.486   0.591  10.153 -0.6194 -0.3082 -0.7665
  126MPD1    C5 1962   0.606   0.661  10.165  0.4335  0.4780  0.3706
  126MPD1     H 1963   0.418   0.689   9.843  1.5368  2.4831 -0.6203
  126MPD1    H1 1964   0.448   0.552  10.247 -0.7965 -1.0019 -1.1270
  126MPD1    H2 1965   0.748   0.783  10.084  0.2850 -0.8459  2.1006
  126MPD1    H3 1966   0.652   0.661  10.263 -2.2893  3.9284  1.6602
  126MPD1     N 1967   0.284   0.541  10.024 -0.4681 -0.1581  0.6430
  126MPD1    H5 1968   0.249   0.542   9.929  0.4098  0.5419  0.3315
  126MPD1    N1 1969   0.643   0.803   9.839  0.0028 -0.5454 -0.4660
  126MPD1    H6 1970   0.616   0.753   9.755  0.7962 -1.1247 -0.3761
  126MPD1    H7 1971   0.744   0.803   9.850 -0.0148  0.1648 -0.2640
  127TMC2    C1 1972   0.272   0.939  10.162 -0.4107  0.6471 -0.0944
  127TMC2    C2 1973   0.261   0.910  10.293 -0.2639  0.1573 -0.0678
  127TMC2    C3 1974   0.158   0.833  10.324 -0.0899 -0.1941 -0.2917
  127TMC2    C4 1975   0.198   0.880  10.062  0.4323  0.8357  0.3871
  127TMC2    C5 1976   0.098   0.797  10.098 -0.1304 -0.0465  0.4955
  127TMC2    C6 1977   0.077   0.776  10.230  0.7298 -0.2063  0.6233
  127TMC2     C 1978   0.360   1.035  10.121  0.7066  0.2188  0.3286
  127TMC2     O 1979   0.387   1.049   9.999  0.4761  0.2548 -0.2926
  127TMC2     H 1980   0.332   0.941  10.368  3.0123 -1.6673 -2.4373
  127TMC2    H1 1981   0.210   0.900   9.956  2.2630  1.3052  0.7009
  127TMC2    H2 1982   4.730   0.718  10.264 -0.4186  1.0818 -0.0529
  127TMC2    C7 1983   4.736   0.762   9.998 -0.7248  0.1458  0.1251
  127TMC2    C8 1984   0.147   0.773  10.456  0.3439  0.2101  0.7291
  127TMC2    O1 1985   0.015   0.807   9.887  0.3816 -0.0763  0.3991
  127TMC2    O2 1986   0.134   0.840  10.557  0.1671 -0.2839 -0.1246
  127TMC2    O5 1987   0.246   0.679  10.454  0.2477 -0.4477 -0.4829
  127TMC2    H5 1988   0.242   0.630  10.370  0.8639 -1.2304 -0.0513
  128MPD2     C 1989   0.518   1.330  10.259 -0.5387  0.3393 -0.1069
  128MPD2    C1 1990   0.507   1.218  10.181  0.3352 -0.3367 -0.2949
  128MPD2    C2 1991   0.597   1.206  10.069  0.6646  0.0816 -0.8526
  128MPD2    C3 1992   0.699   1.298  10.049 -0.0031 -0.3814  0.1173
  128MPD2    C4 1993   0.701   1.410  10.131 -0.1666  0.3067  0.3707
  128MPD2    C5 1994   0.617   1.419  10.238 -0.2635  0.0073  0.0176
  128MPD2     H 1995   0.599   1.117  10.008 -1.5760  0.1654 -1.0599
  128MPD2    H1 1996   0.785   1.479  10.134 -0.8799  1.2614 -1.5828
  128MPD2    H2 1997   0.458   1.341  10.348 -0.5999 -0.4254 -0.0508
  128MPD2    H3 1998   0.615   1.504  10.305 -1.6632 -0.1930  0.2204
  128MPD2     N 1999   0.792   1.276   9.945  0.5178  0.2502  0.6884
  128MPD2    H5 2000   0.775   1.190   9.894 -0.2609 -0.3588  1.9753
  128MPD2    N1 2001   0.406   1.123  10.219 -0.3151  0.3920 -0.5756
  128MPD2    H7 2002   0.366   1.132  10.312  0.2649 -0.6228 -0.2190
  129TMC2    C1 2003   3.676   1.489   1.127 -0.2648 -0.0388 -1.1230
  129TMC2    C2 2004   3.806   1.448   1.099 -0.0991  0.5002 -0.9865
  129TMC2    C3 2005   3.825   1.317   1.081 -0.5617 -0.1619 -0.3223
  129TMC2    C4 2006   3.567   1.409   1.114  0.5107 -0.7711 -0.0914
  129TMC2    C5 2007   3.596   1.272   1.096  0.2017 -0.4168 -0.0211
  129TMC2    C6 2008   3.727   1.224   1.075 -0.3438  0.1431  0.0972
  129TMC2     C 2009   3.657   1.629   1.152 -0.3084 -0.6701  0.5421
  129TMC2     O 2010   3.764   1.690   1.170 -0.8070  0.1352  0.5521
  129TMC2     H 2011   3.890   1.516   1.090 -0.2814  0.9491  0.6004
  129TMC2    H1 2012   3.466   1.446   1.124  0.7816 -0.0283 -0.0973
  129TMC2    H2 2013   3.755   1.120   1.087  0.2471  0.2781 -0.1390
  129TMC2    C7 2014   3.476   1.183   1.093 -0.5311  0.2451 -0.4516
  129TMC2    C8 2015   3.955   1.256   1.086 -0.1479  0.0838  0.3180
  129TMC2    O1 2016   3.367   1.222   1.132  0.4583  0.4366  0.0599
  129TMC2    O2 2017   3.987   1.166   1.010  0.1145 -0.3871  0.6912
  129TMC2    O5 2018   4.044   1.352   1.126  0.6081 -0.0088  0.3568
  129TMC2    H5 2019   4.022   1.395   1.212 -2.2424 -1.1189  0.1797
  130MPD2     C 2020   3.347   1.807   1.220  0.2475 -0.4541  0.0372
  130MPD2    C1 2021   3.485   1.796   1.195  0.4753  0.4329  0.2185
  130MPD2    C2 2022   3.561   1.909   1.225  0.0416 -0.7423 -0.3006
  130MPD2    C3 2023   3.501   2.028   1.263 -1.9905  0.2342  0.5528
  130MPD2    C4 2024   3.362   2.036   1.282  0.1457 -0.5717  0.0302
  130MPD2    C5 2025   3.285   1.922   1.265  0.2125  0.0907  0.0007
  130MPD2     H 2026   3.667   1.907   1.204  0.0249 -2.9893 -0.1437
  130MPD2    H1 2027   3.310   2.129   1.303  1.0825  0.5191 -2.4569
  130MPD2    H2 2028   3.282   1.726   1.189 -0.5110  0.1239  0.1013
  130MPD2    H3 2029   3.178   1.932   1.278  0.2172  0.8451 -0.5135
  130MPD2     N 2030   3.587   2.142   1.276 -0.2206 -0.8335 -0.3886
  130MPD2    H5 2031   3.686   2.127   1.256  0.3766  0.9692  1.1620
  130MPD2    N1 2032   3.530   1.666   1.159 -0.3069 -0.2280  0.1040
  130MPD2    H7 2033   3.459   1.595   1.144  1.1915 -1.7082  0.0966
  131TMC2    C1 2034   2.711   0.722   9.953  0.3625  0.0518  0.2550
  131TMC2    C2 2035   2.833   0.700  10.012 -0.6353  0.3086 -0.2676
  131TMC2    C3 2036   2.926   0.794  10.004  0.5788 -0.2799 -0.4606
  131TMC2    C4 2037   2.684   0.831   9.877 -0.4311 -0.2447  0.0370
  131TMC2    C5 2038   2.792   0.913   9.855  0.9667 -0.5298  0.2314
  131TMC2    C6 2039   2.905   0.908   9.935 -0.2629 -0.0447 -0.3058
  131TMC2     C 2040   2.624   0.612   9.928 -0.6190 -0.2211  0.2721
  131TMC2     O 2041   2.678   0.503   9.918  0.4784  0.1730 -0.0824
  131TMC2     H 2042   2.853   0.609  10.068  1.8363  1.3473  0.5666
  131TMC2    H1 2043   2.593   0.860   9.826 -0.3371  1.2914  0.7491
  131TMC2    H2 2044   2.989   0.972   9.909 -0.5483  0.6685  0.5002
  131TMC2    C7 2045   2.767   1.025   9.771  0.6766  0.3897  0.0424
  131TMC2    C8 2046   3.035   0.797  10.101  0.4400 -0.1134 -0.5408
  131TMC2    O1 2047   2.696   1.003   9.672  0.1903  0.0911 -0.4149
  131TMC2    O2 2048   3.085   0.900  10.145  0.0164  1.1167  0.0801
  131TMC2    O5 2049   3.082   0.676  10.114 -0.0862  0.0634 -0.0411
  131TMC2    H5 2050   3.065   0.616  10.039  4.1219 -0.1002 -0.8603
  132MPD2     C 2051   2.259   0.582   9.899 -0.4499  0.4179 -0.2785
  132MPD2    C1 2052   2.393   0.542   9.893  0.0791  0.0139 -0.1837
  132MPD2    C2 2053   2.412   0.404   9.873 -0.1400  0.6833  0.2100
  132MPD2    C3 2054   2.313   0.314   9.887 -0.5770 -0.4697 -0.6218
  132MPD2    C4 2055   2.185   0.355   9.907 -0.5214  0.5698 -0.4110
  132MPD2    C5 2056   2.159   0.491   9.902 -0.0639  0.1687 -0.1569
  132MPD2     H 2057   2.511   0.363   9.861  0.1198  0.7181  2.2402
  132MPD2    H1 2058   2.103   0.284   9.896 -0.8331  0.8370  0.2053
  132MPD2    H2 2059   2.225   0.685   9.910 -1.2093  0.1800 -0.4414
  132MPD2    H3 2060   2.054   0.521   9.902  0.1343  0.8777  0.8563
  132MPD2     N 2061   2.345   0.178   9.883 -0.0931  0.2716 -0.3414
  132MPD2    H5 2062   2.435   0.163   9.837 -1.0489 -3.2454 -1.0999
  132MPD2    N1 2063   2.495   0.643   9.893  0.0014  0.0202 -0.5062
  132MPD2    H7 2064   2.473   0.742   9.898  1.5645  0.2878  1.2907
  133TMC2    C1 2065   1.803   0.106   9.775 -0.2645 -0.2639  0.4878
  133TMC2    C2 2066   1.712   0.050   9.853  0.3572 -0.3559  0.3768
  133TMC2    C3 2067   1.709   4.651   9.867 -0.5332  0.4769 -0.1557
  133TMC2    C4 2068   1.914   0.043   9.728 -0.1023 -0.6502 -0.1150
  133TMC2    C5 2069   1.915   4.642   9.751  0.1877  0.2669 -0.7279
  133TMC2    C6 2070   1.812   4.580   9.825 -0.2304  0.2603  0.3975
  133TMC2     C 2071   1.807   0.248   9.758 -0.6755  0.4155  0.5634
  133TMC2     O 2072   1.920   0.296   9.738 -0.0231  0.6069 -0.3218
  133TMC2     H 2073   1.644   0.106   9.916 -0.4080 -0.8635 -0.0009
  133TMC2    H1 2074   1.991   0.099   9.675 -1.0948 -0.8888 -1.8206
  133TMC2    H2 2075   1.809   4.473   9.836 -2.0752  0.2850  0.1068
  133TMC2    C7 2076   2.025   4.561   9.701 -1.3191 -0.5037 -0.2117
  133TMC2    C8 2077   1.625   4.579   9.955 -0.3038  0.5415  0.1371
  133TMC2    O1 2078   2.029   4.442   9.732  0.2856 -0.2914  0.1720
  133TMC2    O2 2079   1.655   4.485  10.024  0.1489 -0.1767  0.6622
  133TMC2    O5 2080   1.503   4.641   9.952  0.3111  0.1207  0.8078
  133TMC2    H5 2081   1.502   4.721   9.896  0.1100 -1.0291 -0.8095
  134MPD2     C 2082   1.533   0.479   9.821 -0.0055  0.0764  0.4449
  134MPD2    C1 2083   1.660   0.446   9.782 -0.1608 -0.1499 -1.0909
  134MPD2    C2 2084   1.753   0.541   9.765 -0.1669  0.4044 -0.2451
  134MPD2    C3 2085   1.720   0.675   9.777  0.7349  0.5471 -0.2633
  134MPD2    C4 2086   1.595   0.707   9.813  0.0187  0.6118 -0.0849
  134MPD2    C5 2087   1.499   0.609   9.837 -0.2697  0.0271  0.7381
  134MPD2     H 2088   1.856   0.518   9.737 -0.7584 -1.3554 -0.9511
  134MPD2    H1 2089   1.564   0.810   9.830  1.7548  1.4586 -2.1687
  134MPD2    H2 2090   1.469   0.395   9.845 -1.1195  0.7566 -0.1217
  134MPD2    H3 2091   1.397   0.630   9.870  0.2301  1.8165  1.1854
  134MPD2     N 2092   1.809   0.781   9.743  0.4315 -0.0216  0.6055
  134MPD2    H5 2093   1.785   0.878   9.762  0.5768 -0.1913  1.6366
  134MPD2    N1 2094   1.682   0.308   9.761 -0.1119 -0.7343 -0.0785
  134MPD2    H7 2095   1.606   0.244   9.784 -0.6649 -0.0008  0.1708
  135TMC2    C1 2096   3.608   2.052   9.545  0.1048  0.1148 -0.6699
  135TMC2    C2 2097   3.478   2.094   9.567 -0.8887  0.4017  0.1359
  135TMC2    C3 2098   3.467   2.172   9.679 -0.1787  0.5878 -0.0041
  135TMC2    C4 2099   3.719   2.104   9.608 -0.2281 -0.1160 -0.1040
  135TMC2    C5 2100   3.700   2.194   9.709  0.1358  0.2815 -0.2649
  135TMC2    C6 2101   3.574   2.221   9.750  0.2367 -0.0564 -0.1707
  135TMC2     C 2102   3.637   1.961   9.429  0.1276 -0.6464 -0.5055
  135TMC2     O 2103   3.540   1.940   9.363  0.0525  0.2522 -0.4073
  135TMC2     H 2104   3.400   2.061   9.500  0.6490 -0.8874 -1.0180
  135TMC2    H1 2105   3.817   2.062   9.589  1.2139  2.2882  1.8466
  135TMC2    H2 2106   3.554   2.297   9.824 -1.4627 -2.9742  2.3534
  135TMC2    C7 2107   3.816   2.251   9.770 -0.3124 -0.1393 -0.7473
  135TMC2    C8 2108   3.327   2.214   9.705 -0.0321  0.6620 -0.6044
  135TMC2    O1 2109   3.917   2.232   9.700  0.1850 -0.3666 -0.1797
  135TMC2    O2 2110   3.241   2.189   9.625  0.5964 -0.2141  0.1843
  135TMC2    O5 2111   3.311   2.205   9.839  0.3112 -0.5622  0.6451
  135TMC2    H5 2112   3.388   2.202   9.900  0.7824 -0.7631  0.0486
  136MPD2     C 2113   3.745   1.818   9.199  0.4977  0.2255 -0.0678
  136MPD2    C1 2114   3.817   1.842   9.311 -0.0552 -0.0626 -0.6718
  136MPD2    C2 2115   3.950   1.801   9.311 -0.0713  0.6263  0.1017
  136MPD2    C3 2116   4.021   1.742   9.210  0.4983 -0.5174  0.0419
  136MPD2    C4 2117   3.947   1.718   9.099 -0.5671 -0.1313 -0.7985
  136MPD2    C5 2118   3.811   1.758   9.091  0.4918  0.1147 -0.1253
  136MPD2     H 2119   4.007   1.819   9.401 -2.0752  3.8220  0.7320
  136MPD2    H1 2120   3.994   1.670   9.014  0.0278 -0.3157 -0.3605
  136MPD2    H2 2121   3.641   1.845   9.182  0.2984  0.6080  1.7171
  136MPD2    H3 2122   3.749   1.736   9.005  1.3240 -3.3807  0.1798
  136MPD2     N 2123   4.157   1.694   9.215  0.1598 -0.2510  0.3002
  136MPD2    H5 2124   4.193   1.650   9.131 -3.3143 -0.1182 -1.2569
  136MPD2    N1 2125   3.764   1.905   9.422 -0.5865 -1.0635  0.3456
  136MPD2    H7 2126   3.825   1.910   9.503  1.4843  1.5267 -1.3777
  137TMC2    C1 2127   4.133   1.278   9.572  0.3016 -0.4664 -0.0197
  137TMC2    C2 2128   4.247   1.275   9.498  0.0957  0.0118  0.4091
  137TMC2    C3 2129   4.235   1.293   9.361  0.5505  0.2379  1.1593
  137TMC2    C4 2130   4.016   1.322   9.526  0.0275  0.0803  0.5992
  137TMC2    C5 2131   4.014   1.375   9.403  0.1495 -0.0035 -0.5063
  137TMC2    C6 2132   4.121   1.345   9.318  0.3352  0.2799 -0.9435
  137TMC2     C 2133   4.144   1.255   9.712 -0.7170  0.0549 -0.4209
  137TMC2     O 2134   4.255   1.276   9.758  1.0072  0.0488  0.4399
  137TMC2     H 2135   4.342   1.249   9.544 -0.1440 -0.3652  0.6942
  137TMC2    H1 2136   3.928   1.324   9.590  1.4235  1.0242  2.4977
  137TMC2    H2 2137   4.114   1.371   9.213  0.0299 -0.8817 -1.2053
  137TMC2    C7 2138   3.889   1.405   9.346 -1.0302  0.9427 -0.7516
  137TMC2    C8 2139   4.357   1.268   9.285 -0.0632 -0.0602  0.3219
  137TMC2    O1 2140   3.853   1.329   9.250 -0.1617 -0.0679  0.5536
  137TMC2    O2 2141   4.465   1.305   9.333  0.1491  1.2815  0.4047
  137TMC2    O5 2142   4.327   1.278   9.157 -0.0025  0.3755  0.0379
  137TMC2    H5 2143   4.263   1.213   9.120 -0.2508  0.5662  0.1290
  138MPD2     C 2144   3.880   1.129   9.944 -0.0205  0.7884  0.7921
  138MPD2    C1 2145   4.005   1.175   9.905  0.4291 -0.0157  0.3152
  138MPD2    C2 2146   4.090   1.204  10.008  0.1311  0.4142  1.5371
  138MPD2    C3 2147   4.073   1.163  10.137  0.1063 -0.4660  0.6560
  138MPD2    C4 2148   3.950   1.102  10.167  0.3918 -0.3752 -0.1021
  138MPD2    C5 2149   3.852   1.095  10.075  0.2605  0.0135 -0.4626
  138MPD2     H 2150   4.179   1.265   9.992  0.5751 -1.0465 -1.5337
  138MPD2    H1 2151   3.922   1.058  10.262 -2.5621  0.8348 -0.4284
  138MPD2    H2 2152   3.798   1.128   9.873  1.7176 -2.2363 -1.2281
  138MPD2    H3 2153   3.765   1.036  10.100  2.3346 -2.7228  0.2319
  138MPD2     N 2154   4.181   1.176  10.226 -0.0122  0.4036 -0.1540
  138MPD2    H5 2155   4.255   1.240  10.196 -0.9397  1.0728 -1.0163
  138MPD2    N1 2156   4.027   1.209   9.769  0.3170  0.3568 -0.0884
  138MPD2    H7 2157   3.955   1.178   9.704  1.7413  0.7597 -1.8415
  139TMC2    C1 2158   0.575   0.118  13.325 -0.4106 -0.0598 -0.1390
  139TMC2    C2 2159   0.600   0.135  13.191 -0.9073 -0.1868 -0.8883
  139TMC2    C3 2160   0.541   0.239  13.125 -0.0686  0.2123  0.0713
  139TMC2    C4 2161   0.494   0.209  13.390 -0.6949  0.3753 -0.0799
  139TMC2    C5 2162   0.430   0.308  13.320 -0.1209 -0.2424  1.0479
  139TMC2    C6 2163   0.458   0.328  13.193  0.4900 -0.3842 -0.7750
  139TMC2     C 2164   0.618   0.003  13.385  0.2606 -0.5660 -0.0208
  139TMC2     O 2165   0.675   4.667  13.308 -0.2151  0.3760 -0.4508
  139TMC2     H 2166   0.668   0.071  13.137  1.2374  0.1041  1.4682
  139TMC2    H1 2167   0.479   0.211  13.498  0.4865 -2.2651  0.1388
  139TMC2    H2 2168   0.408   0.412  13.146  0.1981 -0.1966 -0.1315
  139TMC2    C7 2169   0.328   0.386  13.382 -0.4050 -0.7241  0.6912
  139TMC2    C8 2170   0.556   0.241  12.978  0.0377  0.6142 -0.3347
  139TMC2    O1 2171   0.322   0.508  13.378 -0.0119  0.4603  0.6642
  139TMC2    O2 2172   0.600   0.144  12.916 -0.0194 -0.0023  0.8391
  139TMC2    O5 2173   0.546   0.370  12.937  0.2702  0.0034 -0.3574
  139TMC2    H5 2174   0.524   0.439  13.003 -2.0223  1.5323 -2.6834
  140MPD2     C 2175   0.526   4.576  13.706  0.3908  0.1341 -0.4123
  140MPD2    C1 2176   0.595   4.592  13.584  0.0685 -0.6079 -0.2006
  140MPD2    C2 2177   0.671   4.481  13.536 -0.6149 -0.3601 -1.0806
  140MPD2    C3 2178   0.671   4.364  13.601 -0.4093 -0.9583 -0.0315
  140MPD2    C4 2179   0.594   4.345  13.716 -0.5677 -0.6946 -0.3335
  140MPD2    C5 2180   0.526   4.450  13.773  0.5321 -0.5182 -1.0743
  140MPD2     H 2181   0.732   4.489  13.447 -1.1488  0.6533 -1.3576
  140MPD2    H1 2182   0.589   4.253  13.772 -1.3073  0.4796  1.5215
  140MPD2    H2 2183   0.456   4.648  13.747  0.2338 -0.0022 -0.4395
  140MPD2    H3 2184   0.478   4.442  13.870  1.3419 -1.2991 -0.7369
  140MPD2     N 2185   0.738   4.268  13.535 -0.7803  0.0448 -0.4166
  140MPD2    H5 2186   0.806   4.301  13.466 -0.8464 -0.4449 -0.7146
  140MPD2    N1 2187   0.579   4.722  13.516 -0.0898  0.1394  1.2213
  140MPD2    H7 2188   0.528   0.055  13.567 -0.2847 -0.7232  2.2236
  141TMC2    C1 2189   1.119   1.379  14.352  0.5075  0.3726  0.4776
  141TMC2    C2 2190   1.132   1.247  14.382 -0.2475 -0.3315  0.4263
  141TMC2    C3 2191   1.147   1.214  14.521  0.1054 -0.3673 -0.3165
  141TMC2    C4 2192   1.134   1.480  14.449  0.2597  0.0930 -0.8382
  141TMC2    C5 2193   1.148   1.444  14.577  0.0289  0.3289  0.5489
  141TMC2    C6 2194   1.156   1.315  14.614 -0.6396 -0.1014  0.1554
  141TMC2     C 2195   1.107   1.417  14.214  0.0207 -0.5140  0.5454
  141TMC2     O 2196   1.149   1.527  14.187  0.1677  0.2885 -0.2961
  141TMC2     H 2197   1.119   1.181  14.297  1.2938  1.7046 -1.3933
  141TMC2    H1 2198   1.121   1.582  14.416 -0.6559  0.6741  1.3208
  141TMC2    H2 2199   1.168   1.293  14.720  0.4280 -1.1250 -0.1806
  141TMC2    C7 2200   1.213   1.534  14.666  0.1731 -0.1152 -0.1861
  141TMC2    C8 2201   1.207   1.091  14.562 -0.4308  0.2746  0.1126
  141TMC2    O1 2202   1.194   1.516  14.786 -0.6883  0.4300 -0.1088
  141TMC2    O2 2203   1.289   1.092  14.655  0.0198  0.5567  0.6064
  141TMC2    O5 2204   1.152   0.990  14.499 -0.3154  0.2391 -0.1799
  141TMC2    H5 2205   1.075   1.032  14.455  0.8088  0.3869 -1.9800
  142TMC2    C1 2206   3.062   3.415  10.300 -0.2537 -0.0591 -0.5550
  142TMC2    C2 2207   3.090   3.288  10.253 -0.6415  0.5005  0.1000
  142TMC2    C3 2208   3.139   3.284  10.131  0.7125 -0.2650 -0.0080
  142TMC2    C4 2209   3.075   3.536  10.234  0.1324 -0.2059 -0.3335
  142TMC2    C5 2210   3.129   3.520  10.106  0.0691 -0.5347 -0.4999
  142TMC2    C6 2211   3.162   3.398  10.055  0.6697 -0.0207  0.0645
  142TMC2     C 2212   2.969   3.416  10.417  0.4094  0.2111  0.0595
  142TMC2     O 2213   2.946   3.306  10.470  0.3516 -0.1131 -0.5360
  142TMC2     H 2214   3.086   3.203  10.321 -2.5083 -0.3518 -1.0732
  142TMC2    H1 2215   3.037   3.633  10.261 -1.0580 -0.9454  0.6569
  142TMC2    H2 2216   3.222   3.387   9.965  0.5416 -0.9877  0.0903
  142TMC2    C7 2217   3.175   3.639  10.036 -0.2248  0.4290 -1.1482
  142TMC2    C8 2218   3.150   3.151  10.078  0.4914 -0.0664 -0.4631
  142TMC2    O1 2219   3.171   3.743  10.101  0.0524  0.3035 -0.4752
  142TMC2    O2 2220   3.163   3.053  10.150  0.4707 -0.0002  0.1162
  142TMC2    O5 2221   3.112   3.160   9.948 -0.3754 -0.1467  0.1906
  142TMC2    H5 2222   3.090   3.252   9.922  2.5883  0.4034 -0.4636
  143MPD2     C 2223   2.681   3.608  10.783 -0.2838 -0.2573 -0.0283
  143MPD2    C1 2224   2.664   3.496  10.709 -0.1645  0.3398 -0.2183
  143MPD2    C2 2225   2.753   3.470  10.609 -0.1496 -0.5327  0.0441
  143MPD2    C3 2226   2.859   3.556  10.584  0.7120  0.1074 -0.2359
  143MPD2    C4 2227   2.879   3.674  10.655  0.4830 -0.5262  0.1682
  143MPD2    C5 2228   2.790   3.691  10.759  0.0591  0.0257  0.6728
  143MPD2     H 2229   2.750   3.380  10.548 -1.0886 -0.2297 -0.3683
  143MPD2    H1 2230   2.960   3.745  10.640  2.0037 -1.9238  1.7935
  143MPD2    H2 2231   2.619   3.629  10.869 -2.5507  0.1810 -1.7888
  143MPD2    H3 2232   2.808   3.784  10.812  1.5236 -0.6382  1.3491
  143MPD2     N 2233   2.947   3.538  10.470  0.7511 -0.2892  0.4551
  143MPD2    H5 2234   2.993   3.621  10.434 -0.2714  0.0229 -0.1420
  143MPD2    N1 2235   2.550   3.413  10.739  0.2286  0.1520 -0.5926
  143MPD2    H7 2236   2.503   3.422  10.829  1.0329 -2.4388  0.0886
  144TMC2    C1 2237   1.371   3.639   1.169 -0.0797 -1.0004  0.5153
  144TMC2    C2 2238   1.354   3.534   1.253  0.1331 -0.0913 -0.4673
  144TMC2    C3 2239   1.454   3.508   1.349  0.2359  0.1259 -0.0490
  144TMC2    C4 2240   1.471   3.728   1.169  0.0068 -0.0306  0.5333
  144TMC2    C5 2241   1.564   3.705   1.269  0.4242  0.3781  0.0550
  144TMC2    C6 2242   1.560   3.594   1.355  0.1521  0.4794 -0.6868
  144TMC2     C 2243   1.271   3.642   1.063 -0.5847  1.1733 -0.1706
  144TMC2     O 2244   1.205   3.538   1.048  0.1642  0.3032  0.3691
  144TMC2     H 2245   1.262   3.477   1.255  0.0193  0.1320  0.5773
  144TMC2    H1 2246   1.470   3.812   1.100  1.6736 -0.3757  0.0821
  144TMC2    H2 2247   1.642   3.574   1.423  0.5330  3.9190 -0.1178
  144TMC2    C7 2248   1.672   3.798   1.277 -0.0263 -0.2375  0.0489
  144TMC2    C8 2249   1.406   3.431   1.460  0.3293 -0.1717  0.7900
  144TMC2    O1 2250   1.779   3.760   1.326 -0.0374 -0.4624 -0.3354
  144TMC2    O2 2251   1.291   3.460   1.487 -0.6829 -0.3135  0.1386
  144TMC2    O5 2252   1.509   3.424   1.546  0.6390  0.1760 -0.0578
  144TMC2    H5 2253   1.588   3.388   1.501  0.9338 -0.8153  1.2558
  145MPD2     C 2254   1.037   3.847   0.653  0.1999 -0.2278 -0.3465
  145MPD2    C1 2255   1.045   3.713   0.690  0.8420  0.5313 -0.1327
  145MPD2    C2 2256   1.107   3.686   0.814  0.0849 -0.0737  0.2148
  145MPD2    C3 2257   1.166   3.789   0.894 -0.0199 -0.0323 -0.1227
  145MPD2    C4 2258   1.159   3.922   0.844  0.1968  0.2244  0.3455
  145MPD2    C5 2259   1.101   3.942   0.725 -0.2929 -0.4833 -1.0145
  145MPD2     H 2260   1.130   3.583   0.837 -0.5413 -0.2819 -0.0678
  145MPD2    H1 2261   1.203   4.007   0.895 -0.2737  2.7293 -3.4220
  145MPD2    H2 2262   0.984   3.867   0.561 -0.4287  0.3186  0.1349
  145MPD2    H3 2263   1.092   4.044   0.689 -1.7752  0.1481  1.1854
  145MPD2     N 2264   1.245   3.763   1.010  0.5454  1.4166 -0.1624
  145MPD2    H5 2265   1.283   3.850   1.046 -0.5339  1.3513  1.1333
  145MPD2    N1 2266   1.006   3.599   0.611 -0.2305  0.7187 -0.1450
  145MPD2    H7 2267   1.007   3.505   0.648 -1.7654  0.0932 -1.6901
  146TMC2    C1 2268   2.704   2.558  12.936  0.1533 -0.5269  0.0410
  146TMC2    C2 2269   2.648   2.632  12.835  0.1500  0.0943  0.7807
  146TMC2    C3 2270   2.661   2.571  12.712 -0.4512  1.0198  0.4085
  146TMC2    C4 2271   2.768   2.435  12.924 -0.0253 -0.1941  0.2383
  146TMC2    C5 2272   2.759   2.378  12.793  0.7485  0.2465 -0.2398
  146TMC2    C6 2273   2.700   2.442  12.691  0.6887 -0.5780  0.0234
  146TMC2     C 2274   2.711   2.633  13.065  0.1403  0.8493  0.1218
  146TMC2     O 2275   2.697   2.756  13.065 -0.5478  0.2064  0.6221
  146TMC2     H 2276   2.599   2.727  12.852 -1.9142 -0.9894  0.9021
  146TMC2    H1 2277   2.832   2.404  13.006  1.7782  1.4461 -0.5411
  146TMC2    H2 2278   2.716   2.399  12.593  1.1830 -0.4648  0.0529
  146TMC2    C7 2279   2.761   2.237  12.783  0.8648  0.1083  0.2812
  146TMC2    C8 2280   2.576   2.626  12.610  0.2737 -0.4502  0.0317
  146TMC2    O1 2281   2.698   2.190  12.689 -0.1379  0.4927 -0.5985
  146TMC2    O2 2282   2.529   2.554  12.520  0.0265 -0.6360 -0.3228
  146TMC2    O5 2283   2.613   2.756  12.598  0.7287 -0.6785  1.1133
  146TMC2    H5 2284   2.687   2.786  12.654 -0.5381 -1.1203  3.0024
  147MPD2     C 2285   2.863   1.769  12.961 -0.7666  0.1762 -0.3345
  147MPD2    C1 2286   2.921   1.863  13.040 -0.0477  0.2378 -0.5985
  147MPD2    C2 2287   2.903   1.998  13.016 -0.5710 -0.6971 -0.6062
  147MPD2    C3 2288   2.833   2.037  12.901  0.3626  0.1447 -0.2251
  147MPD2    C4 2289   2.764   1.944  12.830  0.4403 -0.4489 -0.9484
  147MPD2    C5 2290   2.786   1.813  12.855  0.0372  0.4085  0.8560
  147MPD2     H 2291   2.947   2.073  13.080 -1.7775 -1.4389  1.0731
  147MPD2    H1 2292   2.704   1.969  12.744 -0.7915  0.2380  0.1122
  147MPD2    H2 2293   2.872   1.662  12.974 -2.3310  0.5255  3.6051
  147MPD2    H3 2294   2.731   1.745  12.791 -0.2489  0.6921  0.8032
  147MPD2     N 2295   2.826   2.177  12.888 -0.3527  0.5151  0.4498
  147MPD2    H5 2296   2.847   2.228  12.974  0.4788  1.2124 -0.1642
  147MPD2    N1 2297   2.980   1.818  13.160  0.5983 -0.8026 -0.0380
  147MPD2    H7 2298   2.959   1.724  13.193 -1.0022  0.6355  3.0758
  148TMC2    C1 2299   2.471   1.161  10.743 -0.2515  0.6888  0.2741
  148TMC2    C2 2300   2.588   1.225  10.771 -0.4157 -0.1396  0.0978
  148TMC2    C3 2301   2.699   1.158  10.810  0.4795  0.7796 -0.4351
  148TMC2    C4 2302   2.472   1.022  10.737  0.8153  0.4492  0.3599
  148TMC2    C5 2303   2.585   0.959  10.761  0.2729  0.1037  0.2707
  148TMC2    C6 2304   2.706   1.021  10.796  0.4174 -0.1317  0.6648
  148TMC2     C 2305   2.365   1.238  10.677 -0.5927  0.3028  0.4553
  148TMC2     O 2306   2.392   1.356  10.648  0.0733 -0.1867  0.1701
  148TMC2     H 2307   2.587   1.331  10.750 -0.7453 -0.2453 -0.4421
  148TMC2    H1 2308   2.385   0.966  10.703  1.5864 -0.2505 -0.4482
  148TMC2    H2 2309   2.795   0.960  10.811 -0.5245 -1.6353  0.1734
  148TMC2    C7 2310   2.600   0.819  10.716  0.0294  0.5153  0.1612
  148TMC2    C8 2311   2.822   1.242  10.810 -0.3504  0.3952  0.1996
  148TMC2    O1 2312   2.524   0.786  10.625  0.9591  0.2806  0.2812
  148TMC2    O2 2313   2.932   1.194  10.793  1.2049  0.4713 -0.2427
  148TMC2    O5 2314   2.790   1.351  10.882  0.0694  0.6774  0.4536
  148TMC2    H5 2315   2.704   1.349  10.928 -0.2553  1.8523 -0.1164
  149MPD2     C 2316   2.138   1.331  10.523 -0.2386 -0.1616 -0.2439
  149MPD2    C1 2317   2.152   1.199  10.560 -0.3251  0.3225  0.1570
  149MPD2    C2 2318   2.069   1.102  10.514  0.7970  0.6788  0.4465
  149MPD2    C3 2319   1.951   1.146  10.448 -0.2652  0.0721 -0.2359
  149MPD2    C4 2320   1.941   1.274  10.420 -0.6053  0.2934 -0.6871
  149MPD2    C5 2321   2.032   1.363  10.448 -1.1463  0.1283 -0.0699
  149MPD2     H 2322   2.077   0.997  10.540 -0.3096 -0.2963 -3.1258
  149MPD2    H1 2323   1.852   1.305  10.366 -0.3917  0.6077 -0.8565
  149MPD2    H2 2324   2.208   1.409  10.550 -0.5705  0.6919 -1.8492
  149MPD2    H3 2325   2.008   1.465  10.420  0.7268  0.4157 -0.5757
  149MPD2     N 2326   1.842   1.067  10.402  0.4499 -0.1531  0.1185
  149MPD2    H5 2327   1.775   1.126  10.354  1.5013  2.3231  1.6861
  149MPD2    N1 2328   2.261   1.155  10.638 -0.1903 -0.3867 -0.1336
  149MPD2    H7 2329   2.263   1.056  10.657 -0.3284 -0.1054  1.3067
  150TMC2    C1 2330   0.293   0.200  12.039  0.6045 -0.1663  0.0222
  150TMC2    C2 2331   0.251   0.264  11.922  0.2728  0.0007 -0.7529
  150TMC2    C3 2332   0.347   0.325  11.849  0.5837 -0.0840 -0.2399
  150TMC2    C4 2333   0.425   0.202  12.087  0.2944  0.4569 -0.5122
  150TMC2    C5 2334   0.513   0.272  12.005 -0.4041  0.5396  0.4641
  150TMC2    C6 2335   0.475   0.344  11.898 -0.5665 -0.7532  0.5143
  150TMC2     C 2336   0.197   0.169  12.146  0.7224  0.3633  0.2147
  150TMC2     O 2337   0.245   0.107  12.246  0.1029  0.1579 -0.2967
  150TMC2     H 2338   0.148   0.262  11.889 -0.3966 -2.9515  1.5178
  150TMC2    H1 2339   0.453   0.161  12.184  0.1769  2.4648  0.3584
  150TMC2    H2 2340   0.551   0.391  11.836  0.0033 -1.2443  0.8427
  150TMC2    C7 2341   0.643   0.294  12.062  0.3122 -0.1778  0.7480
  150TMC2    C8 2342   0.304   0.399  11.735 -0.5499  0.2245  0.3478
  150TMC2    O1 2343   0.693   0.400  12.023  0.4681  0.1487 -0.0761
  150TMC2    O2 2344   0.215   0.364  11.660 -0.8029  0.4936  0.2514
  150TMC2    O5 2345   0.365   0.522  11.742  0.6107  0.0695 -0.2614
  150TMC2    H5 2346   0.395   0.558  11.828 -0.4897  0.3925 -0.0140
  151MPD2     C 2347   4.457   0.252  12.334  0.2366 -0.1936  0.6177
  151MPD2    C1 2348   4.468   0.310  12.214 -0.2942  0.4974  0.2810
  151MPD2    C2 2349   4.588   0.300  12.141 -0.8136  0.2668  1.2399
  151MPD2    C3 2350   4.690   0.228  12.199 -0.3047 -0.1459  0.6228
  151MPD2    C4 2351   4.675   0.164  12.315  0.7815  0.5162  0.4656
  151MPD2    C5 2352   4.557   0.177  12.386 -0.0986  0.1374 -0.1621
  151MPD2     H 2353   4.612   0.343  12.045 -0.8113 -1.0139  0.6616
  151MPD2    H1 2354   0.024   0.111  12.355 -1.4389 -2.6914  1.0475
  151MPD2    H2 2355   4.368   0.271  12.393 -1.0167  1.3959 -1.7757
  151MPD2    H3 2356   4.536   0.126  12.479  0.9458 -0.7209 -0.4013
  151MPD2     N 2357   0.070   0.226  12.118 -0.8487 -0.3639  0.9720
  151MPD2    H5 2358   0.058   0.279  12.032 -0.0153 -0.6624  0.6688
  151MPD2    N1 2359   4.361   0.382  12.169 -0.7181 -0.6750  0.4443
  151MPD2    H7 2360   4.269   0.354  12.203 -0.8312  0.9319  1.4740
  152TMC2    C1 2361   0.068   0.201  12.651  0.2638  0.1963 -0.2971
  152TMC2    C2 2362   0.131   0.076  12.664  0.1823 -0.7513 -0.3097
  152TMC2    C3 2363   0.249   0.065  12.595  0.4072  0.2167  0.1538
  152TMC2    C4 2364   0.118   0.311  12.586 -0.3388 -0.0405 -0.7859
  152TMC2    C5 2365   0.241   0.290  12.534 -0.1299  0.4451  0.0303
  152TMC2    C6 2366   0.306   0.165  12.524  0.5070 -0.1070 -0.4162
  152TMC2     C 2367   4.687   0.222  12.725  0.4591  0.0937 -0.0707
  152TMC2     O 2368   4.627   0.323  12.701  0.4551  0.0360 -0.2470
  152TMC2     H 2369   0.091   4.721  12.705  1.8809 -1.2615  0.1876
  152TMC2    H1 2370   0.072   0.408  12.584  1.1940  0.7433  1.6268
  152TMC2    H2 2371   0.398   0.154  12.467  1.3757 -1.5931  1.2914
  152TMC2    C7 2372   0.307   0.398  12.458  0.0918 -0.5155 -0.2695
  152TMC2    C8 2373   0.285   4.671  12.553 -0.6854 -0.2388 -0.5385
  152TMC2    O1 2374   0.241   0.472  12.386  0.1112 -0.0573  0.0695
  152TMC2    O2 2375   0.261   4.572  12.619  0.5005  0.4103 -0.3365
  152TMC2    O5 2376   0.251   4.667  12.419 -0.1985 -0.6951 -0.5243
  152TMC2    H5 2377   0.276   0.012  12.373  2.3690 -1.7361 -1.0210
  153MPD2     C 2378   4.607   0.036  13.024  0.5383 -0.3134  0.1015
  153MPD2    C1 2379   4.588   0.136  12.930 -0.2077  0.5156  0.1605
  153MPD2    C2 2380   4.486   0.227  12.950  0.3906  0.4895  0.1203
  153MPD2    C3 2381   4.418   0.224  13.074  0.4453  0.4918 -0.1064
  153MPD2    C4 2382   4.439   0.121  13.168  0.6430 -0.7357  0.1921
  153MPD2    C5 2383   4.535   0.028  13.140 -0.3192  0.5452  0.4349
  153MPD2     H 2384   4.480   0.320  12.896  1.7959  0.8232  0.5571
  153MPD2    H1 2385   4.377   0.107  13.255  0.1196  0.9706  0.0873
  153MPD2    H2 2386   4.674   4.696  12.988 -2.1888 -3.3173  1.5265
  153MPD2    H3 2387   4.551   4.685  13.211  1.6139  1.0024  0.5215
  153MPD2     N 2388   4.315   0.319  13.085 -0.1547 -0.2379  0.8504
  153MPD2    H5 2389   4.286   0.368  13.001  2.8205 -2.5437 -1.5163
  153MPD2    N1 2390   4.667   0.134  12.818  1.1272  0.3274 -0.0042
  153MPD2    H7 2391   4.734   0.059  12.832  1.2834 -0.2396 -3.6179
  154TMC2    C1 2392   1.518   0.308   0.418 -0.2574 -0.0306  0.8498
  154TMC2    C2 2393   1.576   0.410   0.492 -0.2013  0.2315 -0.5902
  154TMC2    C3 2394   1.711   0.391   0.506 -0.0150  0.1460 -0.2751
  154TMC2    C4 2395   1.589   0.207   0.360  0.1088 -0.1571 -0.3631
  154TMC2    C5 2396   1.725   0.207   0.369 -0.1526  0.1274 -0.0375
  154TMC2    C6 2397   1.795   0.297   0.451  0.1603  0.8288 -0.4322
  154TMC2     C 2398   1.378   0.344   0.375 -0.3029  0.1764  0.6236
  154TMC2     O 2399   1.321   0.428   0.445 -0.1232 -0.0624 -0.0982
  154TMC2     H 2400   1.515   0.488   0.536  0.8550 -0.0256  1.3207
  154TMC2    H1 2401   1.546   0.126   0.301 -0.7715  0.1633 -0.1585
  154TMC2    H2 2402   1.903   0.296   0.459  0.1484 -0.2241 -0.4225
  154TMC2    C7 2403   1.803   0.093   0.331 -0.0965 -0.4125 -0.0921
  154TMC2    C8 2404   1.780   0.503   0.568 -0.3925 -0.9011  0.2477
  154TMC2    O1 2405   1.748   4.724   0.313  0.1250 -0.8583 -0.2033
  154TMC2    O2 2406   1.899   0.519   0.565  0.0351 -0.0345  0.1608
  154TMC2    O5 2407   1.703   0.532   0.672  0.4108  0.2470 -0.6393
  154TMC2    H5 2408   1.620   0.482   0.660  0.4411 -0.3021  1.3973
  155MPD2     C 2409   1.216   0.239   0.069  0.2816  0.3830 -0.8309
  155MPD2    C1 2410   1.219   0.308   0.185 -0.0580 -0.6361  0.3456
  155MPD2    C2 2411   1.120   0.395   0.226 -0.1952  0.4222 -0.0902
  155MPD2    C3 2412   1.020   0.437   0.144  0.0876 -0.0891  0.2460
  155MPD2    C4 2413   1.016   0.380   0.020  0.3325  0.0240 -0.5202
  155MPD2    C5 2414   1.103   0.273  17.743 -0.5961  0.3739 -0.0522
  155MPD2     H 2415   1.116   0.449   0.320 -3.3382  0.7781 -0.4069
  155MPD2    H1 2416   0.935   0.401  17.698 -3.2852 -1.6220  3.2155
  155MPD2    H2 2417   1.286   0.167   0.029 -0.8391 -0.1677 -1.8271
  155MPD2    H3 2418   1.105   0.224  17.646 -0.6013 -1.1249  0.7110
  155MPD2     N 2419   0.929   0.537   0.186 -0.3988 -0.4504  0.6393
  155MPD2    H5 2420   0.945   0.577   0.278 -3.6144  2.0233  0.1535
  155MPD2    N1 2421   1.340   0.288   0.257 -0.1180 -0.5509  0.0548
  155MPD2    H7 2422   1.413   0.242   0.204  3.3464  2.5912  2.0737
  156TMC2    C1 2423   4.522   2.747  11.865 -0.5009 -0.3402 -0.2389
  156TMC2    C2 2424   4.439   2.642  11.883 -0.0347  0.4703 -0.2258
  156TMC2    C3 2425   4.334   2.628  11.794  0.1865 -0.3767  0.5260
  156TMC2    C4 2426   4.501   2.838  11.766 -0.0009 -0.2010 -0.4599
  156TMC2    C5 2427   4.398   2.820  11.673  0.3723  0.1335 -0.1210
  156TMC2    C6 2428   4.322   2.711  11.683  0.0082 -0.4382  0.3086
  156TMC2     C 2429   4.622   2.778  11.965 -0.3371 -0.3704  0.6904
  156TMC2     O 2430   4.620   2.895  11.997 -0.2431  1.1546  0.3023
  156TMC2     H 2431   4.475   2.564  11.950 -0.8127 -1.3331 -1.9146
  156TMC2    H1 2432   4.566   2.924  11.751 -0.8262  0.0724 -2.4603
  156TMC2    H2 2433   4.229   2.700  11.628 -0.1779 -0.3972  0.6143
  156TMC2    C7 2434   4.371   2.933  11.583 -0.4605 -0.0904  0.2647
  156TMC2    C8 2435   4.250   2.513  11.821  0.2840  0.8194 -0.1161
  156TMC2    O1 2436   4.419   3.041  11.617 -0.1448 -0.8843  0.0316
  156TMC2    O2 2437   4.225   2.459  11.929  0.3087 -0.5585  0.1917
  156TMC2    O5 2438   4.245   2.441  11.710 -0.2192  0.3823 -0.6004
  156TMC2    H5 2439   4.290   2.475  11.630  0.6053  1.4699  0.3264
  157MPD2     C 2440   0.083   2.543  12.159 -0.2028  0.1087  0.1950
  157MPD2    C1 2441   0.020   2.664  12.133  0.0679  0.1474 -0.1308
  157MPD2    C2 2442   0.069   2.783  12.195 -0.2818  0.0745  0.2922
  157MPD2    C3 2443   0.171   2.777  12.289 -0.0698 -0.2892 -0.4004
  157MPD2    C4 2444   0.222   2.656  12.329  0.5111  0.5835  0.8808
  157MPD2    C5 2445   0.184   2.543  12.256 -0.5630  0.1196  0.3828
  157MPD2     H 2446   0.023   2.878  12.172  4.4419  1.7531 -2.1268
  157MPD2    H1 2447   0.285   2.648  12.417  2.2994  0.3839 -0.4242
  157MPD2    H2 2448   0.048   2.446  12.128 -1.6480  1.2377 -1.7252
  157MPD2    H3 2449   0.225   2.454  12.301  1.9693  1.8328  1.4774
  157MPD2     N 2450   0.217   2.902  12.341 -0.3111  0.0948  0.0288
  157MPD2    H5 2451   0.188   2.983  12.287 -1.1486 -1.7221 -2.2338
  157MPD2    N1 2452   4.670   2.665  12.027 -0.0470 -0.0455  0.6637
  157MPD2    H7 2453   4.626   2.576  12.011  0.4644  0.1600 -1.8721
  158TMC2    C1 2454   0.615   1.778  13.226 -0.3012 -0.1593  0.7409
  158TMC2    C2 2455   0.610   1.839  13.103  0.0669 -0.0042 -0.4914
  158TMC2    C3 2456   0.486   1.834  13.030 -0.7072 -0.5815 -0.8744
  158TMC2    C4 2457   0.500   1.705  13.268  0.3031  0.2316  0.4582
  158TMC2    C5 2458   0.384   1.696  13.190  0.3750  0.5192  0.6073
  158TMC2    C6 2459   0.382   1.756  13.070  0.2142  0.4808 -0.2976
  158TMC2     C 2460   0.722   1.827  13.320 -0.0753  0.2061 -0.4259
  158TMC2     O 2461   0.812   1.891  13.275 -0.0297  0.2461 -0.4242
  158TMC2     H 2462   0.692   1.896  13.061  0.0449  0.9120  0.6847
  158TMC2    H1 2463   0.492   1.666  13.368  0.3013 -0.5464  0.1539
  158TMC2    H2 2464   0.302   1.748  12.998  0.4208 -1.0603 -0.3576
  158TMC2    C7 2465   0.265   1.635  13.245  0.1456 -0.1292  0.4363
  158TMC2    C8 2466   0.484   1.895  12.902  0.1898 -0.1777 -0.6964
  158TMC2    O1 2467   0.164   1.664  13.182 -0.1387  0.2430 -0.0718
  158TMC2    O2 2468   0.589   1.939  12.856 -0.3331  0.6246  0.2600
  158TMC2    O5 2469   0.381   1.977  12.913 -0.1317 -0.1996  0.0797
  158TMC2    H5 2470   0.322   1.965  12.991 -0.1545  0.1726  0.1179
  159MPD2     C 2471   0.940   1.905  13.771 -0.7382 -0.5949  0.4554
  159MPD2    C1 2472   0.840   1.804  13.782 -0.5865  0.3110  0.1386
  159MPD2    C2 2473   0.757   1.777  13.673 -0.4252  0.1217 -0.6951
  159MPD2    C3 2474   0.779   1.839  13.558  0.3070  0.3652 -0.1392
  159MPD2    C4 2475   0.888   1.921  13.543 -0.1577  0.8413  0.9256
  159MPD2    C5 2476   0.962   1.958  13.652 -0.4256 -0.6488 -0.1828
  159MPD2     H 2477   0.674   1.709  13.686 -0.7789  1.0588  2.0721
  159MPD2    H1 2478   0.908   1.975  13.451 -1.7979  0.2438  0.2192
  159MPD2    H2 2479   1.009   1.919  13.853  0.2263 -1.5542 -0.1869
  159MPD2    H3 2480   1.051   2.020  13.646 -0.1133 -1.0259  0.6099
  159MPD2     N 2481   0.696   1.797  13.450  0.1674  0.5408 -0.7851
  159MPD2    H5 2482   0.622   1.730  13.465  1.9731 -1.5014 -1.0079
  159MPD2    N1 2483   0.838   1.730  13.900 -0.1570  0.9647  0.8056
  159MPD2    H7 2484   0.903   1.757  13.973  1.5876 -0.7431 -0.1254
  160TMC2    C1 2485   0.124   4.219   1.775 -0.6394  0.2433  0.1199
  160TMC2    C2 2486   0.139   4.149   1.892 -0.2510 -0.2195  0.1656
  160TMC2    C3 2487   0.198   4.019   1.887 -0.2301  0.0972  0.1352
  160TMC2    C4 2488   0.182   4.171   1.662  0.6461 -0.1725  0.5031
  160TMC2    C5 2489   0.240   4.049   1.659 -0.0715  0.0297 -0.2666
  160TMC2    C6 2490   0.247   3.961   1.766 -0.0729 -0.0946 -0.2333
  160TMC2     C 2491   0.123   4.363   1.800  0.3519  0.2201  0.2170
  160TMC2     O 2492   0.176   4.403   1.899 -0.1680  0.3364  0.3159
  160TMC2     H 2493   0.132   4.204   1.984  0.7008  0.2835 -0.0601
  160TMC2    H1 2494   0.171   4.240   1.579  0.2044  0.5773  1.1963
  160TMC2    H2 2495   0.301   3.867   1.765 -1.0376 -0.6396 -0.7320
  160TMC2    C7 2496   0.326   4.018   1.547 -0.3534  0.2102 -0.8158
  160TMC2    C8 2497   0.262   3.976   2.010  0.6079 -0.0908 -0.3135
  160TMC2    O1 2498   0.366   3.903   1.537  0.0160 -0.3070 -0.1962
  160TMC2    O2 2499   0.316   4.058   2.080  0.1367 -0.1363 -0.5446
  160TMC2    O5 2500   0.182   3.877   2.052 -0.2729 -0.2085  0.1660
  160TMC2    H5 2501   0.130   3.831   1.984  1.0557  0.3661 -1.2386
  161MPD2     C 2502   0.124   4.650   1.757 -0.1272 -0.3539 -0.1487
  161MPD2    C1 2503   0.061   4.565   1.676  0.8338 -0.9923 -0.1714
  161MPD2    C2 2504   4.736   4.622   1.561  0.0227 -0.0160 -0.3543
  161MPD2    C3 2505   4.732   0.015   1.527  0.0426  0.0268  0.2598
  161MPD2    C4 2506   0.061   0.102   1.605  0.0004 -0.1434  0.8115
  161MPD2    C5 2507   0.131   0.049   1.716 -0.2288 -0.7110 -0.2913
  161MPD2     H 2508   4.685   4.547   1.501 -1.5240  2.2134 -1.7992
  161MPD2    H1 2509   0.072   0.207   1.583 -0.1046 -0.3028 -0.0236
  161MPD2    H2 2510   0.163   4.629   1.856  1.4129 -2.6678 -1.2437
  161MPD2    H3 2511   0.183   0.115   1.784 -1.4701  0.1702 -0.1995
  161MPD2     N 2512   4.664   0.067   1.411  0.5486 -0.8070 -0.1850
  161MPD2    H5 2513   4.675   0.165   1.388 -2.1311 -0.8083 -1.4864
  161MPD2    N1 2514   0.054   4.424   1.698  0.3746 -0.5217 -0.8347
  161MPD2    H7 2515   4.736   4.369   1.633 -0.9045  1.3584 -1.3246
  162TMC2    C1 2516   2.206   1.451   0.751 -0.3562 -0.5657  0.2034
  162TMC2    C2 2517   2.105   1.538   0.743  0.4867 -0.4779 -0.0378
  162TMC2    C3 2518   2.034   1.573   0.854 -0.9620  0.5554  0.5606
  162TMC2    C4 2519   2.242   1.401   0.875  0.3190  0.5085  0.3046
  162TMC2    C5 2520   2.170   1.446   0.986 -0.9897 -0.2111  0.1425
  162TMC2    C6 2521   2.065   1.531   0.978  0.1457  0.4730 -0.5386
  162TMC2     C 2522   2.291   1.430   0.631  0.1794  0.5990  0.4438
  162TMC2     O 2523   2.410   1.415   0.655  0.3725  0.1692 -0.4562
  162TMC2     H 2524   2.079   1.581   0.647 -0.8316 -1.5198 -0.1557
  162TMC2    H1 2525   2.336   1.348   0.881 -0.8927 -1.2649  3.5734
  162TMC2    H2 2526   2.007   1.549   1.068 -2.2244  0.5239 -2.0805
  162TMC2    C7 2527   2.221   1.429   1.122 -0.8376  0.2076 -1.0476
  162TMC2    C8 2528   1.894   1.618   0.857  0.3895  0.5368  0.7123
  162TMC2    O1 2529   2.188   1.521   1.196  0.5771  0.2481 -0.2709
  162TMC2    O2 2530   1.806   1.597   0.938 -0.0296  0.1785 -0.2301
  162TMC2    O5 2531   1.891   1.683   0.738 -0.1058  0.3421 -0.1979
  162TMC2    H5 2532   1.984   1.711   0.721 -0.0891  1.0677  1.0766
  163MPD2     C 2533   2.351   1.374   0.137 -0.0407 -0.5056  0.4146
  163MPD2    C1 2534   2.439   1.361   0.233 -0.1718 -0.3672 -0.1906
  163MPD2    C2 2535   2.396   1.359   0.363 -0.1850  0.0743  0.9651
  163MPD2    C3 2536   2.266   1.389   0.389  0.0974 -0.2521 -0.4078
  163MPD2    C4 2537   2.173   1.384   0.294  0.1311 -0.3519  0.1067
  163MPD2    C5 2538   2.222   1.398   0.164  0.0223  0.0979 -0.8523
  163MPD2     H 2539   2.468   1.362   0.444  0.9244 -2.9670  0.1162
  163MPD2    H1 2540   2.066   1.395   0.309  0.0589  0.3118 -0.8994
  163MPD2    H2 2541   2.374   1.384   0.032 -1.3417  1.5143  0.3066
  163MPD2    H3 2542   2.156   1.426   0.083  0.3110  1.0125 -0.7681
  163MPD2     N 2543   2.217   1.433   0.519 -0.0990  0.2545  0.3223
  163MPD2    H5 2544   2.116   1.440   0.530 -0.2669  0.0903 -1.1088
  163MPD2    N1 2545   2.570   1.334   0.192 -0.8663  0.3753  0.6094
  163MPD2    H7 2546   2.582   1.325   0.092 -0.0033  2.1872  0.5467
  164TMC2    C1 2547   3.165   0.825  11.359  0.7750  0.3744  0.2671
  164TMC2    C2 2548   3.234   0.815  11.238  0.1866  0.1813 -0.1411
  164TMC2    C3 2549   3.195   0.884  11.128  0.3106 -0.8244 -0.1128
  164TMC2    C4 2550   3.059   0.905  11.366 -0.4943  0.0297 -0.6008
  164TMC2    C5 2551   3.025   0.978  11.248 -0.5066  0.5692  0.5043
  164TMC2    C6 2552   3.089   0.964  11.129 -0.3584 -0.1306 -0.0218
  164TMC2     C 2553   3.191   0.727  11.461 -0.4935  1.2119 -0.7753
  164TMC2     O 2554   3.172   0.763  11.577 -0.5371 -0.1869  1.2246
  164TMC2     H 2555   3.326   0.759  11.228  0.3582  0.5122 -0.4406
  164TMC2    H1 2556   3.003   0.914  11.458  1.2188  3.7557  0.0797
  164TMC2    H2 2557   3.058   1.018  11.040 -0.1569 -1.7398 -1.0628
  164TMC2    C7 2558   2.916   1.074  11.251 -0.3643 -0.0633  0.1884
  164TMC2    C8 2559   3.283   0.883  11.013  0.2008  0.5182 -0.5126
  164TMC2    O1 2560   2.850   1.085  11.147 -0.3002  0.2144  0.6343
  164TMC2    O2 2561   3.336   0.786  10.964 -0.5837 -0.0051 -0.3400
  164TMC2    O5 2562   3.357   0.994  11.039  0.2756  0.4634  0.0782
  164TMC2    H5 2563   3.328   1.056  11.110 -0.0289 -0.5790  0.8544
  165TMC2    C1 2564   4.279   4.023   1.574  0.0160 -0.1493 -0.8267
  165TMC2    C2 2565   4.289   4.138   1.640  0.4161  0.7296  0.4367
  165TMC2    C3 2566   4.391   4.156   1.729 -0.8025  0.3125 -0.2900
  165TMC2    C4 2567   4.376   3.923   1.583  0.5878 -0.6634 -0.1700
  165TMC2    C5 2568   4.480   3.951   1.662 -0.0858 -0.7928  1.0938
  165TMC2    C6 2569   4.485   4.059   1.741 -0.8035 -0.2836 -0.0836
  165TMC2     C 2570   4.166   3.985   1.487  0.3097 -0.0736  0.4275
  165TMC2     O 2571   4.155   3.868   1.457  0.6956 -0.6783 -0.0991
  165TMC2     H 2572   4.221   4.222   1.630  0.0270  0.2140 -1.2327
  165TMC2    H1 2573   4.367   3.828   1.531  0.1761 -1.6263  1.6673
  165TMC2    H2 2574   4.582   4.084   1.783  0.6614 -2.4083 -2.2136
  165TMC2    C7 2575   4.603   3.887   1.637  0.7534  0.1626  0.9464
  165TMC2    C8 2576   4.409   4.277   1.797  0.3000 -0.3347  0.3651
  165TMC2    O1 2577   4.700   3.962   1.634  0.0337 -0.2836 -0.5435
  165TMC2    O2 2578   4.375   4.385   1.752  0.0265 -0.3445 -0.1308
  165TMC2    O5 2579   4.467   4.261   1.923 -0.3278 -0.1021  0.2769
  165TMC2    H5 2580   4.477   4.171   1.960  0.0783  0.1988  0.8867
  166MPD2     C 2581   3.720   4.102   1.250  0.0798 -0.4261 -0.5361
  166MPD2    C1 2582   3.798   3.986   1.245  0.3293 -0.6202 -0.1131
  166MPD2    C2 2583   3.920   3.982   1.321  0.1185 -0.1217 -0.3758
  166MPD2    C3 2584   3.966   4.094   1.388 -0.2580  0.2691  0.4810
  166MPD2    C4 2585   3.895   4.210   1.384 -0.3904  0.1730 -0.9820
  166MPD2    C5 2586   3.766   4.208   1.323 -0.6397  0.4322 -0.6492
  166MPD2     H 2587   3.973   3.887   1.315 -0.9429 -0.7128 -0.5069
  166MPD2    H1 2588   3.941   4.301   1.422 -0.8431 -0.8137  1.8558
  166MPD2    H2 2589   3.636   4.111   1.182  0.9195 -0.8080 -1.6333
  166MPD2    H3 2590   3.707   4.298   1.315 -0.8352  0.4262  0.7290
  166MPD2     N 2591   4.081   4.095   1.464  0.5832 -1.2880 -0.0552
  166MPD2    H5 2592   4.113   4.185   1.498 -1.6291 -0.5640  0.1406
  166MPD2    N1 2593   3.743   3.880   1.169  0.4596  0.1830  0.0828
  166MPD2    H7 2594   3.650   3.898   1.131 -0.6114 -2.3373  1.5472
  167TMC2    C1 2595   2.484   1.079  13.139  0.7001 -0.3643  0.0466
  167TMC2    C2 2596   2.448   1.097  13.272 -0.2196  0.2546 -0.2025
  167TMC2    C3 2597   2.367   1.006  13.338 -0.1045  0.6491 -0.4877
  167TMC2    C4 2598   2.475   0.952  13.083  0.0345 -1.1571 -1.1377
  167TMC2    C5 2599   2.398   0.859  13.153  0.5253 -0.3520 -0.3980
  167TMC2    C6 2600   2.332   0.891  13.271  0.0080  0.4796  0.3737
  167TMC2     C 2601   2.554   1.184  13.061  0.7824 -0.0514  0.9316
  167TMC2     O 2602   2.590   1.286  13.121  0.1238 -0.3398  0.2822
  167TMC2     H 2603   2.457   1.194  13.319  0.6783 -0.1562  0.4731
  167TMC2    H1 2604   2.507   0.934  12.981  1.0757  0.5631 -1.1099
  167TMC2    H2 2605   2.270   0.816  13.318  1.6037 -1.4211 -0.5542
  167TMC2    C7 2606   2.388   0.721  13.098 -0.3865  0.2991  0.3374
  167TMC2    C8 2607   2.298   1.060  13.456  0.0686 -0.4925 -0.7218
  167TMC2    O1 2608   2.298   0.660  13.154 -0.4943  0.8287  0.1895
  167TMC2    O2 2609   2.341   1.084  13.568 -0.0616 -0.1398 -0.1620
  167TMC2    O5 2610   2.167   1.045  13.425 -0.1022  0.8338  0.4585
  167TMC2    H5 2611   2.154   1.018  13.331 -0.9664  0.4054  0.6952
  168MPD2     C 2612   2.697   1.364  12.853 -0.2450 -0.6927  0.4749
  168MPD2    C1 2613   2.639   1.237  12.825  0.8472 -0.0723 -0.3670
  168MPD2    C2 2614   2.643   1.191  12.696  0.0433 -0.3176 -0.0155
  168MPD2    C3 2615   2.705   1.253  12.595  0.1240 -0.5806  0.3306
  168MPD2    C4 2616   2.760   1.378  12.619 -0.1918 -0.6592  0.2555
  168MPD2    C5 2617   2.754   1.431  12.744 -0.3874 -0.3802  0.0243
  168MPD2     H 2618   2.597   1.095  12.678 -1.1349 -0.0063  1.3128
  168MPD2    H1 2619   2.792   1.445  12.540  1.2916  2.2313  3.3216
  168MPD2    H2 2620   2.696   1.409  12.952 -0.1351 -1.4749  0.8352
  168MPD2    H3 2621   2.782   1.533  12.764  0.5189 -0.6491  0.1407
  168MPD2     N 2622   2.725   1.194  12.465  0.4198 -0.4841  0.4380
  168MPD2    H5 2623   2.793   1.244  12.408  0.9702 -1.6885  0.0216
  168MPD2    N1 2624   2.583   1.149  12.933 -0.3168 -0.1216 -0.3128
  168MPD2    H7 2625   2.539   1.071  12.884  0.0993  0.2840 -1.3393
  169MPD1     C 2626   4.187   0.729   8.824  0.1856  0.2284  0.2675
  169MPD1    C1 2627   4.161   0.661   8.942  0.3473  0.3155 -0.0201
  169MPD1    C2 2628   4.263   0.584   8.999 -0.0142  0.0321 -0.0048
  169MPD1    C3 2629   4.397   0.593   8.955  0.2996 -0.0050  0.3380
  169MPD1    C4 2630   4.422   0.669   8.839  0.2946  0.4941  0.1302
  169MPD1    C5 2631   4.315   0.732   8.778  0.0145 -0.7802 -0.1658
  169MPD1     H 2632   4.227   0.520   9.079  0.3988  0.8510  0.8282
  169MPD1    H1 2633   4.525   0.676   8.806  0.1222  1.7090 -0.1743
  169MPD1    H2 2634   4.109   0.780   8.768 -0.1774 -0.0112  0.5491
  169MPD1    H3 2635   4.324   0.787   8.685  1.0048  1.4699  1.2658
  169MPD1     N 2636   4.498   0.513   9.018  0.0544  0.0346 -0.4772
  169MPD1    H5 2637   4.467   0.446   9.088 -1.5041  1.5207  0.2495
  169MPD1    N1 2638   4.026   0.646   8.986  0.1349  0.7125 -0.0557
  169MPD1    H6 2639   4.018   0.623   9.085 -0.4171  1.2908  0.0280
  169MPD1    H7 2640   3.987   0.740   8.978  1.5823  1.2970 -0.2773
  170MPD1     C 2641   3.496   3.290  12.967  0.1361  0.0347 -0.4793
  170MPD1    C1 2642   3.439   3.394  13.045 -0.1576 -0.3172  0.4635
  170MPD1    C2 2643   3.491   3.422  13.169  0.3400 -0.1678  0.1955
  170MPD1    C3 2644   3.602   3.350  13.218  0.0928 -0.2275  0.1725
  170MPD1    C4 2645   3.661   3.256  13.139  1.0133  0.2577 -0.4002
  170MPD1    C5 2646   3.606   3.229  13.019 -0.0022 -0.6331  0.6446
  170MPD1     H 2647   3.448   3.494  13.238 -0.2219 -1.0088  0.7383
  170MPD1    H1 2648   3.748   3.200  13.172  1.7337  0.7230 -1.5020
  170MPD1    H2 2649   3.454   3.251  12.875  0.6007 -0.0155 -0.6693
  170MPD1    H3 2650   3.660   3.163  12.952  0.1315  0.9578 -0.8199
  170MPD1     N 2651   3.653   3.386  13.341 -0.3986  0.2752  0.1345
  170MPD1    H5 2652   3.634   3.484  13.361  1.4146  0.1180  2.7045
  170MPD1    N1 2653   3.318   3.453  13.000 -0.4642  0.4074 -0.3192
  170MPD1    H6 2654   3.305   3.548  13.034  0.0685 -0.2120  1.6388
  170MPD1    H7 2655   3.304   3.455  12.900  1.5679  2.4647 -0.5693
  171MPD1     C 2656   1.641   4.446  15.815  0.1352  0.1362 -0.4319
  171MPD1    C1 2657   1.681   4.412  15.943  0.4382  0.8695  0.0625
  171MPD1    C2 2658   1.820   4.389  15.964 -0.3865 -0.5740  0.0506
  171MPD1    C3 2659   1.918   4.399  15.870 -0.0794 -0.7758  0.0543
  171MPD1    C4 2660   1.873   4.440  15.739  0.2812  0.0894  0.5277
  171MPD1    C5 2661   1.739   4.467  15.718 -0.2866 -0.5424 -0.1676
  171MPD1     H 2662   1.851   4.366  16.065 -0.3449 -0.6704  0.0154
  171MPD1    H1 2663   1.948   4.446  15.660 -1.0900  3.1508 -0.5520
  171MPD1    H2 2664   1.536   4.468  15.797  0.5073  3.0259  0.8420
  171MPD1    H3 2665   1.715   4.509  15.621  0.1985 -1.3488 -0.6338
  171MPD1     N 2666   2.056   4.371  15.889 -0.6785  0.3191  0.3586
  171MPD1    H5 2667   2.117   4.361  15.809 -0.8336  0.2893  0.2443
  171MPD1    N1 2668   1.587   4.371  16.042  0.0817  0.4980 -0.7189
  171MPD1    H6 2669   1.510   4.438  16.046  1.7953  2.3662  1.7657
  171MPD1    H7 2670   1.642   4.399  16.124  0.3995 -0.4410 -0.6096
  172MPD1     C 2671   1.313   2.867   0.123 -0.0019 -0.9993 -0.1561
  172MPD1    C1 2672   1.381   2.984   0.093 -0.1656  0.2290  0.3659
  172MPD1    C2 2673   1.390   3.080   0.190 -0.5774  0.0714 -0.5376
  172MPD1    C3 2674   1.327   3.058   0.313 -0.1844  0.6535 -0.1936
  172MPD1    C4 2675   1.255   2.940   0.339  0.6382  0.8816  0.0188
  172MPD1    C5 2676   1.249   2.847   0.244 -0.2279  0.1819 -0.0309
  172MPD1     H 2677   1.435   3.173   0.157 -0.0983  0.0395  0.0250
  172MPD1    H1 2678   1.216   2.917   0.437 -2.0921  0.1301 -1.2340
  172MPD1    H2 2679   1.313   2.776   0.065  0.8436 -1.1081  0.0053
  172MPD1    H3 2680   1.204   2.749   0.258  0.3131 -0.0502  0.0568
  172MPD1     N 2681   1.323   3.158   0.414  0.6190 -0.4565 -0.1076
  172MPD1    H5 2682   1.267   3.141   0.496 -1.3739  0.3003 -1.3195
  172MPD1    N1 2683   1.459   2.993  17.722  0.8282  0.4479  0.7872
  172MPD1    H6 2684   1.417   2.952  17.638  2.7079  0.9806 -0.4148
  172MPD1    H7 2685   1.478   3.090  17.697  1.2710 -0.2326 -1.5567
  173MPD1     C 2686   3.828   4.083  14.493 -0.1323  0.4462 -0.2105
  173MPD1    C1 2687   3.802   3.968  14.414 -0.5438 -0.2975  0.8146
  173MPD1    C2 2688   3.688   3.899  14.434 -0.3411 -0.6895  0.3355
  173MPD1    C3 2689   3.590   3.941  14.520  1.1140 -0.1759 -0.1086
  173MPD1    C4 2690   3.608   4.059  14.589 -0.6509 -0.5686  0.1780
  173MPD1    C5 2691   3.730   4.125  14.578  0.0302 -0.4810 -0.7162
  173MPD1     H 2692   3.660   3.811  14.378 -3.1819  0.6978 -0.4310
  173MPD1    H1 2693   3.536   4.103  14.658  0.3223  0.8055  0.3229
  173MPD1    H2 2694   3.917   4.141  14.472 -0.2324  0.0772 -1.6088
  173MPD1    H3 2695   3.761   4.217  14.626  0.4848 -0.8829 -0.2479
  173MPD1     N 2696   3.482   3.850  14.539 -0.2261 -0.2386  0.3247
  173MPD1    H5 2697   3.482   3.755  14.504  0.5878  0.2387 -0.9813
  173MPD1    N1 2698   3.911   3.900  14.353  0.4275  0.3148 -0.1283
  173MPD1    H6 2699   3.975   3.965  14.308  1.1022 -0.5838 -0.4383
  173MPD1    H7 2700   3.875   3.847  14.275  1.4905 -2.5997  1.3845
  174MPD1     C 2701   3.348   2.921  14.809 -0.6107  0.0807  0.5872
  174MPD1    C1 2702   3.454   3.001  14.785 -0.0561 -0.2042  0.1647
  174MPD1    C2 2703   3.423   3.131  14.756  0.2585 -0.0265  0.3828
  174MPD1    C3 2704   3.292   3.180  14.759 -0.7165 -0.4393  0.1089
  174MPD1    C4 2705   3.192   3.099  14.800 -0.4229 -0.3490 -0.4314
  174MPD1    C5 2706   3.221   2.967  14.816 -0.0073 -0.8611 -0.1802
  174MPD1     H 2707   3.506   3.195  14.729  2.2656 -2.2925  1.1604
  174MPD1    H1 2708   3.090   3.135  14.810 -0.6876 -1.2245  0.0035
  174MPD1    H2 2709   3.362   2.813  14.814 -1.2954 -0.0518 -0.3069
  174MPD1    H3 2710   3.150   2.887  14.835  0.4836 -0.5620  2.8727
  174MPD1     N 2711   3.257   3.313  14.733 -0.7443 -0.0750 -0.2398
  174MPD1    H5 2712   3.160   3.340  14.741 -0.7253 -0.4511  1.1963
  174MPD1    N1 2713   3.573   2.936  14.761 -0.1080  0.2077  0.2362
  174MPD1    H6 2714   3.657   2.994  14.758  0.9748 -1.3021  1.0738
  174MPD1    H7 2715   3.589   2.850  14.813  2.1829 -0.4952 -1.6171
  175MPD1     C 2716   1.169   4.099  15.912  0.0594  0.0092  0.1179
  175MPD1    C1 2717   1.275   4.173  15.966  0.1878 -0.6697 -0.2563
  175MPD1    C2 2718   1.279   4.193  16.102 -0.0087  0.8772  0.1689
  175MPD1    C3 2719   1.184   4.144  16.188  0.3284  0.3527 -0.3878
  175MPD1    C4 2720   1.071   4.094  16.133 -0.0476  0.1053 -0.4295
  175MPD1    C5 2721   1.064   4.068  15.999 -0.3620  0.2341 -0.1884
  175MPD1     H 2722   1.367   4.240  16.143  1.1092 -1.0964  0.0623
  175MPD1    H1 2723   0.987   4.053  16.187  0.8542 -0.7521  0.3226
  175MPD1    H2 2724   1.160   4.088  15.805 -2.2139 -1.1345  0.4230
  175MPD1    H3 2725   0.975   4.020  15.962 -2.0887  3.5992 -0.4177
  175MPD1     N 2726   1.197   4.174  16.328  0.0248  0.9179  0.4300
  175MPD1    H5 2727   1.110   4.161  16.377 -1.1116  1.5845 -1.4200
  175MPD1    N1 2728   1.354   4.257  15.878 -0.3307  0.2773  0.0488
  175MPD1    H6 2729   1.378   4.213  15.790 -1.4209 -1.6429  0.7022
  175MPD1    H7 2730   1.442   4.276  15.927 -0.9109  2.2081  0.3197
  176MPD1     C 2731   2.607   1.794   0.119 -0.4797  0.0212  0.2687
  176MPD1    C1 2732   2.612   1.903   0.031 -0.5333 -0.9444  0.0295
  176MPD1    C2 2733   2.724   1.982   0.028 -1.0819 -0.2064 -0.3299
  176MPD1    C3 2734   2.820   1.974   0.127  0.2162 -0.0392  0.3007
  176MPD1    C4 2735   2.801   1.880   0.224 -0.6648 -0.2429 -0.1856
  176MPD1    C5 2736   2.699   1.784   0.221  0.3487  0.1746 -0.6004
  176MPD1     H 2737   2.744   2.061  17.704  0.8851  0.1884  0.6704
  176MPD1    H1 2738   2.872   1.878   0.306 -1.1738  0.1484  0.2654
  176MPD1    H2 2739   2.529   1.721   0.099  0.3468 -0.6916 -0.3441
  176MPD1    H3 2740   2.679   1.711   0.298  0.7352 -0.2258 -0.8785
  176MPD1     N 2741   2.921   2.068   0.127  0.3645 -0.4698 -0.6462
  176MPD1    H5 2742   2.914   2.130   0.046 -0.8866 -1.7142 -1.4970
  176MPD1    N1 2743   2.518   1.914  17.671  0.2728 -0.6371  0.8752
  176MPD1    H6 2744   2.529   2.007  17.631  1.5499 -1.3638 -0.4292
  176MPD1    H7 2745   2.423   1.890  17.699 -0.2110  0.4901  0.1929
  177MPD1     C 2746   1.791   1.299  10.066  0.0110 -0.3280 -0.1338
  177MPD1    C1 2747   1.697   1.392  10.083 -0.5768 -0.2354  0.2130
  177MPD1    C2 2748   1.566   1.362  10.048 -0.0629 -0.6565 -0.2627
  177MPD1    C3 2749   1.530   1.231   9.998  0.6540 -0.5315 -0.8964
  177MPD1    C4 2750   1.630   1.138   9.979  0.0348 -0.1577  0.0459
  177MPD1    C5 2751   1.758   1.179  10.016  0.9892  0.8319  0.7852
  177MPD1     H 2752   1.489   1.434  10.074 -1.1438 -2.1228  0.5933
  177MPD1    H1 2753   1.620   1.035   9.948 -2.4656  0.2648 -0.4990
  177MPD1    H2 2754   1.894   1.319  10.096  0.1815 -0.1143 -0.8670
  177MPD1    H3 2755   1.845   1.114  10.011  1.0262  0.9978 -0.7249
  177MPD1     N 2756   1.391   1.207   9.965  0.2190 -0.1622  0.2527
  177MPD1    H5 2757   1.334   1.290   9.980  0.7084  0.3921 -0.8938
  177MPD1    N1 2758   1.725   1.507  10.158 -0.1440 -0.1046 -0.6790
  177MPD1    H6 2759   1.664   1.586  10.142 -1.8589 -1.7847 -2.4001
  177MPD1    H7 2760   1.819   1.544  10.167  0.2555 -1.1845 -0.3083
  178MPD1     C 2761   3.351   1.917   0.040 -0.2443  0.3554  0.6596
  178MPD1    C1 2762   3.440   2.003   0.101  0.0849 -0.3518 -0.1993
  178MPD1    C2 2763   3.503   2.098   0.018 -0.2907 -0.2880 -0.1913
  178MPD1    C3 2764   3.474   2.105  17.636 -0.0964 -0.4193  0.6923
  178MPD1    C4 2765   3.373   2.026  17.579  0.4931 -1.4605  0.0192
  178MPD1    C5 2766   3.310   1.930  17.663  0.0378  0.6834  0.1171
  178MPD1     H 2767   3.586   2.148   0.065 -0.3790 -1.0116  0.7446
  178MPD1    H1 2768   3.346   2.028  17.474 -1.0083 -3.2799  0.3751
  178MPD1    H2 2769   3.298   1.837   0.091 -0.3036  1.9630  3.1036
  178MPD1    H3 2770   3.237   1.859  17.626 -0.1105  1.6144 -1.3802
  178MPD1     N 2771   3.548   2.186  17.547  0.0394 -0.3349  0.1017
  178MPD1    H5 2772   3.521   2.181  17.449 -0.2593 -0.4590  0.1905
  178MPD1    N1 2773   3.477   1.986   0.236  0.4966  0.3898  0.0585
  178MPD1    H6 2774   3.511   2.070   0.282  0.6056  0.4735 -0.1741
  178MPD1    H7 2775   3.412   1.946   0.304 -1.2714  1.1154 -1.2322
  179MPD1     C 2776   3.828   4.547  15.563 -0.7065  0.3428  0.2977
  179MPD1    C1 2777   3.912   4.640  15.616 -0.0489 -0.0321  0.0584
  179MPD1    C2 2778   3.862   0.006  15.690  0.2035 -0.0481 -0.1269
  179MPD1    C3 2779   3.726   0.021  15.695 -0.1166  0.0073  0.2256
  179MPD1    C4 2780   3.634   4.664  15.641 -0.6770 -0.0775  0.2246
  179MPD1    C5 2781   3.692   4.557  15.589  0.2146 -0.5054  0.0795
  179MPD1     H 2782   3.927   0.092  15.706  0.2939 -0.0917 -0.2536
  179MPD1    H1 2783   3.527   4.674  15.654 -0.7527  1.8560 -1.8343
  179MPD1    H2 2784   3.869   4.463  15.509 -0.7948  0.6694 -0.2697
  179MPD1    H3 2785   3.625   4.480  15.552  1.8535 -1.7964 -0.1906
  179MPD1     N 2786   3.661   0.128  15.755  0.2732 -0.0537 -0.0615
  179MPD1    H5 2787   3.560   0.139  15.757  0.4358  0.3313  4.9596
  179MPD1    N1 2788   4.045   4.639  15.577  0.3664  0.4020 -0.0012
  179MPD1    H6 2789   4.080   4.547  15.554 -0.5438 -0.5152  2.2858
  179MPD1    H7 2790   4.107   4.674  15.650  2.2006 -0.0368 -1.3382
  180MPD1     C 2791   3.862   2.487  15.454  0.0189  0.3735  0.5409
  180MPD1    C1 2792   3.872   2.496  15.314  0.0790 -0.1835 -0.4439
  180MPD1    C2 2793   3.763   2.466  15.231 -0.5354  0.1937 -0.4116
  180MPD1    C3 2794   3.646   2.420  15.288 -0.7116 -0.4846  0.9093
  180MPD1    C4 2795   3.645   2.400  15.427 -0.4500  0.5577 -0.4204
  180MPD1    C5 2796   3.749   2.438  15.508  0.3366  0.0093 -0.2368
  180MPD1     H 2797   3.773   2.468  15.123 -1.2400 -0.9705 -0.4981
  180MPD1    H1 2798   3.562   2.357  15.481  1.7933 -1.3463  1.4905
  180MPD1    H2 2799   3.948   2.515  15.514  2.5066 -0.5106 -2.6321
  180MPD1    H3 2800   3.743   2.425  15.615  0.1848 -0.7373 -0.3412
  180MPD1     N 2801   3.555   2.361  15.200 -0.6896 -0.0547 -0.4951
  180MPD1    H5 2802   3.582   2.374  15.103  0.2390 -1.7324 -0.4617
  180MPD1    N1 2803   3.992   2.546  15.265  0.5990 -0.6993 -0.4387
  180MPD1    H6 2804   4.068   2.546  15.332  1.0115 -0.5177 -0.9054
  180MPD1    H7 2805   4.028   2.502  15.180  2.8487 -0.8201  0.5792
  181MPD1     C 2806   3.681   3.909   9.764  0.8398 -0.0462 -0.4368
  181MPD1    C1 2807   3.771   3.988   9.697 -0.5422  0.1297  0.6655
  181MPD1    C2 2808   3.902   3.970   9.714  0.5400 -0.3255  0.8841
  181MPD1    C3 2809   3.949   3.889   9.816 -0.3318  0.0333 -0.0251
  181MPD1    C4 2810   3.862   3.813   9.887 -0.1761 -1.0086  0.2454
  181MPD1    C5 2811   3.723   3.832   9.866 -0.0143 -0.4363  0.1429
  181MPD1     H 2812   3.975   4.027   9.658  0.2527  0.5570  1.4095
  181MPD1    H1 2813   3.881   3.745   9.969 -0.1032 -0.7708  0.4288
  181MPD1    H2 2814   3.574   3.908   9.746  0.4867 -0.4467  1.7641
  181MPD1    H3 2815   3.652   3.779   9.929 -1.4760 -1.1758 -2.1200
  181MPD1     N 2816   4.089   3.889   9.853  0.2308  0.2404  0.4998
  181MPD1    H5 2817   4.123   3.818   9.916 -0.6458 -0.5667  0.0541
  181MPD1    N1 2818   3.724   4.061   9.590 -0.0887 -0.4167 -0.1599
  181MPD1    H6 2819   3.792   4.131   9.561 -0.6940  0.1000 -0.3276
  181MPD1    H7 2820   3.633   4.098   9.617 -0.3455  0.5528 -2.3727
  182MPD1     C 2821   1.886   2.831   1.895 -0.2105 -0.9252  0.4050
  182MPD1    C1 2822   1.853   2.931   1.987 -0.4129 -0.1708  0.2869
  182MPD1    C2 2823   1.719   2.941   2.018 -0.3495 -0.1639  0.0040
  182MPD1    C3 2824   1.622   2.869   1.952 -0.8948 -0.1487 -0.9527
  182MPD1    C4 2825   1.657   2.781   1.848  0.2145  0.0728 -0.2213
  182MPD1    C5 2826   1.792   2.766   1.816 -0.6674 -0.3373 -0.5803
  182MPD1     H 2827   1.701   3.007   2.102 -0.3462 -0.0441 -0.0896
  182MPD1    H1 2828   1.582   2.723   1.797 -0.4189  1.9352 -1.4246
  182MPD1    H2 2829   1.991   2.817   1.870 -0.0105  0.3335  0.5021
  182MPD1    H3 2830   1.830   2.699   1.739  0.8700 -0.3786  0.2273
  182MPD1     N 2831   1.484   2.877   1.975  0.3890  0.0120  0.5698
  182MPD1    H5 2832   1.425   2.811   1.925  1.0973 -0.5831  0.5129
  182MPD1    N1 2833   1.953   2.991   2.060 -0.4183 -0.0394  0.2811
  182MPD1    H6 2834   1.917   3.078   2.099 -1.2812  0.0824 -0.7783
  182MPD1    H7 2835   2.035   3.014   2.004 -0.6439 -2.5136 -1.0786
  183MPD1     C 2836   4.716   3.093   9.339  0.4418 -0.5181 -0.1807
  183MPD1    C1 2837   4.659   3.187   9.427  0.0919  0.7358 -0.4962
  183MPD1    C2 2838   4.722   3.221   9.544 -0.1887 -0.4902 -0.2191
  183MPD1    C3 2839   0.109   3.169   9.572 -0.0438  0.1156 -0.1013
  183MPD1    C4 2840   0.164   3.074   9.487  0.1635 -0.5273 -0.1074
  183MPD1    C5 2841   0.094   3.035   9.376  0.0139  0.0800  0.4333
  183MPD1     H 2842   4.669   3.292   9.606 -2.2527  0.0128 -2.5499
  183MPD1    H1 2843   0.261   3.027   9.496 -0.5795 -2.0032  0.1442
  183MPD1    H2 2844   4.674   3.070   9.242  1.3408  0.1541 -0.7369
  183MPD1    H3 2845   0.138   2.967   9.303  2.6776  0.9618  1.2229
  183MPD1     N 2846   0.171   3.218   9.691  0.6932  0.3724 -0.0642
  183MPD1    H5 2847   0.126   3.293   9.742  0.1789 -0.4234  0.6439
  183MPD1    N1 2848   4.540   3.255   9.379 -0.4553 -0.3988  0.1113
  183MPD1    H6 2849   4.476   3.287   9.450 -1.9528  1.8719 -2.2653
  183MPD1    H7 2850   4.491   3.199   9.309  0.1845  0.1470 -0.7808
  184MPD1     C 2851   4.487   0.891  10.400  0.2411 -0.0140 -0.1096
  184MPD1    C1 2852   4.582   0.997  10.406  0.1394  0.0833  0.3304
  184MPD1    C2 2853   4.626   1.054  10.280  0.5818 -0.4887  0.1892
  184MPD1    C3 2854   4.565   1.024  10.161 -1.2422  0.2832 -0.3862
  184MPD1    C4 2855   4.453   0.938  10.162  0.0670 -0.7291 -0.5410
  184MPD1    C5 2856   4.426   0.871  10.279  0.3552 -0.4606 -0.5002
  184MPD1     H 2857   4.710   1.123  10.284  0.6723 -0.6281  0.7415
  184MPD1    H1 2858   4.392   0.921  10.074 -2.8014 -1.4320  1.5821
  184MPD1    H2 2859   4.451   0.837  10.487 -2.7068 -2.4680 -2.8516
  184MPD1    H3 2860   4.334   0.815  10.286  0.8108 -0.8503  2.7971
  184MPD1     N 2861   4.604   1.071  10.035  0.3218  0.2355  0.5790
  184MPD1    H5 2862   4.556   1.033   9.954  2.0426 -3.0955  1.0920
  184MPD1    N1 2863   4.648   1.033  10.527  0.1223  0.6731  0.5006
  184MPD1    H6 2864   4.592   1.016  10.610 -1.8423  2.4678 -0.4625
  184MPD1    H7 2865   4.719   0.963  10.548  1.1463  1.9549  1.3288
  185MPD1     C 2866   4.242   0.865   9.320 -0.5236  0.3244 -0.1806
  185MPD1    C1 2867   4.362   0.904   9.261  0.1644  0.0084  0.2425
  185MPD1    C2 2868   4.455   0.944   9.353  0.4603  0.4872  0.0088
  185MPD1    C3 2869   4.434   0.961   9.490 -0.0608 -0.1505  0.9187
  185MPD1    C4 2870   4.314   0.932   9.543  0.3525  0.4621 -0.1972
  185MPD1    C5 2871   4.225   0.876   9.458 -0.2043  0.0446  0.2039
  185MPD1     H 2872   4.552   0.970   9.310 -0.6310 -0.1391 -2.8058
  185MPD1    H1 2873   4.295   0.930   9.649 -1.2768  0.3505 -0.4950
  185MPD1    H2 2874   4.166   0.815   9.261 -0.4422 -1.1712  0.9820
  185MPD1    H3 2875   4.143   0.836   9.516 -0.4516 -0.5085 -0.5400
  185MPD1     N 2876   4.528   1.022   9.577  0.9006 -0.6366 -0.8881
  185MPD1    H5 2877   4.500   1.035   9.673 -0.1579 -1.5075 -1.0801
  185MPD1    N1 2878   4.388   0.883   9.123  0.1359  0.3552  0.1674
  185MPD1    H6 2879   4.432   0.965   9.080  0.1265 -0.9738 -2.3830
  185MPD1    H7 2880   4.291   0.870   9.094  0.5455  0.0041 -1.0646
  186MPD1     C 2881   4.074   0.505  15.504  0.4669  0.6794  0.0748
  186MPD1    C1 2882   3.958   0.467  15.572 -0.4335 -0.5235  0.1191
  186MPD1    C2 2883   3.890   0.561  15.650 -0.3110 -0.1029 -0.2106
  186MPD1    C3 2884   3.949   0.682  15.676  0.7943  1.1999 -0.1818
  186MPD1    C4 2885   4.070   0.712  15.622 -0.1255 -0.4931  0.7519
  186MPD1    C5 2886   4.134   0.617  15.547  0.3395 -0.1315  0.2469
  186MPD1     H 2887   3.788   0.537  15.678  0.0107 -0.2632  0.8333
  186MPD1    H1 2888   4.110   0.809  15.649  0.7286 -0.5688 -0.2372
  186MPD1    H2 2889   4.131   0.438  15.440  0.7350  1.3775 -0.4162
  186MPD1    H3 2890   4.230   0.648  15.505  1.0640 -0.9581  1.3046
  186MPD1     N 2891   3.895   0.784  15.757 -0.5440 -0.7489  0.0794
  186MPD1    H5 2892   3.943   0.872  15.772 -0.8617 -0.5889  0.1736
  186MPD1    N1 2893   3.903   0.342  15.533  0.2910 -0.0612 -0.0685
  186MPD1    H6 2894   3.968   0.272  15.498 -1.0180 -0.2308 -2.1638
  186MPD1    H7 2895   3.836   0.299  15.598 -2.7736  0.4790 -2.8547
  187MPD1     C 2896   3.778   2.655   0.050  0.5448 -0.1825 -0.1591
  187MPD1    C1 2897   3.656   2.613   0.103 -0.3629 -0.5908  0.2861
  187MPD1    C2 2898   3.540   2.692   0.068 -0.7163  0.5085  0.8631
  187MPD1    C3 2899   3.547   2.785  17.708 -0.5112 -0.6342  0.3936
  187MPD1    C4 2900   3.667   2.810  17.652  0.4907  0.2651  0.2046
  187MPD1    C5 2901   3.783   2.749  17.702 -0.5628 -0.3140 -0.5991
  187MPD1     H 2902   3.445   2.685   0.120 -0.7258  0.3282  0.8225
  187MPD1    H1 2903   3.673   2.873  17.564  1.2463 -1.5312 -1.0206
  187MPD1    H2 2904   3.875   2.615   0.077  1.3265  0.0674 -2.5458
  187MPD1    H3 2905   3.877   2.793  17.670 -1.1447  1.2147 -0.1826
  187MPD1     N 2906   3.425   2.843  17.652  0.1123  0.5460 -0.3772
  187MPD1    H5 2907   3.437   2.917  17.583  1.4950 -2.4233 -3.3282
  187MPD1    N1 2908   3.667   2.535   0.216 -0.0061 -0.1028 -0.2363
  187MPD1    H6 2909   3.748   2.474   0.208 -0.6160 -0.5446 -3.0120
  187MPD1    H7 2910   3.584   2.488   0.249 -0.2045  0.1423 -0.3848
  188MPD1     C 2911   3.027   2.524  10.644  0.4533 -0.9170 -0.2092
  188MPD1    C1 2912   3.025   2.429  10.740  0.1654 -0.3926 -0.0275
  188MPD1    C2 2913   2.977   2.302  10.698 -0.1644  0.4967  0.8115
  188MPD1    C3 2914   2.941   2.276  10.562 -0.3803 -0.0142 -0.1370
  188MPD1    C4 2915   2.930   2.380  10.479 -0.3908  0.1698  0.2474
  188MPD1    C5 2916   2.968   2.498  10.518 -0.8373  0.4746 -0.2078
  188MPD1     H 2917   2.970   2.226  10.776 -0.8071 -0.2343  0.0448
  188MPD1    H1 2918   2.882   2.371  10.382 -0.2261  1.9887 -0.0164
  188MPD1    H2 2919   3.051   2.626  10.669 -2.0777 -0.2807 -0.3563
  188MPD1    H3 2920   2.957   2.580  10.448  0.5356 -0.3263 -1.3608
  188MPD1     N 2921   2.898   2.146  10.519 -0.6387 -0.1633 -0.3912
  188MPD1    H5 2922   2.839   2.155  10.437 -1.5493  0.8269  0.3781
  188MPD1    N1 2923   3.061   2.456  10.875  0.0579  0.0357 -0.3318
  188MPD1    H6 2924   3.152   2.499  10.887 -0.7443  1.1388  1.6953
  188MPD1    H7 2925   3.060   2.376  10.938 -0.9717 -1.5770 -2.4031
  189MPD1     C 2926   4.691   3.696   0.856 -0.0967 -0.0639 -0.4551
  189MPD1    C1 2927   4.613   3.645   0.751 -0.4847 -0.5479  0.4788
  189MPD1    C2 2928   4.501   3.715   0.720  0.7922  0.7039  0.0702
  189MPD1    C3 2929   4.479   3.846   0.764  0.3015 -0.3872 -0.4945
  189MPD1    C4 2930   4.559   3.904   0.860 -0.4242  0.0791 -0.1585
  189MPD1    C5 2931   4.661   3.819   0.912  0.3638  0.1517 -0.2442
  189MPD1     H 2932   4.432   3.682   0.643 -0.3726  0.4412  1.2256
  189MPD1    H1 2933   4.559   4.003   0.903  2.1673  0.2946 -0.6177
  189MPD1    H2 2934   0.034   3.642   0.905  0.1005 -0.4276 -1.1902
  189MPD1    H3 2935   4.729   3.852   0.989 -3.4626  1.9422  2.3654
  189MPD1     N 2936   4.373   3.923   0.712 -0.4978  0.2740 -0.0323
  189MPD1    H5 2937   4.316   3.878   0.641 -0.2893  1.0408 -0.6865
  189MPD1    N1 2938   4.626   3.508   0.709  0.6294 -0.2788 -0.0149
  189MPD1    H6 2939   4.721   3.473   0.711  0.1938 -1.6505 -2.7049
  189MPD1    H7 2940   4.607   3.496   0.610 -2.0023  0.3267  0.4107
  190MPD1     C 2941   3.152   1.697  15.077  0.6201  0.1519 -0.0955
  190MPD1    C1 2942   3.142   1.702  15.218 -0.4680  0.4040  0.1368
  190MPD1    C2 2943   3.250   1.758  15.281  1.0085  0.2702  0.3760
  190MPD1    C3 2944   3.358   1.821  15.213 -0.3272  0.3586  0.4531
  190MPD1    C4 2945   3.360   1.807  15.080 -0.7465 -0.4416 -0.1095
  190MPD1    C5 2946   3.259   1.752  15.009  0.1898 -0.4222  0.2581
  190MPD1     H 2947   3.247   1.760  15.390  0.5150 -1.0793  0.3870
  190MPD1    H1 2948   3.445   1.830  15.016 -0.9522 -1.5608 -0.7777
  190MPD1    H2 2949   3.073   1.660  15.013 -0.0251 -0.8547  1.2972
  190MPD1    H3 2950   3.263   1.740  14.901  1.7490 -1.1828  0.3953
  190MPD1     N 2951   3.450   1.898  15.291 -0.6622  0.3528  0.1809
  190MPD1    H5 2952   3.427   1.914  15.388 -1.2160  0.3649  0.0429
  190MPD1    N1 2953   3.050   1.627  15.295 -0.9779 -0.1228  0.1358
  190MPD1    H6 2954   3.035   1.664  15.389 -1.0268  0.3347 -0.0480
  190MPD1    H7 2955   2.959   1.615  15.250 -1.3790 -0.0215  0.9203
  191MPD1     C 2956   2.688   3.659  13.257  0.3225  0.3581 -0.0115
  191MPD1    C1 2957   2.797   3.703  13.185 -0.4515 -0.4755 -0.1418
  191MPD1    C2 2958   2.777   3.793  13.078 -0.3530 -0.8289  0.4651
  191MPD1    C3 2959   2.650   3.850  13.064  0.5893 -0.5643 -0.0868
  191MPD1    C4 2960   2.547   3.824  13.160 -0.0745 -0.8517  0.5141
  191MPD1    C5 2961   2.565   3.724  13.251 -0.1512 -0.8217 -0.0656
  191MPD1     H 2962   2.857   3.818  13.009 -1.4901 -1.1535 -0.9894
  191MPD1    H1 2963   2.447   3.866  13.158  0.4802  0.4223 -0.4892
  191MPD1    H2 2964   2.712   3.601  13.346  1.1566  3.0472  1.5313
  191MPD1    H3 2965   2.487   3.703  13.323 -0.3626 -0.5731 -0.2215
  191MPD1     N 2966   2.628   3.933  12.947  0.5500  0.0140  0.0361
  191MPD1    H5 2967   2.706   3.949  12.885  2.3990 -1.7056  1.9200
  191MPD1    N1 2968   2.914   3.630  13.195  0.3028 -0.2430 -0.1328
  191MPD1    H6 2969   2.993   3.691  13.175 -0.4572  0.6257 -0.4245
  191MPD1    H7 2970   2.931   3.588  13.287  1.5383 -0.5211 -0.4888
  192MPD1     C 2971   2.135   4.725  13.034 -0.3983  0.8318  0.2761
  192MPD1    C1 2972   2.100   4.691  12.900  0.5738 -0.3589  0.3351
  192MPD1    C2 2973   2.171   4.586  12.843 -0.2178  0.9885 -0.0668
  192MPD1    C3 2974   2.274   4.526  12.913 -0.0525  0.9909 -0.6124
  192MPD1    C4 2975   2.308   4.558  13.044 -0.0721  0.6250 -0.5682
  192MPD1    C5 2976   2.235   4.661  13.105 -0.6693  0.8817  0.4414
  192MPD1     H 2977   2.146   4.565  12.739  1.3392 -0.3136 -0.1878
  192MPD1    H1 2978   2.389   4.508  13.096 -2.2019 -0.3453  1.8191
  192MPD1    H2 2979   2.075   0.066  13.078 -0.4076  0.2922  1.2259
  192MPD1    H3 2980   2.252   4.687  13.209  0.2918 -0.2855  0.5724
  192MPD1     N 2981   2.349   4.425  12.841 -0.0010  0.1125  0.1904
  192MPD1    H5 2982   2.435   4.391  12.884  1.2878  0.9638 -1.6900
  192MPD1    N1 2983   1.987   0.016  12.838 -0.4891  0.2619 -0.2020
  192MPD1    H6 2984   1.976   0.114  12.862  1.8753  1.2714 -3.2432
  192MPD1    H7 2985   2.003   0.013  12.737  0.3002  2.1058 -0.1276
  193MPD1     C 2986   2.203   4.038  16.318  0.0214  0.6143 -0.0417
  193MPD1    C1 2987   2.134   4.141  16.382 -0.1771  0.0241  0.3136
  193MPD1    C2 2988   2.207   4.199  16.484 -0.2066 -0.3480 -0.1561
  193MPD1    C3 2989   2.332   4.155  16.535 -0.1382 -0.5275  0.2670
  193MPD1    C4 2990   2.387   4.048  16.473 -0.2061  0.2914  0.1793
  193MPD1    C5 2991   2.324   3.988  16.367  0.5975  0.2359 -0.4024
  193MPD1     H 2992   2.172   4.295  16.521 -0.9123 -1.2571  1.5159
  193MPD1    H1 2993   2.476   3.997  16.509 -0.2706  1.2469  1.6938
  193MPD1    H2 2994   2.167   4.008  16.220 -0.6495  0.7331  0.1648
  193MPD1    H3 2995   2.376   3.906  16.319  2.3363 -1.0563  3.6575
  193MPD1     N 2996   2.407   4.212  16.639 -0.1269  0.2577  0.5032
  193MPD1    H5 2997   2.498   4.170  16.657 -0.8356 -2.0291 -1.1519
  193MPD1    N1 2998   2.018   4.205  16.329  0.3136  0.5600  0.4539
  193MPD1    H6 2999   2.043   4.278  16.263  1.6718  0.6022  1.0132
  193MPD1    H7 3000   1.969   4.261  16.397 -0.5890  0.7774 -0.3828
  194MPD1     C 3001   4.314   1.520  16.715 -0.0799  0.3514  0.5866
  194MPD1    C1 3002   4.413   1.588  16.782  0.7356 -0.5356  0.2513
  194MPD1    C2 3003   4.499   1.526  16.863 -0.3315 -0.1235 -0.3873
  194MPD1    C3 3004   4.509   1.389  16.861 -0.3613  0.8483  0.3259
  194MPD1    C4 3005   4.432   1.320  16.774  0.6505  0.2406  0.0584
  194MPD1    C5 3006   4.331   1.386  16.713  0.6406 -0.0063  0.8694
  194MPD1     H 3007   4.560   1.587  16.929 -1.4756  0.9032 -0.2936
  194MPD1    H1 3008   4.448   1.215  16.750  0.2030  0.3253 -0.6135
  194MPD1    H2 3009   4.245   1.576  16.652 -0.7372 -2.0425 -0.8286
  194MPD1    H3 3010   4.265   1.339  16.641  1.5856  0.6138 -0.4059
  194MPD1     N 3011   4.595   1.312  16.936 -0.2746  0.1670 -0.2033
  194MPD1    H5 3012   4.597   1.211  16.929  1.8448  0.1817  0.1973
  194MPD1    N1 3013   4.385   1.723  16.815  0.5277 -0.3753  0.1588
  194MPD1    H6 3014   4.464   1.770  16.858 -1.5183 -0.1928  3.6838
  194MPD1    H7 3015   4.333   1.775  16.744  1.7737  0.4839 -0.1140
  195MPD1     C 3016   2.050   3.278   1.063  0.2515  1.2186 -0.3384
  195MPD1    C1 3017   2.154   3.345   0.999 -0.6860  0.0230 -0.4296
  195MPD1    C2 3018   2.229   3.274   0.910  0.8580  0.2950 -0.1046
  195MPD1    C3 3019   2.191   3.149   0.879  0.0492  0.3940  0.9622
  195MPD1    C4 3020   2.078   3.091   0.927  0.0121 -0.2322  0.3733
  195MPD1    C5 3021   2.007   3.153   1.024 -0.5162  0.7651  0.3219
  195MPD1     H 3022   2.313   3.325   0.864  0.7105  0.0513 -0.6383
  195MPD1    H1 3023   2.042   2.990   0.910 -0.3359  0.1355 -1.0120
  195MPD1    H2 3024   1.987   3.318   1.141 -1.3464 -1.8297 -0.0774
  195MPD1    H3 3025   1.927   3.100   1.075 -1.0054  0.7559 -0.4460
  195MPD1     N 3026   2.261   3.062   0.785  0.1466  0.0798  0.5212
  195MPD1    H5 3027   2.232   2.964   0.793 -1.7524  0.5523 -0.5264
  195MPD1    N1 3028   2.187   3.472   1.038 -0.1281 -0.3060 -0.3636
  195MPD1    H6 3029   2.234   3.533   0.972 -0.5686 -0.9624 -1.2873
  195MPD1    H7 3030   2.117   3.520   1.094 -0.4352  1.3779 -2.1888
  196MPD1     C 3031   1.738   2.371   0.416 -0.4611 -0.2309 -0.2132
  196MPD1    C1 3032   1.864   2.422   0.430  0.2362 -0.0121  0.6899
  196MPD1    C2 3033   1.917   2.439   0.556  0.2252 -0.3824 -0.1747
  196MPD1    C3 3034   1.836   2.422   0.671 -0.4966  0.0536  0.6365
  196MPD1    C4 3035   1.707   2.389   0.657  0.6139 -0.0553  0.5817
  196MPD1    C5 3036   1.664   2.358   0.529 -0.0108  1.0003 -0.6136
  196MPD1     H 3037   2.020   2.468   0.567  0.8336 -1.5286 -3.0045
  196MPD1    H1 3038   1.635   2.366   0.735  1.0814  2.1307  1.6595
  196MPD1    H2 3039   1.682   2.357   0.325  1.4535 -1.0567 -1.2702
  196MPD1    H3 3040   1.567   2.309   0.525  0.4394  0.2231 -2.0479
  196MPD1     N 3041   1.890   2.430   0.807 -0.8607  0.6042  0.1499
  196MPD1    H5 3042   1.829   2.418   0.888  2.1830 -0.6464  2.2396
  196MPD1    N1 3043   1.939   2.440   0.312  0.1785  0.3417 -0.2998
  196MPD1    H6 3044   1.875   2.485   0.247  1.6188  0.0159 -1.9309
  196MPD1    H7 3045   2.006   2.515   0.330 -0.3018  0.8762 -0.7142
  197MPD1     C 3046   1.367   4.495  17.734  0.0708 -0.2357 -0.3676
  197MPD1    C1 3047   1.297   4.615  17.709  1.1666 -0.8003  0.6085
  197MPD1    C2 3048   1.335   4.700  17.604 -0.1461 -0.1158 -0.9406
  197MPD1    C3 3049   1.441   4.668  17.524  0.3702  0.4148  0.0099
  197MPD1    C4 3050   1.507   4.548  17.540 -0.0843  0.0078  0.3692
  197MPD1    C5 3051   1.466   4.463  17.646 -0.1294  0.1070  0.0783
  197MPD1     H 3052   1.280   0.056  17.596  1.6039  0.8626 -1.5889
  197MPD1    H1 3053   1.580   4.518  17.466 -0.2363 -1.6181  0.8792
  197MPD1    H2 3054   1.349   4.434   0.074  1.1717 -0.6266 -0.4089
  197MPD1    H3 3055   1.516   4.369  17.662  0.9607  0.4803 -1.2093
  197MPD1     N 3056   1.493   0.020  17.430  0.0857  0.2727  0.0746
  197MPD1    H5 3057   1.570   4.716  17.378 -2.4115 -1.0658 -2.5123
  197MPD1    N1 3058   1.219   4.656   0.067 -0.3399 -0.6139 -0.4547
  197MPD1    H6 3059   1.171   4.580   0.116  0.7889 -1.6130 -0.9121
  197MPD1    H7 3060   1.168   0.006   0.055 -0.5963 -0.5156  1.3509
  198MPD1     C 3061   3.317   3.073  15.153 -0.2382 -1.1222 -0.4629
  198MPD1    C1 3062   3.425   3.149  15.199  0.7060 -0.1745 -0.1374
  198MPD1    C2 3063   3.402   3.212  15.318 -0.0548 -0.5751  0.8984
  198MPD1    C3 3064   3.293   3.193  15.398  0.3253  0.1972 -1.0989
  198MPD1    C4 3065   3.201   3.099  15.356  0.0250  0.0637  0.5711
  198MPD1    C5 3066   3.211   3.038  15.233 -0.1943 -0.4355 -0.2449
  198MPD1     H 3067   3.475   3.285  15.351 -0.3605 -0.0444  0.4148
  198MPD1    H1 3068   3.108   3.083  15.409  0.2166 -3.3010 -0.1015
  198MPD1    H2 3069   3.325   3.014  15.063 -2.1030 -1.6525 -0.2801
  198MPD1    H3 3070   3.130   2.973  15.201 -2.6538  2.0314  0.9965
  198MPD1     N 3071   3.291   3.263  15.523  0.1113  0.0760 -0.0147
  198MPD1    H5 3072   3.365   3.332  15.527 -0.7048  0.9697 -0.0309
  198MPD1    N1 3073   3.525   3.185  15.112 -0.6333  0.2087 -0.3090
  198MPD1    H6 3074   3.537   3.122  15.033 -2.2837 -0.0145 -0.3737
  198MPD1    H7 3075   3.615   3.213  15.151  0.1030 -0.8605 -1.2497
  199MPD1     C 3076   0.099   4.644  10.767  0.2871 -0.3135  0.0788
  199MPD1    C1 3077   0.024   4.532  10.738 -0.1943 -0.2434 -0.6604
  199MPD1    C2 3078   4.695   4.523  10.615 -0.6028 -0.5773 -0.1503
  199MPD1    C3 3079   4.727   4.610  10.508  0.5215  0.3107  0.2790
  199MPD1    C4 3080   0.076   4.712  10.541  0.2971 -0.1981 -0.2234
  199MPD1    C5 3081   0.132   4.735  10.664  0.5496  0.3567 -0.1462
  199MPD1     H 3082   4.617   4.447  10.612 -0.5097 -0.7038  0.6803
  199MPD1    H1 3083   0.111   0.037  10.460  1.6300 -1.3457 -0.5290
  199MPD1    H2 3084   0.133   4.661  10.869  1.5354 -1.3885 -0.1601
  199MPD1    H3 3085   0.208   0.073  10.683  1.0838  0.2798 -1.9230
  199MPD1     N 3086   4.667   4.597  10.383  0.1850  0.3262  0.3042
  199MPD1    H5 3087   4.687   4.674  10.319  0.7060 -0.1545 -0.1050
  199MPD1    N1 3088   4.723   4.452  10.850  0.5924  0.4392 -0.1041
  199MPD1    H6 3089   4.690   4.359  10.829 -2.7915  1.5341  0.4660
  199MPD1    H7 3090   0.050   4.450  10.929  2.0617 -2.0302 -1.3661
  200MPD1     C 3091   4.437   3.997  16.399 -0.1054 -0.6111 -0.0646
  200MPD1    C1 3092   4.569   4.021  16.377 -0.2665 -1.0100  0.1404
  200MPD1    C2 3093   4.615   4.051  16.253 -0.3859  0.1905  0.3685
  200MPD1    C3 3094   4.532   4.049  16.140  0.5062 -0.2477 -0.0313
  200MPD1    C4 3095   4.398   4.026  16.162 -0.6248 -0.4599 -0.0356
  200MPD1    C5 3096   4.351   4.007  16.290 -0.0803 -0.2063  0.2187
  200MPD1     H 3097   4.722   4.067  16.245 -0.6098  0.1279 -2.6404
  200MPD1    H1 3098   4.331   4.029  16.077  3.5390 -0.7255 -3.3562
  200MPD1    H2 3099   4.403   3.979  16.500 -3.4960  2.2444 -0.7106
  200MPD1    H3 3100   4.245   3.991  16.301 -0.2476  0.2296 -0.7285
  200MPD1     N 3101   4.582   4.093  16.017  0.8967  0.1257  0.0008
  200MPD1    H5 3102   4.679   4.121  16.028  1.5245 -2.0211 -0.0252
  200MPD1    N1 3103   4.664   4.008  16.485 -0.1245  0.0663 -0.1422
  200MPD1    H6 3104   0.010   4.061  16.460  1.3996 -2.7509 -1.0357
  200MPD1    H7 3105   4.638   4.043  16.577 -0.2235  1.8773 -0.8531
  201MPD1     C 3106   1.711   3.675  13.562 -0.4760 -0.4164 -0.0814
  201MPD1    C1 3107   1.799   3.705  13.459  0.4803 -0.1082  0.1200
  201MPD1    C2 3108   1.899   3.609  13.438 -0.2055  0.0029  0.3374
  201MPD1    C3 3109   1.946   3.525  13.540  0.0795  0.0915 -0.1489
  201MPD1    C4 3110   1.869   3.513  13.650 -0.3817 -0.1935 -0.7098
  201MPD1    C5 3111   1.750   3.587  13.662  0.5194 -0.8076  0.1211
  201MPD1     H 3112   1.953   3.606  13.344  2.0200 -1.5637  1.6614
  201MPD1    H1 3113   1.890   3.441  13.729 -1.0185  1.7821  1.2634
  201MPD1    H2 3114   1.621   3.733  13.577  0.0725  0.5528 -0.5039
  201MPD1    H3 3115   1.691   3.585  13.753  0.6525  0.4570  0.2377
  201MPD1     N 3116   2.049   3.429  13.522  0.1228 -0.1274  0.7134
  201MPD1    H5 3117   2.097   3.428  13.432  0.0774 -1.8120  0.7098
  201MPD1    N1 3118   1.756   3.784  13.352 -0.2178  0.0985 -0.0485
  201MPD1    H6 3119   1.706   3.867  13.383  0.0730  0.1862  0.1937
  201MPD1    H7 3120   1.837   3.821  13.300  0.8275  0.2777  1.7039
  202MPD1     C 3121   1.019   2.247   9.177  0.4308  0.4849 -0.7580
  202MPD1    C1 3122   1.143   2.290   9.226  0.4040  0.3365  0.0645
  202MPD1    C2 3123   1.126   2.315   9.363  0.0080 -0.3683  0.4928
  202MPD1    C3 3124   1.010   2.356   9.432 -0.5546  0.0368  0.3762
  202MPD1    C4 3125   0.888   2.338   9.365 -0.3059  0.0952  0.1649
  202MPD1    C5 3126   0.902   2.272   9.248  0.2754  0.0055  0.4397
  202MPD1     H 3127   1.222   2.343   9.406 -1.4431  0.6783  3.0058
  202MPD1    H1 3128   0.792   2.351   9.413 -0.3632  3.2022 -0.7650
  202MPD1    H2 3129   1.006   2.184   9.089  1.7727 -0.4183 -0.3011
  202MPD1    H3 3130   0.804   2.251   9.206  0.3229 -3.2389  1.9602
  202MPD1     N 3131   1.020   2.393   9.564 -0.3268 -0.3228 -0.5050
  202MPD1    H5 3132   1.113   2.417   9.597 -0.0073 -1.1941 -0.7727
  202MPD1    N1 3133   1.268   2.241   9.187 -0.1790 -0.3643  0.2203
  202MPD1    H6 3134   1.348   2.292   9.222 -0.0398 -0.5127  0.1158
  202MPD1    H7 3135   1.271   2.247   9.085  0.3916 -1.8337  0.1530
  203MPD1     C 3136   0.426   3.763  12.606  0.5233 -0.7985  0.4883
  203MPD1    C1 3137   0.524   3.717  12.523 -0.0832  0.1504  0.0286
  203MPD1    C2 3138   0.566   3.588  12.538 -0.2110  0.6889 -0.5608
  203MPD1    C3 3139   0.527   3.509  12.644 -0.0023  0.5636 -0.3950
  203MPD1    C4 3140   0.435   3.557  12.731  0.3506 -0.1628 -0.0204
  203MPD1    C5 3141   0.383   3.681  12.705  0.0921  0.1759  0.3302
  203MPD1     H 3142   0.626   3.536  12.465 -0.8050 -0.6302 -0.1205
  203MPD1    H1 3143   0.389   3.504  12.814  1.3068 -1.0657 -0.0654
  203MPD1    H2 3144   0.375   3.857  12.590  0.2693 -0.5161  2.8425
  203MPD1    H3 3145   0.297   3.716  12.762 -0.0251  0.8086 -0.2352
  203MPD1     N 3146   0.577   3.377  12.653  0.0871 -0.1666 -1.3169
  203MPD1    H5 3147   0.649   3.350  12.586  1.2875  2.0081 -0.9193
  203MPD1    N1 3148   0.560   3.791  12.409  0.5226 -0.1050  0.0993
  203MPD1    H6 3149   0.653   3.757  12.384  0.8273  0.0145  1.0946
  203MPD1    H7 3150   0.565   3.889  12.433 -3.0150 -0.4986  2.5422
  204MPD1     C 3151   4.459   0.305  17.705  0.1041 -0.6850  0.0385
  204MPD1    C1 3152   4.515   0.273  17.583  0.1663 -0.0216  0.3030
  204MPD1    C2 3153   4.608   0.176  17.580 -0.9982 -0.0923  0.3309
  204MPD1    C3 3154   4.627   0.099  17.694  0.2491  0.3973 -0.0753
  204MPD1    C4 3155   4.559   0.127   0.062 -0.6054  0.3752  1.0399
  204MPD1    C5 3156   4.472   0.229   0.065  0.4970 -0.3443 -0.0657
  204MPD1     H 3157   4.654   0.155  17.484  0.7663  1.4972  0.8200
  204MPD1    H1 3158   4.582   0.071   0.152  0.1056  2.9847  2.4755
  204MPD1    H2 3159   4.388   0.387  17.701 -0.3396 -1.0103  1.4253
  204MPD1    H3 3160   4.412   0.247   0.154  0.5874 -4.2088  0.8096
  204MPD1     N 3161   4.717   4.730  17.692  1.0841  0.8620 -0.1887
  204MPD1    H5 3162   0.045   4.728  17.614  0.1279 -1.3404 -0.9301
  204MPD1    N1 3163   4.517   0.373  17.488  0.2092 -0.8729  0.0563
  204MPD1    H6 3164   4.555   0.344  17.398  0.6585 -2.9683  0.9165
  204MPD1    H7 3165   4.425   0.414  17.474 -0.3478 -1.5524  1.6736
  205MPD1     C 3166   0.481   3.290  17.300 -0.1649 -0.3969  0.1139
  205MPD1    C1 3167   0.414   3.189  17.368  0.0615 -0.8513  0.5998
  205MPD1    C2 3168   0.345   3.221  17.485 -0.1005  0.2308 -0.1875
  205MPD1    C3 3169   0.349   3.349  17.546 -0.4811  0.4316 -0.5777
  205MPD1    C4 3170   0.422   3.445  17.473  0.7025  0.0729  0.0210
  205MPD1    C5 3171   0.482   3.420  17.355 -0.4268  0.6008 -0.2192
  205MPD1     H 3172   0.284   3.146  17.534  1.1916  0.2140  1.3940
  205MPD1    H1 3173   0.434   3.549  17.500  0.0353 -0.1369  1.1208
  205MPD1    H2 3174   0.548   3.256  17.221 -1.5546  2.4676 -2.2829
  205MPD1    H3 3175   0.534   3.503  17.310 -0.6870  0.7350 -0.2762
  205MPD1     N 3176   0.285   3.386  17.666 -0.3317 -0.0110  0.3325
  205MPD1    H5 3177   0.275   3.485  17.685 -1.0330  0.1027 -0.6485
  205MPD1    N1 3178   0.415   3.058  17.314 -0.1241  0.3733 -0.2079
  205MPD1    H6 3179   0.508   3.017  17.304 -0.9380 -1.5110  0.0018
  205MPD1    H7 3180   0.365   2.986  17.366  2.2014 -0.2128  1.2099
  206MPD1     C 3181   0.397   1.364  17.122  0.3001 -0.0224 -0.3562
  206MPD1    C1 3182   0.353   1.488  17.100  0.1862 -0.2651  0.4338
  206MPD1    C2 3183   0.294   1.508  16.974  0.2475 -0.3170 -0.3881
  206MPD1    C3 3184   0.258   1.412  16.886 -0.1977 -0.2131 -0.8240
  206MPD1    C4 3185   0.289   1.284  16.921 -0.1136  0.3764 -0.2818
  206MPD1    C5 3186   0.359   1.264  17.036 -0.0073 -0.4306  1.0507
  206MPD1     H 3187   0.255   1.605  16.943 -0.5948 -0.5751 -0.1376
  206MPD1    H1 3188   0.269   1.195  16.863 -0.6015 -0.9060  1.8785
  206MPD1    H2 3189   0.460   1.346  17.208 -0.7433 -0.6960  0.2565
  206MPD1    H3 3190   0.394   1.166  17.066 -0.4891 -0.8200  0.3338
  206MPD1     N 3191   0.180   1.423  16.774  0.4892 -0.1666 -0.4001
  206MPD1    H5 3192   0.163   1.334  16.728 -1.1676  0.4910 -1.0553
  206MPD1    N1 3193   0.397   1.604  17.173  0.4170  0.3859 -0.5917
  206MPD1    H6 3194   0.402   1.576  17.271 -3.1640  1.3338 -0.1670
  206MPD1    H7 3195   0.330   1.680  17.166  0.1343  0.3719  1.9123
  207MPD1     C 3196   1.918   2.806  10.208  0.4039 -0.1637 -0.2082
  207MPD1    C1 3197   1.849   2.867  10.315  0.5995 -0.0497 -0.1081
  207MPD1    C2 3198   1.926   2.933  10.419 -0.0041 -0.0510  0.0136
  207MPD1    C3 3199   2.060   2.931  10.413  0.1061 -0.1590 -0.0442
  207MPD1    C4 3200   2.120   2.863  10.307  0.3532 -0.1838  0.0046
  207MPD1    C5 3201   2.054   2.797  10.208  0.7110  0.6213 -0.1110
  207MPD1     H 3202   1.875   2.980  10.502 -0.7963 -0.8462 -0.0219
  207MPD1    H1 3203   2.227   2.853  10.299  0.5723  1.5160  0.6625
  207MPD1    H2 3204   1.862   2.758  10.129  0.6300 -3.3536  1.5853
  207MPD1    H3 3205   2.116   2.750  10.132  0.0035  0.0267 -0.3229
  207MPD1     N 3206   2.147   2.983  10.512  0.3543  0.1471  0.3497
  207MPD1    H5 3207   2.245   2.972  10.489  0.4215  1.3066  0.0856
  207MPD1    N1 3208   1.708   2.891  10.303 -0.0594 -0.1439  0.3413
  207MPD1    H6 3209   1.677   2.892  10.400  2.1830  0.7322  1.0610
  207MPD1    H7 3210   1.656   2.820  10.253 -1.4102  0.0192  1.5018
  208MPD1     C 3211   1.512   2.891   0.749  0.1694  0.5811  0.4787
  208MPD1    C1 3212   1.501   2.912   0.879  0.2999  0.3587 -0.0188
  208MPD1    C2 3213   1.383   2.933   0.939 -0.4902  0.0865  0.4909
  208MPD1    C3 3214   1.270   2.918   0.867 -0.2014 -0.4677  0.1296
  208MPD1    C4 3215   1.273   2.884   0.732  0.0066 -0.3746 -0.0786
  208MPD1    C5 3216   1.394   2.883   0.670  0.2463  0.3006  0.0603
  208MPD1     H 3217   1.379   2.945   1.047  0.7662  1.2249  0.4073
  208MPD1    H1 3218   1.185   2.879   0.670 -0.9955  1.0729  1.2371
  208MPD1    H2 3219   1.606   2.887   0.696  0.0546 -0.2589  0.3283
  208MPD1    H3 3220   1.404   2.869   0.563 -0.4183  1.5227 -0.1516
  208MPD1     N 3221   1.141   2.931   0.939  0.0331  0.5303  0.2666
  208MPD1    H5 3222   1.154   2.961   1.035  1.4851  0.4841  0.0877
  208MPD1    N1 3223   1.618   2.938   0.948  0.5465  1.0034  0.9866
  208MPD1    H6 3224   1.694   2.884   0.909 -0.0180  1.6487 -1.0360
  208MPD1    H7 3225   1.617   2.928   1.049  0.5324  0.3198  0.9135
  209MPD1     C 3226   1.933   3.446  12.301  0.0008 -0.5156 -0.0559
  209MPD1    C1 3227   1.903   3.349  12.210  0.0802 -0.0874 -0.0161
  209MPD1    C2 3228   1.996   3.302  12.124  0.1453 -0.4797  0.3603
  209MPD1    C3 3229   2.123   3.353  12.126 -0.4942  0.8429 -0.3945
  209MPD1    C4 3230   2.152   3.461  12.207 -0.2518 -0.4799 -0.5337
  209MPD1    C5 3231   2.054   3.505  12.287  0.0896  0.5661  0.4677
  209MPD1     H 3232   1.957   3.224  12.059  0.3034  0.5165 -0.9219
  209MPD1    H1 3233   2.249   3.509  12.204  0.3369 -1.6224  0.4307
  209MPD1    H2 3234   1.862   3.485  12.373 -0.2405 -0.4187 -0.3419
  209MPD1    H3 3235   2.083   3.585  12.353  0.7300  0.7308 -0.0166
  209MPD1     N 3236   2.215   3.289  12.034  0.3345  0.3595 -0.0115
  209MPD1    H5 3237   2.184   3.210  11.977  1.7750  0.0148 -0.3235
  209MPD1    N1 3238   1.782   3.275  12.220 -0.1968 -0.5079 -0.0375
  209MPD1    H6 3239   1.763   3.222  12.135 -2.6512  1.0673 -0.4828
  209MPD1    H7 3240   1.702   3.332  12.247 -0.2879 -0.4432 -0.4410
  210MPD1     C 3241   3.225   3.264  11.586  0.1021  0.3211  0.2637
  210MPD1    C1 3242   3.186   3.326  11.701  0.3068  1.0147 -0.3393
  210MPD1    C2 3243   3.060   3.310  11.753 -0.1593 -0.1134 -0.0584
  210MPD1    C3 3244   2.978   3.213  11.692  0.0445  0.0163  0.2658
  210MPD1    C4 3245   3.021   3.149  11.574 -0.1108 -0.8976  0.4063
  210MPD1    C5 3246   3.146   3.175  11.521  0.3700 -0.1393  0.3824
  210MPD1     H 3247   3.026   3.369  11.838 -0.3437 -0.4705  0.1158
  210MPD1    H1 3248   2.959   3.081  11.517  1.0661 -2.3387  0.8405
  210MPD1    H2 3249   3.319   3.289  11.539  1.1286 -1.7075  1.2444
  210MPD1    H3 3250   3.179   3.131  11.428 -1.7875 -0.7198 -0.1018
  210MPD1     N 3251   2.841   3.187  11.731  0.2434 -0.0881  0.2925
  210MPD1    H5 3252   2.806   3.095  11.706  1.2901 -0.7169  1.1370
  210MPD1    N1 3253   3.267   3.425  11.750  0.2598  0.0889  0.3168
  210MPD1    H6 3254   3.248   3.445  11.848  2.7170  0.4061  0.7280
  210MPD1    H7 3255   3.365   3.402  11.736  0.8162  1.7278  1.4397
  211MPD1     C 3256   0.953   3.103  16.521  0.3170 -0.4433 -0.4374
  211MPD1    C1 3257   0.945   3.200  16.619 -0.2596  0.6190 -0.1674
  211MPD1    C2 3258   0.820   3.236  16.654  0.7503  0.3779  0.4128
  211MPD1    C3 3259   0.704   3.189  16.587 -0.0068  0.1020  0.8113
  211MPD1    C4 3260   0.719   3.090  16.488 -0.4272  0.3209 -0.2239
  211MPD1    C5 3261   0.842   3.051  16.455  0.1620  0.1271 -0.0976
  211MPD1     H 3262   0.804   3.314  16.728  0.1274  2.0327 -1.4491
  211MPD1    H1 3263   0.636   3.055  16.428 -0.7337 -0.3927  0.6178
  211MPD1    H2 3264   1.044   3.069  16.472 -0.2701 -0.6892 -1.3554
  211MPD1    H3 3265   0.858   2.987  16.369  0.5935  0.4157 -0.2323
  211MPD1     N 3266   0.584   3.240  16.639  0.4184  0.1251  0.0060
  211MPD1    H5 3267   0.588   3.321  16.700 -2.7519  0.4698 -0.2645
  211MPD1    N1 3268   1.061   3.265  16.678  1.1350 -0.1931  0.4506
  211MPD1    H6 3269   1.044   3.298  16.773  0.1350 -1.8896  0.8781
  211MPD1    H7 3270   1.150   3.219  16.658  2.2936  1.1877  2.4171
  212MPD1     C 3271   3.922   1.862  16.841  0.5393 -0.1092 -0.1379
  212MPD1    C1 3272   3.966   1.779  16.746 -0.0708  0.5401  0.1456
  212MPD1    C2 3273   3.972   1.640  16.772 -0.2600  0.3186 -0.0504
  212MPD1    C3 3274   3.910   1.582  16.883  0.4397 -0.4446  0.2677
  212MPD1    C4 3275   3.852   1.668  16.979 -0.0673  0.0046 -0.6373
  212MPD1    C5 3276   3.860   1.808  16.954  0.2432 -0.4856  0.0275
  212MPD1     H 3277   4.020   1.588  16.690 -2.5247 -2.4981  0.4201
  212MPD1    H1 3278   3.785   1.624  17.051 -1.2951 -1.8244 -2.8813
  212MPD1    H2 3279   3.919   1.970  16.828  0.9470  0.0062  0.7163
  212MPD1    H3 3280   3.803   1.875  17.018  0.0438  0.0559 -0.7253
  212MPD1     N 3281   3.894   1.445  16.907 -0.0129  0.5448  0.7345
  212MPD1    H5 3282   3.827   1.414  16.977  1.1264 -2.1872  0.6231
  212MPD1    N1 3283   4.018   1.830  16.626 -0.4378 -0.4643  0.7232
  212MPD1    H6 3284   3.964   1.911  16.596  0.2983  0.0485  0.7933
  212MPD1    H7 3285   4.003   1.765  16.549  3.1368 -0.8119  0.3472
  213MPD1     C 3286   3.107   2.157  15.878 -0.1776 -0.0115  0.9226
  213MPD1    C1 3287   3.033   2.079  15.790  0.4453  0.4212  0.2978
  213MPD1    C2 3288   2.939   2.149  15.721  0.0299 -0.6994  0.4472
  213MPD1    C3 3289   2.938   2.287  15.705  0.5763 -0.6028  1.0610
  213MPD1    C4 3290   3.031   2.359  15.759 -0.6390 -0.7655 -0.3869
  213MPD1    C5 3291   3.114   2.294  15.848 -0.3606  0.2629 -0.3259
  213MPD1     H 3292   2.861   2.091  15.671 -0.7308  0.0129  0.8087
  213MPD1    H1 3293   3.033   2.467  15.752  0.8429 -0.7495  0.2749
  213MPD1    H2 3294   3.182   2.108  15.938 -0.4320 -0.8346  0.5661
  213MPD1    H3 3295   3.192   2.359  15.886 -2.4301  1.2314  2.2419
  213MPD1     N 3296   2.828   2.335  15.634 -0.8830 -0.6074  1.0226
  213MPD1    H5 3297   2.779   2.259  15.588 -1.8949  0.7591 -0.1690
  213MPD1    N1 3298   2.998   1.954  15.835 -0.0337 -0.0177  0.4191
  213MPD1    H6 3299   2.964   1.896  15.759 -0.7917  0.2755  0.5307
  213MPD1    H7 3300   3.079   1.901  15.866  0.2414  0.0541 -0.1720
  214MPD1     C 3301   2.186   1.865  15.356  0.1664  0.1769 -0.6049
  214MPD1    C1 3302   2.166   1.973  15.272 -0.3467 -0.1072  0.2210
  214MPD1    C2 3303   2.228   2.093  15.298  0.3202 -0.3758  0.3026
  214MPD1    C3 3304   2.325   2.097  15.402 -0.1666 -0.1450 -0.1941
  214MPD1    C4 3305   2.340   1.993  15.492  0.1009 -0.4638  0.6676
  214MPD1    C5 3306   2.269   1.881  15.465  0.3778 -0.2112  0.0766
  214MPD1     H 3307   2.203   2.176  15.233 -2.5357 -0.5496  1.1524
  214MPD1    H1 3308   2.422   1.977  15.561  2.2639  1.5310 -1.4633
  214MPD1    H2 3309   2.134   1.773  15.331  0.8567  0.6630 -3.7601
  214MPD1    H3 3310   2.273   1.799  15.536 -2.3040  0.8603  1.4648
  214MPD1     N 3311   2.414   2.207  15.424  0.1712  0.1555 -0.4435
  214MPD1    H5 3312   2.483   2.201  15.498  0.4178 -1.4830 -0.8203
  214MPD1    N1 3313   2.054   1.981  15.189  0.1898 -0.0321  0.8697
  214MPD1    H6 3314   2.019   1.893  15.154  1.0696  0.1908 -0.5548
  214MPD1    H7 3315   2.074   2.046  15.113  3.5149 -1.8452  0.2306
  215MPD1     C 3316   1.445   3.128  11.547  0.4107  0.3310  0.4132
  215MPD1    C1 3317   1.545   3.148  11.638  0.0742 -0.1755  0.4441
  215MPD1    C2 3318   1.666   3.200  11.594 -0.3334  0.3826  0.0631
  215MPD1    C3 3319   1.673   3.265  11.469  0.4606 -0.0240  0.5353
  215MPD1    C4 3320   1.567   3.256  11.385  0.2200  0.5395  0.6589
  215MPD1    C5 3321   1.459   3.183  11.421  0.0116 -1.0262  0.6759
  215MPD1     H 3322   1.756   3.210  11.653  2.1839 -0.3666 -3.6497
  215MPD1    H1 3323   1.569   3.294  11.283 -1.9728  1.7779  1.0813
  215MPD1    H2 3324   1.361   3.071  11.585 -0.5583  2.6245  1.6880
  215MPD1    H3 3325   1.376   3.174  11.351 -0.9337 -0.2192  1.6962
  215MPD1     N 3326   1.790   3.343  11.441 -0.1766 -0.2340 -0.0610
  215MPD1    H5 3327   1.848   3.353  11.524 -1.1836  0.7762  0.5229
  215MPD1    N1 3328   1.531   3.084  11.763  0.1178  0.6859  0.4046
  215MPD1    H6 3329   1.442   3.092  11.812 -0.3964 -1.2755 -0.2283
  215MPD1    H7 3330   1.601   3.125  11.825  1.1767  0.5056 -0.6792
  216MPD1     C 3331   4.544   1.588  17.398  0.1010 -0.2069  0.2793
  216MPD1    C1 3332   4.578   1.508  17.509  0.3271  0.0699  0.8454
  216MPD1    C2 3333   4.545   1.374  17.504 -0.2564  0.5763  0.1782
  216MPD1    C3 3334   4.479   1.322  17.404  0.3701 -0.0906  0.3646
  216MPD1    C4 3335   4.442   1.404  17.299 -1.1750 -0.6861  0.2605
  216MPD1    C5 3336   4.486   1.533  17.294  0.1254 -0.5256  0.0664
  216MPD1     H 3337   4.564   1.308  17.588 -0.4399  0.1290 -0.1310
  216MPD1    H1 3338   4.397   1.363  17.209  1.1057 -0.1848 -1.0951
  216MPD1    H2 3339   4.568   1.693  17.389 -1.2009  0.0053 -0.6592
  216MPD1    H3 3340   4.472   1.598  17.209  2.5836  0.7929  0.6748
  216MPD1     N 3341   4.449   1.181  17.405  0.5664 -0.4830 -0.4416
  216MPD1    H5 3342   4.483   1.136  17.489 -3.3501 -1.3965  0.6349
  216MPD1    N1 3343   4.617   1.569  17.635  0.0614 -0.3441  0.0143
  216MPD1    H6 3344   4.667   1.657  17.628 -0.2419 -0.0078  2.2067
  216MPD1    H7 3345   4.677   1.505  17.687 -3.0101 -2.1368  1.3591
  217MPD1     C 3346   0.169   1.277   8.711  0.1831  0.3512  0.0285
  217MPD1    C1 3347   0.071   1.376   8.683  0.7348 -0.0185  0.5323
  217MPD1    C2 3348   0.015   1.446   8.788  0.4951  0.1869 -0.2546
  217MPD1    C3 3349   0.038   1.408   8.914  0.5473 -0.0607  0.2703
  217MPD1    C4 3350   0.134   1.315   8.940 -0.1862  0.2188  0.1977
  217MPD1    C5 3351   0.200   1.254   8.837 -0.6448 -0.2853 -0.1513
  217MPD1     H 3352   4.684   1.527   8.765  1.1914  1.3228  1.6773
  217MPD1    H1 3353   0.159   1.281   9.041 -0.2459 -0.3953  0.0069
  217MPD1    H2 3354   0.222   1.211   8.643 -3.2516 -0.9684 -1.3620
  217MPD1    H3 3355   0.261   1.168   8.862  1.3508  0.6750 -1.7455
  217MPD1     N 3356   4.697   1.455   9.027 -0.6214 -0.4191  0.0652
  217MPD1    H5 3357   4.721   1.425   9.121  1.0079 -0.9134 -0.5083
  217MPD1    N1 3358   0.071   1.426   8.546 -0.3184  0.4756  0.2083
  217MPD1    H6 3359   0.074   1.353   8.475 -1.2347 -0.0225  0.6746
  217MPD1    H7 3360   4.725   1.480   8.525 -0.3108  1.1866  2.0179
  218MPD1     C 3361   1.807   4.011  12.903  0.3799 -0.5758  0.3137
  218MPD1    C1 3362   1.905   4.039  12.811 -0.2748  0.1743  0.1083
  218MPD1    C2 3363   2.013   3.946  12.811 -0.3510  0.3387  0.3066
  218MPD1    C3 3364   2.016   3.843  12.909 -0.2162 -0.2269 -0.1581
  218MPD1    C4 3365   1.928   3.832  13.009  0.0376  0.8728 -0.3795
  218MPD1    C5 3366   1.822   3.921  13.003  0.0825 -0.1797  0.7332
  218MPD1     H 3367   2.084   3.956  12.730 -1.2435 -0.2260 -0.5529
  218MPD1    H1 3368   1.918   3.741  13.066 -0.0738  0.8734 -0.3983
  218MPD1    H2 3369   1.710   4.058  12.895 -0.2395 -1.8461  0.2781
  218MPD1    H3 3370   1.736   3.903  13.067  0.4518  1.2325  1.6200
  218MPD1     N 3371   2.121   3.748  12.895  0.6529 -0.0058  0.4525
  218MPD1    H5 3372   2.174   3.773  12.813  1.4260  0.3394  1.0549
  218MPD1    N1 3373   1.875   4.120  12.703 -0.1587  0.4569 -0.6964
  218MPD1    H6 3374   1.800   4.185  12.724 -1.9121 -1.9933  0.5865
  218MPD1    H7 3375   1.959   4.168  12.669  0.4542 -0.3615 -0.3384
  219MPD1     C 3376   2.732   3.963  12.362 -0.0245 -0.5289 -0.6396
  219MPD1    C1 3377   2.802   3.894  12.459 -0.2802  0.3252  0.3905
  219MPD1    C2 3378   2.741   3.805  12.548  0.0357 -0.1158  0.2408
  219MPD1    C3 3379   2.604   3.799  12.554  0.4037  0.1593  0.1731
  219MPD1    C4 3380   2.531   3.879  12.467  0.2531 -0.4661 -0.4680
  219MPD1    C5 3381   2.596   3.955  12.367  1.1524  0.4386 -0.5775
  219MPD1     H 3382   2.801   3.754  12.621  0.3050 -0.1413  0.0026
  219MPD1    H1 3383   2.423   3.883  12.473  0.2034 -1.0678 -0.9681
  219MPD1    H2 3384   2.771   4.012  12.274  0.5739  1.8624  0.9523
  219MPD1    H3 3385   2.538   4.006  12.291  0.3962  1.0323  0.3859
  219MPD1     N 3386   2.531   3.730  12.665  0.1842 -0.2562  0.2426
  219MPD1    H5 3387   2.430   3.733  12.659  0.1946 -2.2095 -0.7955
  219MPD1    N1 3388   2.940   3.884  12.434 -0.6846  0.1046  0.2013
  219MPD1    H6 3389   2.998   3.853  12.512  1.8958  0.6991 -1.5304
  219MPD1    H7 3390   2.967   3.972  12.391 -0.7442 -0.7058 -1.4571
  220MPD1     C 3391   2.602   2.921   9.803 -0.1573  0.4735  0.3704
  220MPD1    C1 3392   2.619   2.981   9.925  0.3047 -0.2397 -0.4707
  220MPD1    C2 3393   2.520   3.037   9.995 -0.1884  0.9419 -0.3719
  220MPD1    C3 3394   2.391   3.042   9.944  0.6239  0.2643  0.0595
  220MPD1    C4 3395   2.371   2.987   9.823 -1.0336 -0.0359 -0.2929
  220MPD1    C5 3396   2.472   2.930   9.754  0.2636 -0.0146  0.5585
  220MPD1     H 3397   2.541   3.056  10.100  0.9106  1.7589 -0.7360
  220MPD1    H1 3398   2.272   2.976   9.780  0.0805 -1.5068 -2.4671
  220MPD1    H2 3399   2.681   2.863   9.755 -1.4454 -0.4019 -0.6950
  220MPD1    H3 3400   2.442   2.880   9.663  0.0707 -0.7390  1.0228
  220MPD1     N 3401   2.295   3.096  10.032  0.2533 -0.8984  0.2143
  220MPD1    H5 3402   2.325   3.130  10.123 -0.1653  1.9070 -0.6849
  220MPD1    N1 3403   2.740   2.967   9.982  0.3277  0.5497  0.5606
  220MPD1    H6 3404   2.751   3.048  10.043  1.0086  1.0970 -0.2831
  220MPD1    H7 3405   2.821   2.960   9.921 -1.0518  0.5579 -1.2766
  221MPD1     C 3406   4.613   3.288  17.112  0.2286  0.2510 -0.5998
  221MPD1    C1 3407   4.646   3.229  16.996  0.1544 -0.6489  0.5133
  221MPD1    C2 3408   0.030   3.169  16.982 -0.6996 -0.1474 -0.7124
  221MPD1    C3 3409   0.117   3.148  17.083  0.4781  0.2319 -0.1889
  221MPD1    C4 3410   0.078   3.192  17.210 -0.3943  0.2022 -0.3030
  221MPD1    C5 3411   4.689   3.257  17.222  0.2120  0.0427 -0.4879
  221MPD1     H 3412   0.053   3.137  16.881 -3.8590 -0.3863 -1.3755
  221MPD1    H1 3413   0.133   3.177  17.301  2.8410 -0.6614 -2.4201
  221MPD1    H2 3414   4.521   3.345  17.119  1.1960  1.9225 -1.3730
  221MPD1    H3 3415   4.661   3.297  17.318  0.5053 -1.8281  0.3714
  221MPD1     N 3416   0.244   3.096  17.063  0.3276  0.0376 -0.0405
  221MPD1    H5 3417   0.311   3.092  17.139  0.1401  0.0646  0.1293
  221MPD1    N1 3418   4.564   3.254  16.887 -0.0576 -0.4342  0.5308
  221MPD1    H6 3419   4.553   3.179  16.819 -0.6080 -2.2022  2.5571
  221MPD1    H7 3420   4.467   3.270  16.912  0.0443  1.2039 -0.1364
  222MPD1     C 3421   4.161   2.351  16.517 -0.1207  0.0110  0.1942
  222MPD1    C1 3422   4.191   2.457  16.600 -0.4983  0.8268 -0.4466
  222MPD1    C2 3423   4.180   2.437  16.732 -0.0236  0.4607  0.0882
  222MPD1    C3 3424   4.166   2.306  16.786 -0.1842  0.3240 -0.2377
  222MPD1    C4 3425   4.144   2.202  16.697 -0.4978 -0.3955 -0.2728
  222MPD1    C5 3426   4.135   2.229  16.567  0.4409  0.9758 -0.2782
  222MPD1     H 3427   4.204   2.521  16.796  0.2359  0.0542  0.5271
  222MPD1    H1 3428   4.116   2.101  16.726 -0.4027  0.5339  3.1265
  222MPD1    H2 3429   4.150   2.363  16.410 -0.1529  0.4398  0.2439
  222MPD1    H3 3430   4.130   2.143  16.501 -0.5261  1.8367 -1.3297
  222MPD1     N 3431   4.176   2.284  16.928  0.3879  0.0696 -0.0936
  222MPD1    H5 3432   4.183   2.186  16.953  2.1373 -0.0123 -0.9234
  222MPD1    N1 3433   4.194   2.593  16.556 -0.0238 -0.0397 -0.2203
  222MPD1    H6 3434   4.261   2.643  16.614  0.0967 -0.0508 -0.3498
  222MPD1    H7 3435   4.227   2.590  16.459  1.1771 -1.5742  0.2518
  223MPD1     C 3436   3.928   1.572  17.482 -0.0256 -0.8287  0.0025
  223MPD1    C1 3437   3.995   1.652  17.573 -0.0499 -0.5687 -0.0055
  223MPD1    C2 3438   4.026   1.780  17.536 -0.1935  0.2468  0.0566
  223MPD1    C3 3439   3.990   1.834  17.419 -0.0358 -0.2259  0.2233
  223MPD1    C4 3440   3.913   1.754  17.333  0.0953  0.2341 -0.1135
  223MPD1    C5 3441   3.889   1.624  17.361  0.5141 -0.1153 -0.4997
  223MPD1     H 3442   4.067   1.847  17.610  0.5194  0.2769 -0.3674
  223MPD1    H1 3443   3.891   1.791  17.234 -0.8924  0.2506  0.1114
  223MPD1    H2 3444   3.905   1.467  17.496  1.2707 -0.7572  2.6724
  223MPD1    H3 3445   3.826   1.565  17.296 -1.4938  1.0612  0.3736
  223MPD1     N 3446   4.035   1.961  17.398 -0.6953  0.1865  0.0989
  223MPD1    H5 3447   4.106   1.994  17.462  0.4538  0.0347 -1.0994
  223MPD1    N1 3448   4.011   1.603  17.708  0.2745 -0.3071  0.2746
  223MPD1    H6 3449   4.023   1.502  17.716 -0.7651 -0.5761 -1.5653
  223MPD1    H7 3450   4.095   1.643   0.002  0.1590 -0.5666  0.7595
  224MPD1     C 3451   4.368   2.412   9.310 -0.0337 -1.1108 -0.0562
  224MPD1    C1 3452   4.308   2.534   9.334  0.3840  0.2689  0.5113
  224MPD1    C2 3453   4.371   2.631   9.409  0.0315  0.4082 -0.6902
  224MPD1    C3 3454   4.490   2.605   9.472 -0.1526  0.0650  0.1541
  224MPD1    C4 3455   4.545   2.486   9.449 -0.3912 -0.1906  0.0745
  224MPD1    C5 3456   4.485   2.386   9.376 -0.4615  0.0051 -0.2066
  224MPD1     H 3457   4.322   2.723   9.440 -3.0807 -1.9286  1.2904
  224MPD1    H1 3458   4.639   2.466   9.499 -1.2175  0.8640  2.0144
  224MPD1    H2 3459   4.320   2.344   9.240 -2.1732  2.4628 -2.0464
  224MPD1    H3 3460   4.530   2.288   9.369 -1.7981 -0.7697  1.8588
  224MPD1     N 3461   4.552   2.687   9.564  0.6919 -0.2047 -0.0967
  224MPD1    H5 3462   4.636   2.644   9.601  1.4855  1.5812  0.2075
  224MPD1    N1 3463   4.192   2.566   9.269  0.8794  0.7439 -0.1037
  224MPD1    H6 3464   4.146   2.643   9.318  2.3433  0.8704  1.0647
  224MPD1    H7 3465   4.122   2.492   9.265  2.5855 -0.8472 -0.2698
  225MPD1     C 3466   2.499   4.266  12.178  0.2602 -0.7987  0.8228
  225MPD1    C1 3467   2.424   4.168  12.114  0.0941  0.5288  0.3801
  225MPD1    C2 3468   2.284   4.185  12.111  0.1004  0.8087 -0.3909
  225MPD1    C3 3469   2.221   4.280  12.195 -1.1030  1.0544 -0.2667
  225MPD1    C4 3470   2.302   4.365  12.272  0.2999 -0.2244 -0.1246
  225MPD1    C5 3471   2.438   4.350  12.261 -0.0396 -0.7477  0.3598
  225MPD1     H 3472   2.224   4.118  12.050  0.4756  0.9472 -0.9122
  225MPD1    H1 3473   2.259   4.440  12.338  0.4100 -0.5430  0.3115
  225MPD1    H2 3474   2.607   4.264  12.166 -0.0833  0.1661 -2.2891
  225MPD1    H3 3475   2.493   4.427  12.314 -2.1208  0.9384  0.0663
  225MPD1     N 3476   2.083   4.290  12.214  0.1509  0.0646  0.7275
  225MPD1    H5 3477   2.057   4.352  12.290  2.6181  0.9406  0.8488
  225MPD1    N1 3478   2.492   4.081  12.034 -0.5426 -0.1351 -0.3612
  225MPD1    H6 3479   2.585   4.052  12.065 -1.5903 -2.0795  1.0277
  225MPD1    H7 3480   2.435   3.997  12.020 -0.9313  0.4567 -2.3307
  226MPD1     C 3481   1.051   0.044   9.909  0.3503  0.1304  0.0574
  226MPD1    C1 3482   0.925   0.042   9.858 -0.4825 -0.4560 -0.5242
  226MPD1    C2 3483   0.835   4.701   9.924 -0.3319  0.2663  0.2677
  226MPD1    C3 3484   0.872   4.625  10.034 -0.5178 -0.0961 -0.4029
  226MPD1    C4 3485   1.003   4.627  10.083 -0.3635 -0.1973 -0.4362
  226MPD1    C5 3486   1.093   4.712  10.021  0.1540 -0.6839  0.2966
  226MPD1     H 3487   0.734   4.688   9.889 -0.0393  0.3275 -0.5931
  226MPD1    H1 3488   1.034   4.572  10.171  1.0019  1.4054  0.0859
  226MPD1    H2 3489   1.121   0.094   9.843 -2.5626 -1.7846 -4.4918
  226MPD1    H3 3490   1.195   4.718  10.057  0.0487  0.5764  0.3949
  226MPD1     N 3491   0.771   4.540  10.094 -0.2786 -0.7897  1.1989
  226MPD1    H5 3492   0.679   4.545  10.052  1.0774 -0.5290 -1.7453
  226MPD1    N1 3493   0.888   0.122   9.742  0.1320  0.2925  0.6092
  226MPD1    H6 3494   0.818   0.077   9.683  2.1641  0.9345 -2.3055
  226MPD1    H7 3495   0.971   0.147   9.688 -1.2091  0.1576 -1.5461
  227MPD1     C 3496   0.498   3.789  10.893  0.7946  0.3491  0.2542
  227MPD1    C1 3497   0.465   3.747  10.766  0.3815  0.1676 -1.2574
  227MPD1    C2 3498   0.484   3.832  10.658  0.4966  0.7734  0.4049
  227MPD1    C3 3499   0.554   3.948  10.669  0.4670  0.2855 -1.1155
  227MPD1    C4 3500   0.594   3.991  10.795  0.4109  0.1276 -0.2569
  227MPD1    C5 3501   0.553   3.919  10.906  0.0733  0.0744 -0.4296
  227MPD1     H 3502   0.449   3.806  10.559 -1.1671 -0.0094  1.1764
  227MPD1    H1 3503   0.663   4.073  10.810 -3.1518  3.1097  0.0600
  227MPD1    H2 3504   0.481   3.731  10.984 -0.2537 -1.2580 -0.9710
  227MPD1    H3 3505   0.576   3.968  11.000  0.2823 -0.9271  0.0395
  227MPD1     N 3506   0.568   4.034  10.558  0.0658  0.1249  0.4882
  227MPD1    H5 3507   0.533   3.990  10.474  1.3555 -2.8541  1.5168
  227MPD1    N1 3508   0.406   3.618  10.747 -0.7423 -0.3337 -0.4664
  227MPD1    H6 3509   0.409   3.558  10.830 -1.7972 -1.6791 -1.4102
  227MPD1    H7 3510   0.408   3.573  10.656  1.6601 -0.4279 -0.3697
  228MPD1     C 3511   3.782   2.228  13.608 -0.2009 -0.0172 -0.2406
  228MPD1    C1 3512   3.722   2.244  13.482 -0.2379 -0.0129 -0.5801
  228MPD1    C2 3513   3.615   2.164  13.451  0.0822  0.1922 -0.4587
  228MPD1    C3 3514   3.555   2.083  13.546  0.2228 -0.4275 -0.2426
  228MPD1    C4 3515   3.603   2.080  13.676 -0.9363 -0.4906 -0.2984
  228MPD1    C5 3516   3.723   2.151  13.703  0.0330  0.0675 -0.0330
  228MPD1     H 3517   3.567   2.156  13.353 -1.4218 -0.3987  0.3144
  228MPD1    H1 3518   3.547   2.030  13.755 -1.9172 -0.0378 -0.7171
  228MPD1    H2 3519   3.876   2.282  13.617 -0.3746  0.2285  0.1101
  228MPD1    H3 3520   3.779   2.145  13.796  1.1578 -3.1097 -0.9069
  228MPD1     N 3521   3.452   1.991  13.499  0.1526  0.4956 -0.0270
  228MPD1    H5 3522   3.408   2.011  13.409  2.2248  0.9191 -0.9368
  228MPD1    N1 3523   3.796   2.321  13.385  0.6861  0.2335 -0.5352
  228MPD1    H6 3524   3.732   2.356  13.313  0.4020 -1.3157 -1.0367
  228MPD1    H7 3525   3.827   2.406  13.432  1.0009 -1.4084  2.1991
  229MPD1     C 3526   3.674   1.031  14.710 -0.1011  0.9422  0.7535
  229MPD1    C1 3527   3.760   0.931  14.744  0.1580 -0.5375  0.1937
  229MPD1    C2 3528   3.736   0.872  14.862 -0.2561 -0.0333  0.0436
  229MPD1    C3 3529   3.628   0.915  14.945  0.8281  0.0154  0.0017
  229MPD1    C4 3530   3.540   1.011  14.901 -0.1392  0.0162 -0.2747
  229MPD1    C5 3531   3.559   1.061  14.782  0.3968  0.2225 -0.4068
  229MPD1     H 3532   3.808   0.797  14.893 -0.9607 -0.1134  1.4896
  229MPD1    H1 3533   3.451   1.035  14.958  0.4898 -0.4885  0.9219
  229MPD1    H2 3534   3.684   1.083  14.616 -0.8796 -0.4484 -0.1030
  229MPD1    H3 3535   3.495   1.141  14.747  0.3358  0.7646  0.9817
  229MPD1     N 3536   3.608   0.866  15.077  0.4136 -0.0666 -0.0536
  229MPD1    H5 3537   3.548   0.917  15.141 -1.6996  0.0088 -2.0676
  229MPD1    N1 3538   3.874   0.915  14.667  0.3220  0.0279  0.5190
  229MPD1    H6 3539   3.835   0.925  14.574  0.6142 -0.9660  0.2894
  229MPD1    H7 3540   3.907   0.818  14.671  3.1544  0.8023 -3.8963
  230MPD1     C 3541   3.494   1.264  15.831  0.2110  0.1627 -0.5827
  230MPD1    C1 3542   3.617   1.249  15.778  0.2202  0.7605 -0.7306
  230MPD1    C2 3543   3.637   1.136  15.705 -0.5513 -0.4381  0.2276
  230MPD1    C3 3544   3.527   1.057  15.665  0.2588  0.8891  0.0479
  230MPD1    C4 3545   3.405   1.074  15.719  0.3926  0.9950  0.3365
  230MPD1    C5 3546   3.392   1.178  15.804  0.5550 -0.4644 -0.4339
  230MPD1     H 3547   3.735   1.100  15.677 -1.3140 -2.6232  0.3196
  230MPD1    H1 3548   3.314   1.028  15.683  0.1156  1.3101  0.6416
  230MPD1    H2 3549   3.477   1.347  15.898 -2.3114 -1.6582  1.0049
  230MPD1    H3 3550   3.297   1.194  15.855  0.5904  1.1734 -0.8879
  230MPD1     N 3551   3.550   0.949  15.575 -0.3501  0.1745  0.1285
  230MPD1    H5 3552   3.642   0.950  15.531  0.7670  0.4957  2.4917
  230MPD1    N1 3553   3.728   1.328  15.815  0.2746  0.2039  0.5645
  230MPD1    H6 3554   3.700   1.425  15.826  1.0423  0.5158 -0.2704
  230MPD1    H7 3555   3.803   1.324  15.747 -2.7417 -0.4854 -2.6948
  231MPD1     C 3556   2.048   2.407  15.457  0.0502 -0.2683  0.3831
  231MPD1    C1 3557   1.977   2.430  15.341 -0.5445 -0.2152  0.2490
  231MPD1    C2 3558   2.034   2.520  15.249  0.1188 -0.3693  0.2401
  231MPD1    C3 3559   2.142   2.600  15.285 -0.2274  0.1626  0.2081
  231MPD1    C4 3560   2.208   2.572  15.400 -0.1109  0.0379  0.9476
  231MPD1    C5 3561   2.163   2.477  15.485  0.1482 -0.6068  0.0452
  231MPD1     H 3562   1.977   2.539  15.158 -0.1701 -0.0050  0.4999
  231MPD1    H1 3563   2.300   2.625  15.420  0.7554 -0.5498 -1.5545
  231MPD1    H2 3564   2.001   2.342  15.531 -0.9063  0.2340  0.2183
  231MPD1    H3 3565   2.215   2.457  15.578 -0.2685  1.6679  0.7773
  231MPD1     N 3566   2.192   2.698  15.195 -0.5508 -0.0331 -0.1643
  231MPD1    H5 3567   2.170   2.688  15.096  1.0929  0.0330 -0.5372
  231MPD1    N1 3568   1.847   2.375  15.319  0.2219 -0.1866 -0.8369
  231MPD1    H6 3569   1.824   2.285  15.360  0.2566  0.2441  0.1267
  231MPD1    H7 3570   1.794   2.395  15.234  0.0508 -1.0017 -0.9168
  232MPD1     C 3571   3.846   0.754  17.624 -0.8291  0.1523 -0.2788
  232MPD1    C1 3572   3.723   0.808  17.592  0.2253  0.5171  0.1063
  232MPD1    C2 3573   3.618   0.725  17.617 -0.1080 -0.5232  0.1935
  232MPD1    C3 3574   3.627   0.600  17.674 -0.3080  0.1784 -0.5533
  232MPD1    C4 3575   3.748   0.553  17.703 -0.1435  0.4366  0.2116
  232MPD1    C5 3576   3.857   0.635  17.682 -0.1100  0.0094 -0.0911
  232MPD1     H 3577   3.519   0.767  17.605 -0.2380 -0.8170  0.2541
  232MPD1    H1 3578   3.762   0.468   0.022 -0.2651 -0.5596 -1.0232
  232MPD1    H2 3579   3.932   0.820  17.615  0.2649 -1.4966 -1.7014
  232MPD1    H3 3580   3.955   0.600  17.711 -0.2535 -0.9318 -0.7370
  232MPD1     N 3581   3.507   0.544  17.732 -0.2425 -0.2232 -0.3056
  232MPD1    H5 3582   3.430   0.609  17.720 -1.0116 -0.5535  2.7346
  232MPD1    N1 3583   3.705   0.939  17.551  0.1782  0.1812 -0.3695
  232MPD1    H6 3584   3.618   0.954  17.499  0.2543  0.4209 -0.4269
  232MPD1    H7 3585   3.780   0.976  17.494  1.4036  1.1787  1.9089
  233MPD1     C 3586   0.755   4.328   1.699 -0.4850  0.6793  0.1101
  233MPD1    C1 3587   0.683   4.338   1.818 -0.7076  0.3634  0.0537
  233MPD1    C2 3588   0.637   4.222   1.881 -0.0159 -0.0077 -0.0628
  233MPD1    C3 3589   0.665   4.094   1.826 -0.2587 -0.0581 -0.0757
  233MPD1    C4 3590   0.730   4.087   1.707  0.3658 -0.1733  0.5851
  233MPD1    C5 3591   0.775   4.203   1.648  0.9751  0.6834 -0.1074
  233MPD1     H 3592   0.568   4.237   1.964 -1.3281  0.4607 -1.2343
  233MPD1    H1 3593   0.757   3.987   1.676 -1.0393 -0.5365  0.5385
  233MPD1    H2 3594   0.796   4.419   1.657 -0.2741  0.4615 -0.1564
  233MPD1    H3 3595   0.844   4.185   1.566 -1.1335 -1.5744 -1.3597
  233MPD1     N 3596   0.646   3.975   1.902 -0.5841  0.0917 -0.8492
  233MPD1    H5 3597   0.664   3.888   1.853 -0.1619 -0.4215  0.2250
  233MPD1    N1 3598   0.643   4.462   1.877 -0.2783  0.5307 -0.1157
  233MPD1    H6 3599   0.710   4.536   1.853  0.5245  0.1475  0.9356
  233MPD1    H7 3600   0.623   4.466   1.977  2.6806 -0.8281  0.5243
  234MPD1     C 3601   1.219   1.923   9.492  0.1462  0.2892  0.0641
  234MPD1    C1 3602   1.109   1.950   9.417  0.0327  0.3375  0.5191
  234MPD1    C2 3603   0.981   1.967   9.472  0.5925 -0.7517 -0.1583
  234MPD1    C3 3604   0.957   1.964   9.608  0.2984 -0.8534  0.1931
  234MPD1    C4 3605   1.072   1.955   9.685 -0.1401 -0.2166 -0.4143
  234MPD1    C5 3606   1.196   1.934   9.624 -0.8567  0.1524 -0.6474
  234MPD1     H 3607   0.904   1.972   9.396  0.2574  0.3925  0.2621
  234MPD1    H1 3608   1.071   1.943   9.793 -1.3489 -2.1178 -0.6265
  234MPD1    H2 3609   1.316   1.895   9.454 -0.5114 -1.0091 -0.6725
  234MPD1    H3 3610   1.275   1.914   9.696  0.1428  2.1280 -1.1863
  234MPD1     N 3611   0.824   1.984   9.652  0.0027  0.6612  0.0405
  234MPD1    H5 3612   0.751   2.003   9.584 -0.3951 -1.3615 -0.1224
  234MPD1    N1 3613   1.119   1.933   9.276  0.3261 -0.4379 -0.2748
  234MPD1    H6 3614   1.207   1.963   9.235  0.2976 -1.8191 -1.3196
  234MPD1    H7 3615   1.047   1.984   9.225 -0.8159  0.2742  2.0537
  235MPD1     C 3616   2.244   3.884  10.261 -0.0633  0.4219  0.2522
  235MPD1    C1 3617   2.154   3.993  10.250 -0.3899 -0.5593  0.3692
  235MPD1    C2 3618   2.200   4.108  10.186 -0.1444  0.3130  0.1960
  235MPD1    C3 3619   2.322   4.123  10.129 -0.1611 -0.2753  0.3811
  235MPD1    C4 3620   2.416   4.020  10.150 -0.6468 -0.3925 -0.1500
  235MPD1    C5 3621   2.374   3.903  10.219 -0.3567 -0.3407 -0.5166
  235MPD1     H 3622   2.135   4.194  10.179  2.0665  1.8427 -1.3386
  235MPD1    H1 3623   2.518   4.030  10.114 -0.6999 -1.9236 -0.7592
  235MPD1    H2 3624   2.213   3.785  10.291  0.1248  0.1626 -0.4075
  235MPD1    H3 3625   2.432   3.814  10.199  3.1046  1.4158  1.7045
  235MPD1     N 3626   2.369   4.240  10.068 -0.2440  0.3529  0.9812
  235MPD1    H5 3627   2.469   4.248  10.056 -0.2229 -1.1362  0.1354
  235MPD1    N1 3628   2.025   3.990  10.298  0.0112  0.7027 -0.3300
  235MPD1    H6 3629   1.974   4.077  10.314 -0.0868  0.6683 -0.4505
  235MPD1    H7 3630   2.011   3.934  10.381 -0.6934 -1.7767 -2.1297
  236MPD1     C 3631   0.883   1.135  10.262  0.4742 -0.0298 -0.6035
  236MPD1    C1 3632   0.985   1.208  10.322 -0.0966  0.5740 -0.5078
  236MPD1    C2 3633   1.116   1.163  10.305  0.4500  0.4674 -0.6501
  236MPD1    C3 3634   1.143   1.049  10.228  0.0737  0.4109 -0.6262
  236MPD1    C4 3635   1.039   0.980  10.176 -0.3648  0.3500  0.0114
  236MPD1    C5 3636   0.913   1.029  10.192 -0.4230 -0.1144 -0.9560
  236MPD1     H 3637   1.188   1.203  10.376 -1.4277  1.6598  0.5870
  236MPD1    H1 3638   1.049   0.887  10.120  0.0670  0.6513 -0.4159
  236MPD1    H2 3639   0.777   1.158  10.267  0.3228 -1.2903  2.5601
  236MPD1    H3 3640   0.827   0.982  10.145 -1.3783 -0.0308  0.7103
  236MPD1     N 3641   1.270   0.995  10.224  0.3094 -0.4196 -0.4177
  236MPD1    H5 3642   1.277   0.908  10.171 -1.7823 -0.8734  0.0488
  236MPD1    N1 3643   0.951   1.304  10.415 -0.0110 -0.0256 -0.1961
  236MPD1    H6 3644   1.026   1.371  10.433  0.1759 -1.0630  2.8894
  236MPD1    H7 3645   0.867   1.358  10.399 -0.2865 -0.9195 -1.8168
  237MPD1     C 3646   2.538   4.375  15.453 -0.9501  0.1008 -0.2053
  237MPD1    C1 3647   2.420   4.407  15.391 -0.6916 -0.0102 -0.5925
  237MPD1    C2 3648   2.345   4.295  15.353  0.0991 -0.3765 -0.5920
  237MPD1    C3 3649   2.369   4.169  15.396 -0.1547 -0.3556  0.5255
  237MPD1    C4 3650   2.472   4.143  15.484  0.4392 -0.0928 -0.2170
  237MPD1    C5 3651   2.555   4.246  15.509 -0.1093 -0.7232 -0.6497
  237MPD1     H 3652   2.250   4.325  15.311 -1.4305 -2.4891  1.4360
  237MPD1    H1 3653   2.494   4.044  15.523  0.9325 -0.3401 -1.1342
  237MPD1    H2 3654   2.623   4.442  15.459  0.0002 -1.1516  0.4045
  237MPD1    H3 3655   2.643   4.222  15.568  0.4737  1.2667 -0.6935
  237MPD1     N 3656   2.274   4.065  15.377  0.5082  0.3869 -0.1014
  237MPD1    H5 3657   2.277   3.982  15.435  0.6886 -0.2962 -1.0779
  237MPD1    N1 3658   2.402   4.537  15.350  0.7386  0.4585 -0.4585
  237MPD1    H6 3659   2.304   4.557  15.334  0.2779 -1.4008  0.1233
  237MPD1    H7 3660   2.447   4.596  15.420  1.1155 -1.3287  0.7993
  238MPD1     C 3661   3.700   2.534  15.970 -0.4580 -0.2952 -0.2789
  238MPD1    C1 3662   3.593   2.452  15.953 -0.0616  0.1060 -0.1842
  238MPD1    C2 3663   3.524   2.477  15.835 -0.5529  1.1295 -0.0173
  238MPD1    C3 3664   3.545   2.580  15.754 -0.7736  0.1540  0.2526
  238MPD1    C4 3665   3.641   2.675  15.788  0.6407  0.0272 -0.1389
  238MPD1    C5 3666   3.726   2.638  15.881  0.5793  0.1851 -0.1061
  238MPD1     H 3667   3.452   2.402  15.801 -0.6669  0.9055  0.7170
  238MPD1    H1 3668   3.670   2.762  15.730  1.0192  0.9390  1.4010
  238MPD1    H2 3669   3.766   2.527  16.056 -0.6707  2.5682  0.1238
  238MPD1    H3 3670   3.811   2.703  15.899  0.6643  0.0279  0.0627
  238MPD1     N 3671   3.469   2.604  15.636  0.0609 -0.0431 -0.4408
  238MPD1    H5 3672   3.484   2.692  15.587  2.3039 -0.5346 -0.6392
  238MPD1    N1 3673   3.579   2.333  16.026  0.3185 -0.6250 -0.0271
  238MPD1    H6 3674   3.480   2.309  16.031 -0.1387  1.6710  1.5284
  238MPD1    H7 3675   3.597   2.351  16.124 -1.8456  0.4800  0.1802
  239MPD1     C 3676   4.117   2.837  15.069 -0.2614 -0.2111  0.3033
  239MPD1    C1 3677   4.007   2.916  15.110  0.4759 -0.2830  0.2413
  239MPD1    C2 3678   3.973   3.025  15.036  0.2874  0.0935  0.7955
  239MPD1    C3 3679   4.039   3.053  14.915  0.2409  0.3766 -0.6297
  239MPD1    C4 3680   4.141   2.966  14.879  0.3770  0.1300 -0.7252
  239MPD1    C5 3681   4.183   2.858  14.950 -0.0833  0.1920 -0.6404
  239MPD1     H 3682   3.907   3.102  15.076  0.8713  0.6273  0.7465
  239MPD1    H1 3683   4.209   2.980  14.796  0.4418  1.6884 -0.4054
  239MPD1    H2 3684   4.150   2.749  15.123  2.2202  0.1271 -0.6672
  239MPD1    H3 3685   4.259   2.799  14.899 -0.6203  0.3335 -1.6152
  239MPD1     N 3686   4.004   3.155  14.827 -0.1875 -0.7085 -0.3610
  239MPD1    H5 3687   4.059   3.168  14.742 -1.0107  1.0754 -0.6214
  239MPD1    N1 3688   3.959   2.890  15.241 -0.6562  0.3370 -0.1161
  239MPD1    H6 3689   3.863   2.918  15.258 -0.5597  0.4926  0.1752
  239MPD1    H7 3690   3.971   2.790  15.254  0.2263  1.1331  5.1355
  240MPD1     C 3691   3.388   4.002  14.189 -0.5889  0.0526 -0.4459
  240MPD1    C1 3692   3.456   3.913  14.110 -0.1208  0.1525  0.9142
  240MPD1    C2 3693   3.439   3.781  14.133  0.0289  0.2235 -0.0735
  240MPD1    C3 3694   3.349   3.729  14.222  0.5287  0.8852 -1.3156
  240MPD1    C4 3695   3.278   3.821  14.295  0.0715 -0.5467 -0.0124
  240MPD1    C5 3696   3.288   3.956  14.269 -0.4420 -0.3304  0.0928
  240MPD1     H 3697   3.497   3.708  14.078  1.3414  0.6784  0.7249
  240MPD1    H1 3698   3.199   3.782  14.358 -0.9335  0.6543 -0.5160
  240MPD1    H2 3699   3.424   4.104  14.193 -0.7075  0.1174 -0.9890
  240MPD1    H3 3700   3.234   4.020  14.337  2.6149  0.2565  1.9564
  240MPD1     N 3701   3.344   3.596  14.248 -0.2078 -0.3018 -0.2827
  240MPD1    H5 3702   3.406   3.540  14.190 -0.9763  0.1297 -1.5039
  240MPD1    N1 3703   3.560   3.964  14.032 -0.1723 -0.3529  0.0547
  240MPD1    H6 3704   3.564   3.924  13.939  0.6326  1.2787 -0.6214
  240MPD1    H7 3705   3.551   4.064  14.015 -0.6620 -0.3647  0.2565
  241MPD1     C 3706   3.997   2.920  14.533 -0.2464 -0.8064  1.0946
  241MPD1    C1 3707   3.989   3.053  14.494  0.2321  0.0230  0.3802
  241MPD1    C2 3708   3.862   3.103  14.464  0.1296  0.1062  0.4116
  241MPD1    C3 3709   3.746   3.024  14.460 -0.3086  0.3806  0.1165
  241MPD1    C4 3710   3.764   2.884  14.487 -0.3076  0.3293  0.9879
  241MPD1    C5 3711   3.887   2.839  14.532  0.0351  0.1488 -0.1460
  241MPD1     H 3712   3.852   3.208  14.442  1.5956 -0.0915 -1.2684
  241MPD1    H1 3713   3.672   2.828  14.472 -1.6159  2.4553  1.0139
  241MPD1    H2 3714   4.093   2.884  14.569  0.5255 -0.2150 -0.3589
  241MPD1    H3 3715   3.902   2.733  14.550 -0.4413  0.5467  2.6015
  241MPD1     N 3716   3.620   3.078  14.433  0.0244  0.1175 -0.2009
  241MPD1    H5 3717   3.543   3.013  14.426 -0.1125  0.4678 -2.1235
  241MPD1    N1 3718   4.092   3.140  14.519 -0.0813 -0.0222  0.0262
  241MPD1    H6 3719   4.183   3.095  14.525 -1.1774 -2.3139 -0.7721
  241MPD1    H7 3720   4.099   3.224  14.462 -2.6172  1.0332  1.2423
  242MPD1     C 3721   2.975   1.600  15.979 -0.0064  0.1134 -1.0789
  242MPD1    C1 3722   3.102   1.645  15.948 -0.3197 -0.2118 -0.2759
  242MPD1    C2 3723   3.154   1.587  15.831 -0.2108 -1.1243  0.3121
  242MPD1    C3 3724   3.101   1.475  15.773  0.1320  0.2513  0.2561
  242MPD1    C4 3725   2.979   1.423  15.818 -0.4288  0.2876  0.0959
  242MPD1    C5 3726   2.910   1.501  15.909 -0.5272  0.6320 -0.1666
  242MPD1     H 3727   3.232   1.646  15.784 -0.7666 -0.7026 -0.0886
  242MPD1    H1 3728   2.936   1.329  15.787 -1.7415 -0.0859  2.9915
  242MPD1    H2 3729   2.914   1.643  16.058  0.7616 -0.4316 -0.1851
  242MPD1    H3 3730   2.808   1.472  15.929  0.0465 -1.0357  0.3195
  242MPD1     N 3731   3.173   1.418  15.664 -0.3154 -0.4061  0.3549
  242MPD1    H5 3732   3.126   1.335  15.628 -1.0464  0.4145 -0.5760
  242MPD1    N1 3733   3.155   1.764  16.006  0.3645 -0.0483  0.5405
  242MPD1    H6 3734   3.118   1.766  16.101  2.0458  0.8595  1.1799
  242MPD1    H7 3735   3.257   1.757  16.010  0.4347  0.5885 -0.3166
  243MPD1     C 3736   3.920   0.217   0.065  0.3150 -0.2601  0.2357
  243MPD1    C1 3737   3.997   0.145   0.156 -0.4315 -0.3513 -0.6718
  243MPD1    C2 3738   4.107   0.077   0.105  0.8827  0.4836  0.8150
  243MPD1    C3 3739   4.149   0.093  17.723 -0.3068 -0.3738 -1.1729
  243MPD1    C4 3740   4.078   0.177  17.642 -0.2938 -0.3979 -0.4794
  243MPD1    C5 3741   3.971   0.239  17.690  0.0289 -0.0562 -0.1220
  243MPD1     H 3742   4.165   0.010   0.167 -0.9467 -2.5505 -0.7207
  243MPD1    H1 3743   4.101   0.189  17.536  1.0484 -0.7149 -0.2221
  243MPD1    H2 3744   3.818   0.250   0.079  0.9072  1.3554  0.7641
  243MPD1    H3 3745   3.909   0.299  17.624  2.5804 -0.0578 -2.5042
  243MPD1     N 3746   4.255   0.005  17.675  0.0787  0.1808  0.6400
  243MPD1    H5 3747   4.309   4.690  17.744  1.4162  0.5018 -0.1559
  243MPD1    N1 3748   3.942   0.113   0.286 -0.1880 -0.3077  0.0391
  243MPD1    H6 3749   3.878   0.186   0.316  0.1385  0.3019 -0.7534
  243MPD1    H7 3750   4.010   0.096   0.359 -0.6357  0.4367  0.6216
  244MPD1     C 3751   4.481   4.095   0.375  0.2152  0.1797  0.0689
  244MPD1    C1 3752   4.489   4.232   0.403 -0.6325 -0.4512  0.3170
  244MPD1    C2 3753   4.517   4.318   0.298 -0.2901  0.0172  0.6607
  244MPD1    C3 3754   4.513   4.271   0.166  0.2118 -0.1409 -0.9096
  244MPD1    C4 3755   4.487   4.138   0.144  0.8262 -0.1861 -0.2581
  244MPD1    C5 3756   4.477   4.050   0.248  0.7476 -0.5625 -0.1978
  244MPD1     H 3757   4.535   4.425   0.308 -1.4759  0.1765  1.0815
  244MPD1    H1 3758   4.464   4.092   0.049 -1.9583  0.8976 -0.1102
  244MPD1    H2 3759   4.476   4.015   0.448  0.4394 -2.3251 -2.6223
  244MPD1    H3 3760   4.462   3.947   0.217  1.7416 -0.0179 -2.4480
  244MPD1     N 3761   4.516   4.356   0.055 -0.3531 -0.1784  0.1628
  244MPD1    H5 3762   4.519   4.456   0.072 -2.1097  0.0722 -0.9879
  244MPD1    N1 3763   4.507   4.271   0.534  0.2402 -0.3523  0.3652
  244MPD1    H6 3764   4.603   4.249   0.559  0.0512  0.2953  1.6623
  244MPD1    H7 3765   4.463   4.201   0.593 -0.1627 -0.3606  0.0515
  245MPD1     C 3766   1.130   0.488  13.136  0.2290 -0.3550 -0.2611
  245MPD1    C1 3767   1.146   0.528  13.265  0.3383 -0.8350 -0.5899
  245MPD1    C2 3768   1.219   0.644  13.278  0.8144  0.2443 -0.4941
  245MPD1    C3 3769   1.258   0.722  13.173 -0.7892  0.2673  0.2812
  245MPD1    C4 3770   1.245   0.671  13.047 -0.4883  0.2860  0.3459
  245MPD1    C5 3771   1.165   0.561  13.032 -0.5794  0.1213 -0.1197
  245MPD1     H 3772   1.256   0.682  13.372 -0.4117 -0.4832  0.2837
  245MPD1    H1 3773   1.271   0.727  12.958  1.4406 -0.8665  0.1917
  245MPD1    H2 3774   1.097   0.389  13.107 -0.7943 -0.3175  0.7551
  245MPD1    H3 3775   1.153   0.522  12.932  0.0356 -1.4934  0.4404
  245MPD1     N 3776   1.305   0.854  13.208 -0.1555  0.2438  0.4877
  245MPD1    H5 3777   1.321   0.880  13.305  1.1370 -4.0418  1.4530
  245MPD1    N1 3778   1.115   0.439  13.366  0.3245  0.4099  0.4273
  245MPD1    H6 3779   1.113   0.491  13.453  1.9086  1.2765 -0.0504
  245MPD1    H7 3780   1.022   0.407  13.341  0.7929 -0.7418  0.1208
  246MPD1     C 3781   2.512   4.512   9.540 -0.8732  0.0268  0.1626
  246MPD1    C1 3782   2.469   4.636   9.501 -0.1568 -0.6856  0.0693
  246MPD1    C2 3783   2.339   4.672   9.528 -0.2309  0.3334  0.4401
  246MPD1    C3 3784   2.247   4.583   9.593 -0.1695 -0.3081  0.4101
  246MPD1    C4 3785   2.294   4.453   9.623 -0.1963 -0.6668 -0.2577
  246MPD1    C5 3786   2.423   4.417   9.582 -0.2474 -0.3761  0.0255
  246MPD1     H 3787   2.305   0.036   9.508  0.3973  0.3103 -0.7213
  246MPD1    H1 3788   2.228   4.371   9.650 -1.5358  0.8128  0.9164
  246MPD1    H2 3789   2.615   4.485   9.522 -0.1198  2.1342  1.2995
  246MPD1    H3 3790   2.461   4.318   9.606 -0.0403 -0.7138 -1.7031
  246MPD1     N 3791   2.116   4.633   9.627  0.5072 -0.2533 -0.0527
  246MPD1    H5 3792   2.089   4.724   9.591  2.3999  0.0705 -0.6523
  246MPD1    N1 3793   2.567   4.733   9.469 -0.4527  0.8107  0.2242
  246MPD1    H6 3794   2.515   0.065   9.416  0.6159  2.4293  1.2899
  246MPD1    H7 3795   2.649   4.701   9.418 -2.2879 -1.3415 -1.3723
  247MPD1     C 3796   1.331   0.453  17.154  0.1266 -0.3482 -0.2107
  247MPD1    C1 3797   1.426   0.512  17.074 -0.1690 -0.5203  0.3693
  247MPD1    C2 3798   1.436   0.455  16.948  0.6249 -0.0493  0.1369
  247MPD1    C3 3799   1.368   0.339  16.905 -0.9870 -0.3989  0.4010
  247MPD1    C4 3800   1.279   0.282  16.996  0.4566 -0.6571 -0.0865
  247MPD1    C5 3801   1.257   0.346  17.112 -0.2712 -0.0056 -0.1749
  247MPD1     H 3802   1.507   0.503  16.882 -1.0365  1.4155 -0.6091
  247MPD1    H1 3803   1.219   0.193  16.976  0.9554 -0.6808 -1.4550
  247MPD1    H2 3804   1.315   0.496  17.253  0.7511 -0.9133  0.1393
  247MPD1    H3 3805   1.191   0.292  17.177  0.2756  0.5920  0.8743
  247MPD1     N 3806   1.384   0.271  16.776 -0.4699 -0.8046  0.6590
  247MPD1    H5 3807   1.326   0.191  16.754 -1.0743  0.1083 -1.0893
  247MPD1    N1 3808   1.478   0.634  17.113 -0.3638 -0.5851 -0.6350
  247MPD1    H6 3809   1.555   0.675  17.061 -0.6279  0.9043  0.1591
  247MPD1    H7 3810   1.494   0.637  17.214  1.6476  0.2881 -0.9791
  248MPD1     C 3811   2.219   4.623   0.123 -0.5320  0.8108 -0.4751
  248MPD1    C1 3812   2.199   0.016   0.077  0.0188 -0.1893  0.0499
  248MPD1    C2 3813   2.095   0.096   0.123 -0.4639  0.2361  0.4105
  248MPD1    C3 3814   2.005   0.047   0.210 -0.9498  0.7447 -0.8668
  248MPD1    C4 3815   2.013   4.648   0.244 -0.1958  0.4394  0.2451
  248MPD1    C5 3816   2.122   4.572   0.208 -0.1453  0.0467 -0.6136
  248MPD1     H 3817   2.086   0.194   0.078 -1.5100 -0.9131 -1.9053
  248MPD1    H1 3818   1.942   4.607   0.315  0.4903 -4.3130 -1.8321
  248MPD1    H2 3819   2.291   4.551   0.085 -1.9855 -0.0270 -1.6488
  248MPD1    H3 3820   2.130   4.466   0.231 -1.3536  0.1832  0.4629
  248MPD1     N 3821   1.917   0.133   0.272 -0.1599 -0.2867  0.8122
  248MPD1    H5 3822   1.940   0.230   0.250  1.3081 -0.7949  0.1212
  248MPD1    N1 3823   2.265   0.050  17.710  0.2070 -0.5978 -0.3117
  248MPD1    H6 3824   2.360   0.014  17.699 -0.0002 -0.8857 -1.2197
  248MPD1    H7 3825   2.272   0.148  17.685  0.1595 -0.8117 -1.1710
  249MPD1     C 3826   3.884   3.322  11.088  0.1616  0.0698 -0.1439
  249MPD1    C1 3827   3.837   3.425  11.012  0.0835  0.4218 -0.4493
  249MPD1    C2 3828   3.760   3.390  10.904  0.2138 -0.0381  0.7693
  249MPD1    C3 3829   3.724   3.259  10.879  0.0698  0.0219 -0.4730
  249MPD1    C4 3830   3.755   3.155  10.967 -0.5183  0.1570  0.5713
  249MPD1    C5 3831   3.832   3.194  11.078  0.2129 -0.0157 -0.1624
  249MPD1     H 3832   3.741   3.469  10.832 -0.0193  0.4932  1.4150
  249MPD1    H1 3833   3.728   3.050  10.962 -1.7668  0.5065 -0.1012
  249MPD1    H2 3834   3.949   3.339  11.173  1.6347  1.7922 -1.6056
  249MPD1    H3 3835   3.881   3.125  11.147 -0.2928  0.7623  0.9727
  249MPD1     N 3836   3.651   3.236  10.762  1.0070  0.4790 -0.4007
  249MPD1    H5 3837   3.625   3.311  10.700 -2.0865 -0.6326 -0.4549
  249MPD1    N1 3838   3.892   3.556  11.022 -0.3197  0.0957  0.3009
  249MPD1    H6 3839   3.939   3.570  11.111 -0.8666  1.5905  0.3492
  249MPD1    H7 3840   3.821   3.628  11.016 -1.3863 -1.0273 -0.4622
  250MPD2     C 3841   0.300   3.900  13.511 -0.8200  0.5403 -0.4960
  250MPD2    C1 3842   0.216   3.993  13.456 -0.8646  0.5930  1.1238
  250MPD2    C2 3843   0.082   3.953  13.423  0.4807  0.4106 -0.2634
  250MPD2    C3 3844   0.047   3.819  13.430 -0.0031 -0.2281 -0.2809
  250MPD2    C4 3845   0.136   3.726  13.458 -0.1982  0.5563  0.7244
  250MPD2    C5 3846   0.260   3.768  13.503 -0.0278  0.2524  0.5626
  250MPD2     H 3847   0.002   4.026  13.412  0.9875  1.1781  1.1483
  250MPD2    H1 3848   0.109   3.623  13.480  0.0552  0.5081  0.8186
  250MPD2    H2 3849   0.401   3.922  13.544 -0.3155 -0.8291 -1.1027
  250MPD2    H3 3850   0.325   3.693  13.546  0.4889  0.8754  0.8653
  250MPD2     N 3851   4.656   3.769  13.394 -0.2156  0.1727  0.1190
  250MPD2    H5 3852   4.652   3.668  13.388 -0.4992  0.2852 -1.8232
  250MPD2    N1 3853   0.266   4.130  13.445 -0.0262 -0.4183 -0.3308
  250MPD2    H7 3854   0.363   4.146  13.469  0.0110 -0.9910 -0.0876
  251TMC3    C1 3855   0.305   4.339  13.380  0.4317  0.3477  0.3389
  251TMC3    C2 3856   0.259   4.465  13.376  0.2023 -0.0714 -0.0971
  251TMC3    C3 3857   0.320   4.552  13.288  0.7112 -0.0095  0.3781
  251TMC3    C4 3858   0.413   4.295  13.303 -0.5900 -0.0881  0.3299
  251TMC3    C5 3859   0.471   4.385  13.227  0.2422 -0.6971 -0.0249
  251TMC3    C6 3860   0.421   4.510  13.204  0.1180  0.2438 -0.1996
  251TMC3     C 3861   0.203   4.241  13.403  0.0271  0.0771  0.2924
  251TMC3     O 3862   0.087   4.248  13.361  0.6780 -0.0777  0.0236
  251TMC3     H 3863   0.166   4.485  13.429 -0.4031  0.7551 -1.4752
  251TMC3    H1 3864   0.463   4.199  13.315 -1.6682 -0.4689  1.7687
  251TMC3    H2 3865   0.474   4.585  13.146  1.1155 -0.4602 -0.2168
  251TMC3    C7 3866   0.597   4.338  13.168  0.6469  0.5515  0.2571
  251TMC3    C8 3867   0.263   4.686  13.274  0.3602  0.1858  0.3303
  251TMC3    O1 3868   0.597   4.220  13.129  0.1966  0.1759 -0.2407
  251TMC3    O2 3869   0.212   4.733  13.374 -0.4425  0.2632  0.1819
  252TMC3    C1 3870   4.711   0.438   9.087  0.5447 -1.2491 -0.3102
  252TMC3    C2 3871   0.081   0.489   9.155  0.1826  0.9521  0.7303
  252TMC3    C3 3872   0.131   0.440   9.277  0.2872  0.4938 -0.7424
  252TMC3    C4 3873   4.670   0.310   9.121  0.6154 -1.7019  0.1056
  252TMC3    C5 3874   4.730   0.260   9.236  0.4286  0.2770  1.1484
  252TMC3    C6 3875   0.095   0.312   9.307  0.2640  0.1149 -0.3952
  252TMC3     C 3876   4.634   0.522   8.998 -0.1200 -0.2290 -0.1098
  252TMC3     O 3877   4.698   0.605   8.937 -0.1126  0.2776 -0.6961
  252TMC3     H 3878   0.103   0.594   9.138  1.3349  0.5788 -0.1306
  252TMC3    H1 3879   4.579   0.266   9.083 -0.3849 -0.8676  1.5706
  252TMC3    H2 3880   0.156   0.269   9.385 -0.0492  0.4555  0.0320
  252TMC3    C7 3881   4.693   0.121   9.256 -0.1386  0.3833 -0.0534
  252TMC3    C8 3882   0.259   0.492   9.323  0.2213 -0.4759 -0.3744
  252TMC3    O1 3883   4.634   0.058   9.168  0.3089 -0.0110 -0.3565
  252TMC3    O2 3884   0.303   0.572   9.242 -0.0588  0.6759 -0.4377
  253MPD2     C 3885   1.897   4.093  15.619 -0.3784  0.0682 -0.0216
  253MPD2    C1 3886   1.762   4.089  15.616 -0.3128 -0.0953 -0.3171
  253MPD2    C2 3887   1.687   4.075  15.731 -0.6914  0.8060  0.3245
  253MPD2    C3 3888   1.755   4.046  15.853 -0.2826 -0.0571  0.2295
  253MPD2    C4 3889   1.889   4.053  15.853  0.4152  0.3501 -0.4225
  253MPD2    C5 3890   1.955   4.070  15.739  0.6784  0.6331 -0.5630
  253MPD2     H 3891   1.581   4.061  15.715 -0.6003  0.3398  0.1171
  253MPD2    H1 3892   1.949   4.038  15.942  0.3662  1.3381 -0.2305
  253MPD2    H2 3893   1.965   4.105  15.535 -0.1629 -0.5461  0.0593
  253MPD2    H3 3894   2.062   4.057  15.740  0.5107 -0.7165  0.2763
  253MPD2     N 3895   1.683   3.999  15.966  0.1108 -0.2845 -0.5141
  253MPD2    H5 3896   1.732   3.983  16.053  1.2502 -0.7149 -1.2416
  253MPD2    N1 3897   1.688   4.092  15.497  0.1311 -0.2329  1.1189
  253MPD2    H7 3898   1.588   4.084  15.513 -0.2068 -1.8000 -1.9610
  254TMC3    C1 3899   1.504   3.880  16.081  0.2711 -0.4892  0.1240
  254TMC3    C2 3900   1.380   3.828  16.074 -0.5220 -0.0844  0.7491
  254TMC3    C3 3901   1.330   3.774  16.190 -1.0786  0.0056  0.0908
  254TMC3    C4 3902   1.578   3.874  16.196 -0.0193  0.2158  0.2918
  254TMC3    C5 3903   1.521   3.823  16.309 -0.7468  1.0916  0.0299
  254TMC3    C6 3904   1.391   3.780  16.314 -0.2210 -0.0296  0.3404
  254TMC3     C 3905   1.552   3.952  15.965 -1.0124 -0.1154  0.0039
  254TMC3     O 3906   1.477   3.935  15.871  0.3851 -0.1652  0.4189
  254TMC3     H 3907   1.324   3.820  15.982 -1.1999  3.8525  0.8159
  254TMC3    H1 3908   1.678   3.917  16.194  0.1507 -0.1242  1.4212
  254TMC3    H2 3909   1.348   3.743  16.407 -0.9300 -0.7816 -0.2749
  254TMC3    C7 3910   1.594   3.843  16.438  0.1379 -0.1022  0.3848
  254TMC3    C8 3911   1.187   3.760  16.181 -0.1589  0.5646 -1.1767
  254TMC3    O1 3912   1.555   3.783  16.538 -0.0881  0.5891  0.2417
  254TMC3    O2 3913   1.129   3.769  16.071 -0.4504 -0.1654  0.1950
  255MPD2     C 3914   4.007   1.678  11.001  0.3701  0.5952 -0.0947
  255MPD2    C1 3915   4.071   1.728  10.894 -0.3506 -0.2642 -0.6179
  255MPD2    C2 3916   4.162   1.643  10.829 -0.2458 -0.2202 -0.0274
  255MPD2    C3 3917   4.185   1.511  10.857 -0.3670 -0.3705 -0.1669
  255MPD2    C4 3918   4.104   1.462  10.960  0.5845  0.7119 -0.2204
  255MPD2    C5 3919   4.020   1.548  11.026 -0.5578 -0.6963  0.2165
  255MPD2     H 3920   4.227   1.686  10.753 -0.6624 -1.2714 -0.9703
  255MPD2    H1 3921   4.108   1.359  10.994 -0.9044  1.4274  2.1039
  255MPD2    H2 3922   3.936   1.738  11.058 -0.9822 -0.9830 -0.1274
  255MPD2    H3 3923   3.951   1.509  11.100 -1.7335 -0.2736 -0.6663
  255MPD2     N 3924   4.271   1.433  10.774 -0.1653  0.7045  0.2562
  255MPD2    H5 3925   4.333   1.486  10.714  2.7535 -3.7650 -0.6500
  255MPD2    N1 3926   4.040   1.858  10.855  0.2396  0.5346  0.1172
  255MPD2    H7 3927   3.963   1.898  10.908 -0.0373  1.2681 -0.8501
  256TMC3    C1 3928   4.000   2.035  10.717 -0.2528 -0.1760 -0.4062
  256TMC3    C2 3929   4.056   2.132  10.640 -0.2375 -0.7661 -0.1371
  256TMC3    C3 3930   3.974   2.220  10.575  0.8925  0.2276  0.5079
  256TMC3    C4 3931   3.864   2.007  10.712 -0.7040  0.3202  0.3937
  256TMC3    C5 3932   3.789   2.085  10.630  0.0817  0.2368 -0.2529
  256TMC3    C6 3933   3.839   2.195  10.564 -0.1858  0.0010 -0.0829
  256TMC3     C 3934   4.084   1.918  10.743  0.5511  0.2950 -0.2370
  256TMC3     O 3935   4.179   1.901  10.665  0.2442 -0.2952  0.0882
  256TMC3     H 3936   4.164   2.135  10.633 -0.2701 -0.4218 -0.4743
  256TMC3    H1 3937   3.815   1.917  10.746  0.3429 -0.3678  0.0883
  256TMC3    H2 3938   3.769   2.261  10.513  2.1475  2.3995 -0.2248
  256TMC3    C7 3939   3.691   2.024  10.550  0.5014  0.0477 -0.1586
  256TMC3    C8 3940   4.044   2.257  10.458  0.1368 -0.1872  0.7565
  256TMC3    O1 3941   3.697   2.049  10.431  0.5040 -0.6646  0.1661
  256TMC3    O2 3942   4.166   2.268  10.460 -0.3893  0.6180  0.1706
  257MPD2     C 3943   3.732   4.185  13.559 -0.2394 -0.0759  0.2392
  257MPD2    C1 3944   3.698   4.103  13.455 -0.0230  0.0343 -0.8256
  257MPD2    C2 3945   3.691   3.969  13.472  0.3065  0.1569 -0.7767
  257MPD2    C3 3946   3.721   3.915  13.601  0.3549 -0.8378  1.0925
  257MPD2    C4 3947   3.753   3.999  13.708 -0.2095  0.7008 -0.2974
  257MPD2    C5 3948   3.771   4.134  13.682  0.4611  0.3209 -1.1364
  257MPD2     H 3949   3.649   3.899  13.400  1.8390 -2.5705  0.9895
  257MPD2    H1 3950   3.769   3.971  13.812 -0.9118 -0.8701 -0.6165
  257MPD2    H2 3951   3.748   4.291  13.542  0.4061 -0.0172  1.1985
  257MPD2    H3 3952   3.778   4.210  13.759 -1.3881  0.6032 -1.2282
  257MPD2     N 3953   3.717   3.772  13.616  0.1353  0.4005  0.3377
  257MPD2    H5 3954   3.711   3.707  13.538  0.7997  1.4324 -0.5740
  257MPD2    N1 3955   3.676   4.168  13.331 -0.7664 -0.2830 -0.3007
  257MPD2    H7 3956   3.697   4.267  13.328 -0.1547 -0.3213  2.8897
  258TMC3    C1 3957   3.766   3.554  13.700 -0.2876  0.8992 -0.5935
  258TMC3    C2 3958   3.729   3.506  13.577  0.5688  0.1478  0.7514
  258TMC3    C3 3959   3.802   3.398  13.525  0.9469 -0.1190  0.2005
  258TMC3    C4 3960   3.859   3.493  13.779  0.3401  0.6396  0.0756
  258TMC3    C5 3961   3.920   3.384  13.728 -0.2293  0.0435 -0.6451
  258TMC3    C6 3962   3.899   3.340  13.598 -0.7654 -0.4188  0.3536
  258TMC3     C 3963   3.739   3.698  13.732  0.8871  0.8117  0.1526
  258TMC3     O 3964   3.755   3.726  13.850  0.4574  0.8843 -0.0244
  258TMC3     H 3965   3.629   3.533  13.544 -0.0913  0.8187  3.2939
  258TMC3    H1 3966   3.873   3.526  13.881  0.0311 -0.7871  0.5725
  258TMC3    H2 3967   3.965   3.261  13.564  0.4289  1.3307 -1.4462
  258TMC3    C7 3968   3.976   3.291  13.827  0.1244  0.0340  0.0723
  258TMC3    C8 3969   3.761   3.327  13.407  0.3818 -0.0851 -0.1437
  258TMC3    O1 3970   3.954   3.171  13.816  0.3853 -0.1749 -0.1003
  258TMC3    O2 3971   3.804   3.211  13.393  0.1563 -0.3037  0.2340
  259MPD2     C 3972   1.804   1.275   0.869 -0.1600 -0.2713 -0.0083
  259MPD2    C1 3973   1.895   1.213   0.948 -0.2445  0.2697 -0.3180
  259MPD2    C2 3974   2.006   1.150   0.884 -0.2457  0.3002  0.5848
  259MPD2    C3 3975   2.025   1.149   0.748 -0.0056  0.2335 -0.2757
  259MPD2    C4 3976   1.935   1.224   0.673 -0.1375 -0.0955  0.2919
  259MPD2    C5 3977   1.829   1.273   0.733  0.5723  0.7849  0.3881
  259MPD2     H 3978   2.082   1.112   0.952 -0.1486  1.4186  1.1025
  259MPD2    H1 3979   1.931   1.234   0.565  1.1551 -1.6222  0.1109
  259MPD2    H2 3980   1.712   1.319   0.907  0.4215 -0.5935  1.7869
  259MPD2    H3 3981   1.756   1.317   0.666 -0.0300  0.2253  0.6832
  259MPD2     N 3982   2.137   1.085   0.700  0.8075  0.1437 -0.3418
  259MPD2    H5 3983   2.207   1.060   0.769  0.9918  2.1013  0.1798
  259MPD2    N1 3984   1.864   1.218   1.095  0.3681  0.7006 -0.6946
  259MPD2    H7 3985   1.787   1.276   1.124 -1.5115 -1.3640 -1.5651
  260TMC3    C1 3986   2.292   0.983   0.548  0.1766 -0.0886 -0.0455
  260TMC3    C2 3987   2.354   0.999   0.432 -0.1956  0.4550  0.3418
  260TMC3    C3 3988   2.463   0.915   0.409 -0.5732 -0.1660  0.0007
  260TMC3    C4 3989   2.327   0.895   0.645 -0.1706  0.6827 -1.3073
  260TMC3    C5 3990   2.425   0.801   0.614 -0.9523 -0.0384 -0.1109
  260TMC3    C6 3991   2.501   0.814   0.499 -0.2149  0.2038 -0.2823
  260TMC3     C 3992   2.174   1.070   0.571 -0.2789  0.3997 -0.4937
  260TMC3     O 3993   2.118   1.115   0.474  0.6410  0.1652 -0.0400
  260TMC3     H 3994   2.337   1.083   0.365 -0.8313 -1.1706 -1.5603
  260TMC3    H1 3995   2.282   0.885   0.743 -1.2759 -0.9871 -2.0082
  260TMC3    H2 3996   2.590   0.755   0.485  1.0103  1.8673  0.4779
  260TMC3    C7 3997   2.462   0.704   0.713 -0.2577 -0.2316 -0.0605
  260TMC3    C8 3998   2.525   0.917   0.276  0.6756  0.1846  0.2773
  260TMC3    O1 3999   2.442   0.748   0.826  0.0520  0.7238  0.0617
  260TMC3    O2 4000   2.471   0.996   0.202  0.0111 -0.3741 -0.5947
  261MPD2     C 4001   3.929   3.953  12.912 -0.7296  0.8992  0.4737
  261MPD2    C1 4002   4.039   3.911  12.838  0.2078 -0.3201 -0.0769
  261MPD2    C2 4003   4.051   3.942  12.706 -0.1944 -1.1036 -0.1904
  261MPD2    C3 4004   3.964   4.034  12.646 -0.1149  0.1223  0.5975
  261MPD2    C4 4005   3.851   4.063  12.714 -0.0107 -0.1246 -0.3481
  261MPD2    C5 4006   3.833   4.030  12.843  0.1466 -0.0039 -0.0968
  261MPD2     H 4007   4.128   3.895  12.645  2.3128  0.5649  1.6978
  261MPD2    H1 4008   3.781   4.131  12.668 -1.2100 -0.5950  0.7750
  261MPD2    H2 4009   3.922   3.936  13.018 -0.8564 -0.0431  0.3171
  261MPD2    H3 4010   3.749   4.069  12.900 -0.0541  0.7332 -0.8943
  261MPD2     N 4011   4.010   4.084  12.526  0.6209  0.1749  0.7206
  261MPD2    H5 4012   4.100   4.050  12.493 -0.1372 -0.9047 -0.2451
  261MPD2    N1 4013   4.147   3.840  12.901 -0.6652  0.3719  0.5080
  261MPD2    H7 4014   4.224   3.809  12.843 -2.6746 -0.4265 -1.6866
  262TMC3    C1 4015   4.004   4.210  12.328  0.4821  0.1534 -0.5954
  262TMC3    C2 4016   3.959   4.331  12.283 -1.1538  0.0298  0.0792
  262TMC3    C3 4017   4.007   4.381  12.167 -0.3921  0.0149 -0.1187
  262TMC3    C4 4018   4.103   4.141  12.263  0.5187 -0.3800  0.1734
  262TMC3    C5 4019   4.158   4.201  12.154  0.5790 -0.4043 -0.2597
  262TMC3    C6 4020   4.111   4.318  12.103 -0.0911 -0.1863  0.1791
  262TMC3     C 4021   3.936   4.167  12.448 -0.3623  0.0373 -0.2411
  262TMC3     O 4022   3.816   4.195  12.456  0.2196  0.0780 -0.5967
  262TMC3     H 4023   3.893   4.380  12.354  0.7547  2.5872  0.0636
  262TMC3    H1 4024   4.141   4.045  12.297 -0.4525 -0.3525  1.3498
  262TMC3    H2 4025   4.139   4.363  12.009 -1.5091  1.0266  0.3403
  262TMC3    C7 4026   4.275   4.139  12.098  0.7439 -0.2610 -0.4339
  262TMC3    C8 4027   3.957   4.503  12.114  0.0613 -0.2865 -0.3138
  262TMC3    O1 4028   4.327   4.043  12.154 -0.3936 -0.5125  0.1237
  262TMC3    O2 4029   4.027   4.555  12.030 -0.0591  0.3387 -0.3087
  263MPD2     C 4030   0.298   2.951  11.883  0.1191  0.1398 -0.5155
  263MPD2    C1 4031   0.369   2.928  11.771  0.4608  0.4389 -0.2927
  263MPD2    C2 4032   0.324   2.974  11.646  0.8614  0.3675  0.5002
  263MPD2    C3 4033   0.210   3.062  11.647 -0.1297 -1.0381 -0.8519
  263MPD2    C4 4034   0.141   3.089  11.767  0.8749  0.6070 -0.9215
  263MPD2    C5 4035   0.178   3.020  11.878  0.7781  1.0059 -0.0150
  263MPD2     H 4036   0.376   2.968  11.551 -1.7553 -1.1755 -0.8308
  263MPD2    H1 4037   0.050   3.146  11.783 -0.6534 -1.2915 -2.8315
  263MPD2    H2 4038   0.337   2.920  11.979  2.6970  1.1253 -1.2406
  263MPD2    H3 4039   0.141   3.032  11.979  0.1980 -0.2870 -0.0749
  263MPD2     N 4040   0.183   3.142  11.534 -0.2478  0.0711  0.2360
  263MPD2    H5 4041   0.106   3.208  11.539 -1.1798 -0.9343 -0.9116
  263MPD2    N1 4042   0.493   2.862  11.784 -0.0378  0.0870 -0.0085
  263MPD2    H7 4043   0.521   2.826  11.875 -1.8120  1.6167  1.1480
  264TMC3    C1 4044   0.206   3.264  11.330  0.1386 -0.2376  0.4107
  264TMC3    C2 4045   0.190   3.381  11.398 -0.0977 -0.1135 -0.3830
  264TMC3    C3 4046   0.185   3.502  11.326 -0.1190 -0.3707 -0.1675
  264TMC3    C4 4047   0.230   3.261  11.193  0.4735  0.2719 -0.2382
  264TMC3    C5 4048   0.219   3.374  11.125  0.6670 -0.7087 -0.2949
  264TMC3    C6 4049   0.192   3.491  11.187  0.7734 -0.0799  0.6563
  264TMC3     C 4050   0.245   3.143  11.411  0.5048  0.5231 -0.0594
  264TMC3     O 4051   0.330   3.077  11.359 -0.1136 -0.0597  0.5422
  264TMC3     H 4052   0.184   3.384  11.506 -2.8999 -1.3247 -0.5198
  264TMC3    H1 4053   0.240   3.167  11.140  0.0309 -1.2519  2.3631
  264TMC3    H2 4054   0.150   3.570  11.126 -0.2939  0.2281  1.8114
  264TMC3    C7 4055   0.310   3.378  11.016  0.1799  0.4327  0.9947
  264TMC3    C8 4056   0.279   3.601  11.364  0.7215  1.1001  0.3221
  264TMC3    O1 4057   0.329   3.287  10.939  0.4008  0.0623  0.0369
  264TMC3    O2 4058   0.332   3.648  11.266 -0.1901  0.6372  1.0292
  265MPD2     C 4059   2.419   3.715  15.815  0.1993 -0.9358 -0.0493
  265MPD2    C1 4060   2.496   3.818  15.764  0.0970 -0.4340  0.4592
  265MPD2    C2 4061   2.602   3.791  15.671  0.9757 -0.4764 -0.8367
  265MPD2    C3 4062   2.622   3.662  15.627 -0.0810  0.4422  0.2746
  265MPD2    C4 4063   2.545   3.559  15.674  0.5772  0.6536  0.0239
  265MPD2    C5 4064   2.444   3.584  15.766 -0.1694  0.4929  0.2045
  265MPD2     H 4065   2.665   3.871  15.633 -1.6000  1.6744 -0.6270
  265MPD2    H1 4066   2.574   3.456  15.658 -3.8972 -0.5123 -0.7161
  265MPD2    H2 4067   2.342   3.728  15.890  1.2109  0.7961  0.6722
  265MPD2    H3 4068   2.385   3.499  15.800  2.9298 -2.5745 -2.0004
  265MPD2     N 4069   2.713   3.635  15.523  0.4743  0.3295  0.5267
  265MPD2    H5 4070   2.710   3.537  15.496  1.2817  0.8966 -1.5964
  265MPD2    N1 4071   2.478   3.958  15.805 -0.5874  0.1526  0.1489
  265MPD2    H7 4072   2.559   4.017  15.793 -1.2197  0.7758 -0.9828
  266TMC3    C1 4073   2.393   4.141  15.926 -0.6026  0.1877 -0.1742
  266TMC3    C2 4074   2.476   4.149  16.036  0.4019  0.5128  0.3320
  266TMC3    C3 4075   2.439   4.250  16.128  0.1893  0.2009  0.8544
  266TMC3    C4 4076   2.281   4.222  15.910  0.0042  0.0253  0.3434
  266TMC3    C5 4077   2.251   4.316  16.006 -0.1375 -0.0708  0.1374
  266TMC3    C6 4078   2.325   4.326  16.121  0.0745 -0.6387 -0.2457
  266TMC3     C 4079   2.372   4.007  15.880 -0.2372 -0.2897  0.3231
  266TMC3     O 4080   2.256   3.963  15.894 -0.3122 -0.0820  0.7568
  266TMC3     H 4081   2.549   4.070  16.051  0.1368 -0.0890 -1.5401
  266TMC3    H1 4082   2.209   4.196  15.833 -0.6564  0.3213  0.8622
  266TMC3    H2 4083   2.288   4.394  16.197  0.9031  0.9521 -1.2688
  266TMC3    C7 4084   2.116   4.371  16.012 -0.3825  0.9664  0.6360
  266TMC3    C8 4085   2.538   4.260  16.237  0.4143 -0.0223  0.0669
  266TMC3    O1 4086   2.063   4.387  16.125 -0.2428  0.6901  0.3476
  266TMC3    O2 4087   2.621   4.166  16.236 -0.3120 -0.1084 -0.5793
  267MPD2     C 4088   4.293   0.485   0.315  0.3605 -0.3593 -0.3718
  267MPD2    C1 4089   4.374   0.595   0.295  0.1028  0.6562 -0.4706
  267MPD2    C2 4090   4.368   0.651   0.167 -0.3776  0.6384  0.0774
  267MPD2    C3 4091   4.271   0.610   0.071  0.0626 -0.3435 -0.2897
  267MPD2    C4 4092   4.190   0.504   0.104  0.2909 -0.4182  0.0379
  267MPD2    C5 4093   4.206   0.437   0.224 -0.0980 -0.0934 -0.0106
  267MPD2     H 4094   4.435   0.732   0.138  1.4800 -1.3266 -1.1193
  267MPD2    H1 4095   4.108   0.474   0.039  1.8728 -2.1720 -1.1604
  267MPD2    H2 4096   4.307   0.430   0.407 -1.8240 -0.2275  0.0388
  267MPD2    H3 4097   4.151   0.348   0.252 -2.3435  0.1739 -3.5699
  267MPD2     N 4098   4.246   0.669  17.691  0.0989  0.1485  0.0438
  267MPD2    H5 4099   4.183   0.621  17.628 -1.5872  1.4783  0.6841
  267MPD2    N1 4100   4.477   0.629   0.391 -0.3330  0.3469 -0.7070
  267MPD2    H7 4101   4.481   0.584   0.482  0.0008  1.2421 -0.2843
  268TMC3    C1 4102   4.670   0.745   0.464 -0.1600 -0.4915  0.0681
  268TMC3    C2 4103   0.010   0.855   0.438  0.2061 -0.4555 -0.4214
  268TMC3    C3 4104   0.144   0.840   0.436  0.0658 -0.4769 -0.7886
  268TMC3    C4 4105   4.725   0.629   0.508  0.2276 -0.1509 -0.2712
  268TMC3    C5 4106   0.120   0.618   0.496  0.9124 -0.0537 -0.3632
  268TMC3    C6 4107   0.197   0.723   0.465 -0.0768 -0.2071  0.2682
  268TMC3     C 4108   4.566   0.726   0.373  0.3743 -0.7415 -0.4203
  268TMC3     O 4109   4.572   0.818   0.289  0.0091 -0.4215 -0.0570
  268TMC3     H 4110   4.699   0.949   0.415  0.7932 -0.1083 -0.2330
  268TMC3    H1 4111   4.674   0.533   0.511 -1.6396  0.8658  0.6504
  268TMC3    H2 4112   0.303   0.708   0.448  0.5020  0.3969  3.2702
  268TMC3    C7 4113   0.192   0.501   0.536 -0.7851  0.4094 -0.6304
  268TMC3    C8 4114   0.220   0.934   0.354  0.0206  0.3555 -0.3981
  268TMC3    O1 4115   0.158   0.449   0.640 -0.2436  0.3216 -0.4061
  268TMC3    O2 4116   0.339   0.934   0.381 -0.4792  0.1401  0.1543
  269MPD2     C 4117   0.912   4.645  15.668 -0.8961  0.1886 -0.7952
  269MPD2    C1 4118   0.793   4.620  15.604  0.1823 -0.2398  0.0515
  269MPD2    C2 4119   0.732   4.726  15.545 -0.6253 -0.2416  0.3496
  269MPD2    C3 4120   0.774   0.115  15.553 -0.1591 -0.1388  0.1698
  269MPD2    C4 4121   0.897   0.135  15.610 -0.0978 -0.3428 -0.0585
  269MPD2    C5 4122   0.972   0.028  15.663  0.2161 -0.0908 -0.4272
  269MPD2     H 4123   0.636   4.707  15.497 -0.4517  0.5768 -0.3202
  269MPD2    H1 4124   0.941   0.234  15.619 -0.0145 -0.4700  0.9430
  269MPD2    H2 4125   0.958   4.565  15.724 -2.4575 -0.2221 -0.1119
  269MPD2    H3 4126   1.067   0.052  15.710 -0.1709  1.6633 -0.5383
  269MPD2     N 4127   0.691   0.213  15.490 -0.1141  0.5995  0.3217
  269MPD2    H5 4128   0.609   0.182  15.440 -1.6957 -0.7210  3.7248
  269MPD2    N1 4129   0.741   4.489  15.619  0.0570  0.1347  0.4755
  269MPD2    H7 4130   0.795   4.417  15.665  0.9766 -0.7048 -1.8857
  270TMC3    C1 4131   0.565   4.326  15.609 -0.8003  0.4242 -0.3070
  270TMC3    C2 4132   0.466   4.279  15.521 -1.0894  0.2836 -0.0054
  270TMC3    C3 4133   0.438   4.147  15.529 -0.1792  0.3860 -0.2856
  270TMC3    C4 4134   0.629   4.247  15.697  0.7858 -0.1510  0.6622
  270TMC3    C5 4135   0.594   4.118  15.708  0.1296 -0.1701 -0.4111
  270TMC3    C6 4136   0.494   4.064  15.625 -0.3309  1.0042  0.3551
  270TMC3     C 4137   0.612   4.459  15.582  0.3307  0.0716 -0.3076
  270TMC3     O 4138   0.529   4.529  15.526 -0.1325 -0.0871  0.0047
  270TMC3     H 4139   0.425   4.350  15.450 -1.8607  2.8033  2.9477
  270TMC3    H1 4140   0.693   4.291  15.773  2.1467 -1.5918  0.3437
  270TMC3    H2 4141   0.484   3.956  15.624  2.1478  0.7602  2.0200
  270TMC3    C7 4142   0.649   4.039  15.811  0.1509  0.7235  0.4574
  270TMC3    C8 4143   0.403   4.088  15.404  1.2636 -0.5210  0.9976
  270TMC3    O1 4144   0.767   4.051  15.848 -0.1008  0.0201  0.6893
  270TMC3    O2 4145   0.401   4.166  15.305  0.0520  0.1925 -0.1669
  271MPD2     C 4146   4.490   4.476  14.365  0.1127  1.0497  0.1659
  271MPD2    C1 4147   4.426   4.356  14.370  0.4563 -0.3105 -0.0672
  271MPD2    C2 4148   4.285   4.360  14.373  0.0344 -0.8087  0.2527
  271MPD2    C3 4149   4.212   4.479  14.370  0.4189  1.1145 -0.5491
  271MPD2    C4 4150   4.280   4.594  14.358  0.6021  0.1716  0.6541
  271MPD2    C5 4151   4.416   4.593  14.356 -0.9572  0.3533 -0.2692
  271MPD2     H 4152   4.231   4.266  14.382  0.2695 -1.2055 -2.4184
  271MPD2    H1 4153   4.234   4.693  14.351 -0.7055 -0.5288 -0.6080
  271MPD2    H2 4154   4.597   4.493  14.369 -0.2178  3.0476  0.2652
  271MPD2    H3 4155   4.481   4.680  14.359 -2.0371  1.1950 -1.3281
  271MPD2     N 4156   4.072   4.492  14.376 -0.3210  0.4588  0.0961
  271MPD2    H5 4157   4.034   4.585  14.390  2.1706  1.3469  1.0053
  271MPD2    N1 4158   4.493   4.234  14.385  0.6570  0.0826 -0.2474
  271MPD2    H7 4159   4.432   4.154  14.387 -0.1703  0.6614 -1.9955
  272TMC3    C1 4160   4.667   4.080  14.420  0.3422 -0.0434 -0.9356
  272TMC3    C2 4161   0.032   4.019  14.351  0.5707 -0.1190 -0.0813
  272TMC3    C3 4162   0.083   3.904  14.402 -0.3018 -0.2324 -0.5121
  272TMC3    C4 4163   4.622   4.032  14.535  0.0932 -0.2657  0.1750
  272TMC3    C5 4164   4.670   3.910  14.578  1.0545 -0.7800  0.4591
  272TMC3    C6 4165   0.033   3.843  14.511 -0.4706  0.2472 -0.9877
  272TMC3     C 4166   4.630   4.216  14.378 -0.1267 -0.3748  0.0386
  272TMC3     O 4167   4.716   4.295  14.336 -0.0045  0.3139 -0.4295
  272TMC3     H 4168   0.082   4.068  14.269  0.0206  1.7844  0.7279
  272TMC3    H1 4169   4.546   4.086  14.592  1.3243 -1.9311  3.3969
  272TMC3    H2 4170   0.057   3.745  14.550 -2.6317  1.0517  2.3632
  272TMC3    C7 4171   4.676   3.899  14.721 -0.3036  0.0446  0.1721
  272TMC3    C8 4172   0.214   3.867  14.347  0.3348  0.4908 -0.1168
  272TMC3    O1 4173   4.660   3.783  14.760 -0.2367 -0.4234 -0.2343
  272TMC3    O2 4174   0.233   3.889  14.228  0.5238 -0.1968 -0.4210
  273MPD2     C 4175   0.732   2.356  11.634  0.1774  0.0037 -0.9647
  273MPD2    C1 4176   0.831   2.272  11.662  0.4991  0.1839  0.2689
  273MPD2    C2 4177   0.876   2.180  11.567 -1.0633  0.5327 -0.4745
  273MPD2    C3 4178   0.813   2.172  11.444  0.9164  0.4950 -0.4347
  273MPD2    C4 4179   0.700   2.254  11.424 -0.6842 -0.8412  0.2703
  273MPD2    C5 4180   0.668   2.348  11.519  1.0019  0.1475  0.2480
  273MPD2     H 4181   0.966   2.120  11.579 -0.2868  1.5776 -1.0780
  273MPD2    H1 4182   0.643   2.246  11.333  0.4531  0.0006 -0.5061
  273MPD2    H2 4183   0.696   2.438  11.695 -1.9090 -1.0882 -0.7029
  273MPD2    H3 4184   0.587   2.418  11.501 -0.6680 -2.0710 -0.8990
  273MPD2     N 4185   0.853   2.092  11.332  0.6570  0.0800  0.7183
  273MPD2    H5 4186   0.795   2.097  11.249 -1.6606 -0.1319  2.3377
  273MPD2    N1 4187   0.919   2.288  11.771 -0.5541  0.5425 -0.0997
  273MPD2    H7 4188   1.005   2.234  11.779 -0.2487  1.1078  0.4435
  274TMC3    C1 4189   1.000   1.985  11.194 -0.3714 -0.0966 -0.2738
  274TMC3    C2 4190   0.898   2.005  11.106 -1.0290 -0.5015  1.0025
  274TMC3    C3 4191   0.913   2.090  11.004  0.6214  0.0092  0.4823
  274TMC3    C4 4192   1.119   2.045  11.171 -0.7141 -0.3508 -0.2319
  274TMC3    C5 4193   1.136   2.122  11.065  0.9436 -0.1877 -0.1136
  274TMC3    C6 4194   1.038   2.139  10.970 -0.0637 -0.3654  0.1404
  274TMC3     C 4195   0.958   2.006  11.330 -0.1017  0.6689 -0.7545
  274TMC3     O 4196   1.039   1.976  11.415 -0.5873  0.5715 -0.0911
  274TMC3     H 4197   0.799   1.963  11.123 -1.2270 -1.0877 -1.6510
  274TMC3    H1 4198   1.198   2.048  11.245 -1.2906  1.9693  0.2876
  274TMC3    H2 4199   1.043   2.227  10.907 -2.0568 -0.4738 -0.1624
  274TMC3    C7 4200   1.206   2.237  11.105  0.3745  0.6775 -0.1745
  274TMC3    C8 4201   0.789   2.156  10.959  0.0917 -0.4706 -0.0709
  274TMC3    O1 4202   1.291   2.290  11.035  0.2490 -0.0181 -0.2865
  274TMC3    O2 4203   0.692   2.137  11.031  0.3049 -0.0042  0.1898
  275MPD2     C 4204   1.096   0.771  14.772 -0.0482 -0.3197  0.1414
  275MPD2    C1 4205   1.116   0.639  14.754  0.9128  0.2097  0.0490
  275MPD2    C2 4206   1.021   0.561  14.699  0.3343 -0.0891  0.1777
  275MPD2    C3 4207   0.899   0.614  14.667 -0.8866 -0.0680 -0.0877
  275MPD2    C4 4208   0.875   0.746  14.695  0.7024  0.0829  0.2041
  275MPD2    C5 4209   0.971   0.823  14.752 -0.6632  0.9484  0.9170
  275MPD2     H 4210   1.042   0.459  14.669 -1.2491 -0.2424 -0.3896
  275MPD2    H1 4211   0.779   0.796  14.686  1.3814  1.3752  0.1353
  275MPD2    H2 4212   1.177   0.835  14.804  1.1605 -1.5164 -0.4947
  275MPD2    H3 4213   0.952   0.928  14.767  0.5740  1.4722 -1.1458
  275MPD2     N 4214   0.790   0.553  14.598 -0.0346  0.0590  0.4352
  275MPD2    H5 4215   0.714   0.614  14.569  0.4060  0.2630 -0.3010
  275MPD2    N1 4216   1.237   0.578  14.778  0.0357 -0.3548 -0.4788
  275MPD2    H7 4217   1.259   0.481  14.759 -0.5881  0.2262 -4.1133
  276TMC3    C1 4218   1.473   0.564  14.829  0.0366 -0.1520 -0.3945
  276TMC3    C2 4219   1.472   0.452  14.746 -0.7207 -0.3134  0.1118
  276TMC3    C3 4220   1.537   0.335  14.792 -0.6705  0.3541  0.0191
  276TMC3    C4 4221   1.556   0.576  14.937 -0.8898 -0.2114  0.1682
  276TMC3    C5 4222   1.621   0.461  14.974  0.5535 -0.2005 -0.1400
  276TMC3    C6 4223   1.592   0.336  14.922  0.0464 -0.1077  0.5794
  276TMC3     C 4224   1.352   0.640  14.831 -0.6226 -0.0708  0.4413
  276TMC3     O 4225   1.356   0.743  14.900  0.0071 -0.3683 -0.4288
  276TMC3     H 4226   1.409   0.452  14.658 -0.3522  2.0899 -0.1675
  276TMC3    H1 4227   1.541   0.657  15.008  2.5797 -0.3961  1.0811
  276TMC3    H2 4228   1.657   0.252  14.944  0.2877 -0.4757 -1.5581
  276TMC3    C7 4229   1.722   0.477  15.080 -0.0487 -0.6843  0.4042
  276TMC3    C8 4230   1.518   0.215  14.721  0.0038 -0.1195 -0.3894
  276TMC3    O1 4231   1.745   0.390  15.165 -0.1135 -0.7078  0.9197
  276TMC3    O2 4232   1.488   0.236  14.605  0.0431 -0.0156 -0.4357
  277MPD2     C 4233   3.235   3.920  13.355  0.2560 -0.3951  0.0368
  277MPD2    C1 4234   3.112   3.943  13.413 -0.0739 -0.0891 -0.5961
  277MPD2    C2 4235   3.092   3.913  13.545 -0.3537 -0.6037  0.5709
  277MPD2    C3 4236   3.188   3.857  13.623  0.1482 -0.0625 -0.4103
  277MPD2    C4 4237   3.312   3.835  13.571 -0.1941  0.1065  0.5250
  277MPD2    C5 4238   3.337   3.871  13.441 -0.1851  0.6122  0.7250
  277MPD2     H 4239   3.003   3.944  13.598  0.0196  0.8336  0.3750
  277MPD2    H1 4240   3.394   3.808  13.635  0.1534  1.0509  0.4870
  277MPD2    H2 4241   3.249   3.942  13.250 -2.0648 -0.1433 -0.2311
  277MPD2    H3 4242   3.439   3.870  13.405 -0.4573 -0.0309 -0.0067
  277MPD2     N 4243   3.157   3.828  13.759 -0.7120  0.1888  0.4611
  277MPD2    H5 4244   3.067   3.855  13.797 -1.0449 -0.3804  0.0881
  277MPD2    N1 4245   3.006   3.988  13.332 -0.0966 -0.2712 -0.3376
  277MPD2    H7 4246   3.028   4.007  13.235 -0.5292 -1.0955 -0.5950
  278TMC3    C1 4247   3.158   3.711  13.951  0.0563 -0.8242 -0.2623
  278TMC3    C2 4248   3.123   3.580  13.962  0.0903 -0.7457  0.4773
  278TMC3    C3 4249   3.012   3.552  14.035 -0.2932 -0.5290 -0.4695
  278TMC3    C4 4250   3.082   3.807  14.002  0.1530 -0.0720  0.1069
  278TMC3    C5 4251   2.957   3.776  14.055  0.0846 -0.4185 -0.4423
  278TMC3    C6 4252   2.923   3.640  14.074  0.1109 -0.2671  0.4440
  278TMC3     C 4253   3.234   3.740  13.838  0.8321  0.3199  0.7166
  278TMC3     O 4254   3.332   3.669  13.815 -0.7204 -0.8415 -0.0192
  278TMC3     H 4255   3.188   3.496  13.937 -0.5431 -0.1444 -3.1910
  278TMC3    H1 4256   3.110   3.912  13.995 -0.4309  0.2227  2.3539
  278TMC3    H2 4257   2.831   3.612  14.125 -0.0776 -0.1791  0.1550
  278TMC3    C7 4258   2.859   3.844  13.977  0.1518  0.1767 -0.3564
  278TMC3    C8 4259   2.975   3.411  14.043  0.5683 -0.0934 -0.5382
  278TMC3    O1 4260   2.905   3.905  13.879  0.2211  0.5126  0.1979
  278TMC3    O2 4261   3.072   3.337  14.064  0.4076  0.2779  0.4201
  279MPD2     C 4262   1.811   3.122   0.676 -0.5162 -0.1041  0.3384
  279MPD2    C1 4263   1.727   3.226   0.718 -0.0088  0.5415 -0.1922
  279MPD2    C2 4264   1.748   3.354   0.669  0.0854 -0.1943 -1.0183
  279MPD2    C3 4265   1.847   3.380   0.582 -0.2101 -0.6953  0.6449
  279MPD2    C4 4266   1.934   3.276   0.546 -0.1797  0.5248  0.3244
  279MPD2    C5 4267   1.919   3.150   0.595  0.6144  0.3206  0.0996
  279MPD2     H 4268   1.685   3.434   0.706  0.6315  1.8614 -4.5602
  279MPD2    H1 4269   2.021   3.294   0.484 -1.1750 -0.1305 -1.2375
  279MPD2    H2 4270   1.800   3.019   0.707  0.6499  0.4726  2.6559
  279MPD2    H3 4271   1.995   3.075   0.578  1.2056  0.7129  1.0147
  279MPD2     N 4272   1.881   3.508   0.539  0.2509 -0.1631 -0.5324
  279MPD2    H5 4273   1.951   3.516   0.466 -0.8160 -0.5753 -1.6002
  279MPD2    N1 4274   1.627   3.196   0.822 -0.7633 -0.0441 -0.4002
  279MPD2    H7 4275   1.638   3.104   0.864  0.6105  0.1033 -0.4457
  280TMC3    C1 4276   1.447   3.348   0.750  0.6201  1.0431 -0.1160
  280TMC3    C2 4277   1.411   3.282   0.635  1.0575 -0.3056 -0.2320
  280TMC3    C3 4278   1.370   3.358   0.522 -0.2751 -0.5350 -0.6520
  280TMC3    C4 4279   1.431   3.486   0.763 -0.2091 -0.0843  0.0291
  280TMC3    C5 4280   1.399   3.555   0.648  0.4886 -0.3698  0.2773
  280TMC3    C6 4281   1.373   3.497   0.526  0.5582 -0.3481 -0.3481
  280TMC3     C 4282   1.521   3.277   0.860  0.1895  0.5956  0.2263
  280TMC3     O 4283   1.486   3.308   0.974  0.4164 -0.1474 -0.0083
  280TMC3     H 4284   1.409   3.173   0.633 -1.2585 -0.2443 -1.7039
  280TMC3    H1 4285   1.466   3.536   0.853  0.6190 -0.3318 -0.1546
  280TMC3    H2 4286   1.355   3.551   0.434 -0.1405  1.2842  0.7220
  280TMC3    C7 4287   1.420   3.701   0.665  0.3003  0.1601  0.3888
  280TMC3    C8 4288   1.381   3.286   0.404  0.5132  0.0951  0.3010
  280TMC3    O1 4289   1.468   3.747   0.771  0.1662 -0.6831  0.1344
  280TMC3    O2 4290   1.423   3.344   0.305 -0.0131 -0.4860 -0.2789
  281TMC3    C1 4291   0.766   4.052  13.449 -0.1968 -0.7560  0.6854
  281TMC3    C2 4292   0.886   4.091  13.385  0.5751  0.0546  0.3651
  281TMC3    C3 4293   0.919   4.008  13.280 -0.1259 -0.3232  0.4581
  281TMC3    C4 4294   0.687   3.945  13.409  0.8635  0.1742 -0.6136
  281TMC3    C5 4295   0.728   3.866  13.303  0.1763  0.2842  0.3316
  281TMC3    C6 4296   0.845   3.900  13.235  0.0949  0.2295  0.1629
  281TMC3     C 4297   0.693   4.136  13.533 -0.1145  0.4730  0.1925
  281TMC3     O 4298   0.589   4.091  13.586 -0.4252  0.2642  0.5610
  281TMC3     H 4299   0.957   4.161  13.427  1.2176  0.1434 -0.8663
  281TMC3    H1 4300   0.595   3.921  13.461  1.5960  2.4443  1.7027
  281TMC3    H2 4301   0.874   3.839  13.150 -1.3789 -1.5431  0.9200
  281TMC3    C7 4302   0.665   3.735  13.308  0.1464 -0.1815 -0.0123
  281TMC3    C8 4303   1.054   4.008  13.231  0.4337  1.4135 -0.4345
  281TMC3    O1 4304   0.557   3.722  13.255  0.3879  0.0440 -0.4214
  281TMC3    O2 4305   1.127   3.909  13.244 -0.0601  0.2943 -0.5663
  282MPD2     C 4306   2.630   0.491  14.989  1.1210 -0.2545  0.2009
  282MPD2    C1 4307   2.552   0.605  15.003 -0.5246 -0.5313  0.5089
  282MPD2    C2 4308   2.437   0.627  14.919  0.1209 -0.1164  0.0029
  282MPD2    C3 4309   2.412   0.539  14.812 -0.4752  0.2546  0.6851
  282MPD2    C4 4310   2.498   0.434  14.798  0.7138 -0.1024 -0.2428
  282MPD2    C5 4311   2.595   0.412  14.887  0.4221  0.3223 -0.2238
  282MPD2     H 4312   2.368   0.710  14.936  2.6850  1.1600  4.1584
  282MPD2    H1 4313   2.475   0.357  14.726 -0.7712 -2.4342  2.7199
  282MPD2    H2 4314   2.697   0.450  15.064  0.4884 -1.4950  0.0945
  282MPD2    H3 4315   2.657   0.324  14.872  1.2549  1.0319 -0.9601
  282MPD2     N 4316   2.305   0.559  14.723 -0.7113  0.2693  0.0330
  282MPD2    H5 4317   2.240   0.635  14.744  0.8599  0.6208  3.5766
  282MPD2    N1 4318   2.585   0.693  15.113  0.3681  0.6526 -0.2431
  282MPD2    H7 4319   2.663   0.656  15.167  0.2273  2.2785  1.0607
  283TMC3    C1 4320   2.575   0.836  15.285  0.4346  0.5141  0.4163
  283TMC3    C2 4321   2.592   0.973  15.309  0.2866 -0.4268 -0.0564
  283TMC3    C3 4322   2.641   1.004  15.436 -0.5863  0.1002 -0.6051
  283TMC3    C4 4323   2.589   0.742  15.388 -0.3972  0.4513 -0.3779
  283TMC3    C5 4324   2.615   0.784  15.517 -0.1818  0.3357  0.5014
  283TMC3    C6 4325   2.644   0.915  15.542  0.3566  0.9593 -0.7792
  283TMC3     C 4326   2.521   0.797  15.158  0.1240  0.0505  0.4964
  283TMC3     O 4327   2.424   0.855  15.111  0.1645 -0.0131  0.4651
  283TMC3     H 4328   2.597   1.033  15.220 -0.3430  0.8167  0.7417
  283TMC3    H1 4329   2.581   0.635  15.375  0.1104  0.1335  1.9726
  283TMC3    H2 4330   2.666   0.961  15.638 -0.1204 -3.1962  1.3586
  283TMC3    C7 4331   2.582   0.705  15.633  0.3794  1.3114 -0.5548
  283TMC3    C8 4332   2.678   1.143  15.473  0.4354 -0.5200  0.3347
  283TMC3    O1 4333   2.569   0.773  15.732  0.1633  0.2326  0.4724
  283TMC3    O2 4334   2.752   1.164  15.566  0.7662  0.3180 -0.3447
  284MPD2     C 4335   0.437   4.633  12.005  0.6696 -0.5675  0.1431
  284MPD2    C1 4336   0.567   4.627  11.972 -0.2828  0.3606  0.2970
  284MPD2    C2 4337   0.656   4.588  12.065  0.4713  0.6561  0.4383
  284MPD2    C3 4338   0.617   4.537  12.187 -0.0598  0.4312 -0.0758
  284MPD2    C4 4339   0.484   4.544  12.212  0.6436 -0.0169 -0.0602
  284MPD2    C5 4340   0.399   4.594  12.130 -0.5478  0.5514 -0.7288
  284MPD2     H 4341   0.759   4.581  12.032  0.1241 -1.6363 -0.1326
  284MPD2    H1 4342   0.440   4.511  12.305  1.3979 -0.5560  0.1022
  284MPD2    H2 4343   0.366   4.680  11.939 -0.2829  0.0833  1.6446
  284MPD2    H3 4344   0.292   4.598  12.146 -0.2743  1.1069  0.9166
  284MPD2     N 4345   0.707   4.499  12.292 -0.5062 -0.0384 -0.2052
  284MPD2    H5 4346   0.670   4.461  12.378 -1.2348  0.1974 -0.4111
  284MPD2    N1 4347   0.628   4.663  11.849 -0.1375 -0.7566 -0.1473
  284MPD2    H7 4348   0.729   4.662  11.842 -0.1565  0.5637 -0.4736
  285TMC3    C1 4349   0.664   0.040  11.649 -0.3938 -0.2622 -0.4269
  285TMC3    C2 4350   0.760   4.685  11.630  0.2415 -0.1113 -0.0818
  285TMC3    C3 4351   0.865   4.734  11.548 -0.5517  0.0155 -0.8899
  285TMC3    C4 4352   0.672   0.173  11.629 -0.0423  0.0252  1.1211
  285TMC3    C5 4353   0.781   0.215  11.562  0.4258 -0.4938 -0.3524
  285TMC3    C6 4354   0.873   0.126  11.516  0.6920 -0.0666 -0.0990
  285TMC3     C 4355   0.567   4.736  11.748 -0.2393 -0.7209  0.2516
  285TMC3     O 4356   0.458   0.051  11.745  0.1281 -0.4401 -0.2188
  285TMC3     H 4357   0.735   4.580  11.634 -0.7570  0.1684  0.9708
  285TMC3    H1 4358   0.592   0.241  11.655 -0.9702 -0.3432 -0.7824
  285TMC3    H2 4359   0.950   0.155  11.445  0.7743 -1.8680 -0.7546
  285TMC3    C7 4360   0.805   0.346  11.505 -0.4376 -0.2296  0.1210
  285TMC3    C8 4361   0.956   4.630  11.501  1.3660 -0.3518  0.3211
  285TMC3    O1 4362   0.917   0.389  11.512 -0.2087  0.0543  0.7854
  285TMC3    O2 4363   0.917   4.520  11.530  0.7534 -0.2413 -0.2990
  286MPD2     C 4364   0.973   3.628   1.895  0.3412 -0.7048 -0.6367
  286MPD2    C1 4365   0.999   3.577   1.770  0.0536 -0.0648 -0.4692
  286MPD2    C2 4366   1.098   3.479   1.763  0.8661  0.1315  0.0353
  286MPD2    C3 4367   1.172   3.435   1.872  0.5059 -0.3485 -0.7150
  286MPD2    C4 4368   1.149   3.492   1.996 -0.3505  0.2113 -0.2866
  286MPD2    C5 4369   1.055   3.588   2.003 -0.1912  0.1996 -0.4196
  286MPD2     H 4370   1.101   3.429   1.667  2.6969 -2.0358  1.2305
  286MPD2    H1 4371   1.208   3.470   2.085 -0.6629 -0.7620 -0.3215
  286MPD2    H2 4372   0.909   3.714   1.910  0.2908 -0.7822 -0.4022
  286MPD2    H3 4373   1.034   3.629   2.101 -1.0214  2.1388 -1.4071
  286MPD2     N 4374   1.275   3.341   1.861 -0.3426 -0.0692 -0.8816
  286MPD2    H5 4375   1.344   3.332   1.935 -2.2388 -0.4394  0.8623
  286MPD2    N1 4376   0.932   3.623   1.658 -0.4747  0.0334 -0.0251
  286MPD2    H7 4377   0.945   3.584   1.566 -1.6069 -3.0012  1.0889
  287TMC3    C1 4378   1.419   3.180   1.759  0.1842 -0.3502  0.3298
  287TMC3    C2 4379   1.435   3.083   1.666 -1.2202  0.1201  0.8232
  287TMC3    C3 4380   1.564   3.061   1.625 -0.0603  0.1188 -0.1426
  287TMC3    C4 4381   1.530   3.244   1.812 -0.4835 -0.6234 -0.0806
  287TMC3    C5 4382   1.656   3.203   1.780  0.0952  0.6265 -0.4573
  287TMC3    C6 4383   1.678   3.109   1.684  0.1223  0.1294  0.7447
  287TMC3     C 4384   1.295   3.254   1.755 -0.0755 -0.3096 -0.0924
  287TMC3     O 4385   1.224   3.214   1.666  0.1065  0.1907 -0.5722
  287TMC3     H 4386   1.350   3.032   1.622 -0.1293  0.4129 -1.5771
  287TMC3    H1 4387   1.513   3.337   1.864 -2.0066 -0.7989 -0.2734
  287TMC3    H2 4388   1.780   3.085   1.655  0.1812 -1.3284  2.1909
  287TMC3    C7 4389   1.767   3.298   1.820  0.4760 -0.4977 -0.1214
  287TMC3    C8 4390   1.578   2.961   1.523  0.0280  0.1444  0.2443
  287TMC3    O1 4391   1.733   3.390   1.894  0.1991 -0.4911  0.1361
  287TMC3    O2 4392   1.485   2.884   1.507 -1.1537 -0.2474 -0.4279
  288TMC3    C1 4393   3.282   3.534  14.702 -0.0223  0.7304 -0.7734
  288TMC3    C2 4394   3.166   3.554  14.778  0.1639  0.6824  0.0411
  288TMC3    C3 4395   3.106   3.679  14.763  0.6181 -0.3725  0.2758
  288TMC3    C4 4396   3.341   3.637  14.639 -0.0372 -0.4734 -0.0538
  288TMC3    C5 4397   3.294   3.766  14.648 -0.1081 -1.0400 -0.1560
  288TMC3    C6 4398   3.175   3.787  14.706 -0.3978  0.2774 -0.4963
  288TMC3     C 4399   3.354   3.413  14.723 -0.0994 -0.2935 -0.4328
  288TMC3     O 4400   3.476   3.407  14.698  0.4414 -0.0821  0.0805
  288TMC3     H 4401   3.128   3.481  14.849 -0.0029  1.5212  0.8139
  288TMC3    H1 4402   3.434   3.613  14.589  1.5404  1.9026  1.7209
  288TMC3    H2 4403   3.138   3.887  14.721 -0.0173  0.3620 -0.1271
  288TMC3    C7 4404   3.380   3.879  14.622 -0.3997  0.1698 -0.4216
  288TMC3    C8 4405   2.983   3.700  14.846  0.1378  0.1674 -0.7927
  288TMC3    O1 4406   3.341   3.985  14.670  0.3824 -0.3814 -0.0856
  288TMC3    O2 4407   2.933   3.813  14.865 -0.0741 -0.0488  0.1926
  289MPD2     C 4408   3.098   2.740  14.575  0.7440  0.0606  0.8623
  289MPD2    C1 4409   3.052   2.851  14.500 -0.3745  0.1362 -1.0379
  289MPD2    C2 4410   2.934   2.833  14.427 -0.1556  0.1673  0.0122
  289MPD2    C3 4411   2.849   2.730  14.455 -0.0639  0.5731  0.1676
  289MPD2    C4 4412   2.898   2.624  14.527 -0.4268  0.3404  0.1153
  289MPD2    C5 4413   3.021   2.632  14.588 -0.1399  0.9992  0.6823
  289MPD2     H 4414   2.919   2.903  14.346  1.4849 -0.3117 -0.7093
  289MPD2    H1 4415   2.844   2.531  14.543  1.2516 -0.8799 -1.2144
  289MPD2    H2 4416   3.192   2.738  14.628  1.2209 -1.2215 -0.0265
  289MPD2    H3 4417   3.060   2.549  14.647 -1.3307  0.4571  0.7095
  289MPD2     N 4418   2.721   2.715  14.399  0.2540 -0.1975  0.0533
  289MPD2    H5 4419   2.661   2.636  14.422 -1.4749  0.7441 -1.1783
  289MPD2    N1 4420   3.138   2.959  14.490  0.5128 -0.0091 -0.4650
  289MPD2    H7 4421   3.235   2.940  14.514  0.7365  0.3558 -1.0802
  290TMC3    C1 4422   2.543   2.792  14.258  0.4960  0.1586  0.2540
  290TMC3    C2 4423   2.519   2.874  14.153 -0.3406  0.5194  0.2780
  290TMC3    C3 4424   2.417   2.846  14.067 -0.5267 -0.4922 -0.4614
  290TMC3    C4 4425   2.491   2.665  14.265 -0.7788 -0.1028 -0.0176
  290TMC3    C5 4426   2.402   2.627  14.170 -0.0027  1.1385  0.4166
  290TMC3    C6 4427   2.371   2.717  14.072 -0.2639 -0.3548  0.6662
  290TMC3     C 4428   2.659   2.820  14.334  0.1182  0.8448 -0.6996
  290TMC3     O 4429   2.695   2.934  14.330  0.4169 -0.4811 -0.5005
  290TMC3     H 4430   2.581   2.962  14.157  2.7518 -1.5768 -1.3462
  290TMC3    H1 4431   2.513   2.585  14.335  1.2905 -0.1470 -0.7218
  290TMC3    H2 4432   2.280   2.691  14.020  0.4638 -1.2195 -0.1844
  290TMC3    C7 4433   2.281   2.562  14.213  0.9800 -0.1869 -0.4438
  290TMC3    C8 4434   2.330   2.955  14.038 -0.1463  0.1227 -0.3854
  290TMC3    O1 4435   2.191   2.635  14.258 -0.1135 -0.1261 -0.4433
  290TMC3    O2 4436   2.241   2.948  13.954  0.2077 -0.0519  0.4509
  291MPD2     C 4437   2.380   2.166   0.367 -0.7563 -0.4956 -0.0246
  291MPD2    C1 4438   2.283   2.230   0.442  0.2961 -0.6845  0.0214
  291MPD2    C2 4439   2.310   2.358   0.486 -0.1472  0.0682  0.2897
  291MPD2    C3 4440   2.430   2.423   0.446 -0.1165  0.7939  0.1637
  291MPD2    C4 4441   2.524   2.356   0.375  0.1747 -0.6279 -0.7460
  291MPD2    C5 4442   2.498   2.226   0.340 -0.6354  0.2814  0.4291
  291MPD2     H 4443   2.240   2.407   0.553  2.3411  2.5060  1.0858
  291MPD2    H1 4444   2.614   2.410   0.351  0.9307 -0.6025  2.0827
  291MPD2    H2 4445   2.361   2.070   0.321 -0.1217 -0.3599 -0.5736
  291MPD2    H3 4446   2.560   2.163   0.277 -1.5612 -1.8091  1.6189
  291MPD2     N 4447   2.454   2.558   0.474  0.0122 -0.6200  0.2074
  291MPD2    H5 4448   2.542   2.597   0.442 -1.5258  1.0974 -1.9559
  291MPD2    N1 4449   2.165   2.165   0.495  0.0509 -0.2203 -0.5937
  291MPD2    H7 4450   2.106   2.214   0.561  0.1956 -0.7246 -0.0984
  292TMC3    C1 4451   1.985   2.017   0.501 -0.0178 -0.5356 -0.5054
  292TMC3    C2 4452   1.923   2.078   0.614 -0.9326 -0.6513  0.5860
  292TMC3    C3 4453   1.802   2.022   0.650  0.2756 -0.5597  0.3387
  292TMC3    C4 4454   1.927   1.919   0.432  0.6729  0.1633 -0.2555
  292TMC3    C5 4455   1.794   1.889   0.457  0.4948 -0.0025 -0.4431
  292TMC3    C6 4456   1.735   1.936   0.569  0.3592 -0.0232  0.6580
  292TMC3     C 4457   2.119   2.042   0.462 -0.3090  0.2797  0.1080
  292TMC3     O 4458   2.187   1.957   0.404 -0.5708 -0.2137  0.7515
  292TMC3     H 4459   1.970   2.160   0.667 -1.6031  0.5097 -0.6071
  292TMC3    H1 4460   1.973   1.873   0.345  0.0632  0.9684 -1.0094
  292TMC3    H2 4461   1.651   1.879   0.607  0.3470 -1.9934 -2.3166
  292TMC3    C7 4462   1.737   1.782   0.382  0.4017  1.0154 -0.0224
  292TMC3    C8 4463   1.734   2.068   0.779  0.2664 -0.0074  0.4739
  292TMC3    O1 4464   1.823   1.719   0.321  0.1996  0.6533 -0.3990
  292TMC3    O2 4465   1.797   2.129   0.863 -0.0636  0.1431 -0.2283
  293MPD2     C 4466   4.169   3.417  13.133  0.2383  0.0717  0.4090
  293MPD2    C1 4467   4.052   3.496  13.132  0.0074 -0.0368  0.4130
  293MPD2    C2 4468   4.038   3.594  13.237 -0.2936 -0.6770  0.1401
  293MPD2    C3 4469   4.127   3.592  13.339  0.2061  0.2567  0.1634
  293MPD2    C4 4470   4.229   3.501  13.339  0.0821  0.1249  0.2778
  293MPD2    C5 4471   4.250   3.418  13.241  0.4073  0.1144 -0.3217
  293MPD2     H 4472   3.969   3.677  13.223 -0.7608 -0.5418  3.4093
  293MPD2    H1 4473   4.302   3.486  13.418  1.4492 -1.4218 -1.2829
  293MPD2    H2 4474   4.183   3.341  13.056  1.1612  1.0900 -0.4199
  293MPD2    H3 4475   4.328   3.344  13.243  0.1069 -0.1632  1.0672
  293MPD2     N 4476   4.115   3.676  13.455 -0.4297 -0.6443  0.0216
  293MPD2    H5 4477   4.185   3.659  13.527 -1.4223 -0.6033  1.0122
  293MPD2    N1 4478   3.973   3.492  13.017 -0.2078  0.0741  0.8176
  293MPD2    H7 4479   4.002   3.427  12.944 -1.5619  2.0997 -1.5042
  294TMC3    C1 4480   3.808   3.548  12.865  0.8085  0.4168  0.4740
  294TMC3    C2 4481   3.675   3.572  12.862 -0.1051  0.2261  0.4192
  294TMC3    C3 4482   3.618   3.605  12.740  0.4504 -0.7097  0.8818
  294TMC3    C4 4483   3.897   3.565  12.762 -0.2634  0.1758  0.5226
  294TMC3    C5 4484   3.836   3.610  12.647  0.1930  0.1007  0.0677
  294TMC3    C6 4485   3.702   3.628  12.633  0.0392  0.2768  0.0785
  294TMC3     C 4486   3.858   3.567  12.997 -0.4323  0.0338  1.2716
  294TMC3     O 4487   3.795   3.633  13.079  0.7561  0.1891 -0.3355
  294TMC3     H 4488   3.626   3.546  12.955 -1.4238  0.5794 -0.1863
  294TMC3    H1 4489   4.000   3.533  12.761 -0.7127 -1.2591 -2.7028
  294TMC3    H2 4490   3.658   3.644  12.535  1.6652  0.2752 -0.6491
  294TMC3    C7 4491   3.919   3.633  12.534  0.6325  0.4819 -0.0772
  294TMC3    C8 4492   3.474   3.583  12.724 -0.1541 -0.1246  0.0879
  294TMC3    O1 4493   4.012   3.553  12.525  0.5966  0.3019  0.1631
  294TMC3    O2 4494   3.396   3.669  12.762  0.2888  0.4899  0.1531
  295MPD2     C 4495   4.226   2.266   0.702 -0.0714  0.4241  0.0721
  295MPD2    C1 4496   4.198   2.394   0.727  0.3489 -0.1377 -0.6618
  295MPD2    C2 4497   4.116   2.430   0.828  0.9498  0.6763  0.1751
  295MPD2    C3 4498   4.060   2.331   0.907 -0.5143  0.0826 -0.3452
  295MPD2    C4 4499   4.090   2.201   0.886 -0.0796  0.3887 -0.1955
  295MPD2    C5 4500   4.169   2.169   0.778  0.1563  0.0145  0.5753
  295MPD2     H 4501   4.103   2.532   0.861  0.0151  0.3012  0.9575
  295MPD2    H1 4502   4.068   2.126   0.961  1.1659  0.3370  0.1133
  295MPD2    H2 4503   4.297   2.238   0.625 -0.4416  1.1412 -0.5471
  295MPD2    H3 4504   4.191   2.063   0.777 -1.5183 -0.3460  1.2534
  295MPD2     N 4505   3.968   2.362   1.015  0.0581 -0.8241 -0.5137
  295MPD2    H5 4506   3.942   2.283   1.072 -0.9037  0.9137  1.4510
  295MPD2    N1 4507   4.253   2.488   0.636  0.3543  0.2429  0.1455
  295MPD2    H7 4508   4.312   2.446   0.565 -0.7132  0.2729 -0.7732
  296TMC3    C1 4509   3.818   2.469   1.152 -0.0014 -0.0010  0.3488
  296TMC3    C2 4510   3.793   2.589   1.217 -0.2713 -0.0389 -0.1921
  296TMC3    C3 4511   3.716   2.595   1.330  0.3446 -0.1518 -0.0552
  296TMC3    C4 4512   3.754   2.356   1.194  0.2287  0.4794  0.5466
  296TMC3    C5 4513   3.663   2.369   1.299  0.1045 -0.4672  0.2929
  296TMC3    C6 4514   3.652   2.478   1.373  0.3581  0.0228  0.0483
  296TMC3     C 4515   3.920   2.482   1.047 -0.3552  0.1679 -0.6314
  296TMC3     O 4516   3.918   2.585   0.979  0.2737 -0.0171  1.1288
  296TMC3     H 4517   3.847   2.672   1.173  2.3293 -2.0693 -0.9071
  296TMC3    H1 4518   3.756   2.267   1.132 -1.2214  0.9548 -0.1640
  296TMC3    H2 4519   3.579   2.478   1.453  0.4741 -0.5978  0.1521
  296TMC3    C7 4520   3.551   2.274   1.306  0.3027 -0.0457  0.2212
  296TMC3    C8 4521   3.712   2.713   1.413  0.6160  0.5290  0.1905
  296TMC3    O1 4522   3.446   2.311   1.362 -0.0808  0.4766  0.1435
  296TMC3    O2 4523   3.696   2.691   1.529  0.7758  0.3288  0.1686
  297MPD2     C 4524   1.673   4.345  17.008 -0.2008  0.4203 -0.2268
  297MPD2    C1 4525   1.642   4.384  16.881 -0.2936  0.5239 -0.7295
  297MPD2    C2 4526   1.735   4.460  16.817 -0.2925  0.0660  0.2151
  297MPD2    C3 4527   1.860   4.484  16.864 -0.1035  0.0327 -0.0013
  297MPD2    C4 4528   1.891   4.443  16.993  0.4142  0.0413  0.0983
  297MPD2    C5 4529   1.795   4.390  17.070  0.8908  0.3960  0.4291
  297MPD2     H 4530   1.716   4.496  16.716  0.4248  1.1195  0.4499
  297MPD2    H1 4531   1.985   4.464  17.041 -0.1209 -1.5925  1.8804
  297MPD2    H2 4532   1.599   4.292  17.066  1.0090  1.5356  2.3547
  297MPD2    H3 4533   1.817   4.361  17.172 -2.0317  1.7306  1.4155
  297MPD2     N 4534   1.952   4.544  16.782 -0.1409 -0.4773  0.4484
  297MPD2    H5 4535   1.928   4.551  16.683  1.0552  3.9251  0.4566
  297MPD2    N1 4536   1.524   4.354  16.817 -0.2379  0.1123  0.1018
  297MPD2    H7 4537   1.505   4.398  16.728  0.6141  2.5853  1.1325
  298TMC3    C1 4538   1.322   4.245  16.756 -1.5852 -0.1467 -0.1235
  298TMC3    C2 4539   1.366   4.238  16.630  0.3260 -0.3538  0.0908
  298TMC3    C3 4540   1.280   4.267  16.528  0.5344  0.6594  0.3941
  298TMC3    C4 4541   1.195   4.287  16.790  0.1589 -0.8468 -0.7859
  298TMC3    C5 4542   1.120   4.332  16.681 -0.3061  0.6973  0.4120
  298TMC3    C6 4543   1.154   4.312  16.549 -0.4221 -0.6415  0.4741
  298TMC3     C 4544   1.421   4.266  16.861  0.1728  0.0224 -0.0130
  298TMC3     O 4545   1.403   4.200  16.964  0.1259 -0.2352 -0.1161
  298TMC3     H 4546   1.445   4.169  16.604 -0.2611 -1.0656  0.1850
  298TMC3    H1 4547   1.158   4.286  16.892  1.1044  1.2356 -0.4056
  298TMC3    H2 4548   1.096   4.346  16.464  1.1514 -0.5482 -0.5658
  298TMC3    C7 4549   0.998   4.407  16.720  0.3166 -0.6202 -0.0985
  298TMC3    C8 4550   1.312   4.206  16.392  0.0744 -1.0345 -0.1844
  298TMC3    O1 4551   0.998   4.468  16.825 -0.0331 -0.1645 -0.3057
  298TMC3    O2 4552   1.425   4.164  16.372 -0.3254  0.2870 -0.3515
  299MPD2     C 4553   1.860   3.652  10.899  0.4695 -0.0675  0.2418
  299MPD2    C1 4554   1.897   3.710  10.779  0.5959 -0.4500 -0.0283
  299MPD2    C2 4555   1.827   3.677  10.660  0.9664  0.2271 -0.6136
  299MPD2    C3 4556   1.715   3.597  10.672 -0.2433  0.0107  0.2916
  299MPD2    C4 4557   1.676   3.547  10.795 -0.5295  0.2992 -0.6599
  299MPD2    C5 4558   1.744   3.577  10.908  0.1068 -0.2661  0.3721
  299MPD2     H 4559   1.867   3.713  10.566  0.7499 -1.9123 -1.5321
  299MPD2    H1 4560   1.595   3.475  10.797 -0.0062 -0.3054 -1.1184
  299MPD2    H2 4561   1.914   3.689  10.986 -1.6169  1.5163  0.8679
  299MPD2    H3 4562   1.717   3.521  10.996  1.5042 -0.2655  0.8060
  299MPD2     N 4563   1.637   3.555  10.565  0.2457  0.2537  0.2683
  299MPD2    H5 4564   1.542   3.523  10.580 -0.1891  1.8412  0.8484
  299MPD2    N1 4565   2.013   3.794  10.779 -0.3090 -0.2064 -0.0448
  299MPD2    H7 4566   2.066   3.787  10.866 -0.8287 -2.8403  0.0590
  300TMC3    C1 4567   1.550   3.572  10.336 -0.4320  0.4498  0.1134
  300TMC3    C2 4568   1.580   3.608  10.203 -0.4857  0.0752  0.2530
  300TMC3    C3 4569   1.487   3.656  10.117  0.7409 -0.3322  0.4419
  300TMC3    C4 4570   1.419   3.580  10.374 -0.4004  0.0434  0.0350
  300TMC3    C5 4571   1.327   3.639  10.289 -0.3438 -0.0293 -0.3642
  300TMC3    C6 4572   1.360   3.680  10.162 -0.5254 -0.3277 -0.5896
  300TMC3     C 4573   1.666   3.578  10.428  0.1458  0.0977 -0.1480
  300TMC3     O 4574   1.770   3.602  10.364  0.2725 -0.0567  0.3007
  300TMC3     H 4575   1.684   3.614  10.176  0.0982 -1.6657  2.1821
  300TMC3    H1 4576   1.394   3.564  10.478  1.0905 -1.0715  0.2175
  300TMC3    H2 4577   1.292   3.730  10.093  1.9536  1.7170 -1.5637
  300TMC3    C7 4578   1.190   3.647  10.337  0.1048 -0.1884  0.5509
  300TMC3    C8 4579   1.541   3.765  10.041  0.3346 -0.0138  0.0970
  300TMC3    O1 4580   1.113   3.645  10.242 -0.6550 -0.0909  0.0999
  300TMC3    O2 4581   1.541   3.764   9.921 -0.6909 -0.5757 -0.5498
  301MPD2     C 4582   4.459   0.899   1.452  0.1680  0.0253  1.0384
  301MPD2    C1 4583   4.442   0.859   1.322 -0.0856  0.1125  0.5681
  301MPD2    C2 4584   4.432   0.726   1.290  0.9218  0.1275 -0.7230
  301MPD2    C3 4585   4.447   0.628   1.387  0.0113 -0.5615 -0.3384
  301MPD2    C4 4586   4.464   0.664   1.514 -0.9292 -0.5391 -0.3462
  301MPD2    C5 4587   4.471   0.799   1.549 -0.0559 -0.1266 -0.1044
  301MPD2     H 4588   4.411   0.695   1.189  2.7705 -1.3860 -0.6467
  301MPD2    H1 4589   4.476   0.596   1.598 -2.3008  1.7408  1.7235
  301MPD2    H2 4590   4.480   1.000   1.483  2.7343 -0.0765 -0.3428
  301MPD2    H3 4591   4.494   0.830   1.651  0.2065  0.4446 -0.3336
  301MPD2     N 4592   4.432   0.491   1.360  0.2241 -0.2753  0.1744
  301MPD2    H5 4593   4.418   0.431   1.441 -1.7602  1.6236  1.2493
  301MPD2    N1 4594   4.426   0.952   1.215  0.2601 -0.3629  0.2194
  301MPD2    H7 4595   4.424   0.917   1.120 -1.3510 -0.4612  0.2935
  302TMC3    C1 4596   4.398   0.299   1.232 -0.3913 -0.5268 -0.5699
  302TMC3    C2 4597   4.499   0.227   1.283 -0.2727 -0.8558 -0.3989
  302TMC3    C3 4598   4.513   0.092   1.244  0.1409 -0.1208  0.3003
  302TMC3    C4 4599   4.321   0.251   1.126 -1.3109 -0.2050  0.0631
  302TMC3    C5 4600   4.330   0.122   1.091 -0.4942  0.5425 -0.6774
  302TMC3    C6 4601   4.426   0.037   1.145  0.1865 -0.2640  0.2232
  302TMC3     C 4602   4.413   0.436   1.234  0.3701  0.5227  0.5238
  302TMC3     O 4603   4.377   0.491   1.131 -0.1138 -0.3241 -0.3124
  302TMC3     H 4604   4.563   0.277   1.355 -0.8024 -0.1712 -0.4039
  302TMC3    H1 4605   4.236   0.312   1.097 -1.5452  0.2324  1.6205
  302TMC3    H2 4606   4.411   4.667   1.141  4.1968 -0.8945  1.8722
  302TMC3    C7 4607   4.253   0.075   0.977 -0.6233 -0.2126  0.3697
  302TMC3    C8 4608   4.569   0.002   1.338  0.3108  0.3595  0.8400
  302TMC3    O1 4609   4.241   4.693   0.960 -0.0645 -0.0230  0.2000
  302TMC3    O2 4610   4.527   4.624   1.351 -0.5108  0.1695  0.1705
  303MPD2     C 4611   3.456   3.737  11.063 -0.3866  0.5456  0.1669
  303MPD2    C1 4612   3.458   3.616  10.993 -0.2359 -0.0907  0.4518
  303MPD2    C2 4613   3.529   3.608  10.878 -0.2327 -0.5547  0.4873
  303MPD2    C3 4614   3.583   3.725  10.819 -0.2491  0.1886  0.2768
  303MPD2    C4 4615   3.579   3.844  10.888 -0.5903  0.4225  0.4397
  303MPD2    C5 4616   3.506   3.849  11.005  0.1866  0.3698 -0.1694
  303MPD2     H 4617   3.527   3.513  10.826 -0.9852 -0.6754  0.7359
  303MPD2    H1 4618   3.604   3.938  10.842 -2.3542  0.3116 -0.7549
  303MPD2    H2 4619   3.400   3.749  11.155 -1.4489 -2.1813 -0.1212
  303MPD2    H3 4620   3.484   3.946  11.047 -2.0048 -0.3603  0.3745
  303MPD2     N 4621   3.633   3.723  10.681 -0.3063  0.0747  0.2039
  303MPD2    H5 4622   3.661   3.814  10.645  1.3292 -1.0697 -1.3987
  303MPD2    N1 4623   3.385   3.503  11.041 -0.1035 -0.3439  0.1360
  303MPD2    H7 4624   3.342   3.508  11.133 -0.5569 -0.5557 -0.0665
  304TMC3    C1 4625   3.303   3.279  11.024  0.3542  0.1084 -0.4703
  304TMC3    C2 4626   3.249   3.183  10.941 -0.2570  0.0826 -0.6062
  304TMC3    C3 4627   3.225   3.057  10.988  1.1366  0.1735 -0.9675
  304TMC3    C4 4628   3.368   3.243  11.139  0.0041 -0.1493 -0.6599
  304TMC3    C5 4629   3.349   3.110  11.186  0.7657 -0.1546  0.0044
  304TMC3    C6 4630   3.275   3.019  11.111  0.0608 -0.1953 -0.3573
  304TMC3     C 4631   3.347   3.401  10.957 -0.4022  0.1964 -0.2066
  304TMC3     O 4632   3.352   3.399  10.835  0.3634  0.0110 -0.1315
  304TMC3     H 4633   3.223   3.212  10.839 -0.7690  2.0661  0.0879
  304TMC3    H1 4634   3.440   3.303  11.194  0.2272 -2.0426  1.1013
  304TMC3    H2 4635   3.265   2.921  11.156 -2.7178  1.1265  1.8815
  304TMC3    C7 4636   3.474   3.039  11.221 -0.3773  0.6067 -0.0341
  304TMC3    C8 4637   3.245   2.953  10.887  0.0303 -0.0495  0.3243
  304TMC3    O1 4638   3.539   3.087  11.312 -0.7669 -0.0508 -0.1265
  304TMC3    O2 4639   3.315   2.857  10.915  0.5190  0.1844  0.0568
  305MPD2     C 4640   2.155   0.847  14.407  0.0547 -0.0936 -1.0314
  305MPD2    C1 4641   2.278   0.795  14.388 -0.3149 -0.3852 -0.1148
  305MPD2    C2 4642   2.309   0.724  14.276 -0.3548 -0.1699 -0.4264
  305MPD2    C3 4643   2.214   0.712  14.179 -0.0444 -0.3264 -0.0356
  305MPD2    C4 4644   2.087   0.763  14.199 -0.7486  0.0213  0.2708
  305MPD2    C5 4645   2.057   0.830  14.318  0.6021  0.1298  0.5357
  305MPD2     H 4646   2.406   0.681  14.257  0.3281  1.4944 -0.7133
  305MPD2    H1 4647   2.008   0.745  14.128  0.2066 -1.9798 -0.2996
  305MPD2    H2 4648   2.135   0.915  14.489 -0.6700 -1.8257  0.2328
  305MPD2    H3 4649   1.963   0.880  14.335  0.9214  1.1332 -0.6158
  305MPD2     N 4650   2.243   0.633  14.066 -0.2588  0.0488  0.6518
  305MPD2    H5 4651   2.163   0.631  14.003  0.5049  0.5634 -0.3385
  305MPD2    N1 4652   2.379   0.805  14.493 -0.6436 -0.1626 -0.2870
  305MPD2    H7 4653   2.347   0.846  14.581  0.5203  0.1094  0.0077
  306TMC3    C1 4654   2.588   0.808  14.604 -0.5546 -0.1374  0.0280
  306TMC3    C2 4655   2.696   0.723  14.623  0.7811 -0.9654  0.9786
  306TMC3    C3 4656   2.786   0.754  14.716  0.4447  0.0146 -0.2432
  306TMC3    C4 4657   2.562   0.914  14.682 -0.1490 -0.3042  0.1762
  306TMC3    C5 4658   2.638   0.925  14.794 -0.7161  0.3944  0.0577
  306TMC3    C6 4659   2.753   0.849  14.804 -0.0945 -0.1062 -0.1414
  306TMC3     C 4660   2.514   0.776  14.480  0.4185 -0.0304 -0.6515
  306TMC3     O 4661   2.575   0.719  14.388 -0.6884 -0.4865 -0.2314
  306TMC3     H 4662   2.709   0.640  14.554  0.0681  0.8305 -1.2980
  306TMC3    H1 4663   2.482   0.985  14.661 -0.2733 -1.0459 -1.8379
  306TMC3    H2 4664   2.821   0.857  14.889 -2.1989 -1.1593  1.6389
  306TMC3    C7 4665   2.617   1.047  14.871 -0.6391 -0.1720 -0.0797
  306TMC3    C8 4666   2.883   0.659  14.743  0.0829  0.4942 -0.3324
  306TMC3    O1 4667   2.520   1.121  14.848  0.1244 -0.4585 -0.4883
  306TMC3    O2 4668   2.858   0.548  14.702 -0.0366  0.7844  0.3920
  307MPD2     C 4669   0.375   3.569   0.600  0.6559  0.2308 -0.5921
  307MPD2    C1 4670   0.385   3.711   0.582  0.3085 -0.3686 -0.7944
  307MPD2    C2 4671   0.362   3.785   0.699  0.5334  0.7732 -1.0110
  307MPD2    C3 4672   0.325   3.726   0.818 -0.2680 -0.1198 -0.2769
  307MPD2    C4 4673   0.323   3.591   0.830 -0.1437  0.0815  0.6901
  307MPD2    C5 4674   0.349   3.513   0.719 -1.0724  0.0096  0.6506
  307MPD2     H 4675   0.386   3.890   0.691 -0.6403  1.0147 -1.3453
  307MPD2    H1 4676   0.291   3.547   0.923 -0.1539 -0.5377  0.4010
  307MPD2    H2 4677   0.390   3.499   0.519  0.7391  0.8134 -1.0760
  307MPD2    H3 4678   0.347   3.405   0.727 -2.8094 -0.1249 -1.5208
  307MPD2     N 4679   0.321   3.817   0.927  0.4752 -0.0799 -0.4677
  307MPD2    H5 4680   0.322   3.917   0.911 -1.6605  0.4152  2.4554
  307MPD2    N1 4681   0.416   3.773   0.465 -0.6346  0.0086  0.0584
  307MPD2    H7 4682   0.414   3.875   0.467  2.3782  0.0952 -1.4822
  308TMC3    C1 4683   0.024   3.897   1.263  0.3087  1.3080 -0.1970
  308TMC3    C2 4684   0.029   4.032   1.237 -1.1172 -0.8756 -0.0725
  308TMC3    C3 4685   0.143   4.088   1.174 -0.2641 -0.1378 -0.1252
  308TMC3    C4 4686   0.130   3.816   1.220  0.7719 -0.4358 -0.2805
  308TMC3    C5 4687   0.233   3.869   1.141  0.4023 -0.5781 -0.1959
  308TMC3    C6 4688   0.234   4.003   1.119  0.6772 -0.7703 -0.3859
  308TMC3     C 4689   4.632   3.828   1.267  0.3292  0.1796 -0.1029
  308TMC3     O 4690   4.630   3.711   1.273  0.4896  0.3935  0.0925
  308TMC3     H 4691   4.699   4.098   1.291 -0.8887 -0.9146  0.2617
  308TMC3    H1 4692   0.127   3.708   1.233 -2.5419 -0.1838  0.9266
  308TMC3    H2 4693   0.321   4.051   1.076  0.6572  0.8533  1.3678
  308TMC3    C7 4694   0.306   3.777   1.059  0.1989  0.6194 -0.4158
  308TMC3    C8 4695   0.176   4.230   1.205 -0.2569 -0.7023  0.2177
  308TMC3    O1 4696   0.315   3.665   1.106  0.1162  0.2852  0.3461
  308TMC3    O2 4697   0.130   4.272   1.313 -0.0829 -0.5672 -0.7127
  309MPD2     C 4698   4.219   4.234  17.597 -0.9738  0.0113 -0.3048
  309MPD2    C1 4699   4.169   4.301  17.481  0.5050  0.1084  0.0476
  309MPD2    C2 4700   4.078   4.403  17.501  0.0362  0.2215 -0.0266
  309MPD2    C3 4701   4.036   4.441  17.628 -0.1530  0.3402  0.4622
  309MPD2    C4 4702   4.085   4.371  17.738 -0.4891 -0.1745  0.0457
  309MPD2    C5 4703   4.171   4.271  17.723 -1.3052 -0.5177  0.1498
  309MPD2     H 4704   4.048   4.461  17.414  0.3038  1.0189  0.4131
  309MPD2    H1 4705   4.052   4.383   0.093 -0.4111 -0.4643  0.1040
  309MPD2    H2 4706   4.292   4.155  17.590  1.4244  2.0194  2.4101
  309MPD2    H3 4707   4.220   4.228   0.062  1.1726 -1.4728 -1.7264
  309MPD2     N 4708   3.933   4.532  17.650 -0.9853  0.3831 -0.3444
  309MPD2    H5 4709   3.912   4.560  17.745 -1.6787 -0.8160 -0.1467
  309MPD2    N1 4710   4.237   4.289  17.355 -0.9542  0.1184  0.1859
  309MPD2    H7 4711   4.227   4.364  17.288 -0.8074 -0.8643 -0.9428
  310TMC3    C1 4712   4.375   4.176  17.206  0.0984 -0.9704  0.2254
  310TMC3    C2 4713   4.344   4.242  17.087 -0.3790  0.1452 -0.4720
  310TMC3    C3 4714   4.440   4.242  16.985 -0.2419  0.7692 -0.3618
  310TMC3    C4 4715   4.487   4.103  17.219  0.0762  0.2048  0.1715
  310TMC3    C5 4716   4.575   4.092  17.115  0.4868  0.0977 -0.7223
  310TMC3    C6 4717   4.554   4.164  16.998 -0.0023 -0.8399  0.2926
  310TMC3     C 4718   4.285   4.168  17.318 -0.3730  0.3264 -0.1263
  310TMC3     O 4719   4.284   4.061  17.378 -0.1778 -0.3973  0.1504
  310TMC3     H 4720   4.246   4.284  17.068 -1.1081 -0.7628  1.3517
  310TMC3    H1 4721   4.496   4.032  17.301  2.8039 -1.7675 -1.8451
  310TMC3    H2 4722   4.618   4.145  16.913 -0.8876  0.2534 -0.6157
  310TMC3    C7 4723   4.638   3.966  17.091 -0.3638  0.1492  0.2410
  310TMC3    C8 4724   4.406   4.289  16.856 -0.4972 -0.4522 -0.5121
  310TMC3    O1 4725   4.635   3.925  16.975 -0.2627 -1.1546  0.0486
  310TMC3    O2 4726   4.290   4.282  16.814 -0.1616  0.4981 -0.3001
  311MPD2     C 4727   1.575   1.288  12.559  0.5704 -0.0441 -0.0440
  311MPD2    C1 4728   1.599   1.221  12.677  0.8056  0.0965  0.4195
  311MPD2    C2 4729   1.500   1.154  12.735 -0.3134  0.1229  0.2688
  311MPD2    C3 4730   1.370   1.148  12.685  0.3454  0.8684  0.2387
  311MPD2    C4 4731   1.343   1.219  12.573 -0.7444  0.4291  0.1996
  311MPD2    C5 4732   1.448   1.288  12.518 -0.9023 -0.0347 -0.5265
  311MPD2     H 4733   1.518   1.096  12.825 -1.1123 -0.2598  0.1895
  311MPD2    H1 4734   1.250   1.214  12.518  0.4965 -0.9029 -1.7986
  311MPD2    H2 4735   1.658   1.337  12.509  0.0037  1.6266  0.6591
  311MPD2    H3 4736   1.443   1.331  12.418 -0.9738  2.9847  0.7901
  311MPD2     N 4737   1.273   1.067  12.757  0.5306 -0.3415 -0.0109
  311MPD2    H5 4738   1.303   1.022  12.844 -0.2841 -0.4564  0.2129
  311MPD2    N1 4739   1.736   1.205  12.719 -0.0334 -0.4510  1.0063
  311MPD2    H7 4740   1.803   1.268  12.674 -0.6421 -0.5681 -0.0650
  312TMC3    C1 4741   1.075   0.936  12.775 -0.2604  0.2021  0.5403
  312TMC3    C2 4742   0.993   0.856  12.707  0.4698  0.1838 -0.1212
  312TMC3    C3 4743   0.914   0.776  12.781  0.3222 -0.7547 -0.2538
  312TMC3    C4 4744   1.062   0.959  12.914  0.1316 -0.1673  0.5394
  312TMC3    C5 4745   0.983   0.874  12.983 -0.8837 -0.0518 -0.1082
  312TMC3    C6 4746   0.912   0.773  12.922 -0.2369 -0.4224  0.3297
  312TMC3     C 4747   1.155   1.028  12.700  0.2652 -0.3509 -0.1280
  312TMC3     O 4748   1.105   1.077  12.599 -0.0440  0.4452  0.5743
  312TMC3     H 4749   1.008   0.858  12.599 -0.4076 -0.9339 -0.2691
  312TMC3    H1 4750   1.110   1.047  12.955 -0.6677 -0.1421  1.4175
  312TMC3    H2 4751   0.840   0.708  12.971  1.4014 -1.1550  1.7841
  312TMC3    C7 4752   0.929   0.932  13.104 -0.3335 -0.1430 -0.1881
  312TMC3    C8 4753   0.825   0.684  12.715 -0.4722 -1.1855  0.3907
  312TMC3    O1 4754   0.890   1.050  13.107  0.4751  0.0000 -0.3891
  312TMC3    O2 4755   0.784   0.587  12.782  0.1302  0.2060  0.2760
  313MPD2     C 4756   0.772   4.591  11.202 -0.1869 -0.1340 -0.7207
  313MPD2    C1 4757   0.680   4.660  11.128 -0.2393  0.0628 -0.0170
  313MPD2    C2 4758   0.579   4.589  11.064 -0.1882  0.1109 -0.2946
  313MPD2    C3 4759   0.570   4.450  11.079  0.3360 -0.5597 -0.1441
  313MPD2    C4 4760   0.668   4.380  11.153 -0.2488  0.8514  0.9009
  313MPD2    C5 4761   0.759   4.453  11.212  0.6543 -0.8078 -0.3067
  313MPD2     H 4762   0.508   4.645  11.005  1.1822  1.0090 -1.0851
  313MPD2    H1 4763   0.660   4.274  11.178  0.8879  1.0310  2.0463
  313MPD2    H2 4764   0.847   4.639  11.263  1.8169 -0.9745 -2.5332
  313MPD2    H3 4765   0.824   4.402  11.282 -0.9970 -0.7529  1.2764
  313MPD2     N 4766   0.478   4.381  11.002  0.2493 -0.2096 -0.3204
  313MPD2    H5 4767   0.410   4.434  10.948 -0.2303  0.0372  0.5190
  313MPD2    N1 4768   0.679   0.063  11.106  0.1244  0.1115  0.1012
  313MPD2    H7 4769   0.599   0.098  11.055 -0.5032 -0.4880  0.6699
  314TMC3    C1 4770   0.730   0.286  11.131 -0.7847 -0.0444  0.5706
  314TMC3    C2 4771   0.827   0.382  11.120 -0.6928 -0.0457  0.3240
  314TMC3    C3 4772   0.806   0.492  11.040  0.6627  0.4311  0.3120
  314TMC3    C4 4773   0.607   0.304  11.074 -0.1706 -0.0134 -1.1517
  314TMC3    C5 4774   0.586   0.424  11.011  0.7502  1.2839  0.6490
  314TMC3    C6 4775   0.689   0.517  10.986 -0.1711 -0.1509  0.2392
  314TMC3     C 4776   0.775   0.150  11.160  0.5101  0.4094  0.5946
  314TMC3     O 4777   0.887   0.128  11.206 -0.0522 -0.4105  0.5240
  314TMC3     H 4778   0.920   0.359  11.171 -0.5180 -1.1548 -0.4985
  314TMC3    H1 4779   0.518   0.244  11.088 -0.0792 -0.3222 -1.9033
  314TMC3    H2 4780   0.669   0.606  10.928 -0.7332 -0.0860  0.5320
  314TMC3    C7 4781   0.470   0.424  10.928  0.2422 -0.1865 -0.1148
  314TMC3    C8 4782   0.916   0.571  10.989  0.4375 -0.4328 -0.3213
  314TMC3    O1 4783   0.369   0.381  10.973  0.0702  0.1299 -0.7240
  314TMC3    O2 4784   0.890   0.678  10.941 -0.4854 -1.0956  0.0380
  315MPD2     C 4785   0.685   3.659  17.675  0.8686 -0.9786  0.5240
  315MPD2    C1 4786   0.756   3.674   0.044  0.0095  0.0855  0.2299
  315MPD2    C2 4787   0.812   3.799   0.072  0.2626 -0.5058 -0.0171
  315MPD2    C3 4788   0.812   3.900  17.728 -0.2663  0.4123 -0.5852
  315MPD2    C4 4789   0.759   3.874  17.604 -0.2549 -0.1855  0.0577
  315MPD2    C5 4790   0.708   3.751  17.578 -0.6220  0.4530 -0.2598
  315MPD2     H 4791   0.857   3.809   0.170  0.1511  2.5784 -0.2932
  315MPD2    H1 4792   0.759   3.954  17.531 -1.7828 -0.9520 -0.7588
  315MPD2    H2 4793   0.623   3.571  17.661 -2.2014  1.1097  0.8970
  315MPD2    H3 4794   0.660   3.732  17.482  2.4357  2.0146 -2.1290
  315MPD2     N 4795   0.858   4.027   0.021 -0.3048  0.2236 -0.4527
  315MPD2    H5 4796   0.900   4.017   0.113 -1.0908 -0.4260 -0.1580
  315MPD2    N1 4797   0.759   3.583   0.155  0.4615 -0.4290  0.1149
  315MPD2    H7 4798   0.793   3.615   0.245  1.0283  0.8324 -0.5514
  316TMC3    C1 4799   0.920   4.247   0.028  0.3660 -0.0157 -0.2144
  316TMC3    C2 4800   1.026   4.218   0.118  1.1810  0.7230 -0.1422
  316TMC3    C3 4801   1.056   4.308   0.211  0.0555  0.1712  0.1456
  316TMC3    C4 4802   0.855   4.370   0.026 -0.3463  0.4939 -0.8798
  316TMC3    C5 4803   0.902   4.465   0.111 -0.1083  0.2004  0.2014
  316TMC3    C6 4804   1.007   4.438   0.204 -0.7266  0.2601 -0.5791
  316TMC3     C 4805   0.858   4.142  17.704  0.2252  0.1297 -0.3436
  316TMC3     O 4806   0.781   4.170  17.613 -0.4933  0.1993 -0.7315
  316TMC3     H 4807   1.059   4.115   0.126  1.6850  0.9221  0.2855
  316TMC3    H1 4808   0.773   4.392  17.707  0.4883  2.9661 -1.0823
  316TMC3    H2 4809   1.058   4.515   0.261  0.3949 -0.6099 -0.4136
  316TMC3    C7 4810   0.874   4.609   0.100 -0.3455  0.3007  0.4802
  316TMC3    C8 4811   1.174   4.281   0.298 -1.3064 -0.1620  1.2933
  316TMC3    O1 4812   0.891   4.677   0.201  0.1914 -0.4475  0.1002
  316TMC3    O2 4813   1.241   4.379   0.331 -0.4558  0.2783  0.1158
  317MPD2     C 4814   2.665   2.721  13.343 -0.1418  0.7438 -0.2758
  317MPD2    C1 4815   2.726   2.605  13.307  0.4228 -0.0583 -0.1047
  317MPD2    C2 4816   2.769   2.519  13.408  1.0242  0.2712  0.1111
  317MPD2    C3 4817   2.768   2.552  13.545 -0.1867  0.2902  0.0883
  317MPD2    C4 4818   2.712   2.681  13.569 -0.4910 -0.8621 -0.2536
  317MPD2    C5 4819   2.652   2.757  13.474 -0.2751 -0.2104 -0.9666
  317MPD2     H 4820   2.814   2.423  13.386  1.1627  0.2398  0.5239
  317MPD2    H1 4821   2.704   2.713  13.673 -1.9375 -0.2599 -0.5487
  317MPD2    H2 4822   2.642   2.794  13.266 -2.4956 -0.2635 -0.5027
  317MPD2    H3 4823   2.608   2.852  13.504  0.8194 -0.1744  0.5153
  317MPD2     N 4824   2.832   2.463  13.637 -0.0305  0.3622 -0.3001
  317MPD2    H5 4825   2.855   2.370  13.603  1.7763 -0.0704  2.1523
  317MPD2    N1 4826   2.730   2.554  13.175  0.1870  0.1124 -0.2529
  317MPD2    H7 4827   2.759   2.456  13.172 -0.3435 -0.0878  1.2473
  318TMC3    C1 4828   2.943   2.398  13.835  0.4085 -0.1495  0.1684
  318TMC3    C2 4829   2.887   2.275  13.849 -0.4287 -0.3659 -0.2477
  318TMC3    C3 4830   2.963   2.171  13.899  0.5708  0.0264  0.2215
  318TMC3    C4 4831   3.062   2.424  13.903  1.0406 -0.5874  0.0052
  318TMC3    C5 4832   3.123   2.324  13.969  0.6995 -0.4650 -0.6258
  318TMC3    C6 4833   3.072   2.197  13.968  0.3183 -0.2286 -0.4591
  318TMC3     C 4834   2.875   2.502  13.764 -0.1407  0.3414 -0.0342
  318TMC3     O 4835   2.883   2.619  13.803 -0.2984 -0.1844 -0.2171
  318TMC3     H 4836   2.790   2.263  13.802 -0.0223 -1.0614 -0.9081
  318TMC3    H1 4837   3.100   2.525  13.904  0.2846 -0.2912 -1.6564
  318TMC3    H2 4838   3.116   2.113  14.021  0.7254  0.1036 -0.2759
  318TMC3    C7 4839   3.256   2.356  14.008  0.5227  0.1389 -0.2709
  318TMC3    C8 4840   2.931   2.038  13.871 -0.6457  0.6669 -1.0516
  318TMC3    O1 4841   3.285   2.475  14.003  0.0989  0.1448  0.6141
  318TMC3    O2 4842   2.908   1.960  13.963  0.4597 -0.5278  0.0960
  319MPD2     C 4843   3.396   3.876  16.974 -0.8305  0.0039  0.4138
  319MPD2    C1 4844   3.346   3.750  17.001 -0.5150 -0.0717  0.4386
  319MPD2    C2 4845   3.313   3.669  16.895 -0.0069  0.4213 -0.5332
  319MPD2    C3 4846   3.321   3.712  16.768 -0.2120 -0.3019 -0.2217
  319MPD2    C4 4847   3.366   3.839  16.740  0.1302  0.2221  0.1501
  319MPD2    C5 4848   3.399   3.923  16.849  0.9108 -0.2593 -0.2686
  319MPD2     H 4849   3.281   3.569  16.922 -0.6563  0.4418 -1.2453
  319MPD2    H1 4850   3.381   3.881  16.641  1.3108 -1.3256 -0.3356
  319MPD2    H2 4851   3.427   3.943  17.054  0.4365 -1.0368  0.7940
  319MPD2    H3 4852   3.433   4.025  16.832 -0.3577  0.4029  1.0965
  319MPD2     N 4853   3.285   3.622  16.662 -0.1616  0.6475  0.0167
  319MPD2    H5 4854   3.303   3.660  16.570  1.2037  0.1648  0.0918
  319MPD2    N1 4855   3.332   3.702  17.131 -0.5569  0.2496  0.5223
  319MPD2    H7 4856   3.314   3.602  17.139 -0.0520 -0.0966 -2.6464
  320TMC3    C1 4857   3.191   3.456  16.538  0.3571 -0.7687  0.4855
  320TMC3    C2 4858   3.166   3.559  16.445 -0.6238  0.3154  0.1205
  320TMC3    C3 4859   3.064   3.549  16.365  0.2089 -0.0921 -0.3645
  320TMC3    C4 4860   3.120   3.340  16.533  0.5183 -0.4350 -0.3694
  320TMC3    C5 4861   3.014   3.335  16.439 -0.1410  0.0645  0.1408
  320TMC3    C6 4862   2.988   3.439  16.358 -0.3848 -0.0431  0.1563
  320TMC3     C 4863   3.253   3.489  16.666 -0.1436 -0.5199 -0.5744
  320TMC3     O 4864   3.245   3.405  16.752 -0.1038 -0.1986 -0.3865
  320TMC3     H 4865   3.230   3.646  16.435  0.7930 -0.6936  0.4631
  320TMC3    H1 4866   3.144   3.263  16.605  0.0016 -0.6554 -0.4326
  320TMC3    H2 4867   2.894   3.435  16.304 -0.4014 -0.6942  0.2308
  320TMC3    C7 4868   2.965   3.205  16.386 -0.0929 -0.3696 -1.0553
  320TMC3    C8 4869   3.039   3.661  16.275 -0.1917 -0.2272 -0.3383
  320TMC3    O1 4870   2.904   3.215  16.280 -0.0235  0.1782 -0.3038
  320TMC3    O2 4871   3.063   3.773  16.312  0.2785  0.8667  0.0641
  321TMC3    C1 4872   3.337   3.689  17.362  1.0076 -0.4665 -0.2604
  321TMC3    C2 4873   3.369   3.559  17.368  0.0815  0.6343  0.0029
  321TMC3    C3 4874   3.366   3.494  17.489 -0.3718 -0.2553  0.1451
  321TMC3    C4 4875   3.318   3.761  17.477 -0.0118  0.0292 -0.4162
  321TMC3    C5 4876   3.321   3.696  17.601  0.0488 -0.0268 -0.4409
  321TMC3    C6 4877   3.338   3.565  17.605  0.0513  0.4399  0.2201
  321TMC3     C 4878   3.364   3.766  17.247  0.4848 -0.1012 -0.0168
  321TMC3     O 4879   3.415   3.872  17.267 -0.0636  0.3702  0.7188
  321TMC3     H 4880   3.385   3.507  17.274  1.3636  2.8540 -1.0040
  321TMC3    H1 4881   3.299   3.867  17.465  0.2283  0.0281 -0.8209
  321TMC3    H2 4882   3.333   3.513  17.699 -1.8705  1.2700  0.5656
  321TMC3    C7 4883   3.419   3.754  17.687  0.1222 -0.1200  0.2441
  321TMC3    C8 4884   3.468   3.380  17.502 -0.5792 -0.6387 -0.2434
  321TMC3    O1 4885   3.489   3.665  17.733 -0.0261 -0.7620  0.0837
  321TMC3    O2 4886   3.477   3.301  17.407 -0.1377  0.3179  0.4815
  322MPD2     C 4887   2.774   0.252  13.717  0.3169 -0.1888  0.3070
  322MPD2    C1 4888   2.765   0.195  13.842 -0.4994 -0.5223 -0.3357
  322MPD2    C2 4889   2.744   0.057  13.843 -0.5794 -0.1614 -0.4205
  322MPD2    C3 4890   2.716   4.724  13.728  0.5578  0.3135 -0.5396
  322MPD2    C4 4891   2.717   0.053  13.607  0.0782 -0.2536  0.0904
  322MPD2    C5 4892   2.753   0.187  13.601  0.1850 -0.1769  0.9347
  322MPD2     H 4893   2.736   4.734  13.932 -1.8507  1.3093  0.4736
  322MPD2    H1 4894   2.703   4.737  13.515  2.3269  1.1870 -1.1055
  322MPD2    H2 4895   2.804   0.356  13.707  1.6770 -0.5684  0.4579
  322MPD2    H3 4896   2.772   0.237  13.507 -0.1565  0.8123  1.4010
  322MPD2     N 4897   2.699   4.589  13.740 -0.5861  0.2580 -0.0485
  322MPD2    H5 4898   2.701   4.541  13.829  0.6715  0.9688  0.2899
  322MPD2    N1 4899   2.796   0.264  13.966 -0.7054  0.5799  0.0743
  322MPD2    H7 4900   2.806   0.365  13.962  0.6367  0.4195 -0.7909
  323TMC3    C1 4901   2.809   0.297  14.204  0.2611 -1.3293  0.0517
  323TMC3    C2 4902   2.895   0.404  14.194  0.4709 -0.1010  0.9989
  323TMC3    C3 4903   2.936   0.465  14.312 -0.1420  0.1321 -0.9490
  323TMC3    C4 4904   2.774   0.247  14.330  0.5645  0.1242 -0.1270
  323TMC3    C5 4905   2.833   0.304  14.442 -0.2058 -0.4369 -0.3189
  323TMC3    C6 4906   2.916   0.413  14.438  0.3111 -0.1418 -0.7565
  323TMC3     C 4907   2.784   0.207  14.093 -0.0709  0.1924 -0.9420
  323TMC3     O 4908   2.769   0.090  14.130 -0.7756  0.2511  0.0626
  323TMC3     H 4909   2.941   0.437  14.101  1.6388 -1.8462  0.9537
  323TMC3    H1 4910   2.706   0.163  14.345  1.0856 -0.2784  0.0079
  323TMC3    H2 4911   2.980   0.442  14.520  0.9380 -0.6171 -1.0813
  323TMC3    C7 4912   2.840   0.219  14.561  0.1776 -0.1980 -0.2372
  323TMC3    C8 4913   3.058   0.551  14.301 -0.1200  0.1906  0.0871
  323TMC3    O1 4914   2.813   0.107  14.546 -0.1591 -0.0595 -0.0195
  323TMC3    O2 4915   3.126   0.532  14.203 -0.7720 -0.1618 -0.7428
  324MPD2     C 4916   4.554   1.147  14.795  0.5754  0.3038  0.3461
  324MPD2    C1 4917   4.566   1.245  14.698 -0.4809 -0.5484 -1.0951
  324MPD2    C2 4918   4.462   1.294  14.623 -0.4319 -0.3884  0.4315
  324MPD2    C3 4919   4.334   1.255  14.653 -0.3284 -0.4364 -0.9997
  324MPD2    C4 4920   4.327   1.150  14.741 -0.1167  0.5539 -0.6404
  324MPD2    C5 4921   4.436   1.088  14.796 -0.0531 -0.7500 -0.3828
  324MPD2     H 4922   4.476   1.379  14.558  0.6277 -2.7334 -2.3875
  324MPD2    H1 4923   4.228   1.110  14.761 -0.8169  1.2463 -2.7009
  324MPD2    H2 4924   4.635   1.096  14.846  0.1667  0.6858  1.3836
  324MPD2    H3 4925   4.431   0.993  14.848 -2.6025 -0.7435 -0.6259
  324MPD2     N 4926   4.216   1.308  14.606 -0.9994  0.5315  0.4242
  324MPD2    H5 4927   4.132   1.259  14.634 -1.0609  0.8083  0.7262
  324MPD2    N1 4928   4.692   1.303  14.669 -0.2496  0.6008 -0.0384
  324MPD2    H7 4929   4.706   1.366  14.591  2.1365 -0.3095 -0.3390
  325TMC3    C1 4930   4.067   1.445  14.481 -0.7155  0.5153  0.1844
  325TMC3    C2 4931   3.970   1.353  14.488 -0.2574 -0.2910  0.4523
  325TMC3    C3 4932   3.840   1.398  14.464 -0.5714 -0.5504 -0.2109
  325TMC3    C4 4933   4.043   1.581  14.472  0.0523  0.5905  0.1279
  325TMC3    C5 4934   3.914   1.622  14.468 -0.0109 -0.0792 -0.1263
  325TMC3    C6 4935   3.809   1.529  14.466 -0.4334 -0.5777  0.2715
  325TMC3     C 4936   4.205   1.422  14.526  0.1714  0.1586  0.6440
  325TMC3     O 4937   4.289   1.510  14.512  0.9245 -0.5192 -0.2900
  325TMC3     H 4938   3.990   1.247  14.483  1.6205  0.0631  0.6009
  325TMC3    H1 4939   4.124   1.649  14.448  0.0006  0.9137  0.8887
  325TMC3    H2 4940   3.717   1.573  14.429  0.0658  0.4724  0.2772
  325TMC3    C7 4941   3.878   1.747  14.406 -0.5590  0.1008 -0.8080
  325TMC3    C8 4942   3.738   1.299  14.461 -0.1552 -0.0305 -1.4102
  325TMC3    O1 4943   3.972   1.813  14.365 -0.0676 -0.3912  0.6958
  325TMC3    O2 4944   3.764   1.184  14.419  0.4164 -0.1758  0.3227
  326MPD2     C 4945   0.632   2.481  11.161 -0.7923 -0.3359 -0.1397
  326MPD2    C1 4946   0.590   2.492  11.026  0.7354 -0.0377  0.3596
  326MPD2    C2 4947   0.680   2.512  10.917 -0.5380 -0.3280 -0.5625
  326MPD2    C3 4948   0.818   2.522  10.950  0.5839  0.1172 -0.0061
  326MPD2    C4 4949   0.856   2.515  11.081  0.3872  0.5666  0.1747
  326MPD2    C5 4950   0.767   2.498  11.183 -0.6119  0.1785  0.0993
  326MPD2     H 4951   0.645   2.506  10.815  0.3719  0.6611 -0.9270
  326MPD2    H1 4952   0.960   2.516  11.110  0.5935 -1.5347 -0.5025
  326MPD2    H2 4953   0.565   2.470  11.245 -1.0110  3.1198  0.1439
  326MPD2    H3 4954   0.794   2.487  11.287 -0.2193  3.1459  0.2994
  326MPD2     N 4955   0.916   2.546  10.853  0.0017 -0.4390 -0.3963
  326MPD2    H5 4956   1.013   2.549  10.883 -0.1655 -0.5582  0.1519
  326MPD2    N1 4957   0.457   2.494  10.985  0.1398 -0.1388 -0.0060
  326MPD2    H7 4958   0.453   2.532  10.891 -3.2540  1.1309  0.6550
  327TMC3    C1 4959   0.233   2.444  10.970 -1.1306  0.1442 -0.5242
  327TMC3    C2 4960   0.190   2.568  10.925 -0.0459 -0.2489 -0.3614
  327TMC3    C3 4961   0.111   2.569  10.805  0.2302 -0.1104  0.8152
  327TMC3    C4 4962   0.199   2.326  10.904  0.4631  0.8755  0.0345
  327TMC3    C5 4963   0.145   2.339  10.780 -0.3975 -0.2656  0.4425
  327TMC3    C6 4964   0.089   2.455  10.733  0.0571 -0.3210  0.1962
  327TMC3     C 4965   0.353   2.442  11.058 -0.4790 -0.2188 -0.1173
  327TMC3     O 4966   0.350   2.371  11.160 -0.0549 -0.0352 -0.1101
  327TMC3     H 4967   0.208   2.658  10.983  0.4747 -0.0235 -0.8679
  327TMC3    H1 4968   0.233   2.229  10.936 -2.7210  0.3802  1.9495
  327TMC3    H2 4969   0.032   2.455  10.641  0.7849 -0.8979 -0.2547
  327TMC3    C7 4970   0.241   2.293  10.670  0.4407  0.1272  0.3591
  327TMC3    C8 4971   0.075   2.690  10.732  0.2701 -0.8959 -0.0691
  327TMC3    O1 4972   0.231   2.359  10.572  0.2626 -0.6452 -0.0733
  327TMC3    O2 4973   4.728   2.673  10.644  0.6466 -0.4221  0.2554
  328MPD2     C 4974   3.512   2.572  17.474 -0.1348 -0.2051  0.0880
  328MPD2    C1 4975   3.388   2.512  17.487  0.3673  0.0283  0.0808
  328MPD2    C2 4976   3.291   2.525  17.383 -0.6247  0.2333  0.7830
  328MPD2    C3 4977   3.324   2.592  17.266  0.1546 -0.6044 -0.4065
  328MPD2    C4 4978   3.439   2.669  17.265  0.3533  0.0131  0.2509
  328MPD2    C5 4979   3.532   2.654  17.364 -0.0343 -0.1170 -0.0917
  328MPD2     H 4980   3.193   2.480  17.398 -1.1609  0.8028 -1.0593
  328MPD2    H1 4981   3.466   2.725  17.176 -2.5315  0.9498 -0.0434
  328MPD2    H2 4982   3.582   2.570  17.557 -0.3651  0.3961  0.2963
  328MPD2    H3 4983   3.628   2.705  17.357  0.1325 -0.3368  0.6007
  328MPD2     N 4984   3.227   2.605  17.163  0.8231  0.5798 -0.4322
  328MPD2    H5 4985   3.246   2.684  17.102 -1.3864  0.4871 -1.2345
  328MPD2    N1 4986   3.362   2.447  17.607  0.3042 -0.4441  0.4901
  328MPD2    H7 4987   3.436   2.453  17.676  0.7233  0.9901 -0.0772
  329TMC3    C1 4988   3.242   2.321   0.025 -0.3550 -0.3815 -1.2614
  329TMC3    C2 4989   3.314   2.380   0.125  0.0393 -0.5580  0.4446
  329TMC3    C3 4990   3.278   2.344   0.258  0.3237  0.0394  0.3973
  329TMC3    C4 4991   3.139   2.235   0.057  0.0982  0.4506 -0.5877
  329TMC3    C5 4992   3.117   2.198   0.185 -0.0297  0.0006 -0.1248
  329TMC3    C6 4993   3.187   2.250   0.286 -0.1751 -0.5711  0.0511
  329TMC3     C 4994   3.255   2.366  17.633 -0.1772 -0.7335  0.4096
  329TMC3     O 4995   3.167   2.334  17.553 -0.3371  0.5803  0.6325
  329TMC3     H 4996   3.405   2.435   0.103 -0.0716 -0.1912  0.9085
  329TMC3    H1 4997   3.094   2.183  17.721  2.9846  0.2194 -1.9966
  329TMC3    H2 4998   3.166   2.207   0.383 -0.5984  0.7470  0.5384
  329TMC3    C7 4999   3.015   2.096   0.219 -0.4433  0.2092 -0.4030
  329TMC3    C8 5000   3.300   2.440   0.361 -0.0451  0.2041 -0.1153
  329TMC3    O1 5001   3.030   2.060   0.333 -0.0452 -0.2091  0.2208
  329TMC3    O2 5002   3.411   2.483   0.384 -0.4603 -0.6646 -0.2495
  330TMC3    C1 5003   1.023   1.047   9.739 -0.6703  0.5392  0.6161
  330TMC3    C2 5004   0.951   1.161   9.764 -0.4947 -0.3117 -0.1113
  330TMC3    C3 5005   1.001   1.243   9.865  0.1645 -0.0007  0.2114
  330TMC3    C4 5006   1.135   1.011   9.796  0.0460 -0.5956 -0.1869
  330TMC3    C5 5007   1.191   1.110   9.877  0.0062  0.9032 -1.3704
  330TMC3    C6 5008   1.125   1.224   9.910  0.8972 -0.2835 -0.1465
  330TMC3     C 5009   0.990   0.969   9.621 -0.8495  0.0054 -0.7580
  330TMC3     O 5010   1.084   0.908   9.579  0.6203 -0.5749 -0.4258
  330TMC3     H 5011   0.868   1.192   9.701 -0.0402 -0.7883 -0.9426
  330TMC3    H1 5012   1.176   0.912   9.783 -2.8481 -2.0043  1.4538
  330TMC3    H2 5013   1.164   1.306   9.970 -1.3578  1.4094 -0.9569
  330TMC3    C7 5014   1.335   1.099   9.898 -0.3240 -0.3446  0.5323
  330TMC3    C8 5015   0.912   1.335   9.929  0.6462 -0.2116 -0.3768
  330TMC3    O1 5016   1.402   0.999   9.863  0.4046 -0.0715 -0.1550
  330TMC3    O2 5017   0.964   1.433   9.986 -0.2681  0.0432 -0.0904
  331MPD2     C 5018   3.964   1.230  13.430 -0.2685 -0.1464 -0.5904
  331MPD2    C1 5019   3.855   1.165  13.377 -0.7445  0.4446  0.3702
  331MPD2    C2 5020   3.866   1.036  13.336 -0.0505  0.7439 -0.3105
  331MPD2    C3 5021   3.981   0.966  13.368 -0.3415  0.8555 -0.5315
  331MPD2    C4 5022   4.090   1.032  13.421 -0.7226  0.1996  0.1271
  331MPD2    C5 5023   4.082   1.161  13.460 -0.4583 -0.4047 -0.1910
  331MPD2     H 5024   3.781   1.003  13.276 -2.0650  1.3316  2.2520
  331MPD2    H1 5025   4.182   0.979  13.442 -0.3383  0.5865 -0.5854
  331MPD2    H2 5026   3.964   1.336  13.449 -0.5265 -0.4655  1.1801
  331MPD2    H3 5027   4.171   1.210  13.497 -1.7671  1.7092  0.1806
  331MPD2     N 5028   3.971   0.829  13.323 -0.2617  0.0786 -0.6208
  331MPD2    H5 5029   3.882   0.807  13.278 -0.4138  3.2932 -1.9044
  331MPD2    N1 5030   3.738   1.226  13.334  0.0131 -0.7550 -0.3761
  331MPD2    H7 5031   3.670   1.165  13.290  0.3136 -1.8548  0.6740
  332TMC3    C1 5032   4.021   0.616  13.278 -0.6415  0.4467 -1.0985
  332TMC3    C2 5033   3.963   0.645  13.156  0.1158 -0.3674 -0.5364
  332TMC3    C3 5034   3.985   0.553  13.049 -0.4293 -0.9837 -0.2259
  332TMC3    C4 5035   4.108   0.513  13.290  0.0954 -0.0803  0.0366
  332TMC3    C5 5036   4.133   0.427  13.184 -0.2432 -0.4831 -0.0681
  332TMC3    C6 5037   4.073   0.447  13.060 -0.0357 -0.1570  0.0128
  332TMC3     C 5038   4.052   0.727  13.358  0.1808  0.4494  0.1058
  332TMC3     O 5039   4.136   0.728  13.451 -0.2674  0.1303  0.0544
  332TMC3     H 5040   3.891   0.723  13.134  3.2279  1.9686 -2.3948
  332TMC3    H1 5041   4.166   0.510  13.381  0.0573 -0.8219  0.0333
  332TMC3    H2 5042   4.093   0.380  12.977  0.0140  2.3695 -1.9927
  332TMC3    C7 5043   4.253   0.344  13.202  0.1650 -0.0847  0.5071
  332TMC3    C8 5044   3.973   0.615  12.915 -0.2983  0.4866 -0.0203
  332TMC3    O1 5045   4.284   0.310  13.314  0.2812 -0.0358  0.5226
  332TMC3    O2 5046   3.977   0.738  12.911  0.1616 -0.8242 -0.0361
  333MPD2     C 5047   3.569   0.884  11.405  0.1785 -0.2834 -0.5448
  333MPD2    C1 5048   3.614   0.797  11.315  0.1246  0.1411  0.4267
  333MPD2    C2 5049   3.634   0.662  11.347 -0.1216 -0.3384  0.0420
  333MPD2    C3 5050   3.588   0.610  11.467 -0.1412 -0.5879  0.5710
  333MPD2    C4 5051   3.533   0.699  11.558 -0.1913 -0.2015  0.4687
  333MPD2    C5 5052   3.528   0.831  11.526  0.3946 -0.4241 -0.6117
  333MPD2     H 5053   3.697   0.603  11.282 -0.7069 -1.0733  0.1468
  333MPD2    H1 5054   3.495   0.665  11.653  0.4769 -3.7539 -0.5422
  333MPD2    H2 5055   3.566   0.992  11.394 -3.5957 -0.1386  1.7553
  333MPD2    H3 5056   3.496   0.897  11.606 -0.2001 -1.2607 -0.1519
  333MPD2     N 5057   3.614   0.474  11.504 -0.3257 -0.4211  0.2152
  333MPD2    H5 5058   3.662   0.421  11.433  1.2143 -2.2584  2.6109
  333MPD2    N1 5059   3.646   0.847  11.187 -0.0390 -0.3410 -0.4686
  333MPD2    H7 5060   3.639   0.946  11.168  2.4846 -0.6793 -3.0747
  334TMC3    C1 5061   3.741   0.866  10.978 -0.0452  0.5288  0.5873
  334TMC3    C2 5062   3.871   0.831  10.967 -0.0715 -0.0560  0.1541
  334TMC3    C3 5063   3.966   0.926  10.961  0.9227  0.2150  0.3349
  334TMC3    C4 5064   3.696   0.994  10.975 -0.1435  0.3885 -0.0232
  334TMC3    C5 5065   3.794   1.089  10.966  0.1090 -0.3631  0.0134
  334TMC3    C6 5066   3.930   1.058  10.959 -0.0336  0.3637  0.1669
  334TMC3     C 5067   3.676   0.776  11.070 -0.5361 -0.1674 -0.0744
  334TMC3     O 5068   3.710   0.661  11.056 -0.4037  0.1836  1.0073
  334TMC3     H 5069   3.902   0.728  10.982 -0.0298 -0.1536 -0.5980
  334TMC3    H1 5070   3.592   1.012  11.002  0.0070  0.4467  0.5115
  334TMC3    H2 5071   4.002   1.138  10.953 -1.8825  2.0378  0.3712
  334TMC3    C7 5072   3.751   1.223  10.974 -0.1997 -0.5205  0.7245
  334TMC3    C8 5073   4.095   0.887  10.899 -0.3343 -0.2189  0.1271
  334TMC3    O1 5074   3.837   1.305  10.995 -0.1461  0.1621  0.2727
  334TMC3    O2 5075   4.103   0.773  10.857  0.2607  0.0522 -0.1082
  335TMC3    C1 5076   3.729   2.328  17.472  0.3179  0.0073  0.6608
  335TMC3    C2 5077   3.708   2.289  17.342 -0.2531 -0.3023 -0.5978
  335TMC3    C3 5078   3.765   2.365  17.239 -0.6574 -0.1162 -0.1520
  335TMC3    C4 5079   3.809   2.434  17.500 -0.5768  0.3079  0.2000
  335TMC3    C5 5080   3.858   2.505  17.397  0.3400  0.3960 -0.2956
  335TMC3    C6 5081   3.844   2.471  17.267  0.1293  0.5226 -0.6612
  335TMC3     C 5082   3.649   2.266  17.583  0.0417  0.5162 -0.8324
  335TMC3     O 5083   3.684   2.301  17.696 -0.5307 -0.3133  0.0547
  335TMC3     H 5084   3.643   2.208  17.313 -0.3840  0.4302 -2.3646
  335TMC3    H1 5085   3.814   2.467  17.603  0.1895 -0.0427  0.2810
  335TMC3    H2 5086   3.897   2.524  17.189 -0.4252  0.9461 -0.7531
  335TMC3    C7 5087   3.957   2.614  17.413 -0.4068  0.0607 -0.1061
  335TMC3    C8 5088   3.748   2.332  17.098 -0.0790 -0.8063  0.2861
  335TMC3    O1 5089   3.970   2.691  17.319 -0.9546 -0.2498 -0.2737
  335TMC3    O2 5090   3.776   2.418  17.018 -0.1156  0.7005 -0.1315
  336MPD2     C 5091   3.574   0.416  16.494  0.0434  0.5203  0.5114
  336MPD2    C1 5092   3.601   0.325  16.390  0.2392  0.1955 -0.3098
  336MPD2    C2 5093   3.610   0.191  16.412 -0.5130  0.2753  0.2062
  336MPD2    C3 5094   3.580   0.148  16.541 -0.1854 -0.6369 -0.1385
  336MPD2    C4 5095   3.559   0.241  16.644 -0.0846  0.3509 -0.3034
  336MPD2    C5 5096   3.566   0.375  16.623  0.1929 -0.6731 -0.0422
  336MPD2     H 5097   3.640   0.129  16.328 -2.2056 -0.1845 -0.0455
  336MPD2    H1 5098   3.540   0.202  16.744  0.6028 -0.7009 -0.5777
  336MPD2    H2 5099   3.590   0.523  16.486  1.1336  0.4621  1.8232
  336MPD2    H3 5100   3.555   0.438  16.710  1.0059 -1.4630  0.6328
  336MPD2     N 5101   3.564   0.006  16.573 -0.9390  0.2780  0.1287
  336MPD2    H5 5102   3.559   4.721  16.672  0.9280  0.3183  0.2307
  336MPD2    N1 5103   3.618   0.365  16.255  0.3658  0.2459 -0.3285
  336MPD2    H7 5104   3.642   0.296  16.184  0.0467  1.2632 -1.4250
  337TMC3    C1 5105   3.594   0.484  16.054  0.0402  0.2986 -0.7820
  337TMC3    C2 5106   3.482   0.533  15.995 -0.1825 -0.3191  0.6102
  337TMC3    C3 5107   3.438   0.464  15.879  0.2240  0.6187 -0.1997
  337TMC3    C4 5108   3.662   0.373  16.010  0.4018 -0.2710 -0.3814
  337TMC3    C5 5109   3.624   0.316  15.892  0.0545 -0.6492  0.6781
  337TMC3    C6 5110   3.514   0.358  15.824 -0.6244 -0.3433 -0.0951
  337TMC3     C 5111   3.579   0.485  16.204  0.1061 -0.2266  0.4887
  337TMC3     O 5112   3.513   0.575  16.256  0.1758  0.3121 -0.4049
  337TMC3     H 5113   3.427   0.607  16.052 -0.0274  0.7766 -0.6380
  337TMC3    H1 5114   3.759   0.350  16.052  1.2640 -0.1489 -2.2698
  337TMC3    H2 5115   3.489   0.314  15.729 -1.2483  1.1238 -0.6197
  337TMC3    C7 5116   3.724   0.223  15.827  0.2341  0.8462  0.3137
  337TMC3    C8 5117   3.300   0.496  15.837  0.1528  1.1057 -0.5798
  337TMC3    O1 5118   3.840   0.238  15.869  0.6752 -0.0972 -0.3962
  337TMC3    O2 5119   3.255   0.596  15.894  0.6179  0.2544  0.1564
  338MPD2     C 5120   4.053   0.024   1.267 -0.1350  0.4044  0.1621
  338MPD2    C1 5121   3.961   0.013   1.175 -0.2858  0.2489  0.4663
  338MPD2    C2 5122   3.874   0.115   1.146 -0.6163  1.0928  0.1360
  338MPD2    C3 5123   3.887   0.235   1.220 -0.0324  0.4280 -1.0045
  338MPD2    C4 5124   3.989   0.250   1.318 -0.1849 -0.1736  0.4330
  338MPD2    C5 5125   4.063   0.138   1.347  0.0986  0.5463 -0.4522
  338MPD2     H 5126   3.797   0.118   1.070 -0.1137 -2.3556 -0.4902
  338MPD2    H1 5127   4.006   0.336   1.381  0.8905  0.5685 -0.8736
  338MPD2    H2 5128   4.129   4.685   1.284  0.8770  1.9376  2.4235
  338MPD2    H3 5129   4.133   0.144   1.430  0.4022  3.3558 -0.8878
  338MPD2     N 5130   3.792   0.333   1.190  0.0309  0.1409 -0.4126
  338MPD2    H5 5131   3.725   0.306   1.119 -0.4152 -0.9437  0.4284
  338MPD2    N1 5132   3.949   4.640   1.082 -0.7417  0.3933 -0.5798
  338MPD2    H7 5133   3.894   4.650   0.997  1.1114  1.0288 -1.6830
  339TMC3    C1 5134   3.664   0.533   1.194 -0.0211 -0.7258  0.2932
  339TMC3    C2 5135   3.587   0.609   1.280  0.4193 -0.1029 -0.6805
  339TMC3    C3 5136   3.449   0.613   1.257 -0.6193 -0.5623  0.3799
  339TMC3    C4 5137   3.602   0.471   1.084 -0.6345  0.2594  0.0110
  339TMC3    C5 5138   3.468   0.476   1.070  0.3117 -0.8021  0.3594
  339TMC3    C6 5139   3.390   0.549   1.158 -0.4260  0.2934  0.2556
  339TMC3     C 5140   3.776   0.459   1.242  0.7203  0.2411 -0.5797
  339TMC3     O 5141   3.843   0.501   1.335  0.4877 -0.3140  0.4470
  339TMC3     H 5142   3.634   0.651   1.368 -0.0122 -0.6583 -0.1823
  339TMC3    H1 5143   3.669   0.423   1.014 -0.4927 -1.7728  1.5179
  339TMC3    H2 5144   3.285   0.560   1.136 -0.4280 -0.0760  0.0805
  339TMC3    C7 5145   3.416   0.424   0.947  0.6137 -0.4559  0.0681
  339TMC3    C8 5146   3.368   0.656   1.367  0.3306  0.0291 -0.5794
  339TMC3    O1 5147   3.486   0.432   0.849  0.3549  0.4206  0.3044
  339TMC3    O2 5148   3.417   0.737   1.443 -0.2838  0.3973  0.3871
  340MPD2     C 5149   3.247   1.792  10.482  0.5110 -0.4604  0.4835
  340MPD2    C1 5150   3.344   1.830  10.398 -0.6525 -0.2116  0.1009
  340MPD2    C2 5151   3.464   1.888  10.442 -0.2070  0.1850  0.0719
  340MPD2    C3 5152   3.478   1.905  10.577 -0.5356 -0.3088 -0.1001
  340MPD2    C4 5153   3.385   1.866  10.670 -0.6631  0.2232 -0.2011
  340MPD2    C5 5154   3.273   1.801  10.622  0.3523 -1.1076  0.1169
  340MPD2     H 5155   3.546   1.907  10.374 -0.8991 -1.5899 -1.2554
  340MPD2    H1 5156   3.403   1.863  10.777 -1.3913  0.5803 -0.0652
  340MPD2    H2 5157   3.155   1.753  10.440 -0.0361  1.3613 -0.0105
  340MPD2    H3 5158   3.201   1.757  10.690  1.3154  0.3240  2.0620
  340MPD2     N 5159   3.594   1.970  10.627  0.1839  0.0327  0.7227
  340MPD2    H5 5160   3.599   1.965  10.728 -0.8319 -1.8052  0.6755
  340MPD2    N1 5161   3.312   1.805  10.259  0.5922 -0.4935 -0.3995
  340MPD2    H7 5162   3.225   1.759  10.233  0.1004 -1.6481  3.3645
  341TMC3    C1 5163   3.342   1.796  10.026  0.4320 -0.1779 -0.3066
  341TMC3    C2 5164   3.246   1.705  10.018 -0.1960  0.0334  0.3100
  341TMC3    C3 5165   3.191   1.682   9.892 -0.0520 -0.2105  0.5924
  341TMC3    C4 5166   3.407   1.848   9.910 -0.1361 -0.3680  0.7945
  341TMC3    C5 5167   3.364   1.811   9.794 -0.0969  0.5952  0.9145
  341TMC3    C6 5168   3.256   1.732   9.778  0.3295  0.4728  1.1227
  341TMC3     C 5169   3.388   1.850  10.153  0.2022  0.3102  0.2596
  341TMC3     O 5170   3.480   1.932  10.154  0.4618 -0.1203  0.3075
  341TMC3     H 5171   3.192   1.671  10.106 -0.9346  0.1528 -0.0971
  341TMC3    H1 5172   3.493   1.914   9.918 -1.3892  1.1589  1.7929
  341TMC3    H2 5173   3.216   1.699   9.683  0.8323  0.0161  1.0757
  341TMC3    C7 5174   3.472   1.774   9.702  0.2135 -0.2426 -0.6273
  341TMC3    C8 5175   3.119   1.555   9.871  0.2223 -0.8432  0.4152
  341TMC3    O1 5176   3.588   1.791   9.739 -0.4796 -0.1001 -0.2665
  341TMC3    O2 5177   3.127   1.476   9.965  0.1011  0.3192 -0.1532
  342MPD2     C 5178   1.443   0.467  17.741 -0.5382  0.1400  0.3149
  342MPD2    C1 5179   1.577   0.483   0.013 -0.0078 -0.4368  0.3566
  342MPD2    C2 5180   1.627   0.615   0.022 -0.3113 -0.3871 -0.3672
  342MPD2    C3 5181   1.540   0.723   0.034 -0.4196 -0.4473 -0.3812
  342MPD2    C4 5182   1.402   0.698   0.021  0.1111  0.1332 -0.4446
  342MPD2    C5 5183   1.358   0.572  17.740 -0.4054  0.5446  0.7993
  342MPD2     H 5184   1.734   0.631   0.026 -0.0544 -2.9931  3.4905
  342MPD2    H1 5185   1.324   0.772   0.033 -0.5640 -0.3437 -1.8452
  342MPD2    H2 5186   1.405   0.370  17.709  0.8477 -0.5561  0.7604
  342MPD2    H3 5187   1.254   0.546  17.722  0.0438  1.1004 -2.4792
  342MPD2     N 5188   1.576   0.855   0.049  0.5233  0.2280  0.4604
  342MPD2    H5 5189   1.503   0.925   0.052  1.3007  0.9170  3.0327
  342MPD2    N1 5190   1.667   0.377  17.745  0.1487  0.1135  0.3455
  342MPD2    H7 5191   1.762   0.394  17.715 -0.1275  1.3548  0.2004
  343TMC3    C1 5192   1.739   0.156  17.710 -0.3337  0.3387  0.0060
  343TMC3    C2 5193   1.835   0.201  17.627  0.0833  0.0113  0.1338
  343TMC3    C3 5194   1.918   0.115  17.574  0.3573 -0.2497  0.1441
  343TMC3    C4 5195   1.733   0.021  17.742  0.2935  0.5013  0.9764
  343TMC3    C5 5196   1.832   4.677  17.694 -0.7175 -0.0544  0.0289
  343TMC3    C6 5197   1.927   4.719  17.608  0.7080  0.7707  0.2466
  343TMC3     C 5198   1.629   0.245  17.746 -0.3159  1.0946 -0.0574
  343TMC3     O 5199   1.530   0.196   0.050  0.0342 -0.0479  0.4044
  343TMC3     H 5200   1.833   0.306  17.599  1.8308 -0.4522 -1.7552
  343TMC3    H1 5201   1.656   4.713   0.055 -2.9598  3.6575 -0.8570
  343TMC3    H2 5202   2.004   4.650  17.576 -0.4808 -1.2109  1.6190
  343TMC3    C7 5203   1.821   4.530  17.717  0.8261 -0.4593  0.3701
  343TMC3    C8 5204   2.003   0.177  17.474  0.8175 -0.2022  0.6243
  343TMC3    O1 5205   1.854   4.449  17.629  0.0937 -0.6442 -0.6531
  343TMC3    O2 5206   2.018   0.297  17.471 -0.2641 -0.4058  0.3612
  344MPD2     C 5207   2.628   4.218  10.337  0.6985  0.5558  0.4066
  344MPD2    C1 5208   2.503   4.246  10.391 -0.4712  0.1379  0.2363
  344MPD2    C2 5209   2.450   4.364  10.353 -0.3637 -0.3921  0.6083
  344MPD2    C3 5210   2.527   4.457  10.286  0.3836 -0.5846  0.9854
  344MPD2    C4 5211   2.651   4.424  10.231 -1.5101  0.0449 -0.3197
  344MPD2    C5 5212   2.695   4.302  10.253  0.1929 -0.4552 -0.1498
  344MPD2     H 5213   2.350   4.388  10.387 -0.4408 -1.2741  1.0103
  344MPD2    H1 5214   2.713   4.488  10.170 -2.4281  1.6799  0.4528
  344MPD2    H2 5215   2.681   4.126  10.359  0.2602 -0.0249 -1.0013
  344MPD2    H3 5216   2.796   4.276  10.221  1.1116 -1.4329  3.6069
  344MPD2     N 5217   2.492   4.595  10.279  0.0259  0.0059 -0.1875
  344MPD2    H5 5218   2.565   4.663  10.260  2.1208 -2.5083 -1.0323
  344MPD2    N1 5219   2.427   4.160  10.474 -0.3946  0.4360  0.4753
  344MPD2    H7 5220   2.331   4.187  10.491 -0.6137  0.4729 -0.8163
  345TMC3    C1 5221   2.356   0.033  10.356 -0.5784 -0.0274  0.4976
  345TMC3    C2 5222   2.457   0.060  10.443  0.5975  0.7180  0.3205
  345TMC3    C3 5223   2.426   0.152  10.538 -0.3187  0.4007 -0.9172
  345TMC3    C4 5224   2.237   0.089  10.372  1.0350  0.1445 -0.1653
  345TMC3    C5 5225   2.216   0.183  10.467  0.1956  0.0315 -0.4200
  345TMC3    C6 5226   2.310   0.225  10.552  0.8514 -0.0285  0.5824
  345TMC3     C 5227   2.360   4.638  10.305  0.1000  0.4942  0.2868
  345TMC3     O 5228   2.253   4.582  10.300  0.0409 -0.5502 -0.5125
  345TMC3     H 5229   2.557   0.019  10.438 -0.3950 -1.6493 -0.0829
  345TMC3    H1 5230   2.161   0.065  10.299  0.6032  0.0150  0.3283
  345TMC3    H2 5231   2.301   0.304  10.626 -0.5954 -0.0785  0.4551
  345TMC3    C7 5232   2.119   0.293  10.441 -0.3802  0.3678 -0.3445
  345TMC3    C8 5233   2.533   0.180  10.638 -0.5845  0.5073  0.0050
  345TMC3    O1 5234   2.133   0.393  10.507 -0.1605 -0.2834  0.4099
  345TMC3    O2 5235   2.626   0.104  10.662  0.6120  0.0461  0.5582
  346MPD2     C 5236   2.704   1.729  14.909 -0.5374  0.4307 -0.5809
  346MPD2    C1 5237   2.734   1.809  14.800  0.1815  0.7701  0.9252
  346MPD2    C2 5238   2.821   1.919  14.822  0.1942 -0.3414 -0.6367
  346MPD2    C3 5239   2.902   1.926  14.934  0.6359 -0.1369 -0.4147
  346MPD2    C4 5240   2.868   1.846  15.041  0.3133 -0.2198 -0.2562
  346MPD2    C5 5241   2.773   1.749  15.032  0.1228  0.0941  0.1802
  346MPD2     H 5242   2.836   1.998  14.749  0.1510  1.1857  1.0012
  346MPD2    H1 5243   2.914   1.858  15.138  0.1830 -0.8005 -0.1261
  346MPD2    H2 5244   2.634   1.647  14.899  0.2679 -0.4928  1.1939
  346MPD2    H3 5245   2.749   1.692  15.121 -1.6908  1.7257  0.7251
  346MPD2     N 5246   3.003   2.023  14.940  0.3791 -0.1936 -0.0053
  346MPD2    H5 5247   3.041   2.062  14.855 -1.5967  1.7387 -0.0092
  346MPD2    N1 5248   2.684   1.786  14.670  0.3081 -0.4708 -0.4261
  346MPD2    H7 5249   2.712   1.842  14.590  1.6210 -0.6093 -0.0671
  347TMC3    C1 5250   3.186   2.150  15.028 -0.4221 -1.2547 -0.0273
  347TMC3    C2 5251   3.254   2.105  14.916  0.1892 -0.2973  0.7346
  347TMC3    C3 5252   3.388   2.124  14.922 -0.0227  0.1519 -0.6467
  347TMC3    C4 5253   3.236   2.217  15.133 -0.0240 -0.7076  0.3016
  347TMC3    C5 5254   3.367   2.252  15.117 -0.0805  0.1843  0.3412
  347TMC3    C6 5255   3.446   2.210  15.009  0.3235  0.4634  0.0523
  347TMC3     C 5256   3.058   2.077  15.053 -0.3838  0.8118 -0.9444
  347TMC3     O 5257   3.016   2.077  15.168  0.1710 -0.4512 -0.4711
  347TMC3     H 5258   3.218   2.026  14.851  0.0677  1.3517 -1.1692
  347TMC3    H1 5259   3.176   2.258  15.214  1.5251  1.5624  0.2900
  347TMC3    H2 5260   3.553   2.221  15.016  0.4700  0.2156 -1.7994
  347TMC3    C7 5261   3.435   2.304  15.233 -0.0358 -1.1747  0.7986
  347TMC3    C8 5262   3.467   2.055  14.816 -0.1764 -0.0805  0.2530
  347TMC3    O1 5263   3.376   2.310  15.342 -0.4041 -0.3060  0.4120
  347TMC3    O2 5264   3.433   1.945  14.779 -0.2220  0.1125 -0.3524
  348MPD2     C 5265   0.843   1.224  11.961  0.0509 -0.1104  0.1658
  348MPD2    C1 5266   0.970   1.276  11.932 -0.0458  0.3221 -0.1037
  348MPD2    C2 5267   0.977   1.348  11.809  0.3933  0.1293  0.4099
  348MPD2    C3 5268   0.872   1.366  11.720 -0.3776  0.5698 -0.4591
  348MPD2    C4 5269   0.751   1.310  11.757  0.0540  0.0789  0.5820
  348MPD2    C5 5270   0.736   1.250  11.883  0.0896 -0.6276  0.3417
  348MPD2     H 5271   1.072   1.393  11.780  0.7624 -0.8182  0.1413
  348MPD2    H1 5272   0.671   1.323  11.685 -0.0352 -2.5940  0.2250
  348MPD2    H2 5273   0.829   1.176  12.058  2.7363 -1.6743 -0.2173
  348MPD2    H3 5274   0.643   1.201  11.910 -0.6244 -0.2198 -1.3867
  348MPD2     N 5275   0.895   1.452  11.612 -0.2664 -0.0173  0.1450
  348MPD2    H5 5276   0.988   1.490  11.603  0.7695 -2.7531 -0.8198
  348MPD2    N1 5277   1.089   1.261  12.017 -0.4672  0.5613 -1.2940
  348MPD2    H7 5278   1.177   1.302  11.986 -0.4369  1.3386 -0.1943
  349TMC3    C1 5279   1.219   1.158  12.183 -0.2664  0.1534 -0.7596
  349TMC3    C2 5280   1.226   1.048  12.260 -0.7228  0.0029 -1.3652
  349TMC3    C3 5281   1.343   0.983  12.267 -0.9538  0.1790  0.8035
  349TMC3    C4 5282   1.328   1.194  12.110 -0.4770 -0.3563 -0.3794
  349TMC3    C5 5283   1.445   1.120  12.104  0.2172 -0.7634  0.3877
  349TMC3    C6 5284   1.454   1.014  12.187  0.4520  0.4161 -0.0439
  349TMC3     C 5285   1.086   1.202  12.142  0.3163 -1.0141  0.8108
  349TMC3     O 5286   0.994   1.157  12.203 -0.2020 -0.5197 -0.2038
  349TMC3     H 5287   1.150   1.021  12.333  1.0509  0.3518  0.6355
  349TMC3    H1 5288   1.335   1.280  12.044  2.4225 -1.7311 -1.8445
  349TMC3    H2 5289   1.541   0.950  12.191  0.0378 -0.0628  1.3041
  349TMC3    C7 5290   1.492   1.106  11.971  0.0564 -0.5297  0.3702
  349TMC3    C8 5291   1.366   0.878  12.361  0.0431  0.3616  0.1215
  349TMC3    O1 5292   1.441   1.174  11.884 -0.1301  0.1478 -1.4479
  349TMC3    O2 5293   1.487   0.841  12.371  0.4714  0.0345  0.2612
  350MPD2     C 5294   0.082   4.312  10.086  0.3898  0.2503 -0.7538
  350MPD2    C1 5295   0.036   4.197  10.144 -0.2877 -0.5596 -0.5177
  350MPD2    C2 5296   0.076   4.166  10.271 -0.0044 -0.2673 -0.3855
  350MPD2    C3 5297   0.163   4.246  10.347 -0.0548  0.4653 -0.7741
  350MPD2    C4 5298   0.208   4.362  10.289  0.4313  0.0878  0.2739
  350MPD2    C5 5299   0.165   4.392  10.161  0.2824 -0.0862 -0.6640
  350MPD2     H 5300   0.036   4.081  10.326  2.6182 -1.7897 -0.8106
  350MPD2    H1 5301   0.289   4.424  10.326 -0.5439  2.0263 -0.8756
  350MPD2    H2 5302   0.055   4.344   9.986  1.0166  0.1917 -0.9391
  350MPD2    H3 5303   0.208   4.480  10.114  2.6481  0.6168  2.8025
  350MPD2     N 5304   0.191   4.210  10.478 -0.2991  0.2445 -0.2597
  350MPD2    H5 5305   0.159   4.118  10.506  0.6605 -0.1342 -0.4035
  350MPD2    N1 5306   4.681   4.111  10.081  0.3892  0.0730 -0.5420
  350MPD2    H7 5307   4.648   4.029  10.130  0.6891  0.2845  0.0169
  351TMC3    C1 5308   4.528   4.032   9.935  0.5679 -0.4033  0.1436
  351TMC3    C2 5309   4.556   3.909  10.001 -0.0905 -0.0020 -0.4028
  351TMC3    C3 5310   4.469   3.809   9.984  1.1632 -0.4187  0.0617
  351TMC3    C4 5311   4.408   4.065   9.881 -0.0541  0.0881  0.2697
  351TMC3    C5 5312   4.316   3.960   9.869  0.1333 -0.6252  0.0495
  351TMC3    C6 5313   4.349   3.833   9.917  0.0889 -0.1772 -0.1292
  351TMC3     C 5314   4.615   4.142   9.965 -0.8495 -0.2342  0.3755
  351TMC3     O 5315   4.614   4.243   9.900  0.0447  0.1235  0.5918
  351TMC3     H 5316   4.662   3.893  10.020 -0.6943  1.1763  3.8794
  351TMC3    H1 5317   4.379   4.163   9.843  2.3057  1.0990  1.1036
  351TMC3    H2 5318   4.285   3.747   9.900 -0.8962  0.9593 -2.1453
  351TMC3    C7 5319   4.180   3.990   9.829 -0.2541  0.2634 -0.2546
  351TMC3    C8 5320   4.516   3.672   9.998  0.2715 -0.5883 -0.3536
  351TMC3    O1 5321   4.173   4.104   9.779  0.1379  0.3197 -0.0630
  351TMC3    O2 5322   4.459   3.589   9.928 -0.4426  0.1354  0.5947
  352MPD2     C 5323   4.102   1.901   1.141 -0.2068 -0.2445  0.7618
  352MPD2    C1 5324   4.048   1.822   1.045 -0.3201  1.1831 -0.2999
  352MPD2    C2 5325   4.106   1.688   1.030  0.0941 -0.5491 -0.1276
  352MPD2    C3 5326   4.223   1.657   1.096 -0.6753 -0.2338 -0.4502
  352MPD2    C4 5327   4.261   1.733   1.205  0.0661  0.4113  0.2472
  352MPD2    C5 5328   4.203   1.857   1.220 -0.4322 -0.0117  0.6618
  352MPD2     H 5329   4.059   1.619   0.960 -0.8578  0.7370 -0.7690
  352MPD2    H1 5330   4.340   1.693   1.266 -1.9509 -1.8760  1.3369
  352MPD2    H2 5331   4.067   2.002   1.154 -1.6854 -0.4289 -1.8800
  352MPD2    H3 5332   4.223   1.919   1.306 -0.9915  0.0568  0.7394
  352MPD2     N 5333   4.291   1.536   1.080  0.5169  0.2812 -0.4760
  352MPD2    H5 5334   4.362   1.504   1.145  0.0190  1.0957  0.4726
  352MPD2    N1 5335   3.933   1.856   0.973 -0.0584  0.0924  0.7168
  352MPD2    H7 5336   3.905   1.807   0.889 -1.2168 -0.4799  1.4404
  353TMC3    C1 5337   4.352   1.341   0.968 -0.2297  0.0205 -0.0120
  353TMC3    C2 5338   4.376   1.285   1.091 -0.2951 -0.6433 -0.0712
  353TMC3    C3 5339   4.382   1.147   1.092  0.1128  0.1963 -0.1061
  353TMC3    C4 5340   4.346   1.274   0.853 -0.8578  0.1945 -0.2237
  353TMC3    C5 5341   4.366   1.138   0.861 -0.4272  0.3637 -0.9358
  353TMC3    C6 5342   4.390   1.073   0.978  0.6349  0.1017 -0.1995
  353TMC3     C 5343   4.284   1.470   0.960 -0.7172 -0.0027  0.4280
  353TMC3     O 5344   4.238   1.506   0.855 -0.1808 -0.3226 -0.1324
  353TMC3     H 5345   4.380   1.337   1.185  1.8865 -1.3449  0.2339
  353TMC3    H1 5346   4.309   1.314   0.760  1.3972  0.8769 -0.8257
  353TMC3    H2 5347   4.431   0.973   0.971  0.9609  0.1291  1.1878
  353TMC3    C7 5348   4.339   1.040   0.750  0.6425  1.1016  0.2095
  353TMC3    C8 5349   4.391   1.083   1.223  0.2216 -0.2834 -0.1509
  353TMC3    O1 5350   4.299   0.930   0.779 -0.2186  0.3634 -0.4274
  353TMC3    O2 5351   4.406   1.152   1.322  0.1608 -0.6023 -0.3042
  354TMC3    C1 5352   1.021   2.361  13.656 -0.0946  0.2505  0.6718
  354TMC3    C2 5353   0.953   2.451  13.573 -0.2903  0.2285  0.2492
  354TMC3    C3 5354   1.002   2.484  13.457 -0.2495 -0.6107 -0.2739
  354TMC3    C4 5355   1.135   2.294  13.621 -0.1382 -0.2367 -0.6464
  354TMC3    C5 5356   1.184   2.339  13.504  0.4368 -0.1806  0.5911
  354TMC3    C6 5357   1.118   2.423  13.418 -0.5999 -0.2889  0.7443
  354TMC3     C 5358   0.974   2.344  13.796 -0.4798 -0.3823 -0.2920
  354TMC3     O 5359   0.998   2.235  13.845  0.3774 -0.2499 -0.3345
  354TMC3     H 5360   0.856   2.487  13.608 -1.0665  1.4709 -3.2512
  354TMC3    H1 5361   1.199   2.250  13.697 -0.6679  0.7018  0.3382
  354TMC3    H2 5362   1.151   2.431  13.315  1.3491 -0.3974  1.3623
  354TMC3    C7 5363   1.317   2.298  13.471  0.4423  0.4571  0.2153
  354TMC3    C8 5364   0.938   2.582  13.376  0.1642  0.2156 -1.1930
  354TMC3    O1 5365   1.368   2.205  13.530  0.1222 -0.4326  0.5082
  354TMC3    O2 5366   0.948   2.577  13.254  0.1609  0.3219  0.2622
  355MPD2     C 5367   0.589   3.179  11.700  0.0791 -0.0213 -0.3025
  355MPD2    C1 5368   0.675   3.178  11.597 -0.1764  0.4540 -0.5074
  355MPD2    C2 5369   0.808   3.181  11.633 -0.2315 -0.1335  0.1558
  355MPD2    C3 5370   0.851   3.190  11.767 -0.6856  0.0171 -0.3087
  355MPD2    C4 5371   0.755   3.192  11.867 -0.1648 -0.0749  0.1427
  355MPD2    C5 5372   0.621   3.186  11.832  0.6329 -0.7679 -0.4238
  355MPD2     H 5373   0.878   3.175  11.550 -1.1888 -0.8830 -0.5998
  355MPD2    H1 5374   0.772   3.209  11.973  2.5755 -2.0101  0.0444
  355MPD2    H2 5375   0.483   3.167  11.678  0.0858 -0.0612 -0.3130
  355MPD2    H3 5376   0.558   3.216  11.915 -0.8513 -2.8537 -0.8176
  355MPD2     N 5377   0.986   3.228  11.800  0.3457  0.4178  0.4761
  355MPD2    H5 5378   1.003   3.254  11.896 -1.3736 -0.1347  0.9140
  355MPD2    N1 5379   0.623   3.172  11.467  0.1765  0.1711 -0.1780
  355MPD2    H7 5380   0.535   3.121  11.456 -0.1462  0.7296 -0.1726
  356TMC3    C1 5381   1.192   3.338  11.764  0.8772  0.2054 -0.4700
  356TMC3    C2 5382   1.264   3.416  11.680  0.6111  0.0883  0.7502
  356TMC3    C3 5383   1.322   3.530  11.708 -0.0510  0.4065 -0.3059
  356TMC3    C4 5384   1.178   3.380  11.893  0.9205 -0.2698  0.1956
  356TMC3    C5 5385   1.236   3.503  11.917 -1.1575  0.9480 -0.1147
  356TMC3    C6 5386   1.314   3.577  11.835 -0.4464  0.0131 -0.1355
  356TMC3     C 5387   1.094   3.241  11.712 -0.3965  0.0084  0.4757
  356TMC3     O 5388   1.104   3.212  11.591 -0.2909  0.5154 -0.0520
  356TMC3     H 5389   1.281   3.384  11.578 -0.1847  3.8983 -0.5975
  356TMC3    H1 5390   1.118   3.334  11.970 -1.0281  1.3478 -0.3569
  356TMC3    H2 5391   1.364   3.671  11.858  0.2287 -0.6805  1.1933
  356TMC3    C7 5392   1.223   3.550  12.050 -0.1425 -0.1954 -0.2582
  356TMC3    C8 5393   1.387   3.594  11.595 -0.2476 -0.0612 -0.2491
  356TMC3    O1 5394   1.149   3.487  12.129  0.2140  0.3540  0.4447
  356TMC3    O2 5395   1.329   3.587  11.488  0.8556  0.0066  1.0423
  357MPD2     C 5396   1.213   3.437   2.392 -0.4432 -1.3014  0.7885
  357MPD2    C1 5397   1.105   3.362   2.345 -0.5906 -0.1850 -0.0011
  357MPD2    C2 5398   0.984   3.430   2.332  0.1783 -0.9284  0.1057
  357MPD2    C3 5399   0.984   3.563   2.348  0.0721  0.0995 -0.2066
  357MPD2    C4 5400   1.095   3.635   2.385  0.3530  0.0913 -0.2612
  357MPD2    C5 5401   1.211   3.566   2.415  0.1907  0.8431  0.1066
  357MPD2     H 5402   0.894   3.381   2.299 -0.2926  1.3565 -1.9981
  357MPD2    H1 5403   1.088   3.743   2.395 -0.2355  0.1590 -1.4306
  357MPD2    H2 5404   1.310   3.390   2.400  0.4629  0.4458 -0.0767
  357MPD2    H3 5405   1.290   3.628   2.457  0.3516 -0.0503  1.1253
  357MPD2     N 5406   0.870   3.642   2.322 -0.2556 -0.4385 -0.3539
  357MPD2    H5 5407   0.883   3.742   2.309  2.0935 -0.3023  2.9116
  357MPD2    N1 5408   1.125   3.228   2.300 -0.3048 -0.6549  0.3023
  357MPD2    H7 5409   1.212   3.185   2.331  0.7887  1.2032 -0.1811
  358TMC3    C1 5410   1.092   3.035   2.170 -0.3089  0.2534  0.5660
  358TMC3    C2 5411   1.018   2.996   2.060 -0.3316  0.8873 -0.6407
  358TMC3    C3 5412   1.079   2.937   1.958 -0.0046  0.1323 -0.6707
  358TMC3    C4 5413   1.226   3.023   2.166 -0.0372  0.1658 -0.5589
  358TMC3    C5 5414   1.286   2.972   2.055  0.7609 -0.5582  0.2079
  358TMC3    C6 5415   1.212   2.926   1.949  0.0050  0.0981 -1.1218
  358TMC3     C 5416   1.037   3.158   2.223 -0.0507  0.4503  0.1906
  358TMC3     O 5417   0.937   3.199   2.171 -0.2598 -0.3846  0.9088
  358TMC3     H 5418   0.911   2.983   2.071 -0.1466  0.1490  0.3588
  358TMC3    H1 5419   1.286   3.044   2.254  2.7994 -0.2079 -2.4306
  358TMC3    H2 5420   1.258   2.937   1.851 -2.0309  0.6206 -2.0117
  358TMC3    C7 5421   1.430   2.959   2.072  0.2256  0.8348  0.4425
  358TMC3    C8 5422   1.011   2.960   1.834 -0.6175  0.3740 -0.2345
  358TMC3    O1 5423   1.484   3.038   2.152 -0.1739 -0.1332  0.1192
  358TMC3    O2 5424   1.034   2.883   1.741 -0.2111  0.2610  0.8631
  359MPD2     C 5425   0.997   2.254  12.596  0.4320 -0.1624 -0.4639
  359MPD2    C1 5426   0.911   2.255  12.485  0.2585 -0.5716 -0.8208
  359MPD2    C2 5427   0.791   2.197  12.492 -0.8211 -0.0567 -0.0960
  359MPD2    C3 5428   0.753   2.122  12.601  0.6422  0.0478  0.3095
  359MPD2    C4 5429   0.839   2.127  12.717 -0.4806 -0.3804  0.3698
  359MPD2    C5 5430   0.953   2.206  12.713  0.1870  0.0927 -0.5870
  359MPD2     H 5431   0.738   2.205  12.397 -2.3157  0.8082  0.8060
  359MPD2    H1 5432   0.819   2.075  12.809  0.9243  1.1460  1.5263
  359MPD2    H2 5433   1.096   2.298  12.593 -0.7276  2.4119 -1.4075
  359MPD2    H3 5434   1.025   2.197  12.794  0.6072  0.2384 -0.9399
  359MPD2     N 5435   0.650   2.027  12.594 -0.1091  0.2022 -0.0046
  359MPD2    H5 5436   0.652   1.964  12.674  2.8299  0.2799 -0.0200
  359MPD2    N1 5437   0.951   2.317  12.367  0.6822  0.7361 -0.0732
  359MPD2    H7 5438   0.883   2.313  12.291 -1.3504 -0.1943  1.7748
  360TMC3    C1 5439   1.096   2.397  12.192 -0.4602 -0.1032  0.5618
  360TMC3    C2 5440   1.222   2.379  12.142 -0.4772 -0.3088 -0.6353
  360TMC3    C3 5441   1.240   2.368  12.008  0.4710 -0.1242 -0.3764
  360TMC3    C4 5442   0.990   2.396  12.108 -0.8509 -0.1978  0.7145
  360TMC3    C5 5443   1.011   2.364  11.976  0.1631  0.3251  0.1739
  360TMC3    C6 5444   1.134   2.360  11.917  0.3101  0.2199  0.1855
  360TMC3     C 5445   1.074   2.378  12.333  0.2069 -0.0070  0.3276
  360TMC3     O 5446   1.173   2.404  12.397  0.1505 -0.2055 -0.1071
  360TMC3     H 5447   1.307   2.401  12.205 -0.5915 -0.9545 -0.2508
  360TMC3    H1 5448   0.890   2.396  12.148 -1.1719  0.5255 -0.0936
  360TMC3    H2 5449   1.156   2.363  11.810  0.6240  0.0918  0.2436
  360TMC3    C7 5450   0.898   2.368  11.878  0.0595  0.0235  0.7809
  360TMC3    C8 5451   1.365   2.408  11.953  0.3039  0.3341 -0.4633
  360TMC3    O1 5452   0.798   2.429  11.913 -0.1646 -0.0966  0.0763
  360TMC3    O2 5453   1.407   2.514  11.994 -0.0196 -0.1297  0.4211
  361MPD2     C 5454   2.802   0.752  16.347 -0.0868 -1.0632 -0.1383
  361MPD2    C1 5455   2.801   0.858  16.434  0.0407  1.0506 -0.8781
  361MPD2    C2 5456   2.895   0.857  16.536 -0.0823 -0.0617 -0.1961
  361MPD2    C3 5457   2.993   0.765  16.544  0.0210  0.2841  0.3233
  361MPD2    C4 5458   3.007   0.673  16.445  0.2996 -0.1372  0.8288
  361MPD2    C5 5459   2.905   0.661  16.350  0.3093  0.0595  0.0825
  361MPD2     H 5460   2.883   0.931  16.614 -2.5684  0.1471 -0.7462
  361MPD2    H1 5461   3.076   0.591  16.461 -2.3750 -2.7125 -1.0379
  361MPD2    H2 5462   2.731   0.731  16.268  0.8543 -4.2400 -0.1374
  361MPD2    H3 5463   2.907   0.586  16.272  0.5958 -0.4911  0.6209
  361MPD2     N 5464   3.077   0.747  16.661 -0.2126  0.2239 -0.3549
  361MPD2    H5 5465   3.141   0.669  16.662 -1.4123 -0.7797 -1.8019
  361MPD2    N1 5466   2.699   0.956  16.435 -0.3627 -0.2962  0.0104
  361MPD2    H7 5467   2.709   1.037  16.494  0.0456 -0.8648  0.7230
  362TMC3    C1 5468   2.516   1.094  16.381 -0.0505 -0.5155  0.2646
  362TMC3    C2 5469   2.490   1.126  16.517 -0.0343  0.4109  0.8169
  362TMC3    C3 5470   2.419   1.230  16.555  0.1736 -0.3064 -0.0347
  362TMC3    C4 5471   2.482   1.176  16.282 -0.1437  0.1951 -0.4658
  362TMC3    C5 5472   2.434   1.295  16.326  0.4700 -0.7815 -0.5984
  362TMC3    C6 5473   2.407   1.326  16.460 -0.3172  0.4663 -0.4297
  362TMC3     C 5474   2.599   0.975  16.346  0.1806 -0.1067 -0.2023
  362TMC3     O 5475   2.574   0.915  16.245  0.1730  0.2812  0.0090
  362TMC3     H 5476   2.494   1.040  16.582  1.0181 -0.8323 -0.8873
  362TMC3    H1 5477   2.525   1.162  16.183  0.6747  0.4752 -0.1482
  362TMC3    H2 5478   2.365   1.422  16.491  1.4805  0.4111  2.1939
  362TMC3    C7 5479   2.438   1.408  16.240 -0.8831  0.0660 -0.3457
  362TMC3    C8 5480   2.468   1.282  16.683  0.8741 -0.1226 -0.5341
  362TMC3    O1 5481   2.440   1.520  16.297  0.5654 -0.4444 -0.0819
  362TMC3    O2 5482   2.579   1.247  16.721  0.0519  0.0045 -0.8259
  363TMC3    C1 5483   0.330   3.215   9.876  1.0193  0.2339  0.4774
  363TMC3    C2 5484   0.385   3.131   9.966  0.4104  0.3704  0.4851
  363TMC3    C3 5485   0.397   3.177  10.092 -0.0096  0.7439 -0.2242
  363TMC3    C4 5486   0.288   3.337   9.908  0.5176 -0.0685  0.3374
  363TMC3    C5 5487   0.311   3.391  10.030 -0.5080 -0.2277 -0.6348
  363TMC3    C6 5488   0.369   3.308  10.121  0.1546  0.1987 -0.0040
  363TMC3     C 5489   0.277   3.153   9.754 -0.0245 -0.1492 -0.6466
  363TMC3     O 5490   0.322   3.039   9.732  0.1969  0.4185 -0.5985
  363TMC3     H 5491   0.392   3.027   9.938  1.4832  1.3830 -2.9590
  363TMC3    H1 5492   0.258   3.407   9.832  2.8890 -0.9875 -1.4440
  363TMC3    H2 5493   0.397   3.345  10.219 -0.0471 -2.1575  0.9486
  363TMC3    C7 5494   0.291   3.532  10.058  0.2220  0.5314 -0.8645
  363TMC3    C8 5495   0.450   3.090  10.190  0.3210 -0.4619 -0.0011
  363TMC3    O1 5496   0.354   3.577  10.153 -0.5008  0.1797  0.3059
  363TMC3    O2 5497   0.442   3.125  10.309  0.4844  0.0085 -0.1010
  364MPD2     C 5498   0.045   3.196  10.623 -0.0395 -0.1094  0.6781
  364MPD2    C1 5499   4.716   3.082  10.567  0.0371 -0.3209  0.4390
  364MPD2    C2 5500   0.009   2.955  10.613  0.1584  0.0013  0.1010
  364MPD2    C3 5501   0.096   2.934  10.722  0.5185 -0.6113  0.3353
  364MPD2    C4 5502   0.165   3.042  10.765  0.0787 -0.1869 -0.2240
  364MPD2    C5 5503   0.138   3.171  10.721  0.0288  0.5889 -0.4737
  364MPD2     H 5504   4.684   2.877  10.570  2.2209 -1.0607 -0.9500
  364MPD2    H1 5505   0.240   3.030  10.842  0.2266  1.9331 -0.0223
  364MPD2    H2 5506   0.029   3.299  10.593 -0.0072 -0.5133 -0.7360
  364MPD2    H3 5507   0.196   3.256  10.757  0.1714 -0.4375  1.6939
  364MPD2     N 5508   0.133   2.808  10.777 -0.1029  0.4432  0.0310
  364MPD2    H5 5509   0.198   2.800  10.854 -0.2243 -0.8639 -0.0081
  364MPD2    N1 5510   4.619   3.109  10.461 -0.4741  0.5191 -0.3143
  364MPD2    H7 5511   4.577   3.202  10.465  0.4789  0.8531  2.1421
  365TMC3    C1 5512   4.466   3.065  10.295  0.0766  0.3649  0.0085
  365TMC3    C2 5513   4.437   2.983  10.184 -0.3403 -0.8641  0.3813
  365TMC3    C3 5514   4.348   3.039  10.101 -0.0093 -0.1035  0.5341
  365TMC3    C4 5515   4.414   3.189  10.313 -0.2351  0.2548 -0.3200
  365TMC3    C5 5516   4.327   3.237  10.221 -0.5703 -0.2885  0.6552
  365TMC3    C6 5517   4.299   3.165  10.109  0.0674 -0.1014 -0.1286
  365TMC3     C 5518   4.573   3.018  10.374  0.1409 -0.1322  0.5534
  365TMC3     O 5519   4.622   2.910  10.349  0.0014  0.7706 -0.4185
  365TMC3     H 5520   4.473   2.881  10.181  0.8460 -0.3726 -1.8700
  365TMC3    H1 5521   4.423   3.251  10.401  1.3444 -1.9644  1.0725
  365TMC3    H2 5522   4.230   3.212  10.040 -0.5635 -0.0058  0.5657
  365TMC3    C7 5523   4.297   3.380  10.221 -0.7282  0.1082 -0.2961
  365TMC3    C8 5524   4.291   2.961   9.987  0.1293  0.6466  0.0303
  365TMC3    O1 5525   4.318   3.443  10.118  0.0799  0.2467  0.2105
  365TMC3    O2 5526   4.227   3.032   9.911 -0.0233 -0.1047  0.1401
  366MPD2     C 5527   3.447   3.625  15.404 -0.1076  0.1031  0.4255
  366MPD2    C1 5528   3.502   3.713  15.494 -0.0454 -0.1337 -0.3172
  366MPD2    C2 5529   3.639   3.719  15.514  0.2875  0.0480 -0.3675
  366MPD2    C3 5530   3.725   3.650  15.427 -0.3446  0.6293 -0.4571
  366MPD2    C4 5531   3.670   3.561  15.342  0.2943  0.4925  0.0880
  366MPD2    C5 5532   3.537   3.548  15.332  0.0010  0.3124  0.2736
  366MPD2     H 5533   3.682   3.777  15.595 -0.8345  0.1387  0.1751
  366MPD2    H1 5534   3.733   3.494  15.284 -1.5254 -0.3715 -0.8886
  366MPD2    H2 5535   3.345   3.602  15.375 -0.3034 -0.3019  1.4426
  366MPD2    H3 5536   3.494   3.476  15.263  0.3169  1.4305 -1.0855
  366MPD2     N 5537   3.863   3.652  15.428 -0.2245 -0.3605 -0.1013
  366MPD2    H5 5538   3.909   3.581  15.372 -0.0257  0.4775 -1.0049
  366MPD2    N1 5539   3.417   3.799  15.565 -0.5825  0.0162  0.2624
  366MPD2    H7 5540   3.463   3.881  15.602  1.4836 -1.3167  0.6757
  367TMC3    C1 5541   3.218   3.903  15.633  0.2567 -0.0963 -1.0342
  367TMC3    C2 5542   3.273   3.948  15.752 -1.4385 -0.1917  0.4873
  367TMC3    C3 5543   3.231   4.072  15.791 -0.1844  0.2287  1.1885
  367TMC3    C4 5544   3.113   3.960  15.567 -0.2644  0.2079 -0.3608
  367TMC3    C5 5545   3.070   4.081  15.612 -0.1125 -0.4819  0.6527
  367TMC3    C6 5546   3.133   4.140  15.715 -0.3963 -0.1609 -0.1283
  367TMC3     C 5547   3.277   3.789  15.570  0.2877 -1.0188  0.4249
  367TMC3     O 5548   3.205   3.696  15.538  0.3154  0.4305  0.0016
  367TMC3     H 5549   3.365   3.905  15.790 -1.5267 -2.0793 -1.3792
  367TMC3    H1 5550   3.068   3.915  15.479 -0.9555  0.3940 -0.1034
  367TMC3    H2 5551   3.105   4.238  15.751 -0.2581 -1.0405  2.3240
  367TMC3    C7 5552   2.994   4.168  15.523 -0.4898 -0.1467  0.0752
  367TMC3    C8 5553   3.330   4.151  15.859 -0.1894  0.1049  0.7200
  367TMC3    O1 5554   2.998   4.289  15.548 -0.5277 -0.8980 -0.0006
  367TMC3    O2 5555   3.441   4.097  15.850  0.5454  0.4261  0.4743
  368MPD2     C 5556   4.230   1.348  13.735  0.0399 -0.4945 -0.1003
  368MPD2    C1 5557   4.223   1.440  13.634 -1.1825 -0.3088 -0.6533
  368MPD2    C2 5558   4.304   1.433  13.523  0.4508  0.4777  0.0684
  368MPD2    C3 5559   4.391   1.327  13.523 -0.2896  0.1651  0.1440
  368MPD2    C4 5560   4.417   1.246  13.635 -0.1503  0.0207 -0.0947
  368MPD2    C5 5561   4.329   1.254  13.742 -0.7220 -0.6968 -0.5809
  368MPD2     H 5562   4.284   1.506  13.446  0.1528  1.4070  1.0223
  368MPD2    H1 5563   4.494   1.170  13.627 -1.2185 -1.0882  0.2783
  368MPD2    H2 5564   4.151   1.349  13.809  0.9698  3.9254  0.7977
  368MPD2    H3 5565   4.346   1.191  13.828  1.0411  0.8092  0.1798
  368MPD2     N 5566   4.475   1.299  13.414 -0.0868  0.6124 -0.1292
  368MPD2    H5 5567   4.548   1.229  13.421 -2.6027 -2.0449 -0.2783
  368MPD2    N1 5568   4.118   1.533  13.661  0.9167 -0.5302 -0.3537
  368MPD2    H7 5569   4.051   1.508  13.733 -1.0891  0.6996 -1.8155
  369TMC3    C1 5570   3.981   1.728  13.616  0.1818 -0.9673  0.2456
  369TMC3    C2 5571   3.974   1.839  13.543  0.0145 -0.3736  0.0742
  369TMC3    C3 5572   3.862   1.863  13.469  0.6821  0.6994 -0.5947
  369TMC3    C4 5573   3.869   1.667  13.659 -0.7138  0.6309 -0.7469
  369TMC3    C5 5574   3.751   1.687  13.591  0.5522  0.0596  0.2819
  369TMC3    C6 5575   3.753   1.784  13.486 -0.1110  0.1220  0.5367
  369TMC3     C 5576   4.098   1.647  13.583  0.0461  0.5280  0.4225
  369TMC3     O 5577   4.157   1.692  13.487 -0.6272 -0.5429  1.4639
  369TMC3     H 5578   4.068   1.889  13.523  0.0482 -1.0717 -1.4964
  369TMC3    H1 5579   3.870   1.585  13.730  0.1303 -0.4350 -2.0080
  369TMC3    H2 5580   3.670   1.795  13.417  0.9895  0.5402 -0.7132
  369TMC3    C7 5581   3.642   1.595  13.616  0.1908  0.4359  0.6944
  369TMC3    C8 5582   3.886   1.908  13.329  0.2913 -0.8263  0.3300
  369TMC3    O1 5583   3.646   1.539  13.726 -0.2866  0.2912  0.2701
  369TMC3    O2 5584   3.783   1.935  13.262  0.4960  0.0390  0.5033
  370TMC3    C1 5585   4.075   1.940  16.161  0.8230  0.3872 -0.0990
  370TMC3    C2 5586   3.981   1.863  16.221  0.4322 -0.8002  0.5666
  370TMC3    C3 5587   3.907   1.779  16.151  0.0676  0.1727  0.0916
  370TMC3    C4 5588   4.112   1.910  16.025 -0.4622  0.1942 -0.1056
  370TMC3    C5 5589   4.041   1.818  15.958 -0.6703 -0.0112 -0.0224
  370TMC3    C6 5590   3.940   1.746  16.020 -0.3181 -0.1948 -0.1771
  370TMC3     C 5591   4.179   2.006  16.244 -0.1213 -0.2998  0.1352
  370TMC3     O 5592   4.188   1.965  16.361  0.0345  0.5440 -0.2298
  370TMC3     H 5593   3.966   1.879  16.327 -0.2568  0.7228  0.2466
  370TMC3    H1 5594   4.204   1.948  15.983 -0.2368 -0.1798  0.0530
  370TMC3    H2 5595   3.877   1.678  15.962 -1.4943  0.1797  0.6528
  370TMC3    C7 5596   4.116   1.746  15.852  0.0172 -0.0120  0.3559
  370TMC3    C8 5597   3.833   1.684  16.223  0.4829 -0.2635  0.3246
  370TMC3    O1 5598   4.197   1.820  15.802 -0.2780  0.3231  0.4594
  370TMC3    O2 5599   3.803   1.580  16.160 -0.1151  0.3651  0.1772
  371TMC3    C1 5600   0.626   0.427  15.415 -0.0423  0.1446  0.3976
  371TMC3    C2 5601   0.498   0.384  15.436  0.0631 -0.1694 -0.0493
  371TMC3    C3 5602   0.398   0.476  15.454 -0.2007 -0.3143  0.7345
  371TMC3    C4 5603   0.658   0.555  15.392  1.0564 -0.3439 -0.3350
  371TMC3    C5 5604   0.555   0.647  15.408 -0.5446  0.1941  0.4248
  371TMC3    C6 5605   0.424   0.607  15.437 -0.0009  0.0794  0.2391
  371TMC3     C 5606   0.733   0.343  15.465 -0.1931 -0.1475  0.4073
  371TMC3     O 5607   0.840   0.402  15.471  0.2602  0.3019  0.1846
  371TMC3     H 5608   0.474   0.278  15.439 -1.1112  0.1089  0.4655
  371TMC3    H1 5609   0.759   0.590  15.380  1.7246 -2.5602 -1.1394
  371TMC3    H2 5610   0.349   0.683  15.454  1.2804  1.0897  1.4342
  371TMC3    C7 5611   0.595   0.782  15.402  0.3790  0.2507  0.2977
  371TMC3    C8 5612   0.269   0.423  15.493  0.5055 -0.1797  0.2188
  371TMC3    O1 5613   0.538   0.857  15.483 -0.5650  0.5330  0.1076
  371TMC3    O2 5614   0.272   0.303  15.496  0.0018  0.5111 -0.5887
  372MPD2     C 5615   0.048   1.578  13.443 -0.1444  0.3984 -0.6812
  372MPD2    C1 5616   0.166   1.509  13.439 -0.1634  0.2958 -0.6081
  372MPD2    C2 5617   0.171   1.383  13.505  0.5981  0.1430  0.1316
  372MPD2    C3 5618   0.075   1.354  13.606  0.0926  0.1410 -0.0135
  372MPD2    C4 5619   4.705   1.441  13.620  0.0898  0.4139 -0.3208
  372MPD2    C5 5620   4.694   1.542  13.535  0.4010 -0.0464  0.5211
  372MPD2     H 5621   0.255   1.315  13.495  0.9022  0.2308  2.0446
  372MPD2    H1 5622   4.629   1.422  13.696  2.7211  0.4339  2.3170
  372MPD2    H2 5623   0.026   1.667  13.386  1.9245  1.8958  0.8845
  372MPD2    H3 5624   4.608   1.608  13.545  0.0648 -0.4007 -0.0044
  372MPD2     N 5625   0.074   1.230  13.674 -0.0489  0.4374 -0.3276
  372MPD2    H5 5626   0.142   1.159  13.648  1.2936  1.3468  0.7297
  372MPD2    N1 5627   0.275   1.547  13.353 -0.3179 -0.0566 -0.7570
  372MPD2    H7 5628   0.363   1.501  13.372 -1.0342 -2.3341 -2.8658
  373TMC3    C1 5629   0.005   1.052  13.832 -0.6984 -0.0037  0.7117
  373TMC3    C2 5630   4.702   1.034  13.963 -0.8332 -0.3930 -0.9250
  373TMC3    C3 5631   4.726   0.912  14.013 -0.3386  0.0752  0.4391
  373TMC3    C4 5632   0.060   0.961  13.747  0.3837  0.4041 -0.2687
  373TMC3    C5 5633   0.068   0.838  13.801  0.0777 -0.1266  0.0592
  373TMC3    C6 5634   0.035   0.810  13.932 -0.1284 -1.1401 -0.7057
  373TMC3     C 5635   4.732   1.195  13.781  0.3717  0.2413  0.5388
  373TMC3     O 5636   4.655   1.269  13.845  0.1336 -0.3853  0.3113
  373TMC3     H 5637   4.678   1.112  14.034  0.6337  0.3255 -1.2119
  373TMC3    H1 5638   0.089   0.962  13.642 -1.3157 -0.9454 -0.7476
  373TMC3    H2 5639   0.067   0.717  13.977  2.2109  0.5810  1.1438
  373TMC3    C7 5640   0.098   0.725  13.716  0.8251 -0.6970 -1.3802
  373TMC3    C8 5641   0.037   0.926  14.151  0.0435 -0.2158  0.3240
  373TMC3    O1 5642   0.154   0.743  13.610  0.2177  0.2479  0.0688
  373TMC3    O2 5643   4.692   0.936  14.240 -0.3672 -0.7748  0.1206
  374TMC3    C1 5644   0.015   1.168   9.871  0.4929 -0.9662  0.3845
  374TMC3    C2 5645   0.101   1.271   9.833  0.0546 -0.0783 -0.4006
  374TMC3    C3 5646   0.148   1.280   9.704  0.3480  0.4079  0.6558
  374TMC3    C4 5647   4.701   1.078   9.778  0.6961  0.9860 -0.3403
  374TMC3    C5 5648   4.733   1.112   9.644  0.8842 -0.1032  0.0130
  374TMC3    C6 5649   0.087   1.210   9.609 -0.3447  0.4015  0.1975
  374TMC3     C 5650   4.714   1.160  10.011 -0.3616  1.0322 -0.5303
  374TMC3     O 5651   0.036   1.234  10.086 -0.2183 -0.4312  0.1194
  374TMC3     H 5652   0.126   1.340   9.913 -1.8555  1.7960 -1.4352
  374TMC3    H1 5653   4.630   1.001   9.807 -0.6023  2.3237  0.0180
  374TMC3    H2 5654   0.114   1.225   9.505  1.4679 -0.2528  0.5681
  374TMC3    C7 5655   4.652   1.061   9.536  0.1621  0.1001  0.1154
  374TMC3    C8 5656   0.260   1.367   9.666  1.0025 -0.0614  0.4077
  374TMC3    O1 5657   4.692   1.086   9.423 -0.0755 -0.6216  0.2711
  374TMC3    O2 5658   0.294   1.371   9.547 -0.1829 -0.6263  0.4001
  375MPD2     C 5659   0.483   2.727  17.216 -0.2281 -0.2732 -0.5136
  375MPD2    C1 5660   0.400   2.709  17.105  0.3991  1.0946  0.6546
  375MPD2    C2 5661   0.450   2.643  16.996  0.1779 -0.1824 -0.0154
  375MPD2    C3 5662   0.580   2.607  16.991 -0.8033  0.6477  0.1689
  375MPD2    C4 5663   0.664   2.638  17.095  0.2879  0.3430 -0.7615
  375MPD2    C5 5664   0.617   2.699  17.210 -0.0104  0.9533  0.3648
  375MPD2     H 5665   0.382   2.636  16.913 -0.1319 -0.3434  0.2506
  375MPD2    H1 5666   0.768   2.608  17.090  0.2635  0.0081  0.6824
  375MPD2    H2 5667   0.442   2.761  17.310 -1.2752  0.0235 -1.0754
  375MPD2    H3 5668   0.677   2.710  17.300  0.6593 -0.4431  0.0796
  375MPD2     N 5669   0.630   2.539  16.881 -0.3601 -0.5133  0.0947
  375MPD2    H5 5670   0.730   2.552  16.871 -0.3715 -1.5665 -1.4251
  375MPD2    N1 5671   0.262   2.746  17.110 -0.2421 -0.1650 -0.1735
  375MPD2    H7 5672   0.201   2.728  17.032 -1.2010  0.6603  0.3963
  376TMC3    C1 5673   0.648   2.441  16.669 -0.5839 -0.4447 -0.1390
  376TMC3    C2 5674   0.775   2.397  16.704 -0.3162 -0.3335  0.2790
  376TMC3    C3 5675   0.842   2.323  16.611  0.4664  0.1320  0.1567
  376TMC3    C4 5676   0.592   2.416  16.551 -0.1900 -0.4679  0.2265
  376TMC3    C5 5677   0.666   2.345  16.459 -0.1515 -0.8094  0.0808
  376TMC3    C6 5678   0.794   2.303  16.482 -0.6230  0.7359 -0.4562
  376TMC3     C 5679   0.558   2.487  16.774  0.9057  0.1758 -0.0120
  376TMC3     O 5680   0.437   2.476  16.747  0.2473  0.0947  0.3063
  376TMC3     H 5681   0.820   2.401  16.802 -1.8958  1.1361  0.9437
  376TMC3    H1 5682   0.492   2.450  16.528 -0.8171 -1.6187  1.2667
  376TMC3    H2 5683   0.846   2.250  16.403 -0.2499  0.3343  0.0538
  376TMC3    C7 5684   0.609   2.323  16.325 -0.5060  0.6808 -0.6022
  376TMC3    C8 5685   0.988   2.286  16.634 -0.5326 -0.0661 -0.3453
  376TMC3    O1 5686   0.692   2.302  16.241 -0.1767 -0.1010 -0.4402
  376TMC3    O2 5687   1.060   2.275  16.531  0.3833 -0.0026 -0.1377
  377MPD2     C 5688   3.145   1.408  12.794 -0.3137 -0.8747 -0.0017
  377MPD2    C1 5689   3.151   1.501  12.892  0.0976 -0.4624 -0.5363
  377MPD2    C2 5690   3.086   1.473  13.009  0.1630 -0.4815 -0.4796
  377MPD2    C3 5691   3.008   1.356  13.022  0.5162 -0.0001  0.7294
  377MPD2    C4 5692   3.015   1.262  12.927  0.2185  0.3323  0.0405
  377MPD2    C5 5693   3.082   1.289  12.809  0.5440  0.0255  0.3471
  377MPD2     H 5694   3.086   1.550  13.084 -0.5933 -1.6233  0.6901
  377MPD2    H1 5695   2.968   1.164  12.931 -0.6087  0.7478  0.4768
  377MPD2    H2 5696   3.174   1.425  12.691 -3.5049  2.7542 -0.2908
  377MPD2    H3 5697   3.095   1.212  12.733  0.1497  0.8062 -0.5226
  377MPD2     N 5698   2.924   1.334  13.137  0.4115  0.1395 -0.0565
  377MPD2    H5 5699   2.867   1.250  13.137  1.7609 -0.7689  0.1296
  377MPD2    N1 5700   3.212   1.631  12.868 -0.4153  0.5181  0.9796
  377MPD2    H7 5701   3.241   1.655  12.773 -0.5303 -0.3886  0.7058
  378TMC3    C1 5702   3.312   1.965  12.720  0.1932  0.3758  0.5897
  378TMC3    C2 5703   3.246   1.895  12.820  0.4110 -0.3119  0.1671
  378TMC3    C3 5704   3.319   1.825  12.909  0.8778  0.2602  0.4308
  378TMC3    C4 5705   3.448   1.972  12.717 -0.4222  0.4947  0.9431
  378TMC3    C5 5706   3.514   1.901  12.811 -0.4296  0.0525  0.3349
  378TMC3    C6 5707   3.456   1.825  12.901 -0.2634 -0.2461 -0.0090
  378TMC3     C 5708   3.230   2.030  12.621 -0.1848 -0.1763 -0.3267
  378TMC3     O 5709   3.291   2.098  12.539 -0.1457  0.0045 -0.1964
  378TMC3     H 5710   3.143   1.918  12.846  0.6609 -2.4677  3.0927
  378TMC3    H1 5711   3.499   2.024  12.637 -0.0178  1.7443  2.0234
  378TMC3    H2 5712   3.511   1.767  12.975  1.5373 -0.5800 -1.6182
  378TMC3    C7 5713   3.660   1.903  12.804 -0.7358  0.2564 -0.1948
  378TMC3    C8 5714   3.259   1.706  12.966  0.3350  0.2817 -0.0079
  378TMC3    O1 5715   3.716   1.882  12.910  0.2399 -0.0749 -0.1843
  378TMC3    O2 5716   3.317   1.668  13.069 -0.2475 -0.1461  0.2219
  379MPD2     C 5717   4.585   4.379  16.393 -0.5703 -0.1149 -0.3027
  379MPD2    C1 5718   4.463   4.350  16.436 -0.6716  0.0093  1.1645
  379MPD2    C2 5719   4.439   4.327  16.562 -0.4712  0.6630  0.1396
  379MPD2    C3 5720   4.543   4.326  16.649  0.3100 -0.2433  0.1389
  379MPD2    C4 5721   4.675   4.345  16.608  0.2329  0.4368  0.7849
  379MPD2    C5 5722   4.697   4.363  16.475  0.4374  0.1731 -0.2530
  379MPD2     H 5723   4.336   4.302  16.584 -0.0734 -1.4320 -0.3850
  379MPD2    H1 5724   0.021   4.353  16.677  2.1481  0.1612 -1.4946
  379MPD2    H2 5725   4.592   4.416  16.291  1.4711 -3.1513 -1.2553
  379MPD2    H3 5726   0.058   4.399  16.444 -1.1331  2.1340 -2.9738
  379MPD2     N 5727   4.521   4.313  16.788  0.7332 -0.1317 -0.3294
  379MPD2    H5 5728   4.607   4.304  16.842  1.1996  1.0337 -0.8796
  379MPD2    N1 5729   4.357   4.368  16.338  0.4987  0.0241 -0.0530
  379MPD2    H7 5730   4.393   4.381  16.244 -0.4807 -0.9017 -0.5541
  380TMC3    C1 5731   4.149   4.361  16.232  0.1805 -0.2215  0.4541
  380TMC3    C2 5732   4.210   4.319  16.117 -0.1176 -0.1691 -0.7435
  380TMC3    C3 5733   4.130   4.317  16.005  0.1346  1.1642  0.1774
  380TMC3    C4 5734   4.020   4.397  16.235  0.2685  0.0144 -0.1743
  380TMC3    C5 5735   3.952   4.396  16.115 -0.0602 -0.4372  0.5745
  380TMC3    C6 5736   4.003   4.356  15.997 -0.4015  0.0399 -0.0706
  380TMC3     C 5737   4.222   4.355  16.362  0.3682  0.9958 -0.1172
  380TMC3     O 5738   4.158   4.360  16.468 -0.2055  0.4544  0.1519
  380TMC3     H 5739   4.309   4.275  16.124 -1.1564 -2.2598  0.7593
  380TMC3    H1 5740   3.963   4.425  16.322 -0.7377 -2.0520 -0.1712
  380TMC3    H2 5741   3.957   4.361  15.899 -1.2321 -0.1260  0.3090
  380TMC3    C7 5742   3.836   4.467  16.110 -0.2248  0.8797  0.2943
  380TMC3    C8 5743   4.198   4.304  15.878 -0.1328 -0.4233  0.1450
  380TMC3    O1 5744   3.824   4.551  16.197 -0.2531  0.6897 -0.4863
  380TMC3    O2 5745   4.152   4.227  15.794 -0.0992  0.4624 -0.7882
  381TMC3    C1 5746   3.772   0.897  15.909 -0.5638  0.5852  0.6628
  381TMC3    C2 5747   3.885   0.968  15.947  0.2223  0.2133  0.0445
  381TMC3    C3 5748   3.863   1.051  16.053 -0.4756 -0.4560  0.5654
  381TMC3    C4 5749   3.650   0.915  15.973 -0.0261  0.3620 -0.2533
  381TMC3    C5 5750   3.632   1.010  16.066  0.0330  0.5440  0.3758
  381TMC3    C6 5751   3.739   1.086  16.107  1.0880  0.1472  0.0729
  381TMC3     C 5752   3.773   0.788  15.814  0.3119  0.4455 -0.0482
  381TMC3     O 5753   3.686   0.700  15.818  0.3024 -0.2700 -0.2880
  381TMC3     H 5754   3.989   0.961  15.918 -0.3085 -3.4985 -0.8456
  381TMC3    H1 5755   3.565   0.857  15.941 -0.5421  1.9884 -1.7754
  381TMC3    H2 5756   3.736   1.158  16.188 -0.2537 -0.5699  0.6599
  381TMC3    C7 5757   3.503   1.004  16.138  0.1574 -0.6898 -0.1035
  381TMC3    C8 5758   3.972   1.144  16.094 -0.1429 -0.4304 -0.1145
  381TMC3    O1 5759   3.424   0.915  16.110 -0.3029  0.2264  0.0004
  381TMC3    O2 5760   4.069   1.141  16.021  0.0636  0.1371 -0.1749
  382MPD2     C 5761   3.039   3.555  17.099 -0.6136 -0.9813 -0.5823
  382MPD2    C1 5762   3.014   3.573  17.235  0.2887  0.4245  0.2961
  382MPD2    C2 5763   3.056   3.468  17.321 -0.3093  1.0773 -0.0305
  382MPD2    C3 5764   3.096   3.343  17.270  0.2380 -0.1600 -0.5386
  382MPD2    C4 5765   3.103   3.328  17.133 -0.3645  0.0864 -0.4521
  382MPD2    C5 5766   3.074   3.436  17.051 -0.0547  0.1408 -0.3894
  382MPD2     H 5767   3.051   3.487  17.427  2.4978 -1.2597  0.5087
  382MPD2    H1 5768   3.142   3.238  17.087  0.0595 -0.0649  0.2037
  382MPD2    H2 5769   3.029   3.637  17.029 -0.2640  2.7897  3.7844
  382MPD2    H3 5770   3.079   3.431  16.943  0.2489 -1.8951 -0.2917
  382MPD2     N 5771   3.124   3.228  17.345 -0.7410 -0.3248 -0.2629
  382MPD2    H5 5772   3.143   3.147  17.287 -0.9556  1.1236 -2.3457
  382MPD2    N1 5773   2.994   3.702  17.294  0.1053  0.0434 -0.5912
  382MPD2    H7 5774   3.017   3.714  17.392  1.0751  2.5109 -1.1033
  383TMC3    C1 5775   3.122   3.071  17.509  0.7718 -0.2973 -0.0596
  383TMC3    C2 5776   3.043   3.002  17.423  0.2251  0.0938  0.3612
  383TMC3    C3 5777   3.029   2.871  17.441  0.2080  0.4814 -0.0279
  383TMC3    C4 5778   3.198   3.015  17.602  0.0594 -0.0312  0.7855
  383TMC3    C5 5779   3.196   2.879  17.602 -0.4284 -0.4804  0.8104
  383TMC3    C6 5780   3.118   2.801  17.524  0.0896 -0.4070  0.2101
  383TMC3     C 5781   3.126   3.212  17.480 -0.1936 -0.2237  0.1092
  383TMC3     O 5782   3.127   3.291  17.577  0.6567 -0.2957 -0.2724
  383TMC3     H 5783   2.981   3.047  17.346  1.4129  1.4753  0.2270
  383TMC3    H1 5784   3.276   3.064  17.659  1.0778 -0.1180 -0.5442
  383TMC3    H2 5785   3.140   2.695  17.531 -0.5599 -0.6336 -1.1611
  383TMC3    C7 5786   3.297   2.801  17.681 -0.4788  0.5148  0.6092
  383TMC3    C8 5787   2.923   2.809  17.373  0.2044  0.0156  0.1754
  383TMC3    O1 5788   3.249   2.711   0.000  0.1384  1.0192  0.2404
  383TMC3    O2 5789   2.875   2.861  17.278  0.0302  0.0659 -0.5222
  384MPD2     C 5790   4.616   4.673  11.910  0.0801 -0.1643 -0.1907
  384MPD2    C1 5791   4.669   4.589  12.006  0.3885  0.2656  0.6664
  384MPD2    C2 5792   0.046   4.515  11.970 -0.6360  0.1235 -0.7678
  384MPD2    C3 5793   0.108   4.528  11.845 -0.0761 -0.5140 -0.5630
  384MPD2    C4 5794   0.048   4.610  11.755 -0.0181 -0.2659  0.2214
  384MPD2    C5 5795   4.674   4.682  11.789  0.2528  1.0946  0.8097
  384MPD2     H 5796   0.088   4.450  12.046  2.1466  1.1274 -1.4275
  384MPD2    H1 5797   0.082   4.598  11.653  0.8344  0.0464  0.4667
  384MPD2    H2 5798   4.529   4.733  11.935 -1.8576 -2.3180 -1.7267
  384MPD2    H3 5799   4.626   0.012  11.718  2.0506  1.0675 -0.4129
  384MPD2     N 5800   0.216   4.443  11.818  0.3237 -0.1431 -0.0604
  384MPD2    H5 5801   0.258   4.397  11.897  0.5563 -2.5462 -1.5831
  384MPD2    N1 5802   4.608   4.567  12.132  0.3214  0.4433  0.0762
  384MPD2    H7 5803   4.669   4.527  12.202 -1.1952 -0.5938  0.7922
  385TMC3    C1 5804   0.331   4.279  11.731  0.1812  0.2665 -1.0165
  385TMC3    C2 5805   0.283   4.154  11.686 -0.1975  0.9818  0.1062
  385TMC3    C3 5806   0.314   4.039  11.757  0.4117 -0.2669  0.0949
  385TMC3    C4 5807   0.405   4.287  11.847 -0.2251  0.1159  0.3595
  385TMC3    C5 5808   0.423   4.174  11.917 -0.0987 -0.3944  0.3673
  385TMC3    C6 5809   0.388   4.054  11.868  0.0527  0.1572  0.6860
  385TMC3     C 5810   0.248   4.388  11.699 -0.1766  0.0483 -0.3286
  385TMC3     O 5811   0.189   4.395  11.591  0.0626 -0.5702  0.1284
  385TMC3     H 5812   0.200   4.140  11.619 -1.3300 -0.7709  1.8635
  385TMC3    H1 5813   0.447   4.381  11.882 -2.8638  1.6095 -0.4331
  385TMC3    H2 5814   0.411   3.963  11.923  2.0684  2.1573  3.1877
  385TMC3    C7 5815   0.354   4.203  12.040 -0.0917 -0.4464 -0.0277
  385TMC3    C8 5816   0.215   3.934  11.770 -0.0182 -0.5838  0.6946
  385TMC3    O1 5817   0.303   4.317  12.052  0.6263 -0.3914  0.3802
  385TMC3    O2 5818   0.203   3.892  11.883 -0.5247 -0.1390  0.5346
  386TMC3    C1 5819   4.539   1.943  11.847 -0.3874 -0.0938  0.4682
  386TMC3    C2 5820   4.514   2.000  11.726 -0.2781  0.4161  0.2074
  386TMC3    C3 5821   4.412   2.088  11.725 -0.4637  0.2404 -0.2700
  386TMC3    C4 5822   4.468   1.973  11.962  0.4765  0.6090 -0.1001
  386TMC3    C5 5823   4.364   2.066  11.956  0.0788 -0.4591  0.1692
  386TMC3    C6 5824   4.335   2.124  11.837 -0.2489 -0.0159  0.2369
  386TMC3     C 5825   4.634   1.826  11.854  0.0506  0.5037 -0.1265
  386TMC3     O 5826   4.724   1.840  11.773  0.4918 -0.5831  0.0388
  386TMC3     H 5827   4.567   1.968  11.637 -1.3617  2.8217 -1.2956
  386TMC3    H1 5828   4.491   1.929  12.059  3.9131  1.8972 -0.3209
  386TMC3    H2 5829   4.257   2.199  11.834  1.9124  2.1014 -3.6608
  386TMC3    C7 5830   4.240   2.018  12.029  0.4435 -0.3620  0.0931
  386TMC3    C8 5831   4.313   2.057  11.623 -0.2127  0.5423 -0.8649
  386TMC3    O1 5832   4.260   1.967  12.137  0.4302  0.2879  0.0324
  386TMC3    O2 5833   4.200   2.031  11.661 -0.0271  0.1409 -0.0062
  387MPD2     C 5834   2.393   1.763  10.075  0.3228 -0.5753  0.0275
  387MPD2    C1 5835   2.408   1.709  10.196 -0.2215  0.3020 -0.5489
  387MPD2    C2 5836   2.335   1.594  10.224 -0.4651 -0.4018 -0.6342
  387MPD2    C3 5837   2.258   1.532  10.125 -0.5123 -0.8845 -0.3653
  387MPD2    C4 5838   2.244   1.586   9.999 -0.0031 -0.6737  0.4743
  387MPD2    C5 5839   2.314   1.705   9.980  0.0359  0.2647 -0.2309
  387MPD2     H 5840   2.358   1.547  10.319 -0.6006 -0.3220 -0.5631
  387MPD2    H1 5841   2.193   1.537   9.917  1.6643 -3.5634  1.1772
  387MPD2    H2 5842   2.438   1.858  10.049 -1.4566 -0.3338 -2.2549
  387MPD2    H3 5843   2.312   1.757   9.885 -1.3700  0.9936  0.1875
  387MPD2     N 5844   2.211   1.400  10.158 -1.0795 -0.5563  0.2670
  387MPD2    H5 5845   2.229   1.374  10.254 -2.1556 -1.3622  0.2516
  387MPD2    N1 5846   2.506   1.739  10.286  0.0806 -0.4686  0.5867
  387MPD2    H7 5847   2.529   1.677  10.363  0.1045 -0.2930  0.7206
  388TMC3    C1 5848   2.698   1.834  10.359  1.0675  0.3627  0.3882
  388TMC3    C2 5849   2.764   1.944  10.412  0.6380 -0.2691 -0.4572
  388TMC3    C3 5850   2.847   1.914  10.519 -0.6209  0.5728 -0.1706
  388TMC3    C4 5851   2.743   1.708  10.394 -0.0826  0.8304 -0.4362
  388TMC3    C5 5852   2.829   1.683  10.494 -0.7199  0.7699  0.5593
  388TMC3    C6 5853   2.883   1.789  10.568  0.4756 -0.7651  0.1850
  388TMC3     C 5854   2.580   1.849  10.283 -0.5591 -0.6810 -0.0999
  388TMC3     O 5855   2.558   1.955  10.227  0.0406 -0.1570 -0.2164
  388TMC3     H 5856   2.732   2.045  10.386 -1.4424 -0.6685  0.5501
  388TMC3    H1 5857   2.695   1.624  10.344  1.3022 -0.9372  1.2418
  388TMC3    H2 5858   2.942   1.778  10.658 -0.0852 -0.0572  0.6369
  388TMC3    C7 5859   2.868   1.546  10.521  0.0823 -0.8172 -0.6429
  388TMC3    C8 5860   2.907   2.027  10.588  0.5637  0.5874  0.4493
  388TMC3    O1 5861   2.985   1.520  10.535 -0.2938 -0.2740  0.4077
  388TMC3    O2 5862   2.969   2.012  10.689  0.4158  0.7992 -0.3996
  389MPD2     C 5863   1.937   4.692  11.066  0.9519 -0.1573  0.3067
  389MPD2    C1 5864   1.868   4.578  11.019 -0.1351  1.0274 -0.7272
  389MPD2    C2 5865   1.813   4.492  11.107  0.4852 -0.4889  0.2385
  389MPD2    C3 5866   1.811   4.521  11.242 -0.2969 -0.4358  0.5668
  389MPD2    C4 5867   1.880   4.635  11.287  0.4745  0.7158  0.3196
  389MPD2    C5 5868   1.944   4.721  11.199  0.1854  0.0772 -0.7524
  389MPD2     H 5869   1.767   4.402  11.068 -0.6168  0.6867 -1.1667
  389MPD2    H1 5870   1.874   4.675  11.388 -0.9659 -1.2622  1.0211
  389MPD2    H2 5871   1.989   0.023  11.000  1.4901 -2.3658 -1.5250
  389MPD2    H3 5872   1.979   0.078  11.237 -0.0230  0.1563 -0.7575
  389MPD2     N 5873   1.757   4.436  11.344 -0.3948  0.0104  0.4635
  389MPD2    H5 5874   1.776   4.473  11.436  0.2397  0.9386 -0.0331
  389MPD2    N1 5875   1.867   4.567  10.874  0.6910  0.5243  0.3007
  389MPD2    H7 5876   1.919   4.631  10.816  0.7836  1.7443  1.7139
  390TMC3    C1 5877   1.619   4.284  11.454  0.8333 -0.5896 -0.1700
  390TMC3    C2 5878   1.534   4.177  11.456  0.1940 -0.0110  0.0837
  390TMC3    C3 5879   1.462   4.146  11.570  0.0023  0.0700  0.2956
  390TMC3    C4 5880   1.646   4.355  11.575  0.1494  0.1045  0.4913
  390TMC3    C5 5881   1.585   4.306  11.687 -0.4177 -0.0474 -0.1730
  390TMC3    C6 5882   1.492   4.205  11.690 -0.2911  0.2862 -0.5423
  390TMC3     C 5883   1.677   4.330  11.328  0.5100 -0.1523 -0.5039
  390TMC3     O 5884   1.649   4.267  11.227  0.2234 -0.3994  0.8364
  390TMC3     H 5885   1.497   4.141  11.361 -2.0852  2.6578 -0.0479
  390TMC3    H1 5886   1.712   4.442  11.572 -0.7401  0.7144 -1.7276
  390TMC3    H2 5887   1.449   4.181  11.787  0.1302 -0.6617 -0.5958
  390TMC3    C7 5888   1.612   4.392  11.806  0.5059 -0.5356 -0.0058
  390TMC3    C8 5889   1.363   4.028  11.569  0.5207 -0.2232 -0.1133
  390TMC3    O1 5890   1.718   4.456  11.808  0.4183 -0.6161  0.6564
  390TMC3    O2 5891   1.357   3.970  11.465 -0.4197 -0.6207  0.1366
  391MPD2     C 5892   0.452   1.759  11.005  0.1048 -0.1669  0.5564
  391MPD2    C1 5893   0.586   1.757  10.974 -0.8538  0.5389 -0.5427
  391MPD2    C2 5894   0.634   1.816  10.859  0.2215 -1.2981  0.1166
  391MPD2    C3 5895   0.545   1.859  10.763  0.0686  0.2570  0.3701
  391MPD2    C4 5896   0.412   1.867  10.806  0.4860 -1.4957  0.6258
  391MPD2    C5 5897   0.365   1.817  10.924  0.0371  0.3371  0.0702
  391MPD2     H 5898   0.740   1.805  10.839 -0.0737  0.7318 -2.5288
  391MPD2    H1 5899   0.339   1.912  10.739  2.3395 -0.6750 -0.8514
  391MPD2    H2 5900   0.414   1.714  11.096  0.4480 -0.6360  0.4635
  391MPD2    H3 5901   0.258   1.827  10.938 -0.3366 -0.8996 -1.8617
  391MPD2     N 5902   0.592   1.901  10.640 -0.8153  0.0288  0.1662
  391MPD2    H5 5903   0.691   1.884  10.628 -0.2591  2.6192  1.1043
  391MPD2    N1 5904   0.669   1.688  11.062  0.8544  0.0968 -0.3497
  391MPD2    H7 5905   0.628   1.636  11.139  1.5383  0.5296  0.2988
  392TMC3    C1 5906   0.598   1.943  10.409  0.4484  0.0818  0.2975
  392TMC3    C2 5907   0.540   1.888  10.296 -0.1647 -0.4266 -0.6217
  392TMC3    C3 5908   0.623   1.864  10.189  0.4775  0.4838  0.7416
  392TMC3    C4 5909   0.730   1.990  10.407  0.2089  0.0512  0.4030
  392TMC3    C5 5910   0.797   1.984  10.288  0.3366  0.7632  0.0258
  392TMC3    C6 5911   0.753   1.909  10.182  0.2064  0.0554 -0.4813
  392TMC3     C 5912   0.519   1.932  10.535 -0.1034 -0.1234  0.0978
  392TMC3     O 5913   0.402   1.909  10.517 -0.1468 -0.3480  0.2870
  392TMC3     H 5914   0.448   1.833  10.312  1.2660 -2.0052  2.0989
  392TMC3    H1 5915   0.775   2.024  10.499  0.5662 -0.5710  0.4635
  392TMC3    H2 5916   0.812   1.890  10.093 -0.9492 -2.1576 -0.7734
  392TMC3    C7 5917   0.943   2.007  10.294 -0.1587 -0.2474 -0.1905
  392TMC3    C8 5918   0.562   1.771  10.088 -0.3046 -0.5395 -0.2500
  392TMC3    O1 5919   0.972   2.003  10.411 -0.5202  0.2685  0.0976
  392TMC3    O2 5920   0.437   1.764  10.095  0.0535 -0.4597  0.5862
  393TMC3    C1 5921   4.086   4.621  10.960  0.4720 -0.1888  0.4985
  393TMC3    C2 5922   4.063   0.004  11.028 -0.2528  0.3237 -0.6149
  393TMC3    C3 5923   4.099   0.004  11.163  0.1321  0.3387 -0.4101
  393TMC3    C4 5924   4.133   4.504  11.026  0.2021  0.3144 -0.3124
  393TMC3    C5 5925   4.155   4.515  11.162 -0.2292  0.2405 -0.4309
  393TMC3    C6 5926   4.132   4.629  11.233  0.1173 -1.2860 -0.0294
  393TMC3     C 5927   4.051   4.613  10.821 -0.4381  0.8786 -0.1626
  393TMC3     O 5928   4.031   4.715  10.757  0.4431 -0.2275 -0.0363
  393TMC3     H 5929   4.033   0.096  10.981 -1.7599  0.5669  0.7976
  393TMC3    H1 5930   4.149   4.407  10.982  0.2161  0.6240 -0.9860
  393TMC3    H2 5931   4.174   4.633  11.333  1.2293 -0.5656 -0.5350
  393TMC3    C7 5932   4.230   4.411  11.225 -0.0301  0.0602 -0.7401
  393TMC3    C8 5933   4.110   0.126  11.238  0.1335 -0.0442 -0.6470
  393TMC3    O1 5934   4.211   4.404  11.346 -0.4980  0.0931  0.2407
  393TMC3    O2 5935   4.135   0.119  11.356 -0.3559 -0.3223  0.8116
  394TMC3    C1 5936   1.827   4.494  10.657  0.0067 -0.7597 -0.3972
  394TMC3    C2 5937   1.799   4.388  10.583  0.4146  0.9640 -1.1599
  394TMC3    C3 5938   1.770   4.399  10.448  0.2327  0.2260  0.1255
  394TMC3    C4 5939   1.841   4.616  10.600 -0.5542  0.5921  0.2996
  394TMC3    C5 5940   1.820   4.620  10.463 -0.4286  0.3429 -0.3868
  394TMC3    C6 5941   1.789   4.511  10.386 -0.1467 -0.9058 -0.0784
  394TMC3     C 5942   1.800   4.475  10.804  0.5960 -0.1557 -0.5217
  394TMC3     O 5943   1.729   4.384  10.838 -0.3880  0.1302  0.2772
  394TMC3     H 5944   1.772   4.295  10.633  1.2735  1.7198  0.6939
  394TMC3    H1 5945   1.870   4.701  10.661  0.4668  2.5278 -2.8906
  394TMC3    H2 5946   1.762   4.532  10.283 -0.5072  1.3044  0.4775
  394TMC3    C7 5947   1.781   0.012  10.420  0.2674  0.2097  0.2278
  394TMC3    C8 5948   1.765   4.269  10.381  0.3560 -0.4758  0.0329
  394TMC3    O1 5949   1.853   0.103  10.457  0.1484 -0.5223  0.4453
  394TMC3    O2 5950   1.760   4.164  10.441  0.3351  0.0193 -0.2034
  395TMC3    C1 5951   1.997   1.963  14.503 -0.3929 -0.7390 -0.3747
  395TMC3    C2 5952   1.863   1.978  14.497  0.4549 -0.2408  0.8269
  395TMC3    C3 5953   1.808   2.094  14.553 -0.0676  0.1756  0.1064
  395TMC3    C4 5954   2.084   2.063  14.523 -0.2231  0.1604  0.1373
  395TMC3    C5 5955   2.032   2.184  14.561 -0.7581  0.3895  0.1419
  395TMC3    C6 5956   1.895   2.199  14.584 -0.0419 -0.3336 -0.0148
  395TMC3     C 5957   2.066   1.830  14.461  0.6129  0.2611  0.6560
  395TMC3     O 5958   2.170   1.847  14.400 -0.6229 -0.0647 -0.2086
  395TMC3     H 5959   1.799   1.896  14.467  1.4628 -0.4309 -0.8190
  395TMC3    H1 5960   2.189   2.037  14.530 -0.3999 -0.5197  0.2708
  395TMC3    H2 5961   1.843   2.290  14.613 -1.9763 -1.0972 -1.0841
  395TMC3    C7 5962   2.113   2.298  14.592  0.2467  0.7613 -0.1603
  395TMC3    C8 5963   1.681   2.083  14.628  0.0972  0.0938 -1.0401
  395TMC3    O1 5964   2.055   2.397  14.631  0.2632 -0.2802  0.3306
  395TMC3    O2 5965   1.665   2.156  14.722 -0.2719  0.0178 -0.1756
  396MPD2     C 5966   1.589   2.946  17.411  0.3435  0.2414  0.0386
  396MPD2    C1 5967   1.699   2.996  17.474  0.0827 -0.5467  0.1514
  396MPD2    C2 5968   1.757   3.113  17.426 -0.2859 -0.2175  0.2780
  396MPD2    C3 5969   1.710   3.169  17.307 -0.3940  0.4594 -0.0678
  396MPD2    C4 5970   1.596   3.117  17.244 -1.0172 -0.3009  0.4406
  396MPD2    C5 5971   1.528   3.019  17.310 -0.1830 -0.0252  0.4446
  396MPD2     H 5972   1.846   3.158  17.467 -0.0493 -1.3019  0.9537
  396MPD2    H1 5973   1.563   3.167  17.153 -1.6258  0.9576  1.3519
  396MPD2    H2 5974   1.542   2.851  17.431 -2.3616  1.6600  0.4331
  396MPD2    H3 5975   1.434   2.982  17.269 -0.6548 -0.0250  1.5186
  396MPD2     N 5976   1.787   3.278  17.255 -0.2657 -0.4524 -0.5005
  396MPD2    H5 5977   1.858   3.314  17.319 -3.4162  0.9063  2.2194
  396MPD2    N1 5978   1.747   2.930  17.594 -0.1653  0.1511  0.2844
  396MPD2    H7 5979   1.703   2.841  17.616 -1.8624  0.6561 -1.0227
  397TMC3    C1 5980   1.906   2.845  17.736  0.2360  0.6851  0.0828
  397TMC3    C2 5981   2.008   2.794  17.661 -0.8387  0.9148  0.2356
  397TMC3    C3 5982   1.981   2.674  17.601  0.1142 -0.3816 -0.5097
  397TMC3    C4 5983   1.800   2.765   0.025 -0.5213 -0.4082  0.0842
  397TMC3    C5 5984   1.792   2.631  17.737 -0.7465  0.0643 -0.1783
  397TMC3    C6 5985   1.874   2.593  17.634 -0.1086 -0.0134 -0.4526
  397TMC3     C 5986   1.866   2.962  17.660 -0.1466 -0.0412 -0.3236
  397TMC3     O 5987   1.947   3.048  17.639 -0.2555 -0.5566  0.4996
  397TMC3     H 5988   2.076   2.866  17.616  0.2014 -1.2203 -1.6407
  397TMC3    H1 5989   1.731   2.808   0.096 -1.1865  0.3025 -0.9883
  397TMC3    H2 5990   1.859   2.501  17.579  1.6049  0.1745 -1.2287
  397TMC3    C7 5991   1.677   2.551   0.030  0.0410  0.3386  0.0835
  397TMC3    C8 5992   1.981   2.696  17.455  0.3263  0.1678  0.9523
  397TMC3    O1 5993   1.662   2.445  17.729  0.1659  0.7825 -0.4825
  397TMC3    O2 5994   1.879   2.662  17.391 -0.0615  0.3204  0.5858
  398MPD2     C 5995   4.212   4.699   0.450  0.3117 -0.8652  0.5874
  398MPD2    C1 5996   4.304   4.604   0.486  0.1259  0.5024  0.0225
  398MPD2    C2 5997   4.441   4.641   0.495 -0.3662 -0.0023 -0.0358
  398MPD2    C3 5998   4.482   0.031   0.463 -0.0852 -0.1307  0.3715
  398MPD2    C4 5999   4.384   0.131   0.426 -0.3645  0.3775 -0.4595
  398MPD2    C5 6000   4.254   0.090   0.419  0.3236  0.6887  0.1544
  398MPD2     H 6001   4.510   4.565   0.531  1.3668  2.4228  1.7166
  398MPD2    H1 6002   4.416   0.228   0.392  0.4644  0.3577  0.2800
  398MPD2    H2 6003   4.106   4.688   0.431  0.2897  0.8398 -0.3238
  398MPD2    H3 6004   4.179   0.161   0.384  1.0476  0.9437 -0.8878
  398MPD2     N 6005   4.619   0.056   0.470 -0.3310 -0.0658  0.3958
  398MPD2    H5 6006   4.680   4.714   0.485 -0.2971  0.0505  0.8878
  398MPD2    N1 6007   4.272   4.470   0.507 -0.3594 -0.0489 -0.3604
  398MPD2    H7 6008   4.344   4.412   0.550 -1.3417 -2.3731 -1.8445
  399TMC3    C1 6009   4.131   4.277   0.548  0.6647  1.1659 -0.0219
  399TMC3    C2 6010   4.219   4.237   0.643 -0.1129  0.6708  0.6215
  399TMC3    C3 6011   4.229   4.106   0.669 -0.1044  0.1489  0.9196
  399TMC3    C4 6012   4.070   4.183   0.472  0.0564 -0.5259  0.7114
  399TMC3    C5 6013   4.056   4.058   0.524  0.7352 -0.1850 -0.8199
  399TMC3    C6 6014   4.135   4.016   0.621 -0.0110 -0.0069 -0.2683
  399TMC3     C 6015   4.157   4.410   0.477 -0.2934  1.4912  0.7291
  399TMC3     O 6016   4.060   4.446   0.410  0.4876 -1.0659  0.4924
  399TMC3     H 6017   4.293   4.304   0.685 -0.2183 -0.2482  2.2597
  399TMC3    H1 6018   4.027   4.217   0.379  2.8584 -0.3620 -0.5162
  399TMC3    H2 6019   4.122   3.914   0.658  1.9522  0.1082  0.7111
  399TMC3    C7 6020   3.943   3.983   0.488  0.2622 -0.5868  0.2098
  399TMC3    C8 6021   4.349   4.053   0.731 -0.3383 -0.0872 -0.4298
  399TMC3    O1 6022   3.938   3.864   0.510  0.7120  0.5476 -0.2396
  399TMC3    O2 6023   4.431   4.137   0.773 -0.2971  0.2768  0.6337
  400TMC3    C1 6024   3.031   2.563  17.035 -1.0541  0.2199  0.0232
  400TMC3    C2 6025   2.964   2.462  16.976  0.0347  0.0694  0.2138
  400TMC3    C3 6026   2.867   2.495  16.891 -0.3050  0.7808 -0.4904
  400TMC3    C4 6027   2.997   2.690  17.022  0.4494  0.3413  0.2776
  400TMC3    C5 6028   2.885   2.721  16.943  0.4249  0.7867  0.1293
  400TMC3    C6 6029   2.829   2.624  16.866  0.0039  0.9213 -0.5258
  400TMC3     C 6030   3.109   2.526  17.147  0.0734 -0.2335 -0.1832
  400TMC3     O 6031   3.092   2.416  17.197 -0.3903  0.2663 -0.1441
  400TMC3     H 6032   3.002   2.362  16.993 -1.3328 -1.0572 -3.4588
  400TMC3    H1 6033   3.043   2.777  17.068 -0.3437  1.6201 -1.3186
  400TMC3    H2 6034   2.740   2.642  16.807 -0.1448  2.6441  0.2281
  400TMC3    C7 6035   2.836   2.850  16.910  0.1950  0.0861 -0.5632
  400TMC3    C8 6036   2.785   2.382  16.852  0.3059 -0.7796 -1.1503
  400TMC3    O1 6037   2.797   2.861  16.794  0.2687 -0.0207 -0.1695
  400TMC3    O2 6038   2.813   2.283  16.913  0.1166 -0.2908 -0.4749
  401MPD2     C 6039   0.768   1.563   0.259  0.1111  0.1133  0.5490
  401MPD2    C1 6040   0.759   1.503   0.383  0.2172  0.4319 -0.0417
  401MPD2    C2 6041   0.736   1.365   0.386  0.3594 -0.1478 -0.3124
  401MPD2    C3 6042   0.718   1.282   0.274 -0.0836  0.1678 -0.1993
  401MPD2    C4 6043   0.707   1.350   0.155 -0.1573  0.7010  0.4676
  401MPD2    C5 6044   0.729   1.485   0.154 -0.6275 -0.1989 -0.4773
  401MPD2     H 6045   0.737   1.323   0.486 -0.9943  0.3446 -0.0827
  401MPD2    H1 6046   0.685   1.308   0.058  0.9620  0.3602  0.3550
  401MPD2    H2 6047   0.777   1.669   0.239 -2.0057  0.1437 -0.2172
  401MPD2    H3 6048   0.718   1.534   0.058  1.4347  3.7549  1.2637
  401MPD2     N 6049   0.706   1.144   0.283 -0.5196 -0.0839 -0.5202
  401MPD2    H5 6050   0.711   1.096   0.373 -0.0103  0.8143 -0.0620
  401MPD2    N1 6051   0.775   1.566   0.507  0.4532  0.0369  0.1425
  401MPD2    H7 6052   0.764   1.512   0.592 -0.0678  2.0727  1.3728
  402TMC3    C1 6053   0.709   0.916   0.221 -0.1014  0.5564  0.0631
  402TMC3    C2 6054   0.667   0.882   0.352 -0.3005  0.3923  0.5913
  402TMC3    C3 6055   0.686   0.754   0.394 -0.9804  0.1085 -0.4737
  402TMC3    C4 6056   0.765   0.829   0.132  0.2217  0.7238  0.8996
  402TMC3    C5 6057   0.779   0.708   0.185  0.1024 -0.0649  0.2767
  402TMC3    C6 6058   0.749   0.664   0.309 -0.4890  0.9781 -1.6286
  402TMC3     C 6059   0.699   1.058   0.182 -0.9185 -0.4956 -0.4264
  402TMC3     O 6060   0.704   1.076   0.061 -0.2875  0.3475 -0.3505
  402TMC3     H 6061   0.617   0.957   0.412 -2.3861  0.0890 -0.7627
  402TMC3    H1 6062   0.777   0.858   0.028 -0.7618 -0.5512  0.4257
  402TMC3    H2 6063   0.731   0.557   0.313 -0.0351  0.9931  0.9507
  402TMC3    C7 6064   0.835   0.603   0.108  0.1055  0.1207 -0.2094
  402TMC3    C8 6065   0.643   0.697   0.521 -0.2339 -0.0480  0.4002
  402TMC3    O1 6066   0.804   0.587  17.738 -0.2290  0.5586  0.0622
  402TMC3    O2 6067   0.708   0.602   0.573  0.6447 -0.1915  0.5103
  403MPD2     C 6068   4.031   4.429  13.976  0.3002 -0.0036  0.2573
  403MPD2    C1 6069   4.111   4.379  13.873 -0.1896 -0.3047 -0.4358
  403MPD2    C2 6070   4.224   4.451  13.832 -0.5110  0.7226  0.4115
  403MPD2    C3 6071   4.261   4.568  13.903  0.2013  0.3577  0.1335
  403MPD2    C4 6072   4.186   4.606  14.012 -0.0103 -0.1752  0.5433
  403MPD2    C5 6073   4.074   4.546  14.043  0.0758 -0.0245  0.2694
  403MPD2     H 6074   4.281   4.432  13.741 -1.5782 -1.3092  0.1526
  403MPD2    H1 6075   4.199   4.691  14.077  1.4821  1.2071 -1.5685
  403MPD2    H2 6076   3.938   4.384  14.008 -0.8761  0.5474 -2.3788
  403MPD2    H3 6077   4.013   4.583  14.124  0.6619 -0.7175  1.0262
  403MPD2     N 6078   4.383   4.635  13.864 -0.2596  0.6556  0.0595
  403MPD2    H5 6079   4.436   4.596  13.787  1.6070 -0.1482  1.7516
  403MPD2    N1 6080   4.084   4.254  13.827  0.1019 -1.2434  0.3698
  403MPD2    H7 6081   4.013   4.207  13.883 -1.1831 -0.0346 -0.2434
  404TMC3    C1 6082   4.099   4.046  13.712  0.0822  0.0484  0.0255
  404TMC3    C2 6083   4.104   3.973  13.828 -0.6158 -0.2084 -1.0744
  404TMC3    C3 6084   4.078   3.837  13.819 -0.2906 -0.5793 -0.6950
  404TMC3    C4 6085   4.066   3.983  13.596 -0.7216  0.0019  0.1248
  404TMC3    C5 6086   4.047   3.849  13.592  0.4149 -0.7842 -0.3937
  404TMC3    C6 6087   4.060   3.768  13.700 -1.0390 -0.0278  0.7295
  404TMC3     C 6088   4.130   4.190  13.718  0.3270 -0.6176  0.2740
  404TMC3     O 6089   4.177   4.244  13.619  0.3854 -0.2130  0.3738
  404TMC3     H 6090   4.137   4.021  13.919 -1.9833 -0.6652 -0.3511
  404TMC3    H1 6091   4.054   4.035  13.502  1.3615  1.9708  0.9600
  404TMC3    H2 6092   4.051   3.660  13.693 -0.1695 -0.0443 -0.1438
  404TMC3    C7 6093   4.019   3.777  13.472 -0.3056  0.4143  0.2232
  404TMC3    C8 6094   4.127   3.752  13.924 -0.0266  0.4022  1.0450
  404TMC3    O1 6095   3.944   3.832  13.393  0.2468  0.2683  0.1452
  404TMC3    O2 6096   4.076   3.642  13.924 -0.3496  0.5580 -0.8054
  405MPD2     C 6097   0.174   4.608  15.498 -0.5692  0.3873  0.5161
  405MPD2    C1 6098   0.107   4.496  15.449 -0.3310  0.0523 -0.3780
  405MPD2    C2 6099   0.054   4.495  15.322  0.1625 -0.7665 -0.3768
  405MPD2    C3 6100   0.066   4.602  15.241 -0.1050 -0.2401 -0.2913
  405MPD2    C4 6101   0.129   4.715  15.285 -0.0435  0.8220  0.0032
  405MPD2    C5 6102   0.178   4.714  15.413 -0.1994 -0.3542 -0.3755
  405MPD2     H 6103   4.715   4.423  15.295  0.6509 -2.2935  2.3094
  405MPD2    H1 6104   0.149   0.065  15.224 -1.0660  1.7581  1.0180
  405MPD2    H2 6105   0.220   4.608  15.596 -1.3640 -3.2181  0.8678
  405MPD2    H3 6106   0.206   0.072  15.454 -0.8196 -0.8263  1.1344
  405MPD2     N 6107   0.009   4.579  15.115 -0.2378 -0.7753  0.1421
  405MPD2    H5 6108   4.705   4.488  15.092  1.1878 -1.1995 -0.7677
  405MPD2    N1 6109   0.071   4.381  15.530  0.2459 -0.0424 -0.0290
  405MPD2    H7 6110   0.011   4.314  15.482  0.1224  0.9696 -1.3072
  406TMC3    C1 6111   4.498   4.660  14.742  0.6829  0.2570 -0.0425
  406TMC3    C2 6112   4.469   4.527  14.735  0.1707  0.7645 -0.0575
  406TMC3    C3 6113   4.546   4.439  14.807  0.0185  0.8726  0.1612
  406TMC3    C4 6114   4.604   4.704  14.816 -0.1670 -0.3401 -0.2191
  406TMC3    C5 6115   4.676   4.614  14.893  0.1269  0.1610  0.1918
  406TMC3    C6 6116   4.648   4.480  14.888 -1.1651 -0.1646  0.4082
  406TMC3     C 6117   4.400   0.017  14.708  0.0421  0.1069  0.5516
  406TMC3     O 6118   4.448   0.126  14.693  0.5588 -0.3713 -0.2924
  406TMC3     H 6119   4.394   4.496  14.663  0.1853  1.0376 -0.1907
  406TMC3    H1 6120   4.618   0.072  14.838  0.7305 -0.8509  1.6795
  406TMC3    H2 6121   4.711   4.402  14.929 -1.3771 -0.5802 -0.0544
  406TMC3    C7 6122   0.015   4.664  15.005 -0.2407  0.6057  0.5515
  406TMC3    C8 6123   4.486   4.312  14.840  0.0592 -0.2934  0.3506
  406TMC3    O1 6124   0.066   0.036  14.999 -0.2794  0.1914 -0.4194
  406TMC3    O2 6125   4.407   4.269  14.757 -0.2928 -0.1163  0.0579
  407MPD2     C 6126   1.852   1.499   9.581 -0.7026  0.1272 -0.2240
  407MPD2    C1 6127   1.891   1.461   9.704 -0.0159  0.2092  0.1678
  407MPD2    C2 6128   1.892   1.555   9.805 -0.2271  0.3270  0.1537
  407MPD2    C3 6129   1.856   1.683   9.788  0.0955 -0.0030  0.7468
  407MPD2    C4 6130   1.813   1.724   9.663  1.0699 -0.6275 -0.2222
  407MPD2    C5 6131   1.806   1.630   9.565  0.3020 -0.2267  0.3160
  407MPD2     H 6132   1.933   1.527   9.901  3.2518  2.3730 -0.7316
  407MPD2    H1 6133   1.761   1.818   9.647 -0.7360 -1.3297  1.4021
  407MPD2    H2 6134   1.847   1.439   9.491  0.3110 -0.6884  0.2541
  407MPD2    H3 6135   1.768   1.658   9.468 -1.2038 -0.0388  0.9722
  407MPD2     N 6136   1.853   1.782   9.894  0.2480 -0.1095  0.0662
  407MPD2    H5 6137   1.832   1.875   9.860 -1.4721  0.2810  2.2075
  407MPD2    N1 6138   1.939   1.328   9.718 -0.4560  0.2767  0.4789
  407MPD2    H7 6139   1.994   1.312   9.802  0.2320 -0.6288 -0.1369
  408TMC3    C1 6140   1.989   1.107   9.664 -0.2614 -0.4671  0.4894
  408TMC3    C2 6141   2.120   1.124   9.710  0.0582 -0.0170  0.0501
  408TMC3    C3 6142   2.196   1.010   9.730  0.7462  0.5979  0.0876
  408TMC3    C4 6143   1.917   0.995   9.651  0.0145  0.1920  0.0674
  408TMC3    C5 6144   1.994   0.888   9.675 -0.7533  0.0631  0.0354
  408TMC3    C6 6145   2.132   0.890   9.707  0.4713 -1.0357  0.4266
  408TMC3     C 6146   1.911   1.223   9.633 -0.6366  0.2052 -0.6267
  408TMC3     O 6147   1.826   1.208   9.548  0.4019  0.7669  0.1625
  408TMC3     H 6148   2.164   1.222   9.722  0.9186 -0.3136 -0.6608
  408TMC3    H1 6149   1.817   0.985   9.610  0.0223 -0.5584  0.2263
  408TMC3    H2 6150   2.201   0.806   9.711  0.4113 -1.1103 -0.1641
  408TMC3    C7 6151   1.935   0.763   9.693 -0.2851  0.6775  0.1362
  408TMC3    C8 6152   2.324   1.017   9.806 -0.8174 -0.3391 -0.2185
  408TMC3    O1 6153   1.999   0.666   9.657  0.2091 -0.4288 -0.1578
  408TMC3    O2 6154   2.352   0.920   9.873  0.7273 -0.0997  0.2595
  409MPD2     C 6155   1.596   2.213  17.148  1.0953  0.1064 -0.0894
  409MPD2    C1 6156   1.733   2.171  17.143 -1.0098 -0.5040  1.4757
  409MPD2    C2 6157   1.824   2.270  17.129 -0.8504 -0.3652 -0.3728
  409MPD2    C3 6158   1.788   2.402  17.089  0.3666 -0.3716  0.3079
  409MPD2    C4 6159   1.651   2.431  17.069  0.2149  0.2587 -0.3617
  409MPD2    C5 6160   1.560   2.336  17.106 -0.1900 -0.1603  0.0126
  409MPD2     H 6161   1.928   2.239  17.138 -1.0885 -1.0052  0.1693
  409MPD2    H1 6162   1.610   2.526  17.037  3.3972  0.5607 -3.5627
  409MPD2    H2 6163   1.517   2.141  17.168  1.8054 -0.4145  0.8543
  409MPD2    H3 6164   1.455   2.356  17.091 -0.4709 -0.3831  1.6177
  409MPD2     N 6165   1.890   2.504  17.077  0.2199 -0.4633 -0.1445
  409MPD2    H5 6166   1.862   2.591  17.034 -2.2897 -0.2966  1.8759
  409MPD2    N1 6167   1.776   2.044  17.171  0.1848  0.1362 -0.3093
  409MPD2    H7 6168   1.874   2.029  17.190 -0.1638  1.3003  2.4889
  410TMC3    C1 6169   2.124   2.575  17.051  0.3807 -0.0867  0.2342
  410TMC3    C2 6170   2.248   2.585  17.101  0.1993 -0.5367  0.0630
  410TMC3    C3 6171   2.334   2.666  17.042  0.3443  0.4432 -0.1208
  410TMC3    C4 6172   2.089   2.634  16.933  0.4029 -0.2191  0.6779
  410TMC3    C5 6173   2.174   2.724  16.877 -0.4834  0.6666 -0.4466
  410TMC3    C6 6174   2.300   2.743  16.934  0.1400  0.5040  0.2799
  410TMC3     C 6175   2.025   2.493  17.123 -0.7593 -0.4087  0.5947
  410TMC3     O 6176   2.063   2.422  17.214  0.0547  0.0386  0.0055
  410TMC3     H 6177   2.267   2.542  17.199 -0.7740  1.2144  1.0067
  410TMC3    H1 6178   1.997   2.614  16.879 -0.6633  0.0962  2.3881
  410TMC3    H2 6179   2.378   2.788  16.873 -0.5335  1.7334  0.3206
  410TMC3    C7 6180   2.130   2.769  16.749  0.2096  0.2426 -0.2791
  410TMC3    C8 6181   2.460   2.689  17.100  0.6022  0.1619 -1.1349
  410TMC3    O1 6182   2.070   2.701  16.667  0.0153 -0.6596 -0.1885
  410TMC3    O2 6183   2.511   2.800  17.093 -0.4218 -0.5965 -0.9018
  411MPD2     C 6184   2.432   3.200  14.641 -0.9223  0.1132 -0.3331
  411MPD2    C1 6185   2.336   3.192  14.736  0.1422  0.1792  0.0649
  411MPD2    C2 6186   2.245   3.087  14.742 -0.2026 -0.2788 -0.5623
  411MPD2    C3 6187   2.264   2.979  14.652  0.0400 -0.3103  0.3797
  411MPD2    C4 6188   2.375   2.984  14.569 -0.1734  0.0386 -0.1311
  411MPD2    C5 6189   2.455   3.095  14.562 -0.2371  0.7380  0.0074
  411MPD2     H 6190   2.159   3.087  14.809  0.1554  0.2591 -0.1121
  411MPD2    H1 6191   2.387   2.917  14.485  1.3753 -0.8715  0.8230
  411MPD2    H2 6192   2.503   3.279  14.623  1.5542 -2.1873 -0.6888
  411MPD2    H3 6193   2.523   3.110  14.479 -0.2005  0.4726 -0.0119
  411MPD2     N 6194   2.168   2.875  14.628 -0.0444 -0.9077 -0.1364
  411MPD2    H5 6195   2.180   2.812  14.550 -1.6813 -2.1492  0.6160
  411MPD2    N1 6196   2.325   3.307  14.813 -0.1326  0.2153 -0.1527
  411MPD2    H7 6197   2.389   3.381  14.787 -1.1463  0.8755 -0.8206
  412TMC3    C1 6198   1.960   2.762  14.665 -0.0604 -0.0062 -1.1145
  412TMC3    C2 6199   1.845   2.766  14.735  1.1510  0.5206  0.6811
  412TMC3    C3 6200   1.746   2.683  14.701 -0.0976 -0.5756 -0.3408
  412TMC3    C4 6201   1.973   2.699  14.542  0.5337  0.3648 -0.3909
  412TMC3    C5 6202   1.862   2.625  14.502  0.4164 -0.3305  0.0434
  412TMC3    C6 6203   1.758   2.600  14.595 -0.1465 -0.4577  0.1215
  412TMC3     C 6204   2.061   2.848  14.713  0.4643 -0.2198 -0.6171
  412TMC3     O 6205   2.046   2.896  14.823  0.3890  0.2667  0.1292
  412TMC3     H 6206   1.828   2.838  14.815 -1.0535  2.4147 -1.4780
  412TMC3    H1 6207   2.068   2.688  14.490 -0.2531 -1.0877 -1.5058
  412TMC3    H2 6208   1.669   2.546  14.566 -0.5866  0.2714  0.1026
  412TMC3    C7 6209   1.808   2.676  14.376  0.1264 -0.2169  0.0616
  412TMC3    C8 6210   1.616   2.743  14.717 -0.5819 -0.2369 -0.2538
  412TMC3    O1 6211   1.689   2.655  14.362 -0.5622 -0.3190  0.1297
  412TMC3    O2 6212   1.608   2.860  14.693 -0.0924 -0.3926 -0.0896
  413MPD2     C 6213   3.932   1.369  15.450 -0.1364 -0.2966  0.1750
  413MPD2    C1 6214   3.853   1.269  15.398 -0.0518  0.7675 -0.2959
  413MPD2    C2 6215   3.926   1.157  15.347 -0.3679  0.1590 -0.3431
  413MPD2    C3 6216   4.064   1.143  15.358 -0.4412 -0.6546 -0.2889
  413MPD2    C4 6217   4.136   1.239  15.425 -0.3741  0.0295  0.3834
  413MPD2    C5 6218   4.068   1.354  15.464 -0.3839  0.1257 -0.2753
  413MPD2     H 6219   3.864   1.081  15.300 -0.3779 -0.0553  0.0142
  413MPD2    H1 6220   4.243   1.231  15.444 -0.0870  0.3977 -1.1108
  413MPD2    H2 6221   3.888   1.465  15.476 -3.1018 -1.2693 -1.2253
  413MPD2    H3 6222   4.122   1.442  15.498  0.8415 -0.3083 -1.1078
  413MPD2     N 6223   4.133   1.027  15.312 -0.3875  0.4586 -0.2671
  413MPD2    H5 6224   4.233   1.021  15.329 -0.6709 -1.1540  0.8842
  413MPD2    N1 6225   3.714   1.296  15.401  0.2080  0.5674 -0.1471
  413MPD2    H7 6226   3.681   1.379  15.448 -0.8208  0.7411 -1.1651
  414TMC3    C1 6227   4.179   0.820  15.197 -0.4904  0.3596  0.0322
  414TMC3    C2 6228   4.131   0.695  15.185 -0.0713  0.1112  0.0014
  414TMC3    C3 6229   4.226   0.607  15.130 -0.1988  1.0469  0.4492
  414TMC3    C4 6230   4.305   0.866  15.162 -0.0687 -0.1696  0.5898
  414TMC3    C5 6231   4.392   0.773  15.116 -0.5982  0.2215  0.2748
  414TMC3    C6 6232   4.355   0.643  15.098  0.3956  0.5381  0.4483
  414TMC3     C 6233   4.079   0.916  15.243  0.4631 -0.2652 -0.2056
  414TMC3     O 6234   3.964   0.879  15.240  0.0523 -0.0890 -0.5131
  414TMC3     H 6235   4.035   0.659  15.220  0.1307 -0.2184  0.2204
  414TMC3    H1 6236   4.339   0.968  15.176  0.3785 -0.3435  0.7797
  414TMC3    H2 6237   4.436   0.575  15.076  1.5967  2.5810 -1.4416
  414TMC3    C7 6238   4.519   0.818  15.082 -0.6432 -0.3408 -0.5586
  414TMC3    C8 6239   4.214   0.466  15.164 -0.6877 -0.3989  0.0132
  414TMC3    O1 6240   4.563   0.922  15.133 -0.2217 -0.0434 -0.4198
  414TMC3    O2 6241   4.102   0.418  15.161  0.2599 -0.0336  0.0882
  415TMC3    C1 6242   3.684   3.640  10.469  0.3818  0.9345  0.5819
  415TMC3    C2 6243   3.695   3.773  10.424 -0.1167 -0.1329 -0.2718
  415TMC3    C3 6244   3.792   3.808  10.342  0.2380 -0.5787 -0.0941
  415TMC3    C4 6245   3.772   3.541  10.422 -0.0727 -0.6606  0.1674
  415TMC3    C5 6246   3.868   3.578  10.337 -0.3186  0.4534  0.1147
  415TMC3    C6 6247   3.878   3.710  10.300 -0.6583  1.1149 -0.0141
  415TMC3     C 6248   3.639   3.610  10.608  0.6939  0.2376 -0.0102
  415TMC3     O 6249   3.616   3.491  10.632 -0.3381  0.2739 -0.3705
  415TMC3     H 6250   3.631   3.853  10.457  0.4053 -0.7517  2.2863
  415TMC3    H1 6251   3.755   3.440  10.455 -2.2004 -0.9392 -1.7778
  415TMC3    H2 6252   3.955   3.733  10.228 -0.2286 -1.4860 -0.3761
  415TMC3    C7 6253   3.915   3.477  10.251 -0.2553  0.3765  0.1490
  415TMC3    C8 6254   3.784   3.937  10.272 -0.5311  0.1050  0.1531
  415TMC3    O1 6255   3.926   3.515  10.138 -0.4570  0.0304 -0.1653
  415TMC3    O2 6256   3.679   4.000  10.272 -0.0423 -0.2823  0.2423
  416MPD2     C 6257   1.329   2.537  11.494 -0.5336 -0.0735 -0.2668
  416MPD2    C1 6258   1.195   2.509  11.507  0.2821 -0.2139 -0.6759
  416MPD2    C2 6259   1.142   2.424  11.412 -0.1007  0.0867  0.2517
  416MPD2    C3 6260   1.211   2.378  11.300  0.8289  0.1974  0.3588
  416MPD2    C4 6261   1.348   2.413  11.287  0.0343 -0.0556 -0.6263
  416MPD2    C5 6262   1.406   2.483  11.392  0.1368  0.5009  0.0230
  416MPD2     H 6263   1.037   2.400  11.402 -0.1642  0.3786  0.2152
  416MPD2    H1 6264   1.418   2.360  11.224  0.3994 -0.1585 -0.1376
  416MPD2    H2 6265   1.378   2.599  11.568  0.9391 -0.6138 -0.8056
  416MPD2    H3 6266   1.511   2.506  11.382  0.3034  0.2892  1.3589
  416MPD2     N 6267   1.145   2.283  11.220  0.8669  0.1865 -0.0065
  416MPD2    H5 6268   1.059   2.237  11.249 -0.4674  2.7094  0.0323
  416MPD2    N1 6269   1.112   2.573  11.604 -0.1888  0.0663  0.4376
  416MPD2    H7 6270   1.158   2.635  11.669  1.6621 -2.2757  1.3609
  417TMC3    C1 6271   0.912   2.680  11.685  0.6040 -0.3529 -0.0283
  417TMC3    C2 6272   0.959   2.716  11.806  0.2319  0.0790 -0.2867
  417TMC3    C3 6273   0.874   2.799  11.883  0.0536  0.2304  0.1501
  417TMC3    C4 6274   0.789   2.722  11.633 -0.3447 -0.5175  0.1410
  417TMC3    C5 6275   0.716   2.817  11.709  0.5845 -0.6123 -0.1933
  417TMC3    C6 6276   0.757   2.844  11.838 -0.0362 -0.2810  0.2781
  417TMC3     C 6277   0.977   2.593  11.588  0.7924  0.2082 -0.2899
  417TMC3     O 6278   0.911   2.559  11.498  0.1522  0.0046 -0.3018
  417TMC3     H 6279   1.052   2.678  11.847  1.6353  2.4602 -1.2773
  417TMC3    H1 6280   0.753   2.691  11.535  0.2302  0.7323 -0.4667
  417TMC3    H2 6281   0.700   2.915  11.897  0.7321 -0.1730  0.8943
  417TMC3    C7 6282   0.572   2.830  11.677  0.5509  0.0752 -0.1825
  417TMC3    C8 6283   0.923   2.863  12.007 -0.2798  0.3810 -0.2221
  417TMC3    O1 6284   0.547   2.812  11.558  0.2912  0.5244 -0.1484
  417TMC3    O2 6285   0.849   2.943  12.059  0.4535  0.1495 -0.3445
  418TMC3    C1 6286   0.268   0.084   0.356 -0.2114  0.3501  0.2905
  418TMC3    C2 6287   0.153   0.154   0.356  0.0970  0.4930 -0.3486
  418TMC3    C3 6288   0.085   0.167   0.473 -0.7241  0.7017 -0.8313
  418TMC3    C4 6289   0.314   0.005   0.466 -0.4831 -0.1790  0.1743
  418TMC3    C5 6290   0.241   0.017   0.577  0.2677 -0.0420  0.2801
  418TMC3    C6 6291   0.123   0.087   0.582 -0.0416 -0.0070 -0.0034
  418TMC3     C 6292   0.309   0.029   0.227  0.0623 -0.2350 -0.3641
  418TMC3     O 6293   0.254   0.075   0.128 -0.5020  1.1081  0.0339
  418TMC3     H 6294   0.125   0.213   0.270  0.6410  0.6916 -0.3878
  418TMC3    H1 6295   0.401   4.678   0.465 -0.5167 -0.2389  1.3657
  418TMC3    H2 6296   0.056   0.080   0.666 -0.0355 -1.1741 -0.0897
  418TMC3    C7 6297   0.270   4.664   0.684 -0.0080 -0.4397  1.2821
  418TMC3    C8 6298   4.678   0.184   0.467 -0.2941 -0.2218  0.3787
  418TMC3    O1 6299   0.335   4.562   0.662  0.2643  0.4956 -0.1328
  418TMC3    O2 6300   4.637   0.297   0.436 -0.3459 -0.5887  0.7043
  419MPD2     C 6301   3.091   2.466  12.744 -0.3788  0.4733  0.7466
  419MPD2    C1 6302   3.088   2.603  12.741 -0.4619  0.5926 -0.7104
  419MPD2    C2 6303   3.082   2.670  12.855 -0.2448  0.0254  0.2840
  419MPD2    C3 6304   3.089   2.604  12.982 -0.2906  0.2084  0.2869
  419MPD2    C4 6305   3.090   2.468  12.989 -0.2188 -0.3378 -0.2256
  419MPD2    C5 6306   3.102   2.403  12.869  0.2191  0.3726 -0.2102
  419MPD2     H 6307   3.085   2.779  12.852 -0.6789 -0.0351 -2.7718
  419MPD2    H1 6308   3.106   2.414  13.082  1.0530 -1.4747 -1.1152
  419MPD2    H2 6309   3.094   2.402  12.657 -0.8800  0.7732  0.5097
  419MPD2    H3 6310   3.112   2.295  12.864  0.4278  0.3890 -0.1464
  419MPD2     N 6311   3.081   2.684  13.099 -0.2911  0.5178  0.1093
  419MPD2    H5 6312   3.047   2.778  13.079 -1.3532  0.1206  0.0195
  419MPD2    N1 6313   3.070   2.675  12.618  0.1147  0.2253  0.2000
  419MPD2    H7 6314   3.047   2.774  12.615 -1.3318 -0.0678  1.4325
  420TMC3    C1 6315   3.073   2.747  13.321 -0.9353 -0.8613 -0.2650
  420TMC3    C2 6316   2.981   2.844  13.287 -0.0322 -0.4282  0.0796
  420TMC3    C3 6317   2.941   2.920  13.391 -0.3367 -0.7114 -0.4750
  420TMC3    C4 6318   3.127   2.733  13.442 -0.3451  0.2192 -0.4238
  420TMC3    C5 6319   3.092   2.818  13.547  0.6717  0.4761 -0.4456
  420TMC3    C6 6320   2.999   2.917  13.521 -0.4661 -0.5504  0.9419
  420TMC3     C 6321   3.099   2.640  13.231  0.7087 -0.1778  0.1485
  420TMC3     O 6322   3.139   2.529  13.272  0.1238  0.1170 -0.2253
  420TMC3     H 6323   2.927   2.847  13.193  2.5257  2.6165 -1.2818
  420TMC3    H1 6324   3.173   2.638  13.464  0.4656  1.0620  1.5660
  420TMC3    H2 6325   2.953   2.962  13.608 -1.4263  2.4299 -1.0890
  420TMC3    C7 6326   3.158   2.801  13.674  0.5605  0.0837  0.7188
  420TMC3    C8 6327   2.836   3.020  13.350 -0.0077  0.5925  0.4105
  420TMC3    O1 6328   3.233   2.703  13.687 -0.6912  0.4066  0.1991
  420TMC3    O2 6329   2.776   3.004  13.246 -0.1655 -0.2343  0.4097
  421TMC3    C1 6330   4.573   0.042  13.881 -0.1330 -0.0961 -0.5461
  421TMC3    C2 6331   4.641   0.154  13.944 -0.3641  0.0304 -0.2620
  421TMC3    C3 6332   0.041   0.161  13.932 -0.2896  0.0732 -0.3465
  421TMC3    C4 6333   4.646   4.678  13.831 -0.3026 -0.6741  0.3920
  421TMC3    C5 6334   0.048   4.695  13.823 -0.7091  0.2108  0.3167
  421TMC3    C6 6335   0.113   0.065  13.875  0.0063 -0.1465  0.7739
  421TMC3     C 6336   4.433   0.010  13.925  0.4339  0.2701  0.1326
  421TMC3     O 6337   4.385   0.078  14.014  0.2077  0.0857 -0.0418
  421TMC3     H 6338   4.573   0.228  13.985 -0.4398  1.0083 -2.1853
  421TMC3    H1 6339   4.598   4.580  13.825 -1.5843  0.0975 -2.2907
  421TMC3    H2 6340   0.221   0.065  13.862 -0.3387 -0.5212 -2.1207
  421TMC3    C7 6341   0.128   4.573  13.828 -0.4970  0.9640  0.5441
  421TMC3    C8 6342   0.125   0.259  13.992  0.9574 -0.2602  0.4425
  421TMC3    O1 6343   0.246   4.574  13.864 -0.3520  0.2104 -0.2599
  421TMC3    O2 6344   0.236   0.277  13.948  0.3044  0.1038 -0.3628
  422TMC3    C1 6345   2.134   1.054  12.875 -0.2667  0.4720  0.2477
  422TMC3    C2 6346   2.188   1.179  12.882 -0.1803  0.7311 -0.9117
  422TMC3    C3 6347   2.108   1.285  12.862 -0.3461 -0.8756  0.7212
  422TMC3    C4 6348   2.004   1.044  12.853 -0.3553 -0.4758 -0.5849
  422TMC3    C5 6349   1.921   1.155  12.849 -0.3142  0.0489  0.2863
  422TMC3    C6 6350   1.969   1.282  12.843 -0.1928 -0.2787 -0.6855
  422TMC3     C 6351   2.227   0.970  12.807  0.6845 -0.3245 -0.1441
  422TMC3     O 6352   2.333   1.028  12.781 -0.5032  0.3679 -0.6494
  422TMC3     H 6353   2.291   1.209  12.895 -0.3565  0.5573  0.9781
  422TMC3    H1 6354   1.957   0.947  12.841 -0.4934 -0.4116 -0.5582
  422TMC3    H2 6355   1.904   1.368  12.833 -1.2740 -1.0075  0.2506
  422TMC3    C7 6356   1.780   1.132  12.826  0.2035 -0.6588  0.0122
  422TMC3    C8 6357   2.175   1.416  12.836  0.4264 -0.0731 -0.4566
  422TMC3    O1 6358   1.733   1.046  12.896  0.4699  0.3229 -0.1910
  422TMC3    O2 6359   2.265   1.457  12.907 -0.4189 -0.7502 -0.2004
  423MPD2     C 6360   3.367   1.475   0.840 -0.4473 -0.5461 -0.3397
  423MPD2    C1 6361   3.489   1.515   0.780  0.0299  0.3104 -0.0770
  423MPD2    C2 6362   3.560   1.424   0.698 -0.3825  0.6540 -0.8888
  423MPD2    C3 6363   3.504   1.301   0.666  0.1000 -0.9503 -0.3372
  423MPD2    C4 6364   3.376   1.266   0.712  0.3825  0.7193  1.0816
  423MPD2    C5 6365   3.323   1.351   0.811  0.0768  0.1085  0.1493
  423MPD2     H 6366   3.662   1.451   0.677 -0.4474  1.0138 -0.7363
  423MPD2    H1 6367   3.318   1.182   0.677  1.6869  0.9605 -1.6316
  423MPD2    H2 6368   3.318   1.534   0.916  0.3334  1.0536 -1.0769
  423MPD2    H3 6369   3.233   1.315   0.860 -0.4327  0.5278 -0.4836
  423MPD2     N 6370   3.558   1.203   0.578 -0.1148  0.3234 -0.2732
  423MPD2    H5 6371   3.496   1.127   0.553  1.1034 -0.0817 -2.0989
  423MPD2    N1 6372   3.548   1.638   0.799  0.3313 -0.0582 -0.3233
  423MPD2    H7 6373   3.645   1.650   0.772  0.5531  1.5041  1.2084
  424TMC3    C1 6374   3.540   1.865   0.862 -0.7152 -0.6328 -0.8424
  424TMC3    C2 6375   3.673   1.859   0.881  0.1540 -0.5447 -0.4520
  424TMC3    C3 6376   3.740   1.974   0.906  0.1456  0.9914 -0.0457
  424TMC3    C4 6377   3.472   1.981   0.872 -0.5190  0.2333 -0.1800
  424TMC3    C5 6378   3.548   2.094   0.889  0.2724 -1.0321  0.7324
  424TMC3    C6 6379   3.681   2.093   0.911  0.1328  0.0288 -0.0956
  424TMC3     C 6380   3.468   1.742   0.840  0.4317 -0.4606  0.1415
  424TMC3     O 6381   3.351   1.750   0.865 -0.2958 -0.2010 -0.7194
  424TMC3     H 6382   3.707   1.762   0.913 -1.2666 -0.8580  0.1086
  424TMC3    H1 6383   3.363   1.985   0.869 -0.6400 -1.2306  2.5190
  424TMC3    H2 6384   3.734   2.182   0.941 -0.2104 -0.0711  0.8142
  424TMC3    C7 6385   3.479   2.218   0.911  0.3458 -0.9693 -0.6674
  424TMC3    C8 6386   3.853   1.966   0.999 -0.0992 -0.3923 -0.4037
  424TMC3    O1 6387   3.538   2.312   0.961 -0.0233 -0.3389 -0.2694
  424TMC3    O2 6388   3.861   2.066   1.070 -0.2891 -0.2399  0.4114
  425MPD2     C 6389   2.419   1.196  17.464  0.5258  0.1328  0.7591
  425MPD2    C1 6390   2.364   1.086  17.521 -0.4046 -0.2434 -0.1718
  425MPD2    C2 6391   2.243   1.094  17.580 -0.7107 -0.1654  0.2054
  425MPD2    C3 6392   2.163   1.200  17.563 -0.2184 -0.2545 -0.2762
  425MPD2    C4 6393   2.215   1.313  17.497  0.5508 -0.1645 -0.1336
  425MPD2    C5 6394   2.346   1.313  17.454  0.3599 -1.0936 -0.6185
  425MPD2     H 6395   2.188   1.010  17.619  0.2544  0.3281  2.6166
  425MPD2    H1 6396   2.155   1.402  17.483 -0.1785 -0.9604 -2.0453
  425MPD2    H2 6397   2.515   1.192  17.413 -1.3468  1.4689 -2.7812
  425MPD2    H3 6398   2.380   1.408  17.415  0.5466 -1.0027 -0.2315
  425MPD2     N 6399   2.038   1.189  17.621 -0.6315  0.0318  0.2350
  425MPD2    H5 6400   2.025   1.096  17.659 -0.7866  1.0154  2.5812
  425MPD2    N1 6401   2.446   0.967  17.521 -0.4396 -0.5897 -0.3101
  425MPD2    H7 6402   2.538   0.975  17.478 -0.7652  1.6876 -0.5595
  426TMC3    C1 6403   2.499   0.738  17.565 -0.8446  0.4920  0.3038
  426TMC3    C2 6404   2.589   0.743  17.460 -0.2832  0.0450  0.2352
  426TMC3    C3 6405   2.683   0.641  17.449 -0.0695  0.4162 -0.0304
  426TMC3    C4 6406   2.507   0.651  17.668  0.0093 -0.4979 -0.4748
  426TMC3    C5 6407   2.600   0.549  17.647 -0.3402 -0.2923 -0.0086
  426TMC3    C6 6408   2.682   0.537  17.536  0.5378 -0.1679 -0.0071
  426TMC3     C 6409   2.408   0.847  17.576 -0.3292  0.1509  0.2204
  426TMC3     O 6410   2.301   0.823  17.626  0.9359 -1.1265  0.5321
  426TMC3     H 6411   2.572   0.820  17.385 -1.5936 -3.2250 -2.8405
  426TMC3    H1 6412   2.432   0.670  17.744  2.3438  0.8452  1.4963
  426TMC3    H2 6413   2.769   0.473  17.542  0.1852 -0.7617 -1.2649
  426TMC3    C7 6414   2.579   0.425  17.726  0.8059 -0.2144 -0.2308
  426TMC3    C8 6415   2.770   0.635  17.338 -0.6927  1.2490 -0.1365
  426TMC3    O1 6416   2.643   0.323  17.700 -0.0273 -0.2872 -0.4458
  426TMC3    O2 6417   2.827   0.530  17.319  0.4922  0.2797  0.6407
  427MPD2     C 6418   1.481   3.463  14.825  0.3017  0.4581  0.2342
  427MPD2    C1 6419   1.435   3.351  14.892  0.1474 -0.1584 -0.4722
  427MPD2    C2 6420   1.297   3.347  14.924 -0.0105 -0.3574  0.2632
  427MPD2    C3 6421   1.213   3.447  14.879 -0.2612  0.4676  0.2045
  427MPD2    C4 6422   1.260   3.554  14.814 -0.0111 -0.4674  0.5265
  427MPD2    C5 6423   1.394   3.554  14.784 -0.0005  0.0233  0.3821
  427MPD2     H 6424   1.262   3.257  14.975 -0.9933  1.3583  2.5922
  427MPD2    H1 6425   1.197   3.637  14.786  0.9694 -0.0025 -0.2803
  427MPD2    H2 6426   1.585   3.463  14.795  0.6841  0.1996  1.5746
  427MPD2    H3 6427   1.433   3.633  14.721  1.6835 -2.6851 -1.9291
  427MPD2     N 6428   1.073   3.444  14.892  0.7929  0.0806  0.3945
  427MPD2    H5 6429   1.024   3.523  14.852  0.0533 -0.5876 -0.0201
  427MPD2    N1 6430   1.522   3.243  14.934  0.4622 -0.4117  0.1422
  427MPD2    H7 6431   1.475   3.160  14.970  3.1145 -1.0669  2.0394
  428TMC3    C1 6432   1.737   3.131  14.981 -1.0501  0.4736  0.6927
  428TMC3    C2 6433   1.677   3.009  14.993 -0.0229  0.1363 -0.5642
  428TMC3    C3 6434   1.737   2.906  15.056 -0.7353 -0.1937  0.3175
  428TMC3    C4 6435   1.865   3.153  15.024  0.7546  0.0056  0.2115
  428TMC3    C5 6436   1.917   3.047  15.097  0.5036 -0.3466  0.3350
  428TMC3    C6 6437   1.859   2.925  15.109 -0.6803  0.1006  0.0058
  428TMC3     C 6438   1.660   3.241  14.929 -0.2852  0.1391  0.2349
  428TMC3     O 6439   1.734   3.334  14.929 -0.2043  0.2614  0.5291
  428TMC3     H 6440   1.580   2.995  14.946 -0.5175  1.5017  0.0555
  428TMC3    H1 6441   1.914   3.249  15.039 -0.3220  0.3428  1.5321
  428TMC3    H2 6442   1.905   2.849  15.172 -0.8737 -0.4908 -0.5680
  428TMC3    C7 6443   1.959   3.081  15.230  0.4244  0.4858  0.2843
  428TMC3    C8 6444   1.685   2.776  15.078  0.1006  0.4232 -0.3871
  428TMC3    O1 6445   1.904   3.014  15.315  0.3284 -0.8608  0.1420
  428TMC3    O2 6446   1.760   2.701  15.138  0.0852  0.1527 -0.2485
  429MPD2     C 6447   2.267   2.941   0.266  0.4445 -0.3488  0.6094
  429MPD2    C1 6448   2.294   2.911   0.138 -0.2504  0.2286  0.3055
  429MPD2    C2 6449   2.347   3.004   0.052 -0.4427  0.5775 -0.8515
  429MPD2    C3 6450   2.363   3.139   0.083  0.3342  0.1316  0.5263
  429MPD2    C4 6451   2.344   3.165   0.213 -0.5370 -0.2416 -0.3968
  429MPD2    C5 6452   2.289   3.075   0.298  0.3359 -0.3438 -0.1486
  429MPD2     H 6453   2.384   2.970  17.703 -3.7093 -2.1926 -1.0991
  429MPD2    H1 6454   2.348   3.269   0.246  1.0446 -0.3851 -0.1448
  429MPD2    H2 6455   2.221   2.875   0.339  3.7412 -1.7802  1.3670
  429MPD2    H3 6456   2.245   3.110   0.391  0.8394 -0.1072 -0.0001
  429MPD2     N 6457   2.417   3.217  17.730 -0.6117  0.3543  0.0337
  429MPD2    H5 6458   2.436   3.168  17.643 -1.5722  0.9541 -0.5189
  429MPD2    N1 6459   2.286   2.775   0.091  0.3532  0.4858 -1.0339
  429MPD2    H7 6460   2.330   2.752   0.003 -0.8852  0.1318 -1.5585
  430TMC3    C1 6461   2.539   3.399  17.645  0.5634  0.2730 -0.0682
  430TMC3    C2 6462   2.527   3.523  17.584 -0.2986  0.4911  0.8619
  430TMC3    C3 6463   2.627   3.567  17.497  0.0670 -0.4385  0.0167
  430TMC3    C4 6464   2.639   3.316  17.604  0.6563  0.8962  0.1997
  430TMC3    C5 6465   2.733   3.360  17.507 -0.4949 -0.0250 -0.2562
  430TMC3    C6 6466   2.733   3.488  17.466 -0.3147 -0.0192  0.2562
  430TMC3     C 6467   2.457   3.351   0.002 -0.5343  0.2127 -0.6773
  430TMC3     O 6468   2.449   3.417   0.105 -0.1727  0.6828 -0.1531
  430TMC3     H 6469   2.445   3.587  17.616 -0.2698  0.9331  0.0437
  430TMC3    H1 6470   2.641   3.216  17.647 -0.9560  1.4769  1.6154
  430TMC3    H2 6471   2.808   3.522  17.395 -1.5562  1.6614 -0.2586
  430TMC3    C7 6472   2.770   3.266  17.406 -0.0246  0.0533 -0.4864
  430TMC3    C8 6473   2.562   3.617  17.378  0.8934 -0.4763 -0.2413
  430TMC3    O1 6474   2.792   3.150  17.432  0.5400  0.4383 -0.9240
  430TMC3    O2 6475   2.606   3.565  17.273 -0.4100  0.1823  0.1345
  431MPD2     C 6476   3.196   3.516  12.632  0.3051  0.1639 -0.1263
  431MPD2    C1 6477   3.310   3.433  12.616  0.5731  0.6103  0.2446
  431MPD2    C2 6478   3.290   3.307  12.560 -0.4412 -0.1238  0.2754
  431MPD2    C3 6479   3.169   3.262  12.521 -0.3303  0.0789  0.3048
  431MPD2    C4 6480   3.059   3.346  12.535 -0.0776 -0.3400 -0.0088
  431MPD2    C5 6481   3.071   3.472  12.583  0.1564  0.5122  0.8079
  431MPD2     H 6482   3.376   3.242  12.546 -1.1068 -1.1719  1.1161
  431MPD2    H1 6483   2.963   3.317  12.495 -0.5996  2.7580 -1.0662
  431MPD2    H2 6484   3.198   3.619  12.667  1.1518  0.9482 -2.4814
  431MPD2    H3 6485   2.994   3.549  12.580  0.6828  1.0313  0.6172
  431MPD2     N 6486   3.154   3.129  12.476 -0.0372  0.5779  0.2322
  431MPD2    H5 6487   3.063   3.086  12.484  0.9293 -0.8398  3.3839
  431MPD2    N1 6488   3.442   3.474  12.654 -0.1371 -0.4295  0.4090
  431MPD2    H7 6489   3.522   3.414  12.635 -0.1537  0.5325 -2.6979
  432TMC3    C1 6490   3.200   2.933  12.349  0.0435  0.1705  0.1241
  432TMC3    C2 6491   3.263   2.878  12.241 -0.5468 -0.3501  0.3517
  432TMC3    C3 6492   3.229   2.748  12.199 -0.0511  0.1464  0.0180
  432TMC3    C4 6493   3.112   2.859  12.421 -0.4528 -0.8360 -0.3274
  432TMC3    C5 6494   3.086   2.727  12.382  0.3071 -0.3538  0.9295
  432TMC3    C6 6495   3.132   2.682  12.255 -0.0275  0.7871  0.2769
  432TMC3     C 6496   3.243   3.058  12.400  0.4367  0.8711  0.3406
  432TMC3     O 6497   3.345   3.097  12.344 -0.5169  0.2457  0.0604
  432TMC3     H 6498   3.343   2.930  12.189  1.0693 -1.3558  1.8252
  432TMC3    H1 6499   3.068   2.900  12.511 -1.1479 -1.1870 -0.5030
  432TMC3    H2 6500   3.100   2.584  12.220 -1.3559  1.2532  0.1820
  432TMC3    C7 6501   3.063   2.625  12.490  0.4392  0.5624 -0.0650
  432TMC3    C8 6502   3.306   2.681  12.096  0.1129 -0.1417 -0.4913
  432TMC3    O1 6503   3.051   2.512  12.447  0.6181 -0.1445 -0.4565
  432TMC3    O2 6504   3.257   2.588  12.030  0.8406  0.1188  0.4446
  433MPD2     C 6505   1.970   1.812  10.712 -0.1420  0.2209  0.2421
  433MPD2    C1 6506   1.886   1.749  10.793  0.2611  0.6465 -0.1461
  433MPD2    C2 6507   1.845   1.802  10.919 -0.2322 -0.6143 -0.5331
  433MPD2    C3 6508   1.920   1.916  10.954 -0.5512 -0.1463  0.1322
  433MPD2    C4 6509   2.022   1.970  10.873 -0.0245  0.1974 -0.4265
  433MPD2    C5 6510   2.041   1.927  10.746 -0.0331  0.0644  0.1582
  433MPD2     H 6511   1.783   1.752  10.993 -1.6145 -1.2125 -2.1068
  433MPD2    H1 6512   2.089   2.044  10.914 -3.1584  3.1845 -0.6546
  433MPD2    H2 6513   1.989   1.780  10.610  0.2323  0.2638  0.2976
  433MPD2    H3 6514   2.107   1.972  10.672  1.1760  2.6408  2.7821
  433MPD2     N 6515   1.906   1.971  11.081 -0.1924  0.0021  0.4828
  433MPD2    H5 6516   1.824   1.946  11.135 -1.5893  2.4145 -0.5277
  433MPD2    N1 6517   1.853   1.620  10.747 -0.3866  0.3645  0.1313
  433MPD2    H7 6518   1.909   1.592  10.667  2.8888 -1.6598  3.1803
  434TMC3    C1 6519   1.768   1.401  10.769 -0.3927  0.2961 -0.0133
  434TMC3    C2 6520   1.883   1.356  10.806  0.3306  0.8855  0.0617
  434TMC3    C3 6521   1.897   1.224  10.829 -0.1338  0.2997  1.0370
  434TMC3    C4 6522   1.652   1.318  10.752  0.0086  0.0531 -0.6647
  434TMC3    C5 6523   1.675   1.184  10.767  0.6752  0.8002  0.2872
  434TMC3    C6 6524   1.797   1.132  10.804 -0.2803  0.1809  0.1903
  434TMC3     C 6525   1.752   1.538  10.797 -0.5308 -0.1835 -0.1578
  434TMC3     O 6526   1.664   1.578  10.872  0.2741  0.4362  0.1003
  434TMC3     H 6527   1.971   1.418  10.824  0.7639  0.5094 -0.7325
  434TMC3    H1 6528   1.556   1.359  10.721 -0.6739 -0.7741  0.3436
  434TMC3    H2 6529   1.808   1.026  10.827  1.0476  0.1289 -0.6551
  434TMC3    C7 6530   1.568   1.085  10.756  0.2955 -0.0322  0.6527
  434TMC3    C8 6531   2.028   1.191  10.888  0.5516  0.4012 -0.2755
  434TMC3    O1 6532   1.572   0.992  10.835 -0.1843  0.1585  0.2962
  434TMC3    O2 6533   2.091   1.283  10.941  0.5154 -0.0959 -0.2989
  435MPD2     C 6534   4.288   2.080  15.333 -0.0765  0.2676 -0.1816
  435MPD2    C1 6535   4.212   2.016  15.429 -0.2541  0.0519  0.0853
  435MPD2    C2 6536   4.277   1.944  15.527  0.2066 -0.2933  0.6874
  435MPD2    C3 6537   4.409   1.933  15.536 -0.0073 -0.2171 -0.0614
  435MPD2    C4 6538   4.486   1.981  15.435 -0.1283 -0.0458 -0.6446
  435MPD2    C5 6539   4.419   2.050  15.330 -0.8366  0.5981  0.9608
  435MPD2     H 6540   4.213   1.897  15.601  0.2060 -0.5854  0.5003
  435MPD2    H1 6541   4.594   1.976  15.444 -0.3177 -0.8945  1.3021
  435MPD2    H2 6542   4.239   2.132  15.252  0.4093 -0.2878 -0.8368
  435MPD2    H3 6543   4.475   2.087  15.245 -2.1678 -1.3875 -0.7838
  435MPD2     N 6544   4.445   1.868  15.662  0.4544 -0.1064 -0.3940
  435MPD2    H5 6545   4.374   1.859  15.733 -0.1192  1.3938 -0.7826
  435MPD2    N1 6546   4.070   2.020  15.439 -0.1713  0.1984  0.3379
  435MPD2    H7 6547   4.024   1.992  15.525 -0.7581  3.4414  1.0761
  436TMC3    C1 6548   3.702   2.062  15.572 -0.6863 -0.4545 -0.5897
  436TMC3    C2 6549   3.837   2.076  15.531  0.3449 -0.5743  0.2624
  436TMC3    C3 6550   3.853   2.094  15.398  0.5895  0.0392  0.3092
  436TMC3    C4 6551   3.599   2.036  15.490  0.1545  0.1978 -0.1931
  436TMC3    C5 6552   3.624   2.046  15.350  0.0564  0.1225 -0.3280
  436TMC3    C6 6553   3.749   2.080  15.310  0.2119  0.5290  0.3586
  436TMC3     C 6554   3.705   1.988  15.693  0.3086 -0.6783  0.1751
  436TMC3     O 6555   3.802   1.923  15.722 -0.2443 -0.1764  0.4465
  436TMC3     H 6556   3.910   2.115  15.602  2.2821 -1.0854 -1.4552
  436TMC3    H1 6557   3.500   2.022  15.530  0.7747 -3.0915  0.1403
  436TMC3    H2 6558   3.775   2.093  15.205 -2.5311 -0.6111 -0.4597
  436TMC3    C7 6559   3.551   1.978  15.243 -0.1399 -0.3376  0.1051
  436TMC3    C8 6560   3.987   2.078  15.349  0.1351 -0.3545  0.4763
  436TMC3    O1 6561   3.605   1.964  15.131 -0.3196  0.1018 -0.0526
  436TMC3    O2 6562   4.018   2.119  15.235 -0.3049 -0.1027 -0.3496
  437TMC3    C1 6563   2.509   4.082  12.798 -1.1554 -0.0478 -0.8568
  437TMC3    C2 6564   2.399   4.164  12.788 -0.4792  0.5533 -0.4312
  437TMC3    C3 6565   2.392   4.261  12.687  0.7481  0.6227 -0.8376
  437TMC3    C4 6566   2.617   4.102  12.718  0.3215  0.2240 -0.2068
  437TMC3    C5 6567   2.609   4.197  12.618  0.4115 -0.4040  0.2721
  437TMC3    C6 6568   2.502   4.277  12.603  0.2036  0.0421 -0.0218
  437TMC3     C 6569   2.511   4.003  12.924 -0.1275  0.0046  0.5216
  437TMC3     O 6570   2.406   4.010  12.996  0.3391  0.1470 -0.1593
  437TMC3     H 6571   2.326   4.169  12.868  0.5261  0.1788  0.5169
  437TMC3    H1 6572   2.709   4.046  12.731  0.3963  0.5313  0.6401
  437TMC3    H2 6573   2.506   4.367  12.542  0.9357 -0.9383 -1.4479
  437TMC3    C7 6574   2.728   4.237  12.544  0.1292 -0.4917  0.3933
  437TMC3    C8 6575   2.325   4.387  12.707 -0.7180 -0.4101  1.0025
  437TMC3    O1 6576   2.715   4.310  12.447 -0.8081  0.3872 -0.1934
  437TMC3    O2 6577   2.277   4.441  12.609 -0.2131  0.4056  0.4563
  438MPD2     C 6578   0.346   4.528  16.959  0.0155 -0.1467  0.5636
  438MPD2    C1 6579   0.374   4.421  17.033  0.0417  0.2713  0.0151
  438MPD2    C2 6580   0.338   4.416  17.163  0.0071  0.0158  0.4614
  438MPD2    C3 6581   0.263   4.510  17.222  0.0329 -0.0362  1.2940
  438MPD2    C4 6582   0.230   4.623  17.149  0.0692  0.6950 -0.3744
  438MPD2    C5 6583   0.272   4.634  17.019  0.1484 -0.6370  0.1494
  438MPD2     H 6584   0.371   4.331  17.221 -0.3964 -0.1052  0.5183
  438MPD2    H1 6585   0.169   4.699  17.197 -0.3303  0.7597 -0.9836
  438MPD2    H2 6586   0.389   4.550  16.862 -0.8711 -0.2434  0.1515
  438MPD2    H3 6587   0.253   4.720  16.957 -0.8067  0.4269  1.9118
  438MPD2     N 6588   0.220   4.497  17.358  0.3473  0.4474  0.2031
  438MPD2    H5 6589   0.176   4.575  17.406  0.5799 -0.2813  1.6052
  438MPD2    N1 6590   0.471   4.323  16.998 -0.6689 -0.0276 -0.3079
  438MPD2    H7 6591   0.525   4.285  17.076  0.2287  0.6882 -0.5832
  439TMC3    C1 6592   0.664   4.270  16.872 -0.5369 -0.1282 -0.4312
  439TMC3    C2 6593   0.703   4.179  16.778 -0.2926  0.2744  0.0336
  439TMC3    C3 6594   0.823   4.117  16.801 -1.3113  0.4278  0.2342
  439TMC3    C4 6595   0.736   4.301  16.982  0.3856 -0.7615  0.2563
  439TMC3    C5 6596   0.856   4.242  16.998  0.0824 -0.6315 -0.3412
  439TMC3    C6 6597   0.904   4.151  16.909  0.4459  0.4142 -0.3858
  439TMC3     C 6598   0.524   4.308  16.873 -0.9660  0.4201  0.0234
  439TMC3     O 6599   0.471   4.343  16.769  0.3951 -0.2207  0.2374
  439TMC3     H 6600   0.641   4.161  16.691  2.5873  1.3451 -2.2707
  439TMC3    H1 6601   0.713   4.374  17.059 -1.0964 -0.3347 -0.5886
  439TMC3    H2 6602   1.004   4.109  16.919  0.7736  1.4761  0.7880
  439TMC3    C7 6603   0.957   4.310  17.083 -0.1325 -0.0677  0.2498
  439TMC3    C8 6604   0.890   4.050  16.692  0.0229  0.2335 -0.4520
  439TMC3    O1 6605   0.946   4.427  17.119  0.3532  0.5648 -0.1464
  439TMC3    O2 6606   1.013   4.039  16.699 -0.2766 -0.0428 -0.4572
  440MPD2     C 6607   3.473   0.104  15.345 -0.2724 -0.1455  0.2468
  440MPD2    C1 6608   3.594   0.167  15.319 -0.0217  0.4881  0.5092
  440MPD2    C2 6609   3.693   0.089  15.266 -0.8110  0.2837  0.3856
  440MPD2    C3 6610   3.674   4.687  15.254  0.2635 -0.0136 -0.0803
  440MPD2    C4 6611   3.552   4.628  15.276 -0.5505  0.4806  0.9137
  440MPD2    C5 6612   3.453   4.706  15.319  0.2259  0.1643  0.5539
  440MPD2     H 6613   3.783   0.135  15.228 -2.6276  1.1653 -2.8536
  440MPD2    H1 6614   3.525   4.525  15.261 -0.2299  0.6498 -0.8301
  440MPD2    H2 6615   3.382   0.156  15.371 -0.2258 -0.0808  0.2794
  440MPD2    H3 6616   3.355   4.661  15.331  0.1923  0.4427  1.3224
  440MPD2     N 6617   3.776   4.600  15.206 -0.5500 -0.2849 -0.1208
  440MPD2    H5 6618   3.746   4.505  15.187 -0.9010 -0.5616  1.7946
  440MPD2    N1 6619   3.609   0.309  15.341  0.1694  0.5630 -0.4707
  440MPD2    H7 6620   3.698   0.352  15.316 -1.0722  2.7597 -1.0687
  441TMC3    C1 6621   3.980   4.525  15.132 -0.2035  0.0576  0.1023
  441TMC3    C2 6622   4.082   4.565  15.051 -0.3256 -0.7449 -0.6474
  441TMC3    C3 6623   4.202   4.495  15.051 -0.2614 -0.6433 -0.1691
  441TMC3    C4 6624   3.991   4.422  15.217 -0.0944 -0.8843 -0.2000
  441TMC3    C5 6625   4.115   4.365  15.221  0.2317 -0.0311 -0.2200
  441TMC3    C6 6626   4.216   4.380  15.132  0.2477  0.1138 -0.3402
  441TMC3     C 6627   3.906   4.631  15.189 -0.0637 -0.3010  0.2245
  441TMC3     O 6628   3.966   4.732  15.220  0.4232  0.4956 -0.1751
  441TMC3     H 6629   4.073   4.657  14.994 -0.0079 -0.6263 -0.5099
  441TMC3    H1 6630   3.910   4.397  15.285  0.6096  0.5879  1.1649
  441TMC3    H2 6631   4.309   4.327  15.141 -0.2667 -0.3665  2.1601
  441TMC3    C7 6632   4.165   4.337  15.350 -0.3512  0.0830 -0.3098
  441TMC3    C8 6633   4.318   4.579  15.080 -0.0382 -0.0688  0.3598
  441TMC3    O1 6634   4.092   4.276  15.426 -0.7014  0.2932 -0.1970
  441TMC3    O2 6635   4.425   4.521  15.111 -0.0101 -0.1291  0.2388
  442MPD2     C 6636   2.497   0.726  16.640 -0.1131  0.0529  0.2646
  442MPD2    C1 6637   2.444   0.664  16.751 -0.8145  0.5679  0.1954
  442MPD2    C2 6638   2.398   0.531  16.747  0.0570 -0.4113  0.3550
  442MPD2    C3 6639   2.408   0.463  16.627  0.4884 -0.4233 -0.1728
  442MPD2    C4 6640   2.475   0.525  16.521  0.1544 -0.8636  0.4893
  442MPD2    C5 6641   2.511   0.656  16.521  0.8144 -0.2761  0.4088
  442MPD2     H 6642   2.353   0.501  16.841 -0.4899  0.3400  0.3325
  442MPD2    H1 6643   2.484   0.469  16.429 -0.4940 -1.3018  0.6939
  442MPD2    H2 6644   2.531   0.829  16.635  0.1109  0.0620  2.0538
  442MPD2    H3 6645   2.546   0.701  16.429  1.1710  0.7709  1.0591
  442MPD2     N 6646   2.347   0.338  16.604  0.0696  0.3762  0.4669
  442MPD2    H5 6647   2.336   0.308  16.507  0.9981 -2.5369  1.2604
  442MPD2    N1 6648   2.430   0.732  16.873  0.0144 -0.3888  0.6534
  442MPD2    H7 6649   2.427   0.674  16.956 -0.5298 -3.1849 -1.3473
  443TMC3    C1 6650   2.415   0.923  17.020 -0.2103  0.6786  0.6083
  443TMC3    C2 6651   2.405   1.060  17.018  0.2002  0.4036  0.0549
  443TMC3    C3 6652   2.313   1.114  17.097 -0.0256 -0.2696 -0.7470
  443TMC3    C4 6653   2.364   0.848  17.120 -0.0199  0.7787  0.2601
  443TMC3    C5 6654   2.309   0.913  17.227 -0.2859  0.0037  0.3917
  443TMC3    C6 6655   2.286   1.049  17.215  0.2438 -0.0817  0.0578
  443TMC3     C 6656   2.427   0.865  16.886 -0.8856 -0.5358  0.3532
  443TMC3     O 6657   2.410   0.950  16.799 -0.0162  0.1782  0.1297
  443TMC3     H 6658   2.444   1.120  16.937  1.0087  0.7895  0.7303
  443TMC3    H1 6659   2.354   0.741  17.106  1.8717  0.7416 -0.8381
  443TMC3    H2 6660   2.238   1.099  17.298 -0.7668  0.3749 -0.8107
  443TMC3    C7 6661   2.202   0.843  17.302  0.1739  0.4057 -0.7799
  443TMC3    C8 6662   2.190   1.156  17.026 -0.8297 -0.0821 -0.2848
  443TMC3    O1 6663   2.212   0.719  17.293 -0.0298  0.3414 -0.0159
  443TMC3    O2 6664   2.091   1.179  17.100 -0.1036  0.1887  0.1495
  444MPD2     C 6665   2.209   0.256  17.258  0.2288  0.3736 -0.2116
  444MPD2    C1 6666   2.160   0.125  17.283  0.6419  0.1156  0.3167
  444MPD2    C2 6667   2.228   0.029  17.216  0.5974 -0.0721 -0.3465
  444MPD2    C3 6668   2.330   0.055  17.123  0.3783  0.1625  0.6932
  444MPD2    C4 6669   2.366   0.184  17.098 -0.1176  0.0765 -0.5428
  444MPD2    C5 6670   2.300   0.285  17.156  0.8612  0.3490  0.9079
  444MPD2     H 6671   2.190   4.665  17.221 -0.1802  0.2810  1.2997
  444MPD2    H1 6672   2.441   0.209  17.024  1.1523 -1.8817  0.0659
  444MPD2    H2 6673   2.169   0.348  17.300  0.8391  1.3243 -1.7270
  444MPD2    H3 6674   2.311   0.390  17.134  2.2895  0.0478  0.2177
  444MPD2     N 6675   2.379   4.681  17.055 -0.3027 -0.4346 -0.1455
  444MPD2    H5 6676   2.334   4.592  17.073  0.1988 -0.7518 -0.4608
  444MPD2    N1 6677   2.069   0.086  17.388 -0.2147  0.3611  0.0099
  444MPD2    H7 6678   2.046   4.725  17.397  3.5709 -0.4966  0.3673
  445TMC3    C1 6679   2.522   4.560  16.915 -0.4705  0.3805 -0.1056
  445TMC3    C2 6680   2.423   4.481  16.873  0.3450 -0.5612  0.4673
  445TMC3    C3 6681   2.463   4.370  16.804 -0.1237 -0.0522 -0.8687
  445TMC3    C4 6682   2.654   4.540  16.905 -0.1390 -0.1182  0.1589
  445TMC3    C5 6683   2.685   4.423  16.839 -0.0605 -0.1531 -0.1667
  445TMC3    C6 6684   2.595   4.340  16.781 -0.0810 -0.6353 -0.2991
  445TMC3     C 6685   2.497   4.683  16.979  0.2519  0.3490  0.1724
  445TMC3     O 6686   2.575   0.035  16.953 -0.0254 -0.1067 -0.3038
  445TMC3     H 6687   2.323   4.518  16.893  1.1246  1.7138  0.1447
  445TMC3    H1 6688   2.737   4.604  16.934  0.7338 -0.9348 -0.5010
  445TMC3    H2 6689   2.624   4.237  16.763 -0.1685 -1.2536  3.0735
  445TMC3    C7 6690   2.816   4.368  16.872 -0.6009 -0.3760 -0.0043
  445TMC3    C8 6691   2.368   4.315  16.713  0.0218  0.7560 -0.0046
  445TMC3    O1 6692   2.848   4.277  16.793  0.0840  0.3281  0.1058
  445TMC3    O2 6693   2.254   4.342  16.736 -0.3042  0.0786 -0.1954
  446MPD2     C 6694   1.583   1.597  11.301 -0.2083 -0.1026  0.0865
  446MPD2    C1 6695   1.605   1.509  11.202 -0.0294  0.4429  0.8443
  446MPD2    C2 6696   1.734   1.483  11.170  0.5775 -0.5873  0.1519
  446MPD2    C3 6697   1.847   1.542  11.226  0.0830 -1.1155  0.8332
  446MPD2    C4 6698   1.822   1.633  11.326  0.2130  0.9818 -0.0416
  446MPD2    C5 6699   1.691   1.657  11.366 -0.2551  0.2152  0.2032
  446MPD2     H 6700   1.749   1.408  11.092  0.4102 -1.0210  0.5381
  446MPD2    H1 6701   1.899   1.698  11.366  0.1023  0.8159  0.4414
  446MPD2    H2 6702   1.484   1.636  11.320 -0.2428 -0.9266  1.6447
  446MPD2    H3 6703   1.662   1.729  11.442  0.5237 -1.8387  2.4860
  446MPD2     N 6704   1.974   1.527  11.164  0.0524  0.3141 -0.5626
  446MPD2    H5 6705   1.988   1.468  11.082  0.7664  1.6841 -1.4282
  446MPD2    N1 6706   1.491   1.455  11.134  0.1056  0.0777  1.0900
  446MPD2    H7 6707   1.407   1.512  11.124  0.0346 -0.0329  1.0572
  447TMC3    C1 6708   2.199   1.557  11.115 -0.4346  0.0917  0.0080
  447TMC3    C2 6709   2.184   1.588  10.977  0.1877 -0.5065 -0.1985
  447TMC3    C3 6710   2.284   1.546  10.890  0.0439 -0.2089 -0.1495
  447TMC3    C4 6711   2.319   1.517  11.167  0.3789  0.5092  0.0963
  447TMC3    C5 6712   2.417   1.492  11.076 -0.0933 -0.0718 -0.5902
  447TMC3    C6 6713   2.404   1.507  10.939  0.1992  0.3490 -0.0720
  447TMC3     C 6714   2.089   1.582  11.208 -0.2894  0.3650 -0.5413
  447TMC3     O 6715   2.125   1.614  11.322  0.0030  0.0871 -0.5824
  447TMC3     H 6716   2.089   1.628  10.944  0.0158 -1.0015 -0.3044
  447TMC3    H1 6717   2.329   1.482  11.269 -0.5650 -0.8312 -0.2702
  447TMC3    H2 6718   2.482   1.483  10.868 -0.8542 -1.4014 -0.6203
  447TMC3    C7 6719   2.540   1.446  11.123  0.1103 -0.2926  0.6208
  447TMC3    C8 6720   2.276   1.621  10.768  0.5049  0.2346  0.4648
  447TMC3    O1 6721   2.604   1.375  11.044  0.1296  0.0957 -0.0786
  447TMC3    O2 6722   2.178   1.600  10.695 -0.1542 -0.0200  0.3887
  448TMC3    C1 6723   0.005   1.260  17.117  0.2841 -0.7116  0.0280
  448TMC3    C2 6724   0.012   1.130  17.075 -0.7294 -0.4898  0.2154
  448TMC3    C3 6725   0.036   1.037  17.178 -0.0714 -0.9472  0.0595
  448TMC3    C4 6726   0.052   1.305  17.231 -0.8713  0.3779  0.4094
  448TMC3    C5 6727   0.097   1.220  17.326 -0.1323  0.2200  0.0714
  448TMC3    C6 6728   0.079   1.083  17.298 -0.0969  0.2442  0.0969
  448TMC3     C 6729   4.687   1.366  17.025  0.0103 -0.5324 -0.0882
  448TMC3     O 6730   4.705   1.483  17.050 -0.4622 -0.3356 -0.8395
  448TMC3     H 6731   4.725   1.100  16.974 -0.5266  2.0620 -0.6111
  448TMC3    H1 6732   0.052   1.408  17.265 -2.5294 -0.3458  2.6504
  448TMC3    H2 6733   0.118   1.008  17.365 -3.1635 -1.3171  0.1571
  448TMC3    C7 6734   0.163   1.262  17.445  0.0339  0.5072  0.0739
  448TMC3    C8 6735   0.034   0.894  17.153 -0.1994 -0.0503 -0.1586
  448TMC3    O1 6736   0.230   1.366  17.436 -0.1173  0.9911  0.1046
  448TMC3    O2 6737   0.076   0.818  17.238 -0.0435  0.4778  0.4932
  449MPD2     C 6738   1.879   4.310  14.161  0.1409  0.2703 -0.4803
  449MPD2    C1 6739   1.772   4.360  14.091  0.1237  0.2568  0.5887
  449MPD2    C2 6740   1.646   4.319  14.129  0.4052  0.4395 -1.2707
  449MPD2    C3 6741   1.629   4.210  14.207 -0.7632  0.4111  0.4430
  449MPD2    C4 6742   1.736   4.159  14.284  0.5480  0.0170  0.2343
  449MPD2    C5 6743   1.858   4.215  14.255  0.1564 -0.0835  0.3699
  449MPD2     H 6744   1.561   4.371  14.087 -1.1320 -0.9095  0.1797
  449MPD2    H1 6745   1.721   4.082  14.358  0.2467 -0.4729 -0.3387
  449MPD2    H2 6746   1.984   4.331  14.142 -0.3412  1.8051 -1.4551
  449MPD2    H3 6747   1.949   4.177  14.300  1.4962  0.9196 -1.5016
  449MPD2     N 6748   1.496   4.155  14.219  0.4144 -0.2077  0.6836
  449MPD2    H5 6749   1.433   4.207  14.159 -0.8553 -0.6182  1.6634
  449MPD2    N1 6750   1.791   4.444  13.983  0.2747 -0.2385  0.4129
  449MPD2    H7 6751   1.711   4.490  13.940 -0.3093  0.8157  2.6527
  450TMC3    C1 6752   1.890   4.546  13.797  0.5204 -0.6839 -0.4429
  450TMC3    C2 6753   1.919   4.486  13.677 -0.5872  0.1856 -0.0768
  450TMC3    C3 6754   1.833   4.512  13.570 -0.2832 -0.0389 -0.0198
  450TMC3    C4 6755   1.778   4.623  13.800  0.8951 -0.3042 -0.0591
  450TMC3    C5 6756   1.687   4.634  13.697 -0.2047  0.1247  0.0196
  450TMC3    C6 6757   1.717   4.584  13.576  0.4538 -0.7925 -0.2254
  450TMC3     C 6758   1.913   4.457  13.911  0.1629  0.6971 -0.3635
  450TMC3     O 6759   2.008   4.382  13.906  0.3243  0.1023  0.2360
  450TMC3     H 6760   2.006   4.422  13.674 -0.5398  0.2452  0.0303
  450TMC3    H1 6761   1.748   4.671  13.893 -1.8519  3.6368 -2.9751
  450TMC3    H2 6762   1.653   4.601  13.490 -0.3097 -3.8917 -0.2737
  450TMC3    C7 6763   1.559   4.593  13.741  0.3217 -0.3113  0.2602
  450TMC3    C8 6764   1.844   4.417  13.461  0.0496  0.1958 -0.2226
  450TMC3    O1 6765   1.571   4.541  13.853 -0.4645  0.3098 -0.2776
  450TMC3    O2 6766   1.744   4.371  13.405  0.0263  0.0314 -0.6984
  451MPD2     C 6767   3.310   2.818   1.163  0.2675 -0.6328  0.2042
  451MPD2    C1 6768   3.334   2.884   1.048 -0.7688 -0.1583  0.0522
  451MPD2    C2 6769   3.428   2.828   0.953  0.3987  0.1252 -0.1058
  451MPD2    C3 6770   3.488   2.705   0.987 -0.1928  0.0476 -0.0023
  451MPD2    C4 6771   3.455   2.647   1.103  0.4295 -0.6604 -0.2408
  451MPD2    C5 6772   3.373   2.702   1.190 -0.2682 -1.0338 -0.2089
  451MPD2     H 6773   3.447   2.876   0.858 -1.1163  0.0867 -0.4305
  451MPD2    H1 6774   3.505   2.553   1.118  0.8593 -0.5404 -0.9448
  451MPD2    H2 6775   3.248   2.854   1.244 -1.5335  0.8673 -1.8332
  451MPD2    H3 6776   3.362   2.649   1.284 -0.9021  0.0567  0.3308
  451MPD2     N 6777   3.567   2.631   0.890 -0.8228 -0.5466 -0.2946
  451MPD2    H5 6778   3.595   2.535   0.910 -0.1411 -0.2260  0.2524
  451MPD2    N1 6779   3.262   3.007   1.036 -0.3961  0.9048 -0.0392
  451MPD2    H7 6780   3.206   3.027   1.118  1.2379 -0.1526  1.3370
  452TMC3    C1 6781   3.716   2.605   0.698 -0.4595 -0.0748 -0.0356
  452TMC3    C2 6782   3.725   2.468   0.716 -0.2254 -0.0472  0.0078
  452TMC3    C3 6783   3.822   2.410   0.636 -0.7700  0.3073 -0.0151
  452TMC3    C4 6784   3.802   2.680   0.619 -0.6927  0.5292 -0.2670
  452TMC3    C5 6785   3.901   2.614   0.553  0.1819 -1.1723 -0.0736
  452TMC3    C6 6786   3.908   2.482   0.554  0.2658  0.3525  1.2412
  452TMC3     C 6787   3.611   2.676   0.762 -0.2903  0.2338  0.5404
  452TMC3     O 6788   3.589   2.790   0.717  0.8094 -0.4464  0.1653
  452TMC3     H 6789   3.657   2.415   0.782 -1.1873 -0.4538 -1.3327
  452TMC3    H1 6790   3.792   2.788   0.617  0.2499  0.6554  1.9554
  452TMC3    H2 6791   3.990   2.435   0.501  0.5258 -0.7344  2.6023
  452TMC3    C7 6792   3.963   2.668   0.436 -0.3897 -0.1355 -0.0729
  452TMC3    C8 6793   3.792   2.274   0.603 -0.4718  0.5769  0.2525
  452TMC3    O1 6794   4.047   2.613   0.370  0.3175  0.1978 -0.1330
  452TMC3    O2 6795   3.674   2.242   0.604  0.2264 -0.2201 -0.1336
  453TMC3    C1 6796   4.232   0.501  12.011  0.3222  0.5306  0.6148
  453TMC3    C2 6797   4.116   0.434  12.046  0.6472  0.2778 -0.0800
  453TMC3    C3 6798   4.001   0.486  12.005 -0.2917 -0.5862 -0.1573
  453TMC3    C4 6799   4.225   0.617  11.939 -0.4448 -0.0330 -0.6410
  453TMC3    C5 6800   4.100   0.670  11.899 -0.5608 -0.1056  0.6902
  453TMC3    C6 6801   3.988   0.600  11.927 -0.2796 -0.0396 -0.1420
  453TMC3     C 6802   4.368   0.472  12.067 -0.2136 -0.0931  0.8161
  453TMC3     O 6803   4.463   0.517  12.006 -0.2510  0.3356  0.4585
  453TMC3     H 6804   4.122   0.346  12.109 -2.7481  0.0494 -0.0770
  453TMC3    H1 6805   4.313   0.671  11.904 -0.1936 -0.7200 -1.0615
  453TMC3    H2 6806   3.893   0.637  11.892 -0.2091  1.2136  0.9762
  453TMC3    C7 6807   4.101   0.777  11.801 -0.1463 -0.3586 -0.6691
  453TMC3    C8 6808   3.881   0.410  12.037 -0.0718 -1.1044  0.9699
  453TMC3    O1 6809   4.181   0.871  11.807  0.0978 -0.0667  0.2161
  453TMC3    O2 6810   3.780   0.474  12.023 -0.1006 -0.5842 -0.1751
  454MPD2     C 6811   3.099   4.584  16.348  0.6951 -0.4600  0.2656
  454MPD2    C1 6812   3.016   4.657  16.270  0.0366  0.5255  0.6361
  454MPD2    C2 6813   2.992   0.054  16.309 -0.0420 -0.4532 -0.0573
  454MPD2    C3 6814   3.035   0.105  16.433 -0.4902  0.7114 -0.2045
  454MPD2    C4 6815   3.112   0.019  16.516  0.4999 -0.6688  0.8234
  454MPD2    C5 6816   3.149   4.636  16.464 -0.0085 -0.2288  0.8481
  454MPD2     H 6817   2.918   0.106  16.250 -0.5382 -2.1846 -0.9761
  454MPD2    H1 6818   3.139   0.055  16.615  0.6711 -0.7222  0.7957
  454MPD2    H2 6819   3.128   4.484  16.320  2.4865 -0.2020  1.2360
  454MPD2    H3 6820   3.199   4.565  16.529  0.9594 -0.3327  0.0056
  454MPD2     N 6821   3.000   0.228  16.486  0.5865 -0.2147  0.3428
  454MPD2    H5 6822   3.019   0.240  16.585  1.8186  1.6644 -0.1415
  454MPD2    N1 6823   2.959   4.598  16.149 -0.4258  0.9256 -0.4129
  454MPD2    H7 6824   2.893   4.657  16.100  0.0235  0.9222 -1.0092
  455TMC3    C1 6825   2.815   0.358  16.496  1.1208  0.4127 -0.4854
  455TMC3    C2 6826   2.833   0.417  16.621  0.4322  0.0291 -0.0227
  455TMC3    C3 6827   2.755   0.362  16.725  0.2698 -1.0513 -0.4625
  455TMC3    C4 6828   2.715   0.272  16.481 -0.2503  0.7797  0.0997
  455TMC3    C5 6829   2.642   0.223  16.583 -0.2362  0.4453  0.4280
  455TMC3    C6 6830   2.664   0.264  16.712 -0.1604  0.1629  0.5157
  455TMC3     C 6831   2.929   0.320  16.416 -0.6616 -0.3110 -0.1228
  455TMC3     O 6832   2.914   0.328  16.296  0.1689  0.8531 -0.0510
  455TMC3     H 6833   2.921   0.478  16.640  1.7066 -1.2801 -1.8257
  455TMC3    H1 6834   2.707   0.233  16.381  2.6642 -1.5974  0.7924
  455TMC3    H2 6835   2.608   0.234  16.800 -1.4830 -0.6724 -0.5999
  455TMC3    C7 6836   2.591   0.091  16.554 -0.1894  0.0891 -0.1833
  455TMC3    C8 6837   2.746   0.440  16.842  0.5195  0.2803 -0.3437
  455TMC3    O1 6838   2.544   0.077  16.441 -0.2958  0.3000 -0.1405
  455TMC3    O2 6839   2.695   0.382  16.940  0.2711 -0.4725  0.9570
  456MPD2     C 6840   0.714   4.501  16.499 -0.4819  0.4413 -0.3792
  456MPD2    C1 6841   0.788   4.496  16.615 -0.1430  0.4157 -1.1832
  456MPD2    C2 6842   0.741   4.573  16.725 -0.4140  0.5474  0.1048
  456MPD2    C3 6843   0.636   4.659  16.711 -0.1640 -0.3176 -0.5184
  456MPD2    C4 6844   0.566   4.659  16.591  0.3271 -0.6048 -0.1543
  456MPD2    C5 6845   0.607   4.577  16.489  0.9190 -0.3735 -0.1383
  456MPD2     H 6846   0.795   4.559  16.817  2.5809  0.7514 -1.6167
  456MPD2    H1 6847   0.478   4.722  16.579  1.5878  0.9628 -1.1217
  456MPD2    H2 6848   0.743   4.455  16.406 -2.5451 -1.1568 -0.2318
  456MPD2    H3 6849   0.559   4.570  16.392  2.3417  2.7563 -1.0602
  456MPD2     N 6850   0.598   4.732  16.827 -0.2144 -1.0016  0.4464
  456MPD2    H5 6851   0.653   4.715  16.910 -1.5910  0.4463  1.6536
  456MPD2    N1 6852   0.897   4.405  16.624  0.0204 -0.6000  0.3310
  456MPD2    H7 6853   0.904   4.346  16.542  1.0266  1.0595 -0.7696
  457TMC3    C1 6854   0.483   0.156  16.956 -0.7248 -0.0178  0.8902
  457TMC3    C2 6855   0.423   0.282  16.954  0.4430  0.1511 -0.1047
  457TMC3    C3 6856   0.385   0.326  17.078  0.5289 -0.3908 -0.2084
  457TMC3    C4 6857   0.520   0.087  17.070 -0.1714 -0.1259 -0.6715
  457TMC3    C5 6858   0.496   0.148  17.190 -0.8490  0.7966 -0.0874
  457TMC3    C6 6859   0.435   0.268  17.194 -0.3821 -0.4697  0.9379
  457TMC3     C 6860   0.521   0.104  16.826  0.3569 -0.1672  0.1428
  457TMC3     O 6861   0.489   0.165  16.724 -0.1707  0.3394  0.6551
  457TMC3     H 6862   0.384   0.323  16.862  0.1247  2.9293  1.2906
  457TMC3    H1 6863   0.539   4.717  17.072 -0.8320 -0.2309  0.0502
  457TMC3    H2 6864   0.393   0.306  17.287  0.7312 -0.5249  1.4660
  457TMC3    C7 6865   0.552   0.089  17.316  0.2156 -0.4756 -0.3250
  457TMC3    C8 6866   0.302   0.440  17.077 -0.4305 -0.6477  0.2934
  457TMC3    O1 6867   0.582   4.708  17.313 -0.1030 -0.1676  0.3162
  457TMC3    O2 6868   0.309   0.511  17.178  0.6639 -0.2080 -0.0844
  458MPD2     C 6869   3.245   4.282  12.500 -0.3461  0.4158 -0.1725
  458MPD2    C1 6870   3.218   4.251  12.633  0.2641 -0.9984 -0.2337
  458MPD2    C2 6871   3.084   4.232  12.671  0.5722 -0.5301 -0.6985
  458MPD2    C3 6872   2.980   4.239  12.574 -0.7360 -0.5856  0.2447
  458MPD2    C4 6873   3.012   4.273  12.446 -0.4385  0.3603 -0.6560
  458MPD2    C5 6874   3.140   4.289  12.412  0.1070 -0.0233 -0.1707
  458MPD2     H 6875   3.054   4.215  12.774 -1.6553 -0.3951 -1.3231
  458MPD2    H1 6876   2.938   4.269  12.366 -0.4776  0.3316 -0.6182
  458MPD2    H2 6877   3.343   4.297  12.456 -0.1145 -0.3107  0.0873
  458MPD2    H3 6878   3.166   4.306  12.308 -3.3009 -0.5864 -1.1412
  458MPD2     N 6879   2.849   4.208  12.610 -0.0792 -0.0376 -0.4809
  458MPD2    H5 6880   2.834   4.177  12.706  1.4250  0.8491  0.0433
  458MPD2    N1 6881   3.331   4.239  12.724 -0.4042 -0.1850 -0.8792
  458MPD2    H7 6882   3.425   4.250  12.686 -0.6884 -0.9817 -1.8054
  459TMC3    C1 6883   3.450   4.248  12.927 -0.8472  0.0488 -0.3682
  459TMC3    C2 6884   3.540   4.334  12.878  0.4207  0.6774  0.1537
  459TMC3    C3 6885   3.660   4.340  12.937  0.7801 -0.1685  1.0030
  459TMC3    C4 6886   3.477   4.176  13.038 -0.2584  0.0351 -0.2948
  459TMC3    C5 6887   3.592   4.195  13.108  0.5780  0.5062 -0.0989
  459TMC3    C6 6888   3.688   4.273  13.056 -0.1367 -0.4832  0.2544
  459TMC3     C 6889   3.326   4.218  12.859  0.4875  0.7694 -0.7577
  459TMC3     O 6890   3.234   4.164  12.924  0.2112  0.0150 -0.3868
  459TMC3     H 6891   3.512   4.391  12.790  1.6541 -0.4946 -0.9885
  459TMC3    H1 6892   3.403   4.106  13.075 -1.1517  0.6434 -0.9515
  459TMC3    H2 6893   3.788   4.264  13.097  0.0135  1.3918  0.2919
  459TMC3    C7 6894   3.609   4.110  13.223  0.1801  0.2598 -0.4551
  459TMC3    C8 6895   3.775   4.402  12.869 -0.6390 -1.1151  0.2340
  459TMC3    O1 6896   3.553   4.002  13.211  0.6395  0.0870 -0.4257
  459TMC3    O2 6897   3.887   4.378  12.906  0.1812  0.0068 -0.2027
  460MPD2     C 6898   2.469   1.918  10.691 -0.0897  0.6785 -0.2305
  460MPD2    C1 6899   2.366   1.829  10.677  0.0485 -0.1275  0.0615
  460MPD2    C2 6900   2.286   1.844  10.564 -0.3929  0.1825 -0.3089
  460MPD2    C3 6901   2.305   1.951  10.476 -0.0758  0.6271  0.3805
  460MPD2    C4 6902   2.406   2.042  10.501  0.6301  0.2668 -0.5811
  460MPD2    C5 6903   2.492   2.020  10.608  0.0737 -0.0064  0.5290
  460MPD2     H 6904   2.201   1.780  10.543  0.9784 -2.4766  2.1287
  460MPD2    H1 6905   2.413   2.134  10.444  2.8314 -0.7390 -1.8816
  460MPD2    H2 6906   2.543   1.906  10.770  0.6640  1.5105 -0.8145
  460MPD2    H3 6907   2.575   2.088  10.625  1.0413 -0.8982 -0.6944
  460MPD2     N 6908   2.214   1.964  10.369  0.0734  0.0920  0.0230
  460MPD2    H5 6909   2.143   1.892  10.362 -2.2738  2.2420  1.5723
  460MPD2    N1 6910   2.362   1.726  10.774 -0.6424  0.5909 -0.1448
  460MPD2    H7 6911   2.429   1.731  10.850  0.1885  0.6744 -0.8939
  461TMC3    C1 6912   2.087   2.055  10.193 -0.0731 -0.1335 -0.4442
  461TMC3    C2 6913   2.060   1.927  10.141  0.5796  0.3683 -0.5045
  461TMC3    C3 6914   1.941   1.898  10.072  0.2518 -0.4670  0.1703
  461TMC3    C4 6915   1.993   2.156  10.184 -0.1163 -0.0579  0.2638
  461TMC3    C5 6916   1.884   2.128  10.104  0.0279 -0.2389 -0.7172
  461TMC3    C6 6917   1.849   2.001  10.061 -0.1931 -0.2258 -0.6137
  461TMC3     C 6918   2.198   2.071  10.285  0.1869  0.1209 -0.2198
  461TMC3     O 6919   2.246   2.182  10.290  0.0802 -0.4381 -0.0043
  461TMC3     H 6920   2.127   1.841  10.142  2.2690  1.7321  2.4052
  461TMC3    H1 6921   2.010   2.254  10.226  0.0963 -0.4178  1.0277
  461TMC3    H2 6922   1.750   1.990  10.018  0.7089  3.3943 -3.6626
  461TMC3    C7 6923   1.789   2.231  10.076 -0.4238 -0.2191  0.4782
  461TMC3    C8 6924   1.921   1.774  10.012 -0.5592  0.1605  0.4988
  461TMC3    O1 6925   1.723   2.230   9.974 -0.6666 -0.7567 -0.1634
  461TMC3    O2 6926   1.957   1.673  10.075 -0.1371  0.1962  0.2307
  462TMC3    C1 6927   2.438   2.979   0.648 -0.8400  0.5484  0.0114
  462TMC3    C2 6928   2.571   2.976   0.654 -0.4469 -0.0105 -0.3468
  462TMC3    C3 6929   2.643   2.861   0.640 -0.0322 -0.2757  0.2465
  462TMC3    C4 6930   2.368   2.875   0.587 -0.2767 -0.0020  0.0659
  462TMC3    C5 6931   2.449   2.775   0.548 -0.1880 -0.0436 -0.2330
  462TMC3    C6 6932   2.582   2.762   0.580 -0.2327  0.1728  0.4921
  462TMC3     C 6933   2.375   3.092   0.714  0.2917 -0.1934  0.5076
  462TMC3     O 6934   2.421   3.209   0.700  0.4967 -0.0433 -0.2004
  462TMC3     H 6935   2.618   3.067   0.691  1.1766 -1.3851  1.0199
  462TMC3    H1 6936   2.260   2.876   0.573 -0.7005 -1.5273  3.1383
  462TMC3    H2 6937   2.627   2.663   0.588 -1.2702 -0.3714 -0.3604
  462TMC3    C7 6938   2.367   2.652   0.525 -0.3178 -0.0081 -0.3938
  462TMC3    C8 6939   2.789   2.869   0.644  0.3580 -0.7376 -0.4819
  462TMC3    O1 6940   2.257   2.636   0.578 -0.3639  0.2633  0.3688
  462TMC3    O2 6941   2.838   2.953   0.716 -0.3414  0.0215 -0.3717
  463MPD2     C 6942   3.221   0.756   0.954  0.0589  0.2061 -0.2095
  463MPD2    C1 6943   3.198   0.844   1.055 -0.4848  0.8079  0.5601
  463MPD2    C2 6944   3.282   0.957   1.074  0.3317 -0.8020 -1.2433
  463MPD2    C3 6945   3.399   0.965   1.003  0.2778 -0.3551  0.1782
  463MPD2    C4 6946   3.427   0.868   0.910 -0.3083  0.4549  0.3965
  463MPD2    C5 6947   3.342   0.763   0.887 -0.4061 -0.0905 -0.3278
  463MPD2     H 6948   3.270   1.018   1.163  3.2686 -0.3478 -1.1804
  463MPD2    H1 6949   3.511   0.876   0.842 -0.7045  0.1499 -0.1321
  463MPD2    H2 6950   3.158   0.670   0.935  0.1651  0.1380 -0.2549
  463MPD2    H3 6951   3.369   0.691   0.812 -0.4571 -0.3139 -0.1324
  463MPD2     N 6952   3.494   1.065   1.021 -0.5592 -0.4306 -0.5921
  463MPD2    H5 6953   3.587   1.046   0.984 -0.1368 -1.5461  1.0425
  463MPD2    N1 6954   3.085   0.824   1.143 -0.0927 -0.0511 -0.8294
  463MPD2    H7 6955   3.062   0.899   1.208  0.8105 -0.2527 -0.2718
  464TMC3    C1 6956   2.886   0.732   1.231 -0.4354  0.2511 -0.1219
  464TMC3    C2 6957   2.859   0.858   1.264  0.1441  0.4873 -0.1033
  464TMC3    C3 6958   2.754   0.884   1.354  0.1794  0.5047 -0.3823
  464TMC3    C4 6959   2.805   0.629   1.265 -1.1537 -0.5303 -0.6499
  464TMC3    C5 6960   2.708   0.661   1.354  0.4831  0.4317  0.5821
  464TMC3    C6 6961   2.682   0.785   1.398  0.5826 -0.0763  0.0666
  464TMC3     C 6962   3.005   0.713   1.149  0.3509  0.2832 -0.5427
  464TMC3     O 6963   3.032   0.599   1.116 -0.0511 -0.4768 -0.5472
  464TMC3     H 6964   2.902   0.942   1.210  2.6505 -1.1506 -0.6165
  464TMC3    H1 6965   2.828   0.535   1.217 -0.7232 -0.0171 -1.4450
  464TMC3    H2 6966   2.611   0.803   1.478  0.3286 -2.2128  0.3207
  464TMC3    C7 6967   2.584   0.577   1.333 -0.1727 -0.1654 -0.5487
  464TMC3    C8 6968   2.667   0.999   1.319 -0.0616 -0.6166  0.7918
  464TMC3    O1 6969   2.595   0.478   1.263 -0.0309 -0.0129  0.2928
  464TMC3    O2 6970   2.707   1.056   1.215 -0.3330 -0.7294 -0.4669
  465MPD2     C 6971   4.677   4.552  16.961  0.0127  0.6610  0.0413
  465MPD2    C1 6972   4.541   4.567  16.989  0.6001 -0.0514 -0.3204
  465MPD2    C2 6973   4.467   4.620  16.891  0.0773 -0.3213  0.2720
  465MPD2    C3 6974   4.511   4.652  16.762 -0.1342  0.1292 -0.3285
  465MPD2    C4 6975   4.644   4.633  16.738 -0.8081 -0.3222 -0.3609
  465MPD2    C5 6976   4.724   4.600  16.840  0.4116 -0.1386  0.8311
  465MPD2     H 6977   4.364   4.650  16.910 -0.2902 -0.8246 -0.8993
  465MPD2    H1 6978   4.685   4.652  16.640  0.1465 -0.3985  0.0301
  465MPD2    H2 6979   0.022   4.522  17.025  1.0733 -0.8011 -1.9878
  465MPD2    H3 6980   0.093   4.594  16.821  0.2527  0.1098 -0.1685
  465MPD2     N 6981   4.416   4.665  16.666 -0.4818  0.5663 -0.4435
  465MPD2    H5 6982   4.317   4.659  16.690 -0.1401  2.3056  1.3420
  465MPD2    N1 6983   4.490   4.558  17.125  0.0606  0.5510  0.0323
  465MPD2    H7 6984   4.395   4.591  17.140  0.0765  0.2732  0.7434
  466TMC3    C1 6985   4.084   4.691  16.484 -0.7773 -0.2496  0.8175
  466TMC3    C2 6986   4.061   0.071  16.414 -0.7943  0.0421 -0.2805
  466TMC3    C3 6987   4.177   0.139  16.375 -0.5851 -0.0396  0.0413
  466TMC3    C4 6988   4.209   4.648  16.516  0.0677  0.0212 -1.3087
  466TMC3    C5 6989   4.316   4.706  16.458 -0.9750  0.2619  0.4382
  466TMC3    C6 6990   4.306   0.091  16.393 -0.5474 -0.1200  0.1523
  466TMC3     C 6991   3.964   4.644  16.552  0.2241  1.2441  0.1301
  466TMC3     O 6992   3.868   4.719  16.570  0.2245 -0.2920  0.7365
  466TMC3     H 6993   3.963   0.111  16.390 -0.0401  0.9304 -1.8784
  466TMC3    H1 6994   4.216   4.556  16.572  2.3922  0.4034 -0.9579
  466TMC3    H2 6995   4.393   0.152  16.372 -0.8828  0.6034  0.8411
  466TMC3    C7 6996   4.442   4.690  16.534  0.3293  0.6400  0.2396
  466TMC3    C8 6997   4.158   0.243  16.280  0.5596  0.0526  0.2920
  466TMC3    O1 6998   4.543   4.730  16.477  0.0163 -0.3167  0.3385
  466TMC3    O2 6999   4.239   0.252  16.188 -0.3330  0.2894  0.5510
  467TMC3    C1 7000   1.102   3.343  14.043 -0.7244  0.1872 -0.3587
  467TMC3    C2 7001   1.074   3.320  13.911 -0.4733  0.6109 -0.2120
  467TMC3    C3 7002   0.948   3.280  13.875 -1.0139 -0.4375 -0.7934
  467TMC3    C4 7003   1.002   3.320  14.141 -0.0983  0.1019  0.0268
  467TMC3    C5 7004   0.876   3.281  14.098 -0.8218 -0.0188 -0.0951
  467TMC3    C6 7005   0.851   3.253  13.970  0.1808 -1.3596  0.1775
  467TMC3     C 7006   1.203   3.443  14.070  0.6529 -0.2977  0.3005
  467TMC3     O 7007   1.246   3.442  14.185 -0.3606  0.0251  0.5258
  467TMC3     H 7008   1.142   3.347  13.831 -0.4478 -0.2201 -0.4726
  467TMC3    H1 7009   1.016   3.332  14.248 -0.1919  0.8493 -0.0447
  467TMC3    H2 7010   0.747   3.228  13.955 -0.0285 -0.9500  0.9513
  467TMC3    C7 7011   0.781   3.224  14.193  0.0189 -0.5425 -0.2161
  467TMC3    C8 7012   0.908   3.326  13.745  0.8619 -0.0806 -0.3376
  467TMC3    O1 7013   0.830   3.190  14.301 -0.0224  0.0108  0.4150
  467TMC3    O2 7014   0.994   3.382  13.675 -0.0367 -0.4600 -0.2670
  468MPD2     C 7015   3.358   1.563  10.921  0.0384 -0.2427 -0.4630
  468MPD2    C1 7016   3.479   1.581  10.995 -0.3004 -0.2555 -0.2602
  468MPD2    C2 7017   3.573   1.476  10.981  0.4558 -0.1657  0.1167
  468MPD2    C3 7018   3.548   1.362  10.917 -0.4758  0.1751  0.5155
  468MPD2    C4 7019   3.434   1.348  10.845 -0.3410 -0.2022  0.2891
  468MPD2    C5 7020   3.342   1.450  10.844  0.1424 -0.0210 -0.0371
  468MPD2     H 7021   3.664   1.492  11.037 -0.5878  0.1915  1.7367
  468MPD2    H1 7022   3.401   1.255  10.801  2.1279 -1.0164  0.1765
  468MPD2    H2 7023   3.278   1.636  10.919 -0.3726 -0.6980 -0.6426
  468MPD2    H3 7024   3.244   1.438  10.799  1.1482 -0.1244 -2.1955
  468MPD2     N 7025   3.626   1.240  10.917 -0.1924  0.2768  0.0985
  468MPD2    H5 7026   3.586   1.161  10.868 -0.9759  0.7487 -0.0187
  468MPD2    N1 7027   3.521   1.698  11.069 -0.2863  0.2790 -0.3684
  468MPD2    H7 7028   3.616   1.699  11.104 -0.0419  0.3614 -1.0197
  469TMC3    C1 7029   3.520   1.914  11.134  0.1577  0.6471  0.0384
  469TMC3    C2 7030   3.643   1.941  11.093  0.3010  0.8684 -0.5319
  469TMC3    C3 7031   3.720   2.024  11.168  0.6854 -0.4917  0.0503
  469TMC3    C4 7032   3.478   1.955  11.250  0.2310  0.1126  0.3836
  469TMC3    C5 7033   3.559   2.040  11.321 -0.1392 -0.2687  0.0770
  469TMC3    C6 7034   3.677   2.082  11.280 -0.3854  0.9120  0.4213
  469TMC3     C 7035   3.448   1.814  11.074 -0.2836  0.5430  0.3398
  469TMC3     O 7036   3.337   1.844  11.026  0.1128  0.2365  0.1274
  469TMC3     H 7037   3.687   1.898  11.003  0.9460 -0.6112  0.4943
  469TMC3    H1 7038   3.376   1.929  11.279 -0.3120  0.1218 -1.5204
  469TMC3    H2 7039   3.736   2.154  11.335 -0.0051  0.3547  0.7559
  469TMC3    C7 7040   3.493   2.104  11.432 -0.6030 -0.3598  0.3697
  469TMC3    C8 7041   3.859   2.047  11.129  0.3491 -0.0768  0.5541
  469TMC3    O1 7042   3.370   2.091  11.433 -0.4682  0.1647  0.0525
  469TMC3    O2 7043   3.881   2.030  11.012 -0.2935 -0.1921 -0.1367
  470TMC3    C1 7044   2.038   2.438   0.990 -0.0716  0.1011  0.6157
  470TMC3    C2 7045   2.141   2.516   1.033 -0.2197 -0.3621 -0.5352
  470TMC3    C3 7046   2.142   2.541   1.168 -0.4684 -0.1024 -0.4861
  470TMC3    C4 7047   1.949   2.380   1.071 -0.4301  0.0838  0.7966
  470TMC3    C5 7048   1.955   2.409   1.200 -0.0076 -0.2454 -0.3513
  470TMC3    C6 7049   2.052   2.481   1.254  0.1783 -0.1585 -0.8655
  470TMC3     C 7050   2.022   2.428   0.844  0.2254 -0.4255  0.3095
  470TMC3     O 7051   2.124   2.425   0.774 -0.0622  0.9452  0.2226
  470TMC3     H 7052   2.201   2.571   0.961  2.1568 -1.1735  0.8364
  470TMC3    H1 7053   1.871   2.320   1.025 -0.9899  1.9851 -0.7671
  470TMC3    H2 7054   2.048   2.508   1.359  1.2513  2.0488 -1.4030
  470TMC3    C7 7055   1.825   2.395   1.259  0.2468  0.2693 -0.1277
  470TMC3    C8 7056   2.199   2.664   1.207 -0.0291  0.2445 -0.1326
  470TMC3    O1 7057   1.732   2.359   1.188 -0.1935 -0.1481  0.3743
  470TMC3    O2 7058   2.181   2.704   1.316  0.1398  0.3592 -0.4435
  471MPD2     C 7059   2.234   3.937  17.145  0.3892 -0.3179  0.3093
  471MPD2    C1 7060   2.304   3.828  17.103  0.3292 -0.1861  0.7914
  471MPD2    C2 7061   2.391   3.759  17.189  0.0345 -0.1631  0.0767
  471MPD2    C3 7062   2.406   3.795  17.319  0.5977 -0.1405  0.3882
  471MPD2    C4 7063   2.324   3.901  17.366  0.2551 -0.5408 -0.0229
  471MPD2    C5 7064   2.250   3.974  17.273  0.3735  0.0734  0.1165
  471MPD2     H 7065   2.438   3.668  17.151  1.9279 -0.2665  2.6541
  471MPD2    H1 7066   2.339   3.946  17.463 -1.4797 -0.3445  0.1558
  471MPD2    H2 7067   2.157   3.982  17.084 -2.1742 -1.6659  2.5422
  471MPD2    H3 7068   2.198   4.066  17.297 -1.8783 -0.8016 -1.4083
  471MPD2     N 7069   2.484   3.727  17.414  0.3402  0.7071 -0.0310
  471MPD2    H5 7070   2.472   3.762  17.508  0.2640 -0.1980  0.3017
  471MPD2    N1 7071   2.292   3.777  16.973  0.0017  0.2583 -0.0826
  471MPD2    H7 7072   2.346   3.695  16.950 -1.2574 -0.4646 -0.4587
  472TMC3    C1 7073   2.222   3.754  16.749  0.0853 -0.7691 -1.1482
  472TMC3    C2 7074   2.160   3.802  16.636 -0.0589  0.2229 -0.1475
  472TMC3    C3 7075   2.178   3.741  16.514  0.1108  0.7856 -0.3372
  472TMC3    C4 7076   2.276   3.627  16.755 -0.0494 -0.7975 -0.0518
  472TMC3    C5 7077   2.274   3.556  16.638 -0.0941  0.3797  0.4131
  472TMC3    C6 7078   2.235   3.615  16.521  0.1559  0.1015 -0.1242
  472TMC3     C 7079   2.238   3.840  16.866  0.8349 -0.2552  0.2497
  472TMC3     O 7080   2.189   3.953  16.855 -0.0467  0.0925  0.2450
  472TMC3     H 7081   2.101   3.894  16.643 -0.3757  0.1542 -1.9922
  472TMC3    H1 7082   2.284   3.573  16.848  0.4688 -0.8191 -0.1081
  472TMC3    H2 7083   2.225   3.562  16.427  0.9365  0.9232 -0.6707
  472TMC3    C7 7084   2.272   3.412  16.645 -0.0331  0.2320  0.4248
  472TMC3    C8 7085   2.057   3.729  16.437 -0.1928  0.3018  1.2497
  472TMC3    O1 7086   2.328   3.358  16.742 -0.4368  0.1215  0.0328
  472TMC3    O2 7087   2.061   3.747  16.316 -0.4038  0.0633  0.1267
  473MPD2     C 7088   1.717   1.021  13.795 -0.0297 -0.3375 -0.5376
  473MPD2    C1 7089   1.743   1.133  13.717 -0.5347 -0.4927 -0.0704
  473MPD2    C2 7090   1.823   1.234  13.761  0.0731  0.1673  0.0148
  473MPD2    C3 7091   1.879   1.221  13.890 -0.5082 -0.3243  0.6558
  473MPD2    C4 7092   1.856   1.105  13.961  0.3701 -0.5924  0.1128
  473MPD2    C5 7093   1.772   1.004  13.918  0.0692  0.3819 -0.4875
  473MPD2     H 7094   1.859   1.310  13.692 -0.9026  1.9684  1.4734
  473MPD2    H1 7095   1.904   1.092  14.057 -1.6716 -0.8088  1.0958
  473MPD2    H2 7096   1.669   0.933  13.755  0.3024  0.7568 -3.3488
  473MPD2    H3 7097   1.761   0.912  13.975 -1.9690  0.7627 -0.2667
  473MPD2     N 7098   1.959   1.320  13.954  0.1109 -0.0063  0.0611
  473MPD2    H5 7099   1.999   1.299  14.045  2.1953 -0.9669 -1.0745
  473MPD2    N1 7100   1.691   1.147  13.585  0.0927  0.2058  0.2778
  473MPD2    H7 7101   1.729   1.224  13.532 -2.0521  2.4236  1.9287
  474TMC3    C1 7102   2.080   1.523  13.990 -0.6038 -0.1462  0.4203
  474TMC3    C2 7103   2.070   1.661  13.970  0.3226  0.8142 -0.4157
  474TMC3    C3 7104   2.144   1.743  14.045 -0.2756 -0.5904 -0.2144
  474TMC3    C4 7105   2.160   1.472  14.085 -0.4894 -0.0743 -0.2264
  474TMC3    C5 7106   2.233   1.563  14.167  0.1892 -0.5111 -0.2729
  474TMC3    C6 7107   2.234   1.698  14.142 -0.2024  0.0165 -0.2644
  474TMC3     C 7108   1.990   1.442  13.908 -0.3264  0.2216  0.0813
  474TMC3     O 7109   1.958   1.496  13.806  0.5146 -0.0543 -0.0540
  474TMC3     H 7110   1.989   1.699  13.909  0.5084 -0.0680 -1.2038
  474TMC3    H1 7111   2.200   1.371  14.088  0.0918  0.1161 -1.7181
  474TMC3    H2 7112   2.281   1.770  14.207  0.4186  0.8505 -1.6451
  474TMC3    C7 7113   2.291   1.496  14.283 -0.0472 -0.4957 -0.3753
  474TMC3    C8 7114   2.069   1.865  14.077 -0.1483 -0.0582 -0.0149
  474TMC3    O1 7115   2.299   1.376  14.273  0.0174 -0.0556 -0.0643
  474TMC3    O2 7116   1.948   1.853  14.090  0.5021 -0.1788 -0.0055
  475MPD2     C 7117   4.623   4.077  11.256  0.5646 -0.3338  0.5003
  475MPD2    C1 7118   4.620   4.125  11.133 -0.1464  0.1814 -0.2400
  475MPD2    C2 7119   4.512   4.209  11.093  0.2576  0.2944 -0.4728
  475MPD2    C3 7120   4.421   4.248  11.193  0.4265  0.0132  0.6815
  475MPD2    C4 7121   4.429   4.196  11.318 -0.4942  0.4700  0.1153
  475MPD2    C5 7122   4.529   4.111  11.344 -0.2820  0.3283 -0.1785
  475MPD2     H 7123   4.499   4.256  10.996  2.5671  1.2168 -0.3367
  475MPD2    H1 7124   4.364   4.214  11.402 -0.2623  0.6524  0.2547
  475MPD2    H2 7125   4.700   4.009  11.291 -0.0961 -2.6381 -2.5899
  475MPD2    H3 7126   4.528   4.065  11.443 -1.2612  0.1053 -0.2895
  475MPD2     N 7127   4.326   4.343  11.151  0.1532  0.7352  0.0819
  475MPD2    H5 7128   4.338   4.371  11.054  1.4070  2.5921  0.7815
  475MPD2    N1 7129   4.732   4.098  11.049 -0.6932 -0.3559  0.1467
  475MPD2    H7 7130   0.070   4.059  11.105 -0.3530  1.0091  0.6376
  476TMC3    C1 7131   0.146   4.099  10.864 -0.7649  0.0958  0.1130
  476TMC3    C2 7132   0.162   4.144  10.735 -0.0020  0.2258  0.0088
  476TMC3    C3 7133   0.272   4.212  10.697  0.9483  0.2184 -0.0873
  476TMC3    C4 7134   0.246   4.131  10.954  0.0445  0.6590 -0.2344
  476TMC3    C5 7135   0.354   4.206  10.911 -0.5355  0.0944  0.2735
  476TMC3    C6 7136   0.370   4.250  10.786 -0.6700  0.8331  0.1538
  476TMC3     C 7137   0.007   4.122  10.913  0.2411  1.0305 -0.0078
  476TMC3     O 7138   4.666   4.159  10.830  0.4581 -0.1576 -0.1550
  476TMC3     H 7139   0.070   4.156  10.680 -0.9710  1.1467  1.8069
  476TMC3    H1 7140   0.254   4.077  11.048  2.2655 -1.7564 -1.7796
  476TMC3    H2 7141   0.458   4.307  10.757 -0.5631  0.9736  0.7578
  476TMC3    C7 7142   0.454   4.245  11.007  0.4101  0.0164 -0.0069
  476TMC3    C8 7143   0.262   4.282  10.573 -0.5720 -0.2485  0.1260
  476TMC3    O1 7144   0.474   4.163  11.102  0.4154  0.2829  0.8142
  476TMC3    O2 7145   0.323   4.385  10.566 -0.3733 -0.3434 -0.0344
  477MPD2     C 7146   2.920   1.072  12.011  0.1990  0.0004 -0.1028
  477MPD2    C1 7147   2.843   0.989  11.935 -0.2982 -0.2907  0.0230
  477MPD2    C2 7148   2.834   0.855  11.968 -0.5954 -0.6489 -0.3924
  477MPD2    C3 7149   2.905   0.808  12.078  0.2839  0.2103  0.1857
  477MPD2    C4 7150   2.979   0.892  12.151  1.1258  0.4984  0.1469
  477MPD2    C5 7151   2.996   1.024  12.113  0.2786  0.1039  0.1774
  477MPD2     H 7152   2.761   0.789  11.923 -1.5473  1.5263 -2.0471
  477MPD2    H1 7153   3.035   0.865  12.240  1.1026  0.7304  0.2308
  477MPD2    H2 7154   2.931   1.176  11.984  1.5668 -1.1920 -4.1881
  477MPD2    H3 7155   3.046   1.097  12.176 -1.0038  1.0138  0.1650
  477MPD2     N 7156   2.872   0.671  12.115  0.0168 -0.3736 -0.7025
  477MPD2    H5 7157   2.821   0.603  12.060  0.2793 -0.5518 -0.7221
  477MPD2    N1 7158   2.763   1.048  11.833 -0.3499  0.3169 -0.0774
  477MPD2    H7 7159   2.774   1.148  11.824  0.9893  0.0738 -1.1854
  478TMC3    C1 7160   2.652   1.056  11.627 -0.4841  0.0974 -0.1200
  478TMC3    C2 7161   2.587   1.178  11.652 -0.5688  0.3858  0.3560
  478TMC3    C3 7162   2.519   1.240  11.556  0.2335  0.2503 -0.6665
  478TMC3    C4 7163   2.623   0.994  11.509 -0.5173 -0.0173  0.4212
  478TMC3    C5 7164   2.550   1.056  11.417  0.2568 -1.0775 -1.2399
  478TMC3    C6 7165   2.508   1.187  11.434 -0.3068  0.1352  0.6041
  478TMC3     C 7166   2.705   0.977  11.735 -0.3986  0.2196  0.4102
  478TMC3     O 7167   2.711   0.855  11.710 -0.2640 -0.2562 -0.3838
  478TMC3     H 7168   2.598   1.226  11.749 -0.8888  1.0719  0.0534
  478TMC3    H1 7169   2.662   0.897  11.481  1.3958  0.6507  0.7721
  478TMC3    H2 7170   2.466   1.237  11.349  2.4740 -2.1624 -2.1254
  478TMC3    C7 7171   2.520   0.986  11.294  0.2170  0.5712 -0.5163
  478TMC3    C8 7172   2.437   1.355  11.579  0.6376  0.0674  0.6251
  478TMC3    O1 7173   2.592   0.889  11.269  0.1827 -0.3766 -0.2210
  478TMC3    O2 7174   2.386   1.405  11.482 -0.0136  0.4210 -0.7816
  479MPD2     C 7175   2.216   3.315  15.356  0.4060 -0.2063 -0.3553
  479MPD2    C1 7176   2.100   3.235  15.359  0.0884  0.0877 -0.2649
  479MPD2    C2 7177   2.033   3.222  15.477 -1.1578  0.2824 -0.0308
  479MPD2    C3 7178   2.077   3.283  15.592  0.4956 -0.0990  0.6188
  479MPD2    C4 7179   2.184   3.363  15.586  0.1378  0.7886 -0.3667
  479MPD2    C5 7180   2.257   3.371  15.471 -0.0871 -0.5554  0.9620
  479MPD2     H 7181   1.956   3.146  15.487 -0.7868 -0.1341 -0.3022
  479MPD2    H1 7182   2.225   3.412  15.673 -0.8261 -0.4665  0.7949
  479MPD2    H2 7183   2.274   3.334  15.267 -0.7410 -0.7966 -1.2214
  479MPD2    H3 7184   2.343   3.437  15.477  0.1992 -0.9022  0.6327
  479MPD2     N 7185   2.013   3.251  15.714 -0.4053 -0.3897 -0.0258
  479MPD2    H5 7186   1.929   3.194  15.711  0.6503 -1.9015 -0.9396
  479MPD2    N1 7187   2.055   3.179  15.239  0.4183 -0.7714  0.3891
  479MPD2    H7 7188   2.103   3.220  15.160  0.7121 -0.1488  0.8858
  480TMC3    C1 7189   1.765   3.185  16.032  0.2995  0.1661  0.2741
  480TMC3    C2 7190   1.677   3.235  15.946 -0.3230 -0.0840 -0.1254
  480TMC3    C3 7191   1.707   3.329  15.853  0.2369  0.2993 -0.0482
  480TMC3    C4 7192   1.900   3.211  16.005 -0.3483  0.4443 -0.4981
  480TMC3    C5 7193   1.937   3.310  15.925  0.5809 -0.5104  0.5083
  480TMC3    C6 7194   1.839   3.366  15.839  0.0158  0.4843  0.0313
  480TMC3     C 7195   1.740   3.083  16.127 -0.5513 -0.2038 -0.1055
  480TMC3     O 7196   1.837   3.014  16.146 -0.8222 -0.2823 -0.4526
  480TMC3     H 7197   1.577   3.197  15.958 -0.2042 -0.0375  1.0353
  480TMC3    H1 7198   1.974   3.154  16.059 -0.6523 -0.0802 -0.6327
  480TMC3    H2 7199   1.866   3.451  15.779 -0.7302  0.6296 -0.1034
  480TMC3    C7 7200   2.056   3.286  15.839  0.1819 -0.1170  0.0159
  480TMC3    C8 7201   1.621   3.328  15.732  0.3737  0.3781 -0.0601
  480TMC3    O1 7202   2.170   3.285  15.888  0.4734 -0.0998 -0.4148
  480TMC3    O2 7203   1.518   3.262  15.734  0.1328  0.0692  0.3949
  481MPD2     C 7204   3.723   2.643  14.795  0.3868  0.1648 -0.4071
  481MPD2    C1 7205   3.596   2.588  14.793 -0.0682  0.0658  0.2728
  481MPD2    C2 7206   3.509   2.601  14.904  0.7972  0.5553 -0.3548
  481MPD2    C3 7207   3.561   2.672  15.015 -1.1571  0.3772 -0.1166
  481MPD2    C4 7208   3.690   2.719  15.020  0.7195  0.3175  0.0416
  481MPD2    C5 7209   3.769   2.705  14.908 -0.0270  0.0520 -0.6828
  481MPD2     H 7210   3.409   2.562  14.890  1.0346 -0.9872  2.0806
  481MPD2    H1 7211   3.725   2.770  15.109 -2.0857  1.6218  0.3980
  481MPD2    H2 7212   3.794   2.645  14.713  1.1533 -2.0746  0.2037
  481MPD2    H3 7213   3.867   2.750  14.924  0.2396 -0.7553 -0.0497
  481MPD2     N 7214   3.483   2.707  15.130  0.1956  0.3609  0.1752
  481MPD2    H5 7215   3.539   2.750  15.202  1.4805 -1.8319  0.4530
  481MPD2    N1 7216   3.562   2.520  14.671  0.3040  0.3694 -0.6171
  481MPD2    H7 7217   3.634   2.511  14.600 -1.1975  1.1622 -2.2422
  482TMC3    C1 7218   3.434   2.420  14.506  0.3847 -1.5196  0.0618
  482TMC3    C2 7219   3.322   2.348  14.485  0.5211  0.1456 -0.0233
  482TMC3    C3 7220   3.227   2.387  14.395  0.1927  0.7843 -0.8228
  482TMC3    C4 7221   3.454   2.534  14.429 -0.1309 -0.2670  0.4233
  482TMC3    C5 7222   3.365   2.565  14.330 -0.5967  0.7415  0.0714
  482TMC3    C6 7223   3.248   2.493  14.307 -0.1072 -0.0763 -0.6895
  482TMC3     C 7224   3.450   2.451  14.645 -0.5697 -0.8057 -0.2960
  482TMC3     O 7225   3.370   2.414  14.725 -0.1472  0.1736 -0.4555
  482TMC3     H 7226   3.303   2.278  14.566  0.4655  1.0935  0.7869
  482TMC3    H1 7227   3.537   2.601  14.449 -0.8624  1.6342 -2.8131
  482TMC3    H2 7228   3.182   2.517  14.225 -1.7252  1.1527  0.9809
  482TMC3    C7 7229   3.381   2.700  14.272 -0.1398 -0.7254  0.3675
  482TMC3    C8 7230   3.109   2.306  14.373  0.8245  0.0281 -0.1349
  482TMC3    O1 7231   3.434   2.792  14.333  0.0683 -0.2268  0.4061
  482TMC3    O2 7232   3.111   2.193  14.410 -0.3414  0.1611 -0.0773
  483TMC3    C1 7233   0.854   1.715   0.660 -0.2690 -0.3908 -0.0198
  483TMC3    C2 7234   0.904   1.838   0.681  0.0395  0.7107 -0.2187
  483TMC3    C3 7235   0.978   1.865   0.798 -0.0776 -0.1559 -0.1265
  483TMC3    C4 7236   0.867   1.619   0.754 -0.3475  0.3461 -0.4576
  483TMC3    C5 7237   0.954   1.648   0.859 -0.5713  0.2612 -0.4402
  483TMC3    C6 7238   1.009   1.765   0.883 -0.6303  0.2291 -0.4421
  483TMC3     C 7239   0.839   1.686   0.521 -0.3637  0.5512  0.5579
  483TMC3     O 7240   0.892   1.760   0.437  0.8838  0.1290  0.2442
  483TMC3     H 7241   0.895   1.908   0.599  1.4266 -0.5122 -1.4052
  483TMC3    H1 7242   0.827   1.519   0.747 -1.3113  0.7355 -0.5908
  483TMC3    H2 7243   1.077   1.784   0.965 -0.5762  2.7931 -1.0800
  483TMC3    C7 7244   0.993   1.529   0.938 -0.8521  0.2100  0.2514
  483TMC3    C8 7245   1.082   1.958   0.773 -0.2997  0.5411 -0.0041
  483TMC3    O1 7246   0.943   1.418   0.920  0.3674 -0.0312  0.0555
  483TMC3    O2 7247   1.132   1.960   0.662  0.1617 -0.1918 -0.9982
  484MPD2     C 7248   3.737   4.687  12.649  0.1875  0.5303  0.0329
  484MPD2    C1 7249   3.791   4.573  12.694  0.8851 -0.0881 -0.2559
  484MPD2    C2 7250   3.917   4.531  12.639  0.4866  0.1063  0.2224
  484MPD2    C3 7251   3.978   4.603  12.537  0.1221  0.0696 -0.5506
  484MPD2    C4 7252   3.918   4.721  12.490 -0.2030 -0.2587  0.4118
  484MPD2    C5 7253   3.799   0.029  12.543  0.1426 -0.1347 -0.3339
  484MPD2     H 7254   3.958   4.440  12.679 -1.4376 -0.6550  0.4695
  484MPD2    H1 7255   3.969   0.040  12.414  0.9432 -1.1773  0.5038
  484MPD2    H2 7256   3.643   4.725  12.687 -0.4478 -0.0975 -0.9202
  484MPD2    H3 7257   3.757   0.123  12.508  0.3663 -0.7136 -2.1807
  484MPD2     N 7258   4.098   4.567  12.484 -0.0361  0.3755  0.2027
  484MPD2    H5 7259   4.137   4.629  12.414  2.3772  1.8141  2.8190
  484MPD2    N1 7260   3.725   4.502  12.785  0.9581 -0.1235 -0.4022
  484MPD2    H7 7261   3.637   4.542  12.818  0.7784 -1.0045  0.1903
  485TMC3    C1 7262   4.296   4.440  12.451 -0.1980  0.5319  0.6410
  485TMC3    C2 7263   4.379   4.334  12.483  0.1073 -0.1638 -0.1896
  485TMC3    C3 7264   4.468   4.294  12.385 -0.3036 -0.2312  0.2790
  485TMC3    C4 7265   4.325   4.515  12.338  0.3679  0.0158 -0.2123
  485TMC3    C5 7266   4.438   4.487  12.269 -1.0809 -0.0244  0.2316
  485TMC3    C6 7267   4.503   4.366  12.276 -0.1910  0.1009  0.2062
  485TMC3     C 7268   4.172   4.456  12.521 -0.3004  0.1381  0.3490
  485TMC3     O 7269   4.145   4.358  12.593 -0.4935  0.0480 -0.0786
  485TMC3     H 7270   4.351   4.259  12.555  0.1528  0.0682  0.0695
  485TMC3    H1 7271   4.256   4.587  12.297  0.5359 -1.0092 -2.2636
  485TMC3    H2 7272   4.579   4.351  12.201  1.6644 -0.9914  2.3161
  485TMC3    C7 7273   4.473   4.580  12.162 -0.8995  0.1863  0.3759
  485TMC3    C8 7274   4.568   4.195  12.429  0.3090  0.6850 -0.0620
  485TMC3    O1 7275   4.378   4.624  12.099 -0.6131 -0.0196  0.0428
  485TMC3    O2 7276   4.532   4.110  12.507  0.3507  0.0932  0.2663
  486MPD2     C 7277   1.743   3.479  13.007  0.4808 -0.2376  0.9551
  486MPD2    C1 7278   1.684   3.355  13.006 -0.1122  0.1455 -0.0739
  486MPD2    C2 7279   1.548   3.342  12.971 -0.4761 -0.2035  0.4297
  486MPD2    C3 7280   1.473   3.446  12.919 -0.5780 -0.4211 -0.9356
  486MPD2    C4 7281   1.537   3.569  12.914 -0.4776  0.2302  0.1303
  486MPD2    C5 7282   1.668   3.579  12.954 -0.7239  1.0805 -0.7354
  486MPD2     H 7283   1.495   3.248  12.989 -2.3985  0.4923 -1.5022
  486MPD2    H1 7284   1.497   3.663  12.877  1.7024  0.6221 -1.2079
  486MPD2    H2 7285   1.843   3.498  13.045  0.6155  2.1810 -0.5986
  486MPD2    H3 7286   1.711   3.678  12.945 -0.9701  1.2492 -0.0768
  486MPD2     N 7287   1.340   3.425  12.873 -0.1533 -0.5131 -0.4789
  486MPD2    H5 7288   1.301   3.333  12.892  2.9164 -1.1091  2.9062
  486MPD2    N1 7289   1.749   3.251  13.069 -0.1499 -0.1349  0.2713
  486MPD2    H7 7290   1.820   3.283  13.135 -0.9371  2.5342 -0.1704
  487TMC3    C1 7291   1.798   3.026  13.130  0.3218  0.3714  0.0510
  487TMC3    C2 7292   1.833   2.905  13.084 -0.4075  0.5042 -0.2803
  487TMC3    C3 7293   1.869   2.807  13.168 -0.0571  0.0190 -0.2254
  487TMC3    C4 7294   1.802   3.054  13.268  0.3514 -0.7081  0.3416
  487TMC3    C5 7295   1.849   2.964  13.356  0.4265  0.0480  0.6056
  487TMC3    C6 7296   1.892   2.844  13.298 -0.2349 -0.5874 -0.0565
  487TMC3     C 7297   1.727   3.115  13.043 -0.7377  0.3486 -0.3352
  487TMC3     O 7298   1.665   3.067  12.953  0.1226  0.1262  0.4689
  487TMC3     H 7299   1.812   2.874  12.983  4.0668 -2.9057 -0.1223
  487TMC3    H1 7300   1.770   3.151  13.304  0.1344  0.4162 -2.9377
  487TMC3    H2 7301   1.936   2.762  13.354 -0.3244 -0.4408  0.2278
  487TMC3    C7 7302   1.764   2.950  13.472 -0.7830  0.4194 -0.5669
  487TMC3    C8 7303   1.844   2.668  13.144  0.2580  0.5262  0.2984
  487TMC3    O1 7304   1.686   3.044  13.499  0.3336  0.3116  0.0731
  487TMC3    O2 7305   1.939   2.597  13.122 -0.2281  0.7703  0.6703
  488MPD2     C 7306   1.869   0.148  16.501  0.2878 -0.6787  0.3888
  488MPD2    C1 7307   1.909   0.259  16.578 -0.9869 -0.6675  0.3041
  488MPD2    C2 7308   1.876   0.264  16.710  0.1361 -0.0691 -0.5117
  488MPD2    C3 7309   1.800   0.165  16.764 -0.1894  0.4848  0.1209
  488MPD2    C4 7310   1.760   0.059  16.689  0.3617  0.0227  0.6760
  488MPD2    C5 7311   1.801   0.046  16.561  0.2957 -0.7565 -0.6073
  488MPD2     H 7312   1.907   0.348  16.770  2.5223  1.6560 -4.1968
  488MPD2    H1 7313   1.704   4.714  16.732 -0.2165 -0.7117 -1.4699
  488MPD2    H2 7314   1.873   0.159  16.394  0.4513  0.7002  0.5288
  488MPD2    H3 7315   1.770   4.699  16.499 -1.2646  0.8125 -1.9698
  488MPD2     N 7316   1.773   0.187  16.906  0.5281 -0.5134  0.2830
  488MPD2    H5 7317   1.830   0.252  16.959  1.0637  0.4397 -1.4717
  488MPD2    N1 7318   1.976   0.372  16.522  0.4731  0.3809  0.2833
  488MPD2    H7 7319   1.985   0.463  16.568  1.1364  1.6096 -2.2993
  489TMC3    C1 7320   1.673   0.194  17.121  0.0821 -0.3377  0.7924
  489TMC3    C2 7321   1.746   0.303  17.150 -0.2733 -0.6111 -0.1227
  489TMC3    C3 7322   1.706   0.372  17.260  0.0232  0.0052 -0.5725
  489TMC3    C4 7323   1.584   0.141  17.208  0.1638 -0.5789  0.3883
  489TMC3    C5 7324   1.558   0.205  17.326  0.4244  0.5076  0.4808
  489TMC3    C6 7325   1.626   0.317  17.359  0.0366  0.3231  0.2810
  489TMC3     C 7326   1.676   0.121  16.988 -0.6024 -0.7739  0.4536
  489TMC3     O 7327   1.602   0.032  16.954 -0.4665 -0.5588  0.2016
  489TMC3     H 7328   1.803   0.356  17.075  1.2738 -1.4071  0.4751
  489TMC3    H1 7329   1.528   0.054  17.177 -1.5934  0.3960  0.7934
  489TMC3    H2 7330   1.608   0.370  17.452  2.3767  2.1570 -0.3195
  489TMC3    C7 7331   1.464   0.154  17.420  0.1629  0.5496  0.1430
  489TMC3    C8 7332   1.797   0.478  17.295  0.1441 -0.2258  0.1840
  489TMC3    O1 7333   1.395   0.231  17.482 -0.7849  0.1953  0.2644
  489TMC3    O2 7334   1.899   0.482  17.231  0.2232  0.0082  0.4812
  490MPD2     C 7335   1.864   4.405   0.597 -0.0901  0.6482 -0.1362
  490MPD2    C1 7336   1.956   4.321   0.541  0.1665 -0.3315  0.3544
  490MPD2    C2 7337   2.089   4.364   0.508 -0.1014 -0.5670 -0.5853
  490MPD2    C3 7338   2.133   4.491   0.533 -0.3819 -0.1027 -0.0168
  490MPD2    C4 7339   2.041   4.580   0.588 -0.0352  0.4342  0.8450
  490MPD2    C5 7340   1.911   4.528   0.608 -0.6423 -0.4595 -0.2990
  490MPD2     H 7341   2.159   4.293   0.466 -1.6446 -3.7339  2.2256
  490MPD2    H1 7342   2.058   4.685   0.611  1.8319  0.0565  1.1626
  490MPD2    H2 7343   1.762   4.376   0.621  0.2377  1.9629  2.9107
  490MPD2    H3 7344   1.840   4.596   0.654 -1.0731 -0.9960 -0.1708
  490MPD2     N 7345   2.264   4.541   0.516  0.0641  0.0216  0.2576
  490MPD2    H5 7346   2.279   4.635   0.551  0.1281 -0.5466  1.7323
  490MPD2    N1 7347   1.930   4.189   0.517  0.2560 -0.3200 -0.1524
  490MPD2    H7 7348   1.999   4.140   0.460 -0.3126 -1.4623  0.1414
  491TMC3    C1 7349   1.841   3.982   0.502  0.4218  0.6506  0.1862
  491TMC3    C2 7350   1.822   3.864   0.573 -0.0128 -0.0998  0.3253
  491TMC3    C3 7351   1.846   3.743   0.513 -0.8590  0.1841  1.1633
  491TMC3    C4 7352   1.879   3.976   0.365  0.1426 -0.4124 -0.6846
  491TMC3    C5 7353   1.884   3.854   0.307  0.4713 -0.8024  0.6521
  491TMC3    C6 7354   1.865   3.736   0.376  0.0398  0.2092 -0.7622
  491TMC3     C 7355   1.823   4.110   0.556  0.0237 -0.0754 -0.1295
  491TMC3     O 7356   1.756   4.120   0.656 -0.1508  0.4019 -0.4112
  491TMC3     H 7357   1.798   3.870   0.678 -2.2348 -0.0062 -0.1851
  491TMC3    H1 7358   1.885   4.069   0.310  2.0416 -0.7937 -1.1228
  491TMC3    H2 7359   1.862   3.647   0.315 -1.3423  0.2806 -0.8168
  491TMC3    C7 7360   1.900   3.841   0.166  0.1970 -0.0130  0.2988
  491TMC3    C8 7361   1.829   3.625   0.593  1.0653 -0.0002 -0.9873
  491TMC3    O1 7362   1.848   3.750   0.106 -0.5244  0.5263 -0.3117
  491TMC3    O2 7363   1.759   3.644   0.692  0.0540 -0.4574 -0.1926
  492MPD2     C 7364   2.568   4.155  11.279  1.2516  0.6995  0.6709
  492MPD2    C1 7365   2.468   4.073  11.235 -0.7066  0.7184 -0.3488
  492MPD2    C2 7366   2.379   4.007  11.318 -0.1171  0.1346 -0.0375
  492MPD2    C3 7367   2.392   4.032  11.456 -0.2141 -0.0086  1.1147
  492MPD2    C4 7368   2.493   4.114  11.501  0.1139 -0.9538  0.5029
  492MPD2    C5 7369   2.570   4.184  11.410  0.2097  0.1507 -0.6570
  492MPD2     H 7370   2.310   3.931  11.284 -1.3671  1.3991 -0.3482
  492MPD2    H1 7371   2.505   4.129  11.608 -1.1161  1.6016  0.2774
  492MPD2    H2 7372   2.652   4.199  11.225 -1.1856  1.0592 -2.8435
  492MPD2    H3 7373   2.642   4.249  11.457 -0.4010  0.1129  0.3233
  492MPD2     N 7374   2.305   3.980  11.554  0.2856 -0.3734  0.1362
  492MPD2    H5 7375   2.307   4.018  11.648 -1.6832 -1.2602  0.5367
  492MPD2    N1 7376   2.457   4.055  11.092  0.1642  0.3543  0.5882
  492MPD2    H7 7377   2.512   4.116  11.033  0.6908 -0.4997  0.1899
  493TMC3    C1 7378   2.342   3.998  10.884 -0.2293  0.1630 -0.1325
  493TMC3    C2 7379   2.437   4.007  10.783  0.0451 -0.5194  0.0534
  493TMC3    C3 7380   2.392   4.009  10.653  0.6715 -0.4382 -0.3517
  493TMC3    C4 7381   2.214   3.963  10.856 -0.0819 -0.0779  0.7425
  493TMC3    C5 7382   2.183   3.944  10.722  0.0021  0.0065 -0.1506
  493TMC3    C6 7383   2.264   3.976  10.618  0.1933  0.1557 -0.7637
  493TMC3     C 7384   2.371   3.966  11.027  0.0501 -0.0318 -0.3172
  493TMC3     O 7385   2.316   3.864  11.069 -0.7917 -0.1241 -0.1444
  493TMC3     H 7386   2.539   4.033  10.808 -0.8556  2.7317  0.4885
  493TMC3    H1 7387   2.142   3.951  10.936 -0.0270 -3.4369  0.2829
  493TMC3    H2 7388   2.230   3.964  10.515 -0.4486 -0.2518 -0.5027
  493TMC3    C7 7389   2.063   3.865  10.677 -0.1829  0.0892 -0.0214
  493TMC3    C8 7390   2.473   4.040  10.539  0.4435  0.0592 -0.6690
  493TMC3    O1 7391   2.015   3.893  10.572  0.0407 -0.2792 -0.2065
  493TMC3    O2 7392   2.585   3.985  10.531 -0.5075  0.6135  0.2371
  494TMC3    C1 7393   2.791   1.248   0.193  0.3246  0.1570  0.0784
  494TMC3    C2 7394   2.870   1.145   0.244  0.0431 -0.5313 -0.3325
  494TMC3    C3 7395   2.966   1.093   0.156  0.1472 -0.0767  0.5424
  494TMC3    C4 7396   2.813   1.315   0.076 -0.7827  0.0973 -0.1790
  494TMC3    C5 7397   2.910   1.256  17.746 -0.7823  0.0458 -0.8450
  494TMC3    C6 7398   2.989   1.149   0.033 -0.2822  0.8821 -0.5875
  494TMC3     C 7399   2.675   1.287   0.271 -0.2581 -0.4354 -0.1129
  494TMC3     O 7400   2.660   1.250   0.389  1.2031 -0.0981 -0.6675
  494TMC3     H 7401   2.846   1.100   0.339  0.5355 -1.2268 -0.5388
  494TMC3    H1 7402   2.756   1.397   0.034  1.6324  1.2713 -1.1174
  494TMC3    H2 7403   3.071   1.112  17.721 -1.1561  1.0931 -1.9355
  494TMC3    C7 7404   2.956   1.325  17.634  0.8456  0.3018 -0.0482
  494TMC3    C8 7405   3.050   0.980   0.192  0.4183 -0.0531 -0.3950
  494TMC3    O1 7406   2.963   1.261  17.530  0.4993 -0.0595 -0.4077
  494TMC3    O2 7407   3.135   0.940   0.114 -0.7341  0.2433 -0.0141
  495TMC3    C1 7408   2.180   3.450  14.939 -0.0286  0.6255  1.1100
  495TMC3    C2 7409   2.117   3.487  14.823 -0.5061 -0.0812 -0.3375
  495TMC3    C3 7410   1.995   3.546  14.820 -0.5657 -1.0315  0.2294
  495TMC3    C4 7411   2.123   3.481  15.052 -0.0418 -0.6251  0.8560
  495TMC3    C5 7412   1.997   3.525  15.049 -0.4980  0.0302 -0.5594
  495TMC3    C6 7413   1.929   3.561  14.936 -0.3826 -0.2779  0.2519
  495TMC3     C 7414   2.248   3.323  14.928 -0.0775 -0.4819  0.1761
  495TMC3     O 7415   2.193   3.231  14.986 -0.1804  0.8669  0.3364
  495TMC3     H 7416   2.168   3.473  14.728 -1.3216  0.7090 -0.8828
  495TMC3    H1 7417   2.177   3.474  15.146  1.9993  2.9378 -0.0654
  495TMC3    H2 7418   1.823   3.581  14.927 -0.4826 -1.2430 -0.7681
  495TMC3    C7 7419   1.927   3.512  15.177 -0.5135  0.2198  0.8187
  495TMC3    C8 7420   1.907   3.498  14.713 -0.0510  0.1719  0.6495
  495TMC3    O1 7421   1.992   3.546  15.274  0.2908  0.4616  0.4953
  495TMC3    O2 7422   1.817   3.568  14.685  0.3058  0.0807 -0.1908
  496MPD2     C 7423   4.034   3.603  15.882  0.3551 -0.8152  0.7858
  496MPD2    C1 7424   3.969   3.509  15.797  0.4717 -0.1320  0.1064
  496MPD2    C2 7425   3.831   3.506  15.778  0.5911  0.2515 -0.2244
  496MPD2    C3 7426   3.747   3.580  15.868 -0.1156 -0.0550  0.0871
  496MPD2    C4 7427   3.807   3.673  15.953  0.3027 -0.6475 -0.3779
  496MPD2    C5 7428   3.946   3.687  15.958 -0.0412  0.0537  0.0506
  496MPD2     H 7429   3.793   3.434  15.707  1.7734  3.0729 -3.6941
  496MPD2    H1 7430   3.755   3.736  16.023  0.2315  1.1443 -2.0600
  496MPD2    H2 7431   4.141   3.613  15.896  0.5662 -1.1134 -0.5708
  496MPD2    H3 7432   3.985   3.773  16.012 -1.5323 -0.1019  1.3633
  496MPD2     N 7433   3.604   3.564  15.872 -0.0552  0.3747  0.6967
  496MPD2    H5 7434   3.548   3.625  15.931 -2.0242 -0.8084  0.0541
  496MPD2    N1 7435   4.047   3.424  15.715  0.6310 -0.4160  1.0302
  496MPD2    H7 7436   4.144   3.457  15.716  0.0564  1.2979  1.3280
  497TMC3    C1 7437   3.390   3.482  15.825  0.3781 -0.7014  0.4741
  497TMC3    C2 7438   3.308   3.449  15.720 -0.3515  0.0822  0.1718
  497TMC3    C3 7439   3.216   3.347  15.738 -0.6699  0.3379  0.2782
  497TMC3    C4 7440   3.367   3.417  15.947 -0.0726 -0.2073  0.5530
  497TMC3    C5 7441   3.269   3.320  15.955 -0.2927  0.3175  0.0410
  497TMC3    C6 7442   3.203   3.270  15.844 -0.1671 -0.4414  0.5119
  497TMC3     C 7443   3.528   3.490  15.779  0.7600  0.2732 -0.1452
  497TMC3     O 7444   3.561   3.422  15.685  0.0994  0.2299  0.2226
  497TMC3     H 7445   3.328   3.487  15.621 -3.5578 -2.8635 -1.5852
  497TMC3    H1 7446   3.412   3.471  16.030  0.6620  0.2391 -0.1411
  497TMC3    H2 7447   3.121   3.198  15.850 -1.7621  1.4076  0.7115
  497TMC3    C7 7448   3.273   3.225  16.063  0.6479 -0.4107  0.2690
  497TMC3    C8 7449   3.196   3.258  15.617  1.4706  0.2638 -0.2688
  497TMC3    O1 7450   3.203   3.125  16.055 -0.2189 -0.2889  0.2526
  497TMC3    O2 7451   3.116   3.166  15.635 -0.1426 -0.3929 -0.5613
  498MPD2     C 7452   4.002   4.295   9.985 -0.7580  0.0704  0.2278
  498MPD2    C1 7453   4.094   4.256  10.082  0.6563 -0.6221 -0.2143
  498MPD2    C2 7454   4.055   4.154  10.167  0.2344  0.3437 -0.3799
  498MPD2    C3 7455   3.931   4.094  10.159  0.4900 -0.0163  0.3054
  498MPD2    C4 7456   3.834   4.147  10.075  0.3144  0.4921 -0.4275
  498MPD2    C5 7457   3.874   4.250   9.994  0.2733  0.1599 -0.9708
  498MPD2     H 7458   4.122   4.120  10.246 -0.1680  1.0570  0.2698
  498MPD2    H1 7459   3.736   4.108  10.050  0.3901  0.4447 -0.6508
  498MPD2    H2 7460   4.016   4.377   9.916  1.3515 -1.0018 -0.6143
  498MPD2    H3 7461   3.805   4.291   9.921  0.0747  0.7526 -0.4402
  498MPD2     N 7462   3.904   3.990  10.251 -0.2326  0.6131  0.7354
  498MPD2    H5 7463   3.972   3.956  10.319  1.3624 -1.7031 -2.0169
  498MPD2    N1 7464   4.220   4.330  10.092  0.2260  0.3828 -0.2568
  498MPD2    H7 7465   4.274   4.294  10.170 -1.1247 -2.2924 -0.5516
  499TMC3    C1 7466   4.370   4.499  10.049 -0.1892 -0.8837 -0.5622
  499TMC3    C2 7467   4.417   4.464  10.168 -0.5193  0.5395  0.2784
  499TMC3    C3 7468   4.543   4.520  10.205  0.4710  0.5975  0.2443
  499TMC3    C4 7469   4.444   4.545   9.953  0.2688 -0.3729 -0.1761
  499TMC3    C5 7470   4.579   4.586   9.985 -0.1880  0.1463  0.7435
  499TMC3    C6 7471   4.624   4.589  10.118  0.0588 -0.8833  0.7513
  499TMC3     C 7472   4.256   4.430  10.001 -0.3064 -0.1045  0.6008
  499TMC3     O 7473   4.203   4.475   9.903 -0.7864 -0.2701 -0.0146
  499TMC3     H 7474   4.359   4.423  10.250  0.3564  0.5758  0.9131
  499TMC3    H1 7475   4.410   4.588   9.859  1.5787  0.6937 -0.1792
  499TMC3    H2 7476   4.729   4.609  10.133 -0.0573  1.2387 -1.2491
  499TMC3    C7 7477   4.663   4.634   9.880 -0.8826 -0.5142 -0.6761
  499TMC3    C8 7478   4.594   4.496  10.339  0.6361  0.0030  0.1488
  499TMC3    O1 7479   0.004   4.727   9.885 -0.2581 -0.2131 -0.1662
  499TMC3    O2 7480   4.537   4.407  10.403  0.4693  0.0291 -0.2919
  500MPD2     C 7481   1.213   4.704  10.624 -0.0849 -0.2323 -0.7683
  500MPD2    C1 7482   1.255   0.070  10.543 -0.6017  0.6464 -0.4414
  500MPD2    C2 7483   1.168   0.121  10.445  0.2607 -0.4415  0.1673
  500MPD2    C3 7484   1.044   0.059  10.426  0.5273  0.5931  0.0797
  500MPD2    C4 7485   1.008   4.694  10.505 -0.3948 -0.0461 -0.4395
  500MPD2    C5 7486   1.090   4.652  10.604 -0.3458  0.4143  0.4638
  500MPD2     H 7487   1.194   0.211  10.390  2.2152  0.1501  2.0872
  500MPD2    H1 7488   0.911   4.650  10.487 -0.7448  0.7199 -0.4652
  500MPD2    H2 7489   1.271   4.671  10.710 -1.4513 -1.8083 -0.4314
  500MPD2    H3 7490   1.045   4.579  10.670 -0.9706  0.6146  0.2654
  500MPD2     N 7491   0.946   0.094  10.333  0.3951  0.2625 -0.5064
  500MPD2    H5 7492   0.862   0.038  10.325  1.0875 -0.7530 -0.6103
  500MPD2    N1 7493   1.378   0.140  10.566 -0.6948  0.4572 -0.2650
  500MPD2    H7 7494   1.400   0.222  10.511  0.5210  0.1101 -0.2952
  501TMC3    C1 7495   1.561   0.224  10.671  0.3084  0.4863  0.0057
  501TMC3    C2 7496   1.521   0.355  10.641  0.6812  0.2462  0.2519
  501TMC3    C3 7497   1.621   0.454  10.641  0.2188 -0.2194 -0.2313
  501TMC3    C4 7498   1.690   0.191  10.702 -0.3610 -0.3034 -0.4934
  501TMC3    C5 7499   1.781   0.288  10.710 -0.2273 -0.7065  0.5245
  501TMC3    C6 7500   1.754   0.420  10.675 -0.1344  0.2755 -0.1943
  501TMC3     C 7501   1.469   0.110  10.666  0.5112  0.0286 -0.0187
  501TMC3     O 7502   1.508   0.003  10.710  0.0209  0.1835  0.1338
  501TMC3     H 7503   1.416   0.379  10.627  0.9205  2.5065  2.4288
  501TMC3    H1 7504   1.708   0.094  10.747 -0.5087 -0.0811  0.0505
  501TMC3    H2 7505   1.839   0.487  10.663  1.0369 -1.2637 -0.6622
  501TMC3    C7 7506   1.902   0.259  10.789  0.0416 -0.7891 -0.5205
  501TMC3    C8 7507   1.594   0.596  10.627 -0.6155  0.0182  0.3300
  501TMC3    O1 7508   1.953   0.148  10.796 -0.6316  0.2979 -0.8369
  501TMC3    O2 7509   1.684   0.673  10.649 -0.2189 -0.1570 -0.0341
  502TMC3    C1 7510   1.637   4.127  15.268 -0.2323  0.0685 -0.3352
  502TMC3    C2 7511   1.654   4.212  15.162 -0.1116 -0.2347  0.1714
  502TMC3    C3 7512   1.547   4.226  15.077 -0.4069 -0.0170 -0.1564
  502TMC3    C4 7513   1.518   4.065  15.291  0.3815  1.1156 -0.1995
  502TMC3    C5 7514   1.411   4.093  15.213 -0.7059 -0.0230  0.4505
  502TMC3    C6 7515   1.424   4.170  15.099  0.3213  0.3021 -0.2340
  502TMC3     C 7516   1.740   4.114  15.369  0.0113 -0.0877 -0.1218
  502TMC3     O 7517   1.853   4.137  15.331 -0.1758  0.5557 -0.0408
  502TMC3     H 7518   1.746   4.266  15.149  1.0109 -2.1604  0.0850
  502TMC3    H1 7519   1.509   4.000  15.377 -0.1558  1.6620  0.1521
  502TMC3    H2 7520   1.339   4.186  15.035  0.8855 -0.8202 -1.2675
  502TMC3    C7 7521   1.277   4.038  15.259  0.0650  0.4974  0.9272
  502TMC3    C8 7522   1.545   4.360  15.015  0.4266 -0.5503  0.1304
  502TMC3    O1 7523   1.278   3.925  15.308 -0.1164 -0.3634 -0.4518
  502TMC3    O2 7524   1.588   4.453  15.078  0.2295  0.2584  0.2489
  503MPD2     C 7525   3.129   0.233  17.189  0.5481 -0.6542 -0.2731
  503MPD2    C1 7526   3.220   0.331  17.224 -0.4759 -0.3524 -0.4714
  503MPD2    C2 7527   3.311   0.299  17.320 -0.5206  0.2133  0.6941
  503MPD2    C3 7528   3.323   0.167  17.362  0.9003  0.7000 -0.0987
  503MPD2    C4 7529   3.242   0.066  17.302  0.1342  0.4554  0.6538
  503MPD2    C5 7530   3.131   0.104  17.234  0.6448  1.2689 -0.4163
  503MPD2     H 7531   3.367   0.380  17.367 -0.2275  0.4163 -0.0082
  503MPD2    H1 7532   3.249   4.699  17.328  1.0461  0.5076  0.5881
  503MPD2    H2 7533   3.055   0.253  17.113  0.0793 -3.1901 -0.4871
  503MPD2    H3 7534   3.043   0.042  17.223  2.0469 -1.1274  2.0412
  503MPD2     N 7535   3.428   0.122  17.443  0.2724  0.1725 -0.2606
  503MPD2    H5 7536   3.414   0.029  17.480 -1.5138  0.1325 -1.0441
  503MPD2    N1 7537   3.220   0.466  17.182 -0.1437 -0.4440 -0.2151
  503MPD2    H7 7538   3.300   0.522  17.209 -0.4598  0.2858 -0.8006
  504TMC3    C1 7539   3.607   0.119  17.577 -0.5138 -0.0596 -0.8706
  504TMC3    C2 7540   3.533   0.071  17.680 -0.2896 -0.3866  0.2657
  504TMC3    C3 7541   3.598   4.720   0.017  0.1883  0.3594 -0.0397
  504TMC3    C4 7542   3.727   0.064  17.544  0.7396  0.2095 -0.6509
  504TMC3    C5 7543   3.768   4.695  17.619 -0.8399  0.4470  0.0340
  504TMC3    C6 7544   3.710   4.651  17.732 -0.0732 -0.0888 -0.4781
  504TMC3     C 7545   3.532   0.201  17.489 -0.1385 -0.1660  0.1587
  504TMC3     O 7546   3.594   0.286  17.421  0.4410 -0.2046  0.5773
  504TMC3     H 7547   3.441   0.114  17.717 -0.6774 -0.6588 -0.3996
  504TMC3    H1 7548   3.774   0.103  17.454  1.6530 -0.6664 -0.5553
  504TMC3    H2 7549   3.739   4.559   0.033 -1.2931 -0.1829  0.0767
  504TMC3    C7 7550   3.866   4.600  17.557 -0.1093 -0.2550  0.8390
  504TMC3    C8 7551   3.530   4.695   0.146  0.3296  0.1534 -0.2916
  504TMC3    O1 7552   3.843   4.574  17.442 -0.3991 -0.0062  0.0751
  504TMC3    O2 7553   3.414   0.001   0.154  0.0332 -0.5527  0.1181
  505MPD2     C 7554   3.273   2.773  10.405  0.5644 -0.0853  0.0846
  505MPD2    C1 7555   3.348   2.739  10.515  0.2985  0.2557  0.7298
  505MPD2    C2 7556   3.322   2.816  10.633 -0.0264 -0.8158  1.1217
  505MPD2    C3 7557   3.216   2.908  10.644  0.3064  0.0807  1.0330
  505MPD2    C4 7558   3.136   2.925  10.528  0.0307  0.4416 -0.1211
  505MPD2    C5 7559   3.172   2.864  10.412 -0.5291  0.6435  0.8350
  505MPD2     H 7560   3.391   2.801  10.715  0.2971 -1.3798  0.7505
  505MPD2    H1 7561   3.059   3.001  10.526  2.2770  2.7335 -0.1790
  505MPD2    H2 7562   3.295   2.728  10.309  0.0205  0.6933 -0.4038
  505MPD2    H3 7563   3.122   2.877  10.316  0.3271 -2.9068 -0.0981
  505MPD2     N 7564   3.193   2.982  10.759 -0.4900 -0.5291 -0.2405
  505MPD2    H5 7565   3.135   3.066  10.752 -0.8457 -0.8904 -1.6837
  505MPD2    N1 7566   3.457   2.650  10.493 -0.0349  0.2774  0.1729
  505MPD2    H7 7567   3.487   2.615  10.402 -2.2490 -0.7896 -0.1461
  506TMC3    C1 7568   3.673   2.577  10.553 -0.5515  0.0071 -0.7602
  506TMC3    C2 7569   3.734   2.663  10.469  0.5509  0.3114  0.0228
  506TMC3    C3 7570   3.859   2.707  10.496  0.5106  0.7040  0.2023
  506TMC3    C4 7571   3.742   2.521  10.660 -0.1901  0.3083  0.0746
  506TMC3    C5 7572   3.862   2.578  10.682  0.3130 -0.4251  0.1764
  506TMC3    C6 7573   3.931   2.661  10.603  0.4846 -0.4452  0.2622
  506TMC3     C 7574   3.536   2.622  10.597 -0.0339 -0.1691  0.0552
  506TMC3     O 7575   3.519   2.614  10.719  0.1102  0.2199 -0.3247
  506TMC3     H 7576   3.678   2.719  10.394 -0.8001 -1.2901 -0.1612
  506TMC3    H1 7577   3.691   2.450  10.724  1.6181 -1.6435 -0.6561
  506TMC3    H2 7578   4.016   2.713  10.647  0.2520 -1.0400  1.4115
  506TMC3    C7 7579   3.880   2.598  10.825 -0.7119  0.5943  0.3577
  506TMC3    C8 7580   3.892   2.843  10.458 -0.0269 -0.1191  0.6722
  506TMC3    O1 7581   3.995   2.599  10.866  0.2018 -0.9163  0.3271
  506TMC3    O2 7582   3.923   2.922  10.546 -0.6395  0.1757 -0.8329
  507TMC3    C1 7583   4.594   4.124  15.780  0.0084 -0.6033  0.9059
  507TMC3    C2 7584   4.575   4.052  15.664 -0.5306  0.1862 -0.0425
  507TMC3    C3 7585   4.672   4.059  15.563  0.2617  0.1514  0.3111
  507TMC3    C4 7586   4.696   4.203  15.792  0.9307  0.0882  0.6238
  507TMC3    C5 7587   0.050   4.213  15.692 -0.1926 -0.3866  0.3339
  507TMC3    C6 7588   0.045   4.128  15.586  0.6128 -0.1299 -0.1882
  507TMC3     C 7589   4.510   4.084  15.892  0.5942  0.5622  0.6778
  507TMC3     O 7590   4.401   4.032  15.873  0.2749  0.2448  0.5775
  507TMC3     H 7591   4.479   4.000  15.659  0.0312 -0.8670  0.1965
  507TMC3    H1 7592   4.698   4.265  15.881  0.4616 -0.9393  1.3515
  507TMC3    H2 7593   0.122   4.134  15.511 -0.6777  1.8733 -1.3350
  507TMC3    C7 7594   0.103   4.346  15.664  0.8545 -0.4128  0.1739
  507TMC3    C8 7595   4.615   4.100  15.442 -0.0497 -0.1420 -0.1480
  507TMC3    O1 7596   0.163   4.411  15.744 -0.1573  0.5950 -0.7026
  507TMC3    O2 7597   4.657   4.206  15.405  0.1348  1.1112 -0.0590
  508MPD2     C 7598   0.265   2.248  16.254 -0.1806 -0.2384  0.1730
  508MPD2    C1 7599   0.391   2.287  16.218  0.0578  0.1180 -0.2066
  508MPD2    C2 7600   0.429   2.311  16.089 -0.0075 -0.1376 -0.5664
  508MPD2    C3 7601   0.340   2.309  15.990  0.5229  0.6881 -0.4179
  508MPD2    C4 7602   0.208   2.284  16.030  0.0954 -0.0624  0.2443
  508MPD2    C5 7603   0.171   2.253  16.158  0.7673  0.5678 -0.2222
  508MPD2     H 7604   0.528   2.347  16.067 -0.9611  2.9114  0.1456
  508MPD2    H1 7605   0.130   2.304  15.956  0.4036 -0.4026 -0.1678
  508MPD2    H2 7606   0.239   2.210  16.352 -0.1483  1.0626  0.6898
  508MPD2    H3 7607   0.069   2.229  16.185  0.4725  1.6004 -0.4436
  508MPD2     N 7608   0.382   2.368  15.868  0.2050  0.1191  0.4737
  508MPD2    H5 7609   0.477   2.403  15.867  0.4672 -0.5606  1.9505
  508MPD2    N1 7610   0.479   2.305  16.331  0.4389 -0.3951  0.5387
  508MPD2    H7 7611   0.438   2.295  16.423  2.2359 -1.7348  1.1828
  509TMC3    C1 7612   0.363   2.618  15.474 -0.3918  0.6833 -0.2793
  509TMC3    C2 7613   0.500   2.624  15.470 -0.3830 -0.4170 -0.4558
  509TMC3    C3 7614   0.567   2.540  15.559  0.3417 -0.1867 -0.3015
  509TMC3    C4 7615   0.297   2.529  15.561  0.3716 -0.7781  0.1888
  509TMC3    C5 7616   0.375   2.446  15.642  0.4719  1.0196 -0.2151
  509TMC3    C6 7617   0.510   2.450  15.639 -0.2830  0.5002 -0.0948
  509TMC3     C 7618   0.284   2.702  15.393  1.5444 -0.7509  0.8865
  509TMC3     O 7619   0.166   2.696  15.407  0.1463  0.2923  0.3685
  509TMC3     H 7620   0.560   2.693  15.412  0.9079  1.4306  3.0499
  509TMC3    H1 7621   0.190   2.525  15.574 -0.0975  2.0867 -2.7079
  509TMC3    H2 7622   0.568   2.382  15.700  0.2196  0.8555 -0.1794
  509TMC3    C7 7623   0.310   2.370  15.746  0.6649  0.5992  0.0627
  509TMC3    C8 7624   0.707   2.576  15.588  0.6617 -0.3191  0.1362
  509TMC3    O1 7625   0.189   2.342  15.736 -0.5291  0.3139 -0.3867
  509TMC3    O2 7626   0.773   2.485  15.633 -0.7249 -0.7161 -0.1778
  510MPD2     C 7627   3.409   3.891  15.042 -0.3145 -0.2332 -0.5935
  510MPD2    C1 7628   3.385   3.760  15.038  0.1392 -0.6923 -0.6548
  510MPD2    C2 7629   3.461   3.681  14.961 -0.1083 -0.3609  0.7624
  510MPD2    C3 7630   3.560   3.734  14.886 -0.0127 -0.2298 -0.8783
  510MPD2    C4 7631   3.605   3.861  14.903 -0.4668  0.7217 -0.1664
  510MPD2    C5 7632   3.526   3.935  14.982  0.9886 -0.2018 -0.0509
  510MPD2     H 7633   3.439   3.576  14.944  0.2976 -0.8379  3.2696
  510MPD2    H1 7634   3.698   3.904  14.868 -1.7288  2.2191 -1.6458
  510MPD2    H2 7635   3.348   3.965  15.094  0.7768 -0.7320  1.4032
  510MPD2    H3 7636   3.573   4.032  14.993  0.1534  0.2105 -0.1253
  510MPD2     N 7637   3.630   3.643  14.799 -0.6265  0.2454 -0.7475
  510MPD2    H5 7638   3.594   3.549  14.788 -0.0198 -0.4290  3.0029
  510MPD2    N1 7639   3.270   3.702  15.109 -0.1769  0.0913 -0.6049
  510MPD2    H7 7640   3.263   3.601  15.104  1.8120 -0.0409 -0.6543
  511TMC3    C1 7641   3.076   3.682  15.240  0.1426 -0.5060  0.7486
  511TMC3    C2 7642   2.969   3.743  15.300  0.0635  0.5395  0.0923
  511TMC3    C3 7643   2.878   3.664  15.361 -0.4656 -0.1289 -1.0403
  511TMC3    C4 7644   3.087   3.548  15.236 -0.0820  0.3849 -0.6469
  511TMC3    C5 7645   2.989   3.464  15.276 -0.3191  0.5442 -0.1516
  511TMC3    C6 7646   2.879   3.528  15.339 -0.8406  0.7332  0.2749
  511TMC3     C 7647   3.180   3.770  15.193  0.4740 -0.0921  0.5398
  511TMC3     O 7648   3.172   3.881  15.238 -0.1951 -0.2237  0.5712
  511TMC3     H 7649   2.950   3.850  15.305  0.2953  0.5556  0.5581
  511TMC3    H1 7650   3.176   3.501  15.194  2.4028  3.0398  1.6595
  511TMC3    H2 7651   2.794   3.467  15.369  1.1188 -2.3325 -0.4491
  511TMC3    C7 7652   2.970   3.365  15.176 -0.0464 -0.2404  0.5445
  511TMC3    C8 7653   2.796   3.725  15.461  0.2059 -0.3836  0.2715
  511TMC3    O1 7654   3.020   3.384  15.067  0.2959 -0.2615 -0.2673
  511TMC3    O2 7655   2.820   3.844  15.488  0.0708  0.0005  0.0760
  512TMC3    C1 7656   2.193   3.259  13.570  0.1668 -0.2818 -0.8970
  512TMC3    C2 7657   2.265   3.192  13.669  0.6218  0.6083  0.2005
  512TMC3    C3 7658   2.332   3.080  13.629 -0.1452  0.9259 -0.4265
  512TMC3    C4 7659   2.186   3.218  13.437  0.7291 -0.1907 -0.4393
  512TMC3    C5 7660   2.265   3.114  13.406  0.0714  0.0459 -0.1641
  512TMC3    C6 7661   2.337   3.044  13.494  0.0360  0.4696  0.4290
  512TMC3     C 7662   2.112   3.364  13.621  1.0700 -0.7538  0.0522
  512TMC3     O 7663   2.115   3.394  13.739 -0.4129 -0.0284 -0.1044
  512TMC3     H 7664   2.259   3.218  13.774  1.7499 -2.2081  0.9760
  512TMC3    H1 7665   2.110   3.249  13.367  2.1811  1.0852 -1.4372
  512TMC3    H2 7666   2.417   2.977  13.466 -1.9192 -1.7956  0.3059
  512TMC3    C7 7667   2.245   3.061  13.276 -0.5142 -0.2630 -0.1295
  512TMC3    C8 7668   2.438   3.036  13.707  0.4272  0.0529  1.1218
  512TMC3    O1 7669   2.201   3.146  13.201 -0.2112  0.1371  0.0225
  512TMC3    O2 7670   2.475   2.921  13.689 -0.0243 -0.2934  0.2123
  513MPD2     C 7671   4.058   2.976  13.166 -0.0519  0.4994 -0.1767
  513MPD2    C1 7672   4.076   2.856  13.226 -0.0747  0.4197  0.1128
  513MPD2    C2 7673   4.117   2.860  13.356  0.2410  0.2454 -1.0621
  513MPD2    C3 7674   4.135   2.975  13.426  0.4197 -0.1167 -0.1879
  513MPD2    C4 7675   4.115   3.095  13.362 -0.0906 -0.4027  0.3039
  513MPD2    C5 7676   4.079   3.094  13.231 -0.9242  0.0495  0.1280
  513MPD2     H 7677   4.132   2.762  13.400  1.4507  1.5565  1.4557
  513MPD2    H1 7678   4.124   3.185  13.421 -2.6873 -0.7634  1.2664
  513MPD2    H2 7679   4.034   2.979  13.061  0.7870  1.6084 -0.3434
  513MPD2    H3 7680   4.049   3.182  13.175 -3.8765  0.9775  3.2209
  513MPD2     N 7681   4.180   2.963  13.563 -0.8004  0.1009  0.2222
  513MPD2    H5 7682   4.204   2.868  13.590  0.7641  0.4089 -0.0991
  513MPD2    N1 7683   4.077   2.736  13.149  0.5501 -0.3047  0.4410
  513MPD2    H7 7684   4.054   2.746  13.051 -1.4563  1.7978  1.1266
  514TMC3    C1 7685   4.106   2.509  13.093 -0.2536 -0.2450  0.5770
  514TMC3    C2 7686   4.205   2.550  13.009 -0.0948  0.3340  0.4148
  514TMC3    C3 7687   4.308   2.463  12.994  0.0400  0.3919 -0.4131
  514TMC3    C4 7688   4.105   2.382  13.146 -0.6713 -0.8521 -0.1415
  514TMC3    C5 7689   4.214   2.294  13.133 -0.1758  0.0036  0.0596
  514TMC3    C6 7690   4.318   2.339  13.048  0.6170 -0.9895  0.6202
  514TMC3     C 7691   4.088   2.610  13.194 -0.0331  0.6631 -0.1474
  514TMC3     O 7692   4.089   2.567  13.307  0.1270 -0.5341 -0.0006
  514TMC3     H 7693   4.209   2.653  12.977  0.4305 -0.3225 -1.6136
  514TMC3    H1 7694   4.036   2.362  13.227  0.9331 -1.7873  0.9878
  514TMC3    H2 7695   4.400   2.269  13.042  1.9795  0.8571 -2.0239
  514TMC3    C7 7696   4.269   2.271  13.269  0.1249 -0.1356 -0.3875
  514TMC3    C8 7697   4.418   2.495  12.902  1.1386  0.6363  0.3638
  514TMC3    O1 7698   4.391   2.293  13.283  0.6970  0.1016 -0.2414
  514TMC3    O2 7699   4.514   2.420  12.903  0.2445 -0.5086 -0.3000
  515MPD2     C 7700   2.014   0.325  14.887  0.0237  0.2234 -0.5436
  515MPD2    C1 7701   2.076   0.208  14.856  0.1793 -0.1952 -0.1480
  515MPD2    C2 7702   2.191   0.170  14.920  0.2280 -0.1719  0.4493
  515MPD2    C3 7703   2.255   0.246  15.012  0.3129  0.6485  0.2918
  515MPD2    C4 7704   2.202   0.372  15.033  0.6461  0.3770  1.1660
  515MPD2    C5 7705   2.084   0.408  14.972 -0.1252  0.3845  0.7806
  515MPD2     H 7706   2.233   0.072  14.904 -0.0938 -0.5889  2.1596
  515MPD2    H1 7707   2.254   0.438  15.102  0.3221  1.4828  0.3473
  515MPD2    H2 7708   1.922   0.362  14.843 -0.0872  0.1114 -0.4093
  515MPD2    H3 7709   2.044   0.508  14.982 -0.7730  0.1815  0.1581
  515MPD2     N 7710   2.368   0.210  15.088 -0.4513  0.1193 -0.2848
  515MPD2    H5 7711   2.387   0.272  15.166 -0.1590  0.2455 -0.4586
  515MPD2    N1 7712   2.023   0.119  14.760  0.0953  0.2263 -0.4909
  515MPD2    H7 7713   2.072   0.030  14.752 -0.8390 -0.4284  1.0435
  516TMC3    C1 7714   1.855   0.036  14.625  0.4322  0.0089  0.2970
  516TMC3    C2 7715   1.780   0.055  14.510 -0.4054 -0.1826 -0.2249
  516TMC3    C3 7716   1.742   4.677  14.438 -0.1291 -0.1798 -0.1936
  516TMC3    C4 7717   1.873   4.649  14.686 -0.2988 -0.6010  0.5031
  516TMC3    C5 7718   1.828   4.544  14.613  0.6390  0.3826 -0.3720
  516TMC3    C6 7719   1.757   4.550  14.492 -0.9480 -0.4327 -1.0893
  516TMC3     C 7720   1.916   0.154  14.683 -0.1987 -0.3699  0.1765
  516TMC3     O 7721   1.871   0.261  14.651 -0.2328  0.0126  0.3419
  516TMC3     H 7722   1.765   0.157  14.475 -1.1755 -0.5158 -0.8671
  516TMC3    H1 7723   1.933   4.617  14.770  0.4704  1.2110  0.6627
  516TMC3    H2 7724   1.728   4.461  14.437  2.0289 -2.2732  0.3430
  516TMC3    C7 7725   1.862   4.417  14.664 -0.1380  0.4853  0.0224
  516TMC3    C8 7726   1.685   4.704  14.309  0.2801  0.8509  0.2912
  516TMC3    O1 7727   1.966   4.401  14.724 -0.4675 -0.1905  0.4686
  516TMC3    O2 7728   1.594   4.627  14.273  0.0242  0.2698 -0.0253
  517MPD2     C 7729   1.354   1.568   0.119  0.6822  1.0932  0.2144
  517MPD2    C1 7730   1.485   1.532   0.125 -0.4540 -0.2221  0.4167
  517MPD2    C2 7731   1.569   1.611   0.200 -0.5934 -0.3266  0.0154
  517MPD2    C3 7732   1.524   1.721   0.269 -0.2353  0.5818 -0.1602
  517MPD2    C4 7733   1.393   1.759   0.253  0.2089  0.6822 -0.4725
  517MPD2    C5 7734   1.306   1.693   0.167  0.5220 -0.3892 -0.3104
  517MPD2     H 7735   1.674   1.588   0.209 -0.8337 -0.5516  2.3703
  517MPD2    H1 7736   1.354   1.844   0.307 -0.9846  1.8443 -3.1271
  517MPD2    H2 7737   1.283   1.502   0.070  1.6756  0.7612 -0.7938
  517MPD2    H3 7738   1.202   1.723   0.169  0.1068 -2.2327  4.2009
  517MPD2     N 7739   1.598   1.799   0.361  0.0530 -0.4361 -0.4223
  517MPD2    H5 7740   1.555   1.879   0.406 -0.0765 -0.7360 -0.0057
  517MPD2    N1 7741   1.547   1.428   0.050  0.9726  0.6993  0.5031
  517MPD2    H7 7742   1.646   1.409   0.063  0.9930  0.2846 -0.3101
  518TMC3    C1 7743   1.584   1.245  17.686  0.0234  0.6968  0.0185
  518TMC3    C2 7744   1.572   1.117  17.742  0.1473  0.7079 -0.0515
  518TMC3    C3 7745   1.692   1.055   0.022 -1.2332  0.5326  0.2482
  518TMC3    C4 7746   1.698   1.308  17.651  0.7326 -0.4817  0.0495
  518TMC3    C5 7747   1.812   1.231  17.667 -0.3808  0.1424 -0.3564
  518TMC3    C6 7748   1.808   1.104  17.724  0.3715 -0.1137  0.9058
  518TMC3     C 7749   1.475   1.329  17.733  0.8519  1.1081  0.5709
  518TMC3     O 7750   1.360   1.288  17.742  0.8158  0.4004 -0.3097
  518TMC3     H 7751   1.479   1.082   0.038  0.2771  0.8656  0.3424
  518TMC3    H1 7752   1.690   1.404  17.601  1.2188 -0.4940 -0.0514
  518TMC3    H2 7753   1.895   1.058   0.021  0.9132 -0.2614 -0.3149
  518TMC3    C7 7754   1.937   1.293  17.621 -0.5640 -0.3924 -0.9062
  518TMC3    C8 7755   1.704   0.912   0.051 -0.5150  0.9609  0.7593
  518TMC3    O1 7756   1.941   1.400  17.560 -0.2861  0.0436  0.3784
  518TMC3    O2 7757   1.812   0.861   0.062 -0.2864  0.0592  0.4756
  519MPD2     C 7758   3.627   0.421  14.563  0.3592  0.1938  0.5603
  519MPD2    C1 7759   3.519   0.339  14.538 -0.1901  0.3985  0.9415
  519MPD2    C2 7760   3.548   0.208  14.503  0.2227  0.0528  0.3138
  519MPD2    C3 7761   3.673   0.161  14.477  0.2055  0.0197 -0.1610
  519MPD2    C4 7762   3.773   0.243  14.507  0.4259 -0.3176  0.1098
  519MPD2    C5 7763   3.754   0.367  14.548 -0.0278 -0.1500  0.2242
  519MPD2     H 7764   3.470   0.133  14.495  0.3380 -0.3650  3.0321
  519MPD2    H1 7765   3.873   0.204  14.491  0.4931 -1.1349  2.4882
  519MPD2    H2 7766   3.611   0.520  14.604  0.9399 -0.1905  1.7131
  519MPD2    H3 7767   3.837   0.420  14.593 -0.2629  1.0810 -0.7916
  519MPD2     N 7768   3.706   0.037  14.419 -0.9369 -0.0463  0.4527
  519MPD2    H5 7769   3.801   0.019  14.386 -1.3022 -1.3791  0.1116
  519MPD2    N1 7770   3.385   0.378  14.549  0.5625  0.4430 -0.4846
  519MPD2    H7 7771   3.378   0.472  14.587 -1.4988  0.8760 -1.9152
  520TMC3    C1 7772   3.677   4.563  14.321  1.3374 -0.2386  0.2281
  520TMC3    C2 7773   3.597   4.479  14.247  0.5731 -0.4804  0.9021
  520TMC3    C3 7774   3.656   4.361  14.204 -0.2581 -0.0181 -0.2985
  520TMC3    C4 7775   3.805   4.527  14.365  0.1395 -0.1664  0.1257
  520TMC3    C5 7776   3.852   4.408  14.319  0.4155 -0.7015  0.3582
  520TMC3    C6 7777   3.781   4.322  14.241 -0.2534 -0.3854 -0.5120
  520TMC3     C 7778   3.613   4.683  14.378 -0.6444 -0.0359 -0.0744
  520TMC3     O 7779   3.489   4.683  14.382  0.0257  0.0738 -0.4739
  520TMC3     H 7780   3.503   4.517  14.209  0.0440 -1.5891  1.1074
  520TMC3    H1 7781   3.857   4.586  14.439  0.3436 -1.0706  0.6952
  520TMC3    H2 7782   3.822   4.227  14.206 -1.3202 -0.8907 -0.3839
  520TMC3    C7 7783   3.998   4.387  14.329 -0.0840  0.0944  0.0299
  520TMC3    C8 7784   3.598   4.295  14.086 -0.8189  0.5964  0.1988
  520TMC3    O1 7785   4.033   4.277  14.292 -0.2124 -0.1836 -0.0661
  520TMC3    O2 7786   3.671   4.214  14.028 -0.4590  0.6866  0.5474
  521MPD2     C 7787   4.180   2.725  17.677  0.3643  0.4181  0.3224
  521MPD2    C1 7788   4.134   2.693  17.548 -0.8323 -0.5241 -0.3446
  521MPD2    C2 7789   4.209   2.748  17.446  0.2693 -0.3708  0.4854
  521MPD2    C3 7790   4.317   2.835  17.471 -0.1380 -0.7513  0.3612
  521MPD2    C4 7791   4.350   2.874  17.597  0.0344  0.6269  0.1891
  521MPD2    C5 7792   4.279   2.818  17.699  0.5951  0.0940 -0.3682
  521MPD2     H 7793   4.189   2.712  17.346 -2.3955  2.0438  0.1402
  521MPD2    H1 7794   4.425   2.950  17.615 -0.4262  1.0627  0.2669
  521MPD2    H2 7795   4.133   2.685   0.019 -0.0190 -1.3944 -0.6915
  521MPD2    H3 7796   4.314   2.820   0.054  1.6646  0.3901 -0.7375
  521MPD2     N 7797   4.392   2.868  17.359 -0.2074 -0.3366 -0.1353
  521MPD2    H5 7798   4.375   2.817  17.273  1.1806  2.0639 -1.8175
  521MPD2    N1 7799   4.028   2.612  17.530 -0.9411  0.4320 -0.4490
  521MPD2    H7 7800   4.004   2.551  17.607 -0.4626  0.4440 -0.2916
  522TMC3    C1 7801   4.596   2.919  17.256 -0.0287 -0.2736 -0.2369
  522TMC3    C2 7802   4.713   2.860  17.291  0.0704 -0.1704 -0.0845
  522TMC3    C3 7803   0.057   2.826  17.179  0.2230 -0.2985  0.3255
  522TMC3    C4 7804   4.546   2.915  17.131  0.2802  0.0610 -0.2147
  522TMC3    C5 7805   4.632   2.886  17.025 -0.0666  0.1147  0.2962
  522TMC3    C6 7806   0.021   2.840  17.047 -0.0158 -0.2945  0.0524
  522TMC3     C 7807   4.506   2.948  17.363  0.3697 -0.5941 -0.5709
  522TMC3     O 7808   4.557   3.005  17.461 -0.1600 -0.1857  0.0459
  522TMC3     H 7809   0.014   2.867  17.392 -1.3383  0.4640  0.4201
  522TMC3    H1 7810   4.448   2.959  17.119  0.8522  2.0019  2.2651
  522TMC3    H2 7811   0.089   2.819  16.965 -0.3467  1.5750 -0.7065
  522TMC3    C7 7812   4.586   2.876  16.893  0.4601 -0.4431  0.9928
  522TMC3    C8 7813   0.195   2.797  17.216 -0.1965 -0.2723  0.5533
  522TMC3    O1 7814   4.662   2.829  16.811  0.0903  0.3796 -0.5547
  522TMC3    O2 7815   0.227   2.821  17.331 -0.1781  0.3982 -0.3770
  523MPD2     C 7816   1.670   2.502  10.302 -0.0159 -1.0123  0.3999
  523MPD2    C1 7817   1.661   2.406  10.199 -0.7565 -0.3545 -0.3252
  523MPD2    C2 7818   1.546   2.399  10.122 -0.3853  0.4498 -0.3067
  523MPD2    C3 7819   1.442   2.487  10.149  0.1106  0.6654 -0.0609
  523MPD2    C4 7820   1.457   2.582  10.244  0.3760  0.2627  0.4907
  523MPD2    C5 7821   1.575   2.597  10.315 -0.0702 -0.2065  0.2649
  523MPD2     H 7822   1.531   2.320  10.051 -1.2656  0.2597  0.0946
  523MPD2    H1 7823   1.386   2.663  10.258 -1.3127 -1.0522 -0.5023
  523MPD2    H2 7824   1.753   2.500  10.372  1.5560 -0.3562 -1.4555
  523MPD2    H3 7825   1.585   2.672  10.393 -1.6237  0.6072 -0.3193
  523MPD2     N 7826   1.316   2.485  10.087 -0.5043  0.0871 -0.0039
  523MPD2    H5 7827   1.249   2.552  10.122  0.0623  0.9139 -0.4962
  523MPD2    N1 7828   1.766   2.311  10.185  1.0760 -0.0568 -0.3080
  523MPD2    H7 7829   1.839   2.311  10.255  1.2242 -0.8700 -0.4695
  524TMC3    C1 7830   1.144   2.434   9.949 -0.2139  0.0916 -0.7198
  524TMC3    C2 7831   1.096   2.421   9.818  0.3689 -0.3948 -0.7775
  524TMC3    C3 7832   0.964   2.409   9.793 -0.0460 -0.6011  0.2062
  524TMC3    C4 7833   1.054   2.432  10.056  0.1040 -0.0482  0.2470
  524TMC3    C5 7834   0.923   2.436  10.021 -0.7403  0.0179  0.7079
  524TMC3    C6 7835   0.879   2.426   9.891  0.3763  0.6647  0.4715
  524TMC3     C 7836   1.284   2.411   9.971 -0.5159  0.0222  0.2129
  524TMC3     O 7837   1.350   2.343   9.893  0.1507 -0.1533 -0.4586
  524TMC3     H 7838   1.165   2.384   9.743  2.1951 -0.8711  1.1271
  524TMC3    H1 7839   1.078   2.434  10.161  2.5101 -0.9259 -0.2733
  524TMC3    H2 7840   0.774   2.426   9.865  0.1762  1.9484  1.2799
  524TMC3    C7 7841   0.832   2.469  10.120 -0.0417 -0.0207  0.2701
  524TMC3    C8 7842   0.919   2.388   9.656  0.5400  0.0990 -0.6790
  524TMC3    O1 7843   0.862   2.440  10.236  0.1188 -0.3939 -0.0694
  524TMC3    O2 7844   0.801   2.370   9.644  0.3525  0.0157  0.0957
  525MPD2     C 7845   0.122   4.484  14.567 -0.0578 -0.1535  0.1369
  525MPD2    C1 7846   0.255   4.469  14.539  0.6425  0.3929  0.5195
  525MPD2    C2 7847   0.327   4.578  14.485 -0.1955  0.6140 -0.9639
  525MPD2    C3 7848   0.271   4.700  14.484 -0.1179 -0.1279 -0.1455
  525MPD2    C4 7849   0.138   4.717  14.512  0.2780  0.2270  0.1077
  525MPD2    C5 7850   0.058   4.607  14.550 -0.1287  0.2099 -0.3190
  525MPD2     H 7851   0.433   4.564  14.468 -0.1422 -0.4783  0.2386
  525MPD2    H1 7852   0.089   0.076  14.505  0.3747  0.2096 -0.7695
  525MPD2    H2 7853   0.054   4.402  14.588  1.8716 -1.5890  0.8949
  525MPD2    H3 7854   4.689   4.608  14.571 -0.4872 -0.7198 -2.1084
  525MPD2     N 7855   0.336   0.081  14.458 -0.0717 -0.0142 -0.1469
  525MPD2    H5 7856   0.287   0.168  14.479 -1.1163 -0.6427  0.0002
  525MPD2    N1 7857   0.327   4.351  14.565 -0.6466  0.6189  0.1573
  525MPD2    H7 7858   0.427   4.362  14.556 -0.4760  0.0251  1.2786
  526TMC3    C1 7859   0.363   4.117  14.577 -0.2885  0.1537  0.2471
  526TMC3    C2 7860   0.368   4.050  14.692 -0.0191 -0.2984  0.1522
  526TMC3    C3 7861   0.481   3.989  14.724 -0.0124  0.3333  0.4233
  526TMC3    C4 7862   0.473   4.124  14.497 -0.3281 -0.5665 -0.1047
  526TMC3    C5 7863   0.590   4.075  14.537  0.4635  0.6843 -0.1013
  526TMC3    C6 7864   0.594   4.003  14.650  0.0237 -0.2016 -0.2416
  526TMC3     C 7865   0.266   4.230  14.583  0.1944  0.3452  0.3232
  526TMC3     O 7866   0.152   4.197  14.609 -0.2115 -0.3887  0.1155
  526TMC3     H 7867   0.282   4.038  14.757 -0.4231 -0.3823 -0.3952
  526TMC3    H1 7868   0.471   4.178  14.403 -0.4546 -0.9299 -0.3106
  526TMC3    H2 7869   0.693   3.984  14.690  1.1104  2.6623 -1.5335
  526TMC3    C7 7870   0.676   4.039  14.431  0.3984 -0.8701  0.0069
  526TMC3    C8 7871   0.501   3.980  14.866 -0.2514  0.2128 -0.3001
  526TMC3    O1 7872   0.668   4.096  14.321 -0.7272  0.3082 -0.6042
  526TMC3    O2 7873   0.593   4.034  14.922 -0.3227 -0.2181  0.0383
  527MPD2     C 7874   3.042   2.498   0.836 -0.3114  0.0144  0.1488
  527MPD2    C1 7875   3.028   2.376   0.779  0.0673 -0.4189 -0.3648
  527MPD2    C2 7876   3.135   2.283   0.787  0.3021  0.7960  0.3386
  527MPD2    C3 7877   3.256   2.311   0.851 -0.2052  0.0884  0.3133
  527MPD2    C4 7878   3.257   2.424   0.925  0.1542 -0.1761  0.4998
  527MPD2    C5 7879   3.151   2.514   0.914  0.2445  0.3272  0.2520
  527MPD2     H 7880   3.109   2.187   0.743  2.8760 -0.0565  0.7019
  527MPD2    H1 7881   3.345   2.456   0.979  3.1089 -1.6510 -3.4073
  527MPD2    H2 7882   2.965   2.573   0.831 -0.6632 -0.2528  1.4999
  527MPD2    H3 7883   3.162   2.601   0.977 -0.7159 -0.1594  1.0859
  527MPD2     N 7884   3.354   2.210   0.854 -0.0009 -0.3778  0.5266
  527MPD2    H5 7885   3.355   2.145   0.776 -1.7689  0.9403 -0.5954
  527MPD2    N1 7886   2.901   2.336   0.723  0.1867  0.9898  0.0846
  527MPD2    H7 7887   2.891   2.247   0.674  2.7186  1.2769 -0.9900
  528TMC3    C1 7888   2.677   2.299   0.692 -0.2578 -0.1954 -0.2647
  528TMC3    C2 7889   2.716   2.204   0.604  0.1597 -0.4790  0.3574
  528TMC3    C3 7890   2.654   2.076   0.610 -0.0069 -0.2380 -0.0615
  528TMC3    C4 7891   2.578   2.273   0.784  0.8090 -0.3389  0.1975
  528TMC3    C5 7892   2.517   2.152   0.784 -0.9292 -0.5460  0.1088
  528TMC3    C6 7893   2.544   2.057   0.692 -0.4844  0.9556  0.8229
  528TMC3     C 7894   2.776   2.396   0.737 -0.0186 -0.0713 -0.0468
  528TMC3     O 7895   2.745   2.502   0.786 -0.0851 -0.6766  0.1801
  528TMC3     H 7896   2.807   2.215   0.546 -1.2189 -1.0372 -1.9395
  528TMC3    H1 7897   2.540   2.351   0.848  0.6714 -1.1422  1.0928
  528TMC3    H2 7898   2.508   1.959   0.719  3.1430 -0.5510  0.2005
  528TMC3    C7 7899   2.405   2.119   0.866 -0.0032 -0.8307 -0.5155
  528TMC3    C8 7900   2.753   1.970   0.596  0.0634 -0.3741 -0.1532
  528TMC3    O1 7901   2.331   2.035   0.823 -0.3887 -0.3914 -0.3353
  528TMC3    O2 7902   2.869   2.009   0.604 -0.2624 -0.1432 -0.6011
  529MPD2     C 7903   0.618   0.222   0.474  0.4516  0.3115 -0.0096
  529MPD2    C1 7904   0.537   0.246   0.583 -0.4444  0.8158 -0.0803
  529MPD2    C2 7905   0.428   0.332   0.572  0.3988 -0.3077 -0.6108
  529MPD2    C3 7906   0.396   0.389   0.451 -0.1055 -0.1952 -0.2765
  529MPD2    C4 7907   0.476   0.361   0.339  0.0984 -0.1693  0.0566
  529MPD2    C5 7908   0.589   0.276   0.351 -0.0989  0.8519 -0.0707
  529MPD2     H 7909   0.362   0.347   0.657 -0.7837 -0.6594 -1.4645
  529MPD2    H1 7910   0.452   0.396   0.239 -0.6123  0.4265  0.4362
  529MPD2    H2 7911   0.705   0.156   0.478  2.3517  2.7296 -1.2799
  529MPD2    H3 7912   0.658   0.262   0.269 -2.6580 -4.2086 -1.3825
  529MPD2     N 7913   0.282   0.465   0.434  0.1534 -0.0297 -0.2150
  529MPD2    H5 7914   0.277   0.515   0.345 -0.1394 -0.4972 -0.4639
  529MPD2    N1 7915   0.550   0.183   0.706 -0.2821 -0.3507  0.2155
  529MPD2    H7 7916   0.491   0.219   0.781 -2.9402 -0.1230 -1.9986
  530TMC3    C1 7917   0.587   0.014   0.864  0.2158 -0.4572  0.7478
  530TMC3    C2 7918   0.565   0.101   0.967 -0.9042  0.0792 -0.2627
  530TMC3    C3 7919   0.566   0.045   1.094  0.8005 -0.2811  0.0660
  530TMC3    C4 7920   0.607   4.620   0.878  0.3017 -0.7084  0.1671
  530TMC3    C5 7921   0.598   4.574   1.012  1.0084  0.3068 -0.4825
  530TMC3    C6 7922   0.580   4.651   1.125  0.0573 -0.4866 -0.2336
  530TMC3     C 7923   0.626   0.072   0.737  0.8003 -0.2790 -0.0475
  530TMC3     O 7924   0.722   0.018   0.681 -0.3694  0.0404  0.1047
  530TMC3     H 7925   0.569   0.209   0.957 -2.2099  0.0937 -0.5641
  530TMC3    H1 7926   0.636   4.558   0.794  2.1709  1.2162 -0.5940
  530TMC3    H2 7927   0.577   4.616   1.227 -0.2604 -2.0540 -0.7728
  530TMC3    C7 7928   0.606   4.430   1.024 -0.2752  0.2200 -0.9795
  530TMC3    C8 7929   0.599   0.135   1.203  0.1659 -0.5393 -0.0997
  530TMC3    O1 7930   0.630   4.362   0.926 -0.2678 -0.0010  0.2471
  530TMC3    O2 7931   0.548   0.248   1.198 -0.7202 -0.1043  0.4155
  531MPD2     C 7932   4.187   2.348  13.762 -0.2523 -0.0979 -0.5978
  531MPD2    C1 7933   4.237   2.431  13.660 -0.6563 -0.5639  0.2761
  531MPD2    C2 7934   4.253   2.379  13.528 -0.6270 -1.0782  0.3424
  531MPD2    C3 7935   4.180   2.261  13.490 -0.3803  0.4710  1.2623
  531MPD2    C4 7936   4.124   2.193  13.595 -0.5484  0.6437 -0.7721
  531MPD2    C5 7937   4.132   2.229  13.723 -0.4797  0.3551  0.2805
  531MPD2     H 7938   4.285   2.447  13.450  1.0435 -0.5437  1.4912
  531MPD2    H1 7939   4.082   2.096  13.573 -1.9038  0.6458  1.7445
  531MPD2    H2 7940   4.193   2.373  13.867 -0.1810 -0.7552 -0.4447
  531MPD2    H3 7941   4.096   2.157  13.796  0.3998 -1.1813 -0.8165
  531MPD2     N 7942   4.182   2.216  13.360  0.3646 -0.2704  0.3334
  531MPD2    H5 7943   4.096   2.171  13.329  0.0314  0.9214 -0.5023
  531MPD2    N1 7944   4.286   2.561  13.689  0.3377 -0.4663 -0.3313
  531MPD2    H7 7945   4.332   2.603  13.608 -0.5828  0.7186 -0.2280
  532TMC3    C1 7946   4.316   2.768  13.788 -0.5747 -0.3108  0.6158
  532TMC3    C2 7947   4.238   2.880  13.786  0.3235  0.4314  0.2490
  532TMC3    C3 7948   4.292   2.999  13.757  0.0177  0.4828 -0.2683
  532TMC3    C4 7949   4.449   2.776  13.756  0.0658 -0.7498  0.0186
  532TMC3    C5 7950   4.505   2.896  13.735 -0.6010 -0.8140  0.2737
  532TMC3    C6 7951   4.426   3.014  13.739  0.1837 -0.3812  0.8522
  532TMC3     C 7952   4.250   2.638  13.801 -0.1547  0.1939  0.4814
  532TMC3     O 7953   4.140   2.642  13.853  0.3522  0.7106 -0.9177
  532TMC3     H 7954   4.131   2.860  13.788  0.3066  0.3576 -1.1720
  532TMC3    H1 7955   4.496   2.678  13.747  2.0130  0.0763  1.1206
  532TMC3    H2 7956   4.468   3.107  13.703 -0.3434 -0.7083 -0.6222
  532TMC3    C7 7957   4.601   2.895  13.624 -0.5705  0.3386  0.0308
  532TMC3    C8 7958   4.224   3.063  13.646  0.2730 -0.1772 -0.1894
  532TMC3    O1 7959   4.600   2.991  13.550  0.4761 -0.1611 -0.1417
  532TMC3    O2 7960   4.256   3.174  13.607  0.2756  0.4916  0.6190
  533TMC3    C1 7961   0.507   0.233  14.403 -0.1172 -0.5891  0.2309
  533TMC3    C2 7962   0.630   0.270  14.441  0.2590 -0.5813  0.5710
  533TMC3    C3 7963   0.645   0.380  14.519 -0.2974  0.0147 -0.3014
  533TMC3    C4 7964   0.405   0.321  14.426  0.4199 -0.3983 -0.2304
  533TMC3    C5 7965   0.419   0.429  14.509 -0.3050 -0.1560 -0.5791
  533TMC3    C6 7966   0.542   0.469  14.548  0.5477  0.0240  0.8746
  533TMC3     C 7967   0.464   0.100  14.419  0.1026 -0.1433 -0.5628
  533TMC3     O 7968   0.552   0.019  14.397 -0.1816 -0.1082  0.4393
  533TMC3     H 7969   0.720   0.210  14.430 -0.4657 -1.6692  0.5185
  533TMC3    H1 7970   0.306   0.298  14.389 -0.5734  0.8950  1.6406
  533TMC3    H2 7971   0.553   0.556  14.612  0.3652 -0.5490  1.6992
  533TMC3    C7 7972   0.320   0.413  14.620  0.3708 -0.1211 -0.5386
  533TMC3    C8 7973   0.778   0.416  14.567 -0.7277 -0.2766  0.2168
  533TMC3    O1 7974   0.243   0.321  14.610 -0.4045  0.0148  0.0647
  533TMC3    O2 7975   0.849   0.324  14.601 -0.1088 -0.0350  0.2377
  534MPD2     C 7976   2.294   0.495   1.276  0.0837  0.3075 -0.8188
  534MPD2    C1 7977   2.333   0.617   1.339 -0.4735  0.1537 -0.0190
  534MPD2    C2 7978   2.237   0.706   1.395  0.0644  0.2807 -0.2555
  534MPD2    C3 7979   2.101   0.686   1.381 -0.8431 -0.0291  0.5245
  534MPD2    C4 7980   2.064   0.562   1.325 -0.6289 -0.4584 -0.4346
  534MPD2    C5 7981   2.159   0.469   1.291  0.0807 -0.2951 -0.2135
  534MPD2     H 7982   2.270   0.798   1.441  0.8325 -0.0819 -0.0845
  534MPD2    H1 7983   1.962   0.529   1.316 -0.4889 -0.8700 -0.5028
  534MPD2    H2 7984   2.363   0.415   1.251 -1.8394 -1.3218 -0.9280
  534MPD2    H3 7985   2.116   0.377   1.252 -2.4992  0.7382  0.1911
  534MPD2     N 7986   2.000   0.775   1.427 -0.3566  0.5571 -0.3145
  534MPD2    H5 7987   1.904   0.753   1.400 -0.5897 -1.5708  2.2635
  534MPD2    N1 7988   2.471   0.652   1.364  0.2285  0.4581  0.5257
  534MPD2    H7 7989   2.489   0.732   1.424  1.8959  0.7379 -0.3140
  535TMC3    C1 7990   1.912   0.981   1.470 -0.8369  0.2390 -0.4838
  535TMC3    C2 7991   1.779   0.941   1.462 -0.4962  0.3854 -0.2565
  535TMC3    C3 7992   1.700   1.023   1.385  1.0993  0.0700  0.6987
  535TMC3    C4 7993   1.960   1.100   1.411 -0.1933  0.1792 -0.4230
  535TMC3    C5 7994   1.876   1.163   1.323  0.2781 -0.4008  0.0488
  535TMC3    C6 7995   1.743   1.125   1.310  0.3904 -0.0710 -0.3716
  535TMC3     C 7996   2.017   0.887   1.499  0.5773 -0.2921 -0.1665
  535TMC3     O 7997   2.119   0.928   1.551 -0.2206 -0.1169 -0.2832
  535TMC3     H 7998   1.747   0.847   1.504 -3.0994  1.5649  0.4063
  535TMC3    H1 7999   2.065   1.129   1.410  0.1734 -1.1267  0.3017
  535TMC3    H2 8000   1.672   1.173   1.243  1.7570  1.0572 -1.0340
  535TMC3    C7 8001   1.941   1.161   1.196 -0.2732 -0.2383 -0.5293
  535TMC3    C8 8002   1.570   0.968   1.358  0.0610  0.6570 -0.1485
  535TMC3    O1 8003   2.053   1.110   1.187 -0.1701 -0.1034  0.7121
  535TMC3    O2 8004   1.544   0.853   1.387 -0.1031 -0.3909  0.4289
  536MPD2     C 8005   1.893   4.079  16.781  0.9830  0.5119  0.0734
  536MPD2    C1 8006   1.852   3.947  16.782 -0.4511 -0.2220  0.2542
  536MPD2    C2 8007   1.781   3.898  16.674 -0.4097 -0.1659 -0.5799
  536MPD2    C3 8008   1.755   3.989  16.569  0.4034  0.1099  0.0660
  536MPD2    C4 8009   1.800   4.120  16.569  0.0971  0.2958  0.5333
  536MPD2    C5 8010   1.878   4.163  16.678  0.4325 -0.0982  0.6767
  536MPD2     H 8011   1.743   3.797  16.663 -2.2271  0.7202 -2.3539
  536MPD2    H1 8012   1.774   4.185  16.486 -2.4531 -1.1069  0.2348
  536MPD2    H2 8013   1.939   4.119  16.871 -3.0117 -0.9719  2.8086
  536MPD2    H3 8014   1.927   4.259  16.682  0.8548 -0.3286  1.0187
  536MPD2     N 8015   1.683   3.947  16.447  0.2038  0.0320 -0.1023
  536MPD2    H5 8016   1.690   4.006  16.365  1.6383  1.2769  0.9299
  536MPD2    N1 8017   1.887   3.873  16.895 -0.5492  0.4808 -0.3079
  536MPD2    H7 8018   1.922   3.924  16.975  0.4986  0.3597 -0.6882
  537TMC3    C1 8019   1.905   3.665  17.011  0.1146  0.5591  0.8399
  537TMC3    C2 8020   1.926   3.731  17.130 -0.2521 -0.6124  0.0338
  537TMC3    C3 8021   1.900   3.666  17.253  0.6376 -0.6016 -0.2680
  537TMC3    C4 8022   1.852   3.539  17.014 -0.3782  0.1414 -0.3482
  537TMC3    C5 8023   1.829   3.474  17.134 -0.3085  0.0654 -0.3575
  537TMC3    C6 8024   1.863   3.532  17.256 -0.2120  0.5902  0.4377
  537TMC3     C 8025   1.882   3.735  16.891  0.7301  0.1602  0.2807
  537TMC3     O 8026   1.871   3.657  16.801  0.4080  0.3122  0.7349
  537TMC3     H 8027   1.967   3.831  17.127 -0.6548 -0.4436  0.1626
  537TMC3    H1 8028   1.826   3.482  16.926  0.3258  0.7417 -0.9543
  537TMC3    H2 8029   1.827   3.485  17.347  1.0474 -1.7067 -0.2482
  537TMC3    C7 8030   1.775   3.343  17.138 -0.2115 -0.2339  0.3303
  537TMC3    C8 8031   1.913   3.726  17.386 -0.7783 -0.3485 -0.5578
  537TMC3    O1 8032   1.699   3.315  17.044 -0.6019 -0.3608 -0.3429
  537TMC3    O2 8033   1.907   3.647  17.481 -0.1600 -0.1210  0.5059
  538TMC3    C1 8034   2.284   2.246  11.442 -0.1365  0.0351 -0.7922
  538TMC3    C2 8035   2.389   2.162  11.430  0.1532  0.6302  0.4536
  538TMC3    C3 8036   2.456   2.170  11.313 -0.5854 -0.9895  0.8741
  538TMC3    C4 8037   2.252   2.336  11.349 -0.4790 -1.0893 -0.2212
  538TMC3    C5 8038   2.323   2.344  11.235  0.2892 -1.1310  0.6157
  538TMC3    C6 8039   2.431   2.262  11.216  0.4824  0.5199  0.0477
  538TMC3     C 8040   2.185   2.227  11.547  0.1533  0.3377 -0.3485
  538TMC3     O 8041   2.073   2.268  11.535 -0.4568  0.0592  0.3733
  538TMC3     H 8042   2.405   2.077  11.495 -0.5281  0.0691 -0.1156
  538TMC3    H1 8043   2.172   2.407  11.357  2.5402  2.6148 -2.6428
  538TMC3    H2 8044   2.481   2.258  11.121  0.3283  0.1906 -0.0205
  538TMC3    C7 8045   2.244   2.366  11.118  0.2543  0.3282  0.4881
  538TMC3    C8 8046   2.540   2.057  11.292  0.2456  0.1897 -0.1729
  538TMC3    O1 8047   2.125   2.383  11.142  0.6191  0.5269  0.0811
  538TMC3    O2 8048   2.510   1.947  11.339 -0.1735 -0.0208  0.0468
  539MPD2     C 8049   2.270   1.456  11.897  0.1682 -0.2316  0.0918
  539MPD2    C1 8050   2.303   1.470  11.762 -0.0823 -0.0795 -0.2204
  539MPD2    C2 8051   2.247   1.568  11.685 -1.2107  0.7176 -0.0707
  539MPD2    C3 8052   2.143   1.641  11.736  0.2391  0.4774 -1.1062
  539MPD2    C4 8053   2.101   1.623  11.866  0.1235  0.4167  0.3884
  539MPD2    C5 8054   2.162   1.523  11.940  0.3007 -0.0454  0.5227
  539MPD2     H 8055   2.283   1.581  11.584 -2.0543 -1.6663 -0.6897
  539MPD2    H1 8056   2.023   1.687  11.906 -1.8245 -1.4655 -0.3661
  539MPD2    H2 8057   2.326   1.388  11.961 -0.7848 -1.3566 -0.2715
  539MPD2    H3 8058   2.139   1.500  12.043 -0.3062  1.0285  0.6329
  539MPD2     N 8059   2.072   1.742  11.659 -0.5157 -0.7367 -0.2011
  539MPD2    H5 8060   1.979   1.767  11.689  0.7006  1.4947  1.7358
  539MPD2    N1 8061   2.405   1.380  11.713 -0.3928  0.3585  0.4798
  539MPD2    H7 8062   2.443   1.311  11.777  1.2308  0.5649 -0.2865
  540TMC3    C1 8063   2.021   1.898  11.480 -0.4535  0.4769 -0.1235
  540TMC3    C2 8064   2.060   1.951  11.362 -0.6552 -0.6063 -0.2632
  540TMC3    C3 8065   1.978   2.038  11.295  0.3337  0.6520 -1.0780
  540TMC3    C4 8066   1.888   1.922  11.525 -0.8563  0.3141  0.3760
  540TMC3    C5 8067   1.811   2.011  11.453  0.0233  0.1671  0.0972
  540TMC3    C6 8068   1.854   2.077  11.341  0.0269 -0.0408 -0.2834
  540TMC3     C 8069   2.121   1.818  11.559  0.3954  0.3689 -0.0327
  540TMC3     O 8070   2.240   1.817  11.524  0.0761 -0.3709  0.4410
  540TMC3     H 8071   2.162   1.930  11.335 -0.5473 -1.4729  0.8405
  540TMC3    H1 8072   1.854   1.900  11.626 -1.7334 -1.1541 -0.2359
  540TMC3    H2 8073   1.798   2.155  11.290  0.0262 -0.4602 -0.9201
  540TMC3    C7 8074   1.733   2.089  11.541 -0.6571  0.5475 -0.0729
  540TMC3    C8 8075   2.005   2.029  11.154  0.4017  0.3731 -0.4591
  540TMC3    O1 8076   1.673   2.023  11.623  0.4922  0.0791  0.3009
  540TMC3    O2 8077   2.131   2.031  11.127  0.4472 -0.1540 -0.4051
  541MPD2     C 8078   0.840   2.912  13.491 -0.4533 -0.5059  0.2969
  541MPD2    C1 8079   0.864   2.813  13.401  0.3056  0.4402  0.2656
  541MPD2    C2 8080   0.850   2.845  13.266 -0.0292  0.4065 -0.9804
  541MPD2    C3 8081   0.808   2.975  13.229 -0.0744  0.8720  0.4590
  541MPD2    C4 8082   0.778   3.069  13.326 -0.9463 -0.2713  0.0642
  541MPD2    C5 8083   0.792   3.035  13.457  0.4848  0.0716  0.7186
  541MPD2     H 8084   0.854   2.771  13.187 -0.7056  2.1060 -2.5876
  541MPD2    H1 8085   0.735   3.165  13.298 -0.8389  0.0538  1.0181
  541MPD2    H2 8086   0.863   2.896  13.596 -0.3257  0.5177  0.4265
  541MPD2    H3 8087   0.787   3.111  13.533 -1.9778  1.0654 -0.4335
  541MPD2     N 8088   0.783   3.010  13.095  0.1196  0.2500  0.5878
  541MPD2    H5 8089   0.753   3.105  13.076  1.1527  0.3228 -0.6958
  541MPD2    N1 8090   0.908   2.688  13.454 -0.0586  0.2260  0.4311
  541MPD2    H7 8091   0.924   2.681  13.554  0.8936 -2.1344  0.1016
  542TMC3    C1 8092   0.764   3.006  12.863 -0.2650  0.3308 -0.1267
  542TMC3    C2 8093   0.828   2.978  12.750 -0.0035  0.4407 -0.2858
  542TMC3    C3 8094   0.799   3.050  12.635 -0.2889  0.6536 -0.0185
  542TMC3    C4 8095   0.668   3.111  12.869  0.3180 -0.3479 -0.7204
  542TMC3    C5 8096   0.637   3.181  12.753  0.4222 -0.5666  0.6337
  542TMC3    C6 8097   0.701   3.149  12.630  0.4740 -0.0920 -1.2417
  542TMC3     C 8098   0.812   2.940  12.984  0.4724 -0.2334  0.8018
  542TMC3     O 8099   0.867   2.834  12.971  0.0592 -0.1110 -0.0247
  542TMC3     H 8100   0.896   2.894  12.748  1.6958  1.7666  0.7944
  542TMC3    H1 8101   0.608   3.132  12.956 -0.3083  0.6316 -1.3848
  542TMC3    H2 8102   0.669   3.182  12.532 -1.3533  2.2876  0.1612
  542TMC3    C7 8103   0.551   3.287  12.756 -0.6845  0.3340 -0.0134
  542TMC3    C8 8104   0.862   3.010  12.511 -0.3864 -0.1249 -0.0537
  542TMC3    O1 8105   0.476   3.295  12.851  0.1416 -0.3605  0.4099
  542TMC3    O2 8106   0.784   3.023  12.415  0.6883 -0.3342  0.0775
  543TMC3    C1 8107   0.152   4.386  17.563  0.4207  0.7742 -0.5896
  543TMC3    C2 8108   0.181   4.283  17.652 -1.2333 -0.4221 -0.3870
  543TMC3    C3 8109   0.142   4.299   0.033 -0.2289  0.2494  0.2052
  543TMC3    C4 8110   0.090   4.501  17.599  0.6201  0.8999 -0.8763
  543TMC3    C5 8111   0.068   4.515  17.736 -0.2634 -0.3192 -0.6413
  543TMC3    C6 8112   0.092   4.420   0.083  0.1000 -0.6873  0.0246
  543TMC3     C 8113   0.224   4.380  17.436  0.8047 -0.6329 -0.6938
  543TMC3     O 8114   0.267   4.271  17.407  0.4464 -0.4038  0.7371
  543TMC3     H 8115   0.231   4.193  17.618  1.6238  0.7794  0.6411
  543TMC3    H1 8116   0.045   4.571  17.529 -0.6910 -0.2133 -1.1429
  543TMC3    H2 8117   0.059   4.427   0.186  1.6507 -0.0427  0.4742
  543TMC3    C7 8118   4.722   4.623   0.034 -0.1154 -0.0867 -0.0198
  543TMC3    C8 8119   0.117   4.178   0.110  0.1786 -0.2944 -0.2637
  543TMC3    O1 8120   4.656   4.599   0.135 -0.2857  0.6447 -0.0322
  543TMC3    O2 8121   0.111   4.077   0.043  0.0331 -0.0307  0.4603
  544MPD2     C 8122   0.067   3.904   0.532 -0.0724 -0.1001 -0.4630
  544MPD2    C1 8123   0.070   3.863   0.400  0.7472 -0.5423  0.1008
  544MPD2    C2 8124   0.087   3.962   0.307  0.1739  0.5808  0.2944
  544MPD2    C3 8125   0.092   4.096   0.348  0.5200  0.0720  0.1248
  544MPD2    C4 8126   0.086   4.135   0.482 -0.0303  0.1084 -0.2439
  544MPD2    C5 8127   0.076   4.037   0.577  0.0728  0.0510 -0.0141
  544MPD2     H 8128   0.099   3.928   0.205 -1.0131 -0.3529  0.4717
  544MPD2    H1 8129   0.081   4.238   0.515 -0.3021  0.3741 -1.1200
  544MPD2    H2 8130   0.050   3.830   0.609  1.0797  0.6310  0.4765
  544MPD2    H3 8131   0.051   4.079   0.674 -1.3740 -1.2872  0.1879
  544MPD2     N 8132   0.102   4.200   0.247 -0.4161 -0.6783  0.1682
  544MPD2    H5 8133   0.118   4.297   0.273 -2.0766 -0.8757  1.8189
  544MPD2    N1 8134   0.068   3.728   0.375 -0.0901 -0.3907  0.3439
  544MPD2    H7 8135   0.073   3.667   0.456  0.0546  0.3903  0.9249
  545TMC3    C1 8136   0.091   3.535   0.248 -0.8540 -0.5902  0.0640
  545TMC3    C2 8137   0.139   3.484   0.127  0.1460 -0.2602 -0.3879
  545TMC3    C3 8138   0.193   3.354   0.131 -0.3159  0.6760 -0.1609
  545TMC3    C4 8139   0.112   3.469   0.368 -0.8097  0.6571 -0.3450
  545TMC3    C5 8140   0.169   3.346   0.360 -0.4996 -0.2778  1.3516
  545TMC3    C6 8141   0.205   3.280   0.245  0.3042  0.0986 -0.3011
  545TMC3     C 8142   0.062   3.672   0.247 -0.4419 -0.3994  0.3560
  545TMC3     O 8143   0.030   3.733   0.144  0.0810 -0.0083 -0.5844
  545TMC3     H 8144   0.121   3.543   0.038 -1.1862  1.0491  0.7541
  545TMC3    H1 8145   0.089   3.511   0.466  0.4637  1.5211 -0.4248
  545TMC3    H2 8146   0.226   3.174   0.252  0.6449  0.2241  0.6584
  545TMC3    C7 8147   0.140   3.278   0.482 -0.4494  0.2776  0.1112
  545TMC3    C8 8148   0.248   3.295   0.010 -0.0822 -0.2875  0.3421
  545TMC3    O1 8149   0.023   3.286   0.528  0.0798 -0.1823 -1.1392
  545TMC3    O2 8150   0.298   3.183   0.015 -0.5074 -0.4784  0.3373
  546MPD2     C 8151   1.623   4.138   0.237  0.1079 -0.4467  0.1099
  546MPD2    C1 8152   1.659   4.144   0.098 -0.5827  0.4935  0.2142
  546MPD2    C2 8153   1.714   4.264   0.061  0.3802  0.0235  0.2630
  546MPD2    C3 8154   1.737   4.370   0.145 -0.8842  0.6722 -0.4690
  546MPD2    C4 8155   1.716   4.362   0.277  0.3561 -0.3357 -0.3185
  546MPD2    C5 8156   1.653   4.242   0.316  0.0835 -0.3124  0.0228
  546MPD2     H 8157   1.738   4.271  17.703  1.7721 -1.4561  0.4770
  546MPD2    H1 8158   1.733   4.440   0.349  1.4698 -0.0561 -0.8802
  546MPD2    H2 8159   1.563   4.057   0.277  2.0606 -2.1998 -0.5209
  546MPD2    H3 8160   1.621   4.250   0.420 -1.2305  2.3279 -0.5799
  546MPD2     N 8161   1.798   4.494   0.101 -0.3879 -0.3965 -0.2809
  546MPD2    H5 8162   1.796   4.571   0.167 -0.3705 -0.4759 -0.1889
  546MPD2    N1 8163   1.638   4.033   0.019 -0.0103  0.4009  0.2391
  546MPD2    H7 8164   1.611   3.952   0.075 -0.8198  1.8003  1.9035
  547TMC3    C1 8165   1.637   3.897  17.576  0.1436  0.2613  0.0869
  547TMC3    C2 8166   1.618   3.901  17.440  0.3552  0.4784  0.8265
  547TMC3    C3 8167   1.525   3.827  17.380  0.2588 -0.6221 -0.4168
  547TMC3    C4 8168   1.566   3.800  17.648  0.9424  0.0737 -0.0344
  547TMC3    C5 8169   1.497   3.709  17.578 -0.1182  0.7103  0.4127
  547TMC3    C6 8170   1.464   3.726  17.449  0.0137 -0.3395 -0.0074
  547TMC3     C 8171   1.647   4.032  17.632  0.2353 -0.5507 -0.1429
  547TMC3     O 8172   1.669   4.120  17.550 -0.0523 -0.5317 -0.4410
  547TMC3     H 8173   1.679   3.970  17.382 -0.3664  1.9950  1.8922
  547TMC3    H1 8174   1.600   3.777   0.001  0.1078  0.5256  0.3541
  547TMC3    H2 8175   1.400   3.660  17.391 -0.7737 -0.1733  0.6778
  547TMC3    C7 8176   1.436   3.601  17.653 -0.0142  0.2421 -0.7051
  547TMC3    C8 8177   1.418   3.910  17.329  0.0686  0.4845 -0.5047
  547TMC3    O1 8178   1.412   3.621   0.026 -0.0443  0.0585  0.0095
  547TMC3    O2 8179   1.324   3.855  17.289  0.2109 -0.3454  0.3609
  548MPD2     C 8180   1.442   4.709  12.813 -0.0421 -0.5704 -0.1215
  548MPD2    C1 8181   1.367   4.594  12.772 -0.6311  0.2295  0.4230
  548MPD2    C2 8182   1.419   4.503  12.682 -0.1310  0.0291 -0.1869
  548MPD2    C3 8183   1.543   4.532  12.627  0.4286 -0.0616  0.5461
  548MPD2    C4 8184   1.613   4.643  12.668 -0.1360  0.7825  0.4145
  548MPD2    C5 8185   1.568   4.728  12.768  0.3089 -0.1166 -0.1435
  548MPD2     H 8186   1.364   4.418  12.643 -0.5593  0.4791 -0.5696
  548MPD2    H1 8187   1.708   4.669  12.621 -0.1430 -0.3723 -0.2346
  548MPD2    H2 8188   1.406   0.048  12.881 -2.8406  0.2687 -2.5184
  548MPD2    H3 8189   1.625   0.078  12.799 -2.9658  2.3581 -1.0873
  548MPD2     N 8190   1.587   4.448  12.525  0.3354  0.1761  0.6713
  548MPD2    H5 8191   1.538   4.359  12.522  2.1245 -0.7953  0.1808
  548MPD2    N1 8192   1.238   4.587  12.830  0.3760  0.3671  0.5528
  548MPD2    H7 8193   1.198   4.669  12.874  0.5423  0.7700 -0.0585
  549TMC3    C1 8194   1.014   4.508  12.793  0.5240  0.4722 -0.4388
  549TMC3    C2 8195   0.973   4.631  12.747 -0.2073 -0.0922 -0.0233
  549TMC3    C3 8196   0.841   4.662  12.737  0.1515 -0.2180  0.4522
  549TMC3    C4 8197   0.925   4.412  12.834  0.1679 -0.7544  0.3201
  549TMC3    C5 8198   0.792   4.448  12.827  0.3275 -0.0570  1.3766
  549TMC3    C6 8199   0.750   4.575  12.780  0.2181 -0.6091 -0.3580
  549TMC3     C 8200   1.156   4.479  12.815 -0.4874 -1.2149  0.1566
  549TMC3     O 8201   1.186   4.360  12.809  0.0396 -0.7036  0.1064
  549TMC3     H 8202   1.041   4.700  12.699 -2.2262  1.7577 -0.2489
  549TMC3    H1 8203   0.966   4.327  12.888  1.1311 -1.5640 -1.7038
  549TMC3    H2 8204   0.648   4.610  12.780  0.2305 -0.5731  0.4909
  549TMC3    C7 8205   0.689   4.349  12.823 -0.1642 -0.1470 -0.1603
  549TMC3    C8 8206   0.788   0.006  12.637 -0.0363  0.0793 -0.0157
  549TMC3    O1 8207   0.576   4.388  12.798  0.4251 -0.2877  0.0311
  549TMC3    O2 8208   0.698   4.696  12.570  0.1250  0.2624  0.6029
  550TMC3    C1 8209   0.338   3.067  12.453  0.0229 -0.3905  0.4232
  550TMC3    C2 8210   0.295   3.122  12.569  0.8144  0.6627 -0.2078
  550TMC3    C3 8211   0.246   3.251  12.569  0.0688  1.0696  0.6324
  550TMC3    C4 8212   0.338   3.139  12.339  0.0501  0.9970  0.3389
  550TMC3    C5 8213   0.284   3.268  12.340  0.4379 -0.9007 -0.3072
  550TMC3    C6 8214   0.237   3.325  12.455 -0.2463 -0.4996  0.2366
  550TMC3     C 8215   0.310   2.922  12.439 -0.0945  0.0859 -0.3645
  550TMC3     O 8216   0.342   2.846  12.531  0.3755  0.6458  0.6202
  550TMC3     H 8217   0.311   3.078  12.666 -2.0239  0.7951  0.3193
  550TMC3    H1 8218   0.375   3.089  12.251  0.3280 -1.9371  2.1120
  550TMC3    H2 8219   0.192   3.423  12.459  3.5503  1.1612  1.8659
  550TMC3    C7 8220   0.177   3.253  12.245  0.9531  0.4172  0.0700
  550TMC3    C8 8221   0.169   3.298  12.689 -0.1751  0.2556 -0.3435
  550TMC3    O1 8222   0.155   3.141  12.206 -0.0820 -0.3155 -0.7319
  550TMC3    O2 8223   0.140   3.417  12.697 -0.3257  0.0771  0.6668
  551TMC3    C1 8224   2.207   0.363  13.768  0.1947  0.0906  0.0608
  551TMC3    C2 8225   2.315   0.347  13.686  0.4434  0.7089  0.2831
  551TMC3    C3 8226   2.433   0.409  13.711  0.2337  0.6066  0.0389
  551TMC3    C4 8227   2.211   0.441  13.885 -0.6415 -0.5821 -0.3410
  551TMC3    C5 8228   2.339   0.501  13.902 -0.0586  0.3549 -0.2257
  551TMC3    C6 8229   2.446   0.491  13.818  0.4804  0.0581 -0.7434
  551TMC3     C 8230   2.083   0.324  13.707 -0.0674 -0.4133  0.2314
  551TMC3     O 8231   1.998   0.412  13.703 -0.3515  0.5199  0.3654
  551TMC3     H 8232   2.305   0.300  13.589  0.2850 -0.0498  0.6753
  551TMC3    H1 8233   2.123   0.463  13.944 -0.9141 -1.2517 -0.4969
  551TMC3    H2 8234   2.544   0.531  13.843  1.3654 -1.9012 -1.0257
  551TMC3    C7 8235   2.359   0.578  14.023  0.1271  0.0113 -1.0228
  551TMC3    C8 8236   2.515   0.432  13.590 -1.1739  0.2561 -0.3215
  551TMC3    O1 8237   2.476   0.602  14.059 -0.2401  0.3172 -0.6841
  551TMC3    O2 8238   2.503   0.354  13.494 -0.0438 -0.4166 -0.3153
  552MPD2     C 8239   0.194   2.700  14.024  0.6569 -1.2061  0.0976
  552MPD2    C1 8240   0.111   2.623  14.102 -0.3565  0.8379 -0.0405
  552MPD2    C2 8241   0.118   2.631  14.238  0.0498  0.3553  0.3170
  552MPD2    C3 8242   0.212   2.707  14.301 -0.4878 -0.3983 -0.3557
  552MPD2    C4 8243   0.311   2.766  14.218  0.1802  0.0375 -0.1943
  552MPD2    C5 8244   0.301   2.763  14.082  0.5312  0.1158  0.5381
  552MPD2     H 8245   0.050   2.564  14.290  0.1080  1.0247  1.2443
  552MPD2    H1 8246   0.392   2.824  14.260  1.6156 -2.4327  0.4359
  552MPD2    H2 8247   0.174   2.714  13.919  0.2390 -0.6168  0.2553
  552MPD2    H3 8248   0.371   2.828  14.031  0.1329 -1.0337 -1.4756
  552MPD2     N 8249   0.234   2.719  14.437  0.1150 -0.0782 -0.0317
  552MPD2    H5 8250   0.325   2.758  14.458  0.9908 -2.0486 -0.1861
  552MPD2    N1 8251   0.005   2.536  14.048  0.0590  0.2906 -0.1365
  552MPD2    H7 8252   4.700   2.471  14.112  1.3350  1.3633  1.7903
  553TMC3    C1 8253   4.650   2.382  13.899 -0.3449 -0.0654  0.0147
  553TMC3    C2 8254   4.595   2.367  13.776  0.3327  0.4848  0.8287
  553TMC3    C3 8255   4.527   2.248  13.751 -0.6632  1.0867 -0.6130
  553TMC3    C4 8256   4.646   2.289  14.003  0.4365  0.1906 -0.3737
  553TMC3    C5 8257   4.584   2.173  13.971  0.3573 -0.2171  0.7786
  553TMC3    C6 8258   4.529   2.146  13.845 -0.1850 -0.0531 -0.0971
  553TMC3     C 8259   4.702   2.517  13.922  0.0774 -0.1109 -0.0905
  553TMC3     O 8260   4.707   2.598  13.830  0.3425  0.5398  0.0013
  553TMC3     H 8261   4.597   2.444  13.700  0.6265  0.2847  0.6323
  553TMC3    H1 8262   4.697   2.302  14.099  1.5403  0.2383 -0.9648
  553TMC3    H2 8263   4.486   2.048  13.831 -2.4402  1.0593 -1.0453
  553TMC3    C7 8264   4.594   2.067  14.072  0.1608  0.5190  0.4964
  553TMC3    C8 8265   4.539   2.193  13.617 -0.2188  0.5352  0.5215
  553TMC3    O1 8266   4.494   2.001  14.082  0.5328 -0.2323 -0.4357
  553TMC3    O2 8267   4.594   2.276  13.542  0.4047  0.3756  0.6719
  554TMC3    C1 8268   0.875   1.536  11.382 -0.2218 -0.0628  0.4772
  554TMC3    C2 8269   0.800   1.544  11.266 -0.7297  0.1438 -0.3294
  554TMC3    C3 8270   0.863   1.586  11.151 -0.9620 -0.1370  0.6410
  554TMC3    C4 8271   1.011   1.573  11.394  0.0563  0.7294 -0.8989
  554TMC3    C5 8272   1.076   1.587  11.267  0.2336 -0.6330  0.9199
  554TMC3    C6 8273   1.001   1.601  11.151  0.0820 -0.3072 -0.3739
  554TMC3     C 8274   0.814   1.471  11.499  0.0682 -0.1175 -0.5434
  554TMC3     O 8275   0.705   1.430  11.478  0.2712  0.4102  0.2459
  554TMC3     H 8276   0.692   1.548  11.273 -0.9052 -1.8979 -1.9648
  554TMC3    H1 8277   1.074   1.570  11.482 -1.7505  0.4468  0.3783
  554TMC3    H2 8278   1.052   1.626  11.058  0.9341 -0.9366 -0.0754
  554TMC3    C7 8279   1.208   1.644  11.252  0.3486 -0.1712 -0.3658
  554TMC3    C8 8280   0.802   1.662  11.045 -0.9824 -0.0435 -0.4436
  554TMC3    O1 8281   1.265   1.609  11.149 -0.2034 -0.0257  0.0456
  554TMC3    O2 8282   0.878   1.715  10.967  0.5690  0.4642  0.0094
  555TMC3    C1 8283   0.694   1.630  15.454  0.2069 -0.1953 -0.7017
  555TMC3    C2 8284   0.614   1.657  15.563  0.2223  0.5659 -0.1402
  555TMC3    C3 8285   0.622   1.570  15.668 -0.7828  0.2891 -0.7374
  555TMC3    C4 8286   0.781   1.523  15.462  0.1024 -0.8956  1.1091
  555TMC3    C5 8287   0.779   1.430  15.563 -0.1513  0.0347 -0.3076
  555TMC3    C6 8288   0.700   1.456  15.672 -0.2912 -0.7574  0.1190
  555TMC3     C 8289   0.660   1.679  15.322  0.3464 -0.5934 -0.0765
  555TMC3     O 8290   0.689   1.604  15.227  0.6031  0.2191 -0.1363
  555TMC3     H 8291   0.520   1.709  15.555  0.4838  1.3111  1.6893
  555TMC3    H1 8292   0.829   1.506  15.366  2.1827  0.2783  1.9500
  555TMC3    H2 8293   0.698   1.374  15.743  0.3323  0.9995  2.1680
  555TMC3    C7 8294   0.785   1.287  15.537 -0.4327  0.7393  0.1935
  555TMC3    C8 8295   0.528   1.577  15.776  0.9242  0.0899  0.0893
  555TMC3    O1 8296   0.725   1.203  15.608 -0.1165 -0.4396 -0.0337
  555TMC3    O2 8297   0.415   1.619  15.749 -0.1595  0.7412 -0.6082
  556MPD2     C 8298   3.767   2.569  11.374  0.5501  0.7706 -0.4574
  556MPD2    C1 8299   3.631   2.595  11.373  0.0265  0.3801 -0.2973
  556MPD2    C2 8300   3.555   2.520  11.287  0.3181  1.0366 -0.0275
  556MPD2    C3 8301   3.610   2.427  11.204 -0.2856 -0.1133 -0.1138
  556MPD2    C4 8302   3.747   2.393  11.211  0.1063 -0.0014 -1.2707
  556MPD2    C5 8303   3.826   2.463  11.305  0.8506  0.2443 -0.0986
  556MPD2     H 8304   3.453   2.556  11.276  1.0017  3.3365  1.0739
  556MPD2    H1 8305   3.796   2.322  11.147 -0.6373 -1.4723 -0.2103
  556MPD2    H2 8306   3.835   2.622  11.440 -0.0191  1.0121 -0.0675
  556MPD2    H3 8307   3.933   2.445  11.301  1.1081  2.3098 -3.1026
  556MPD2     N 8308   3.531   2.362  11.113  0.7679  0.2486 -0.1945
  556MPD2    H5 8309   3.431   2.377  11.117  0.2154 -3.3548 -0.1104
  556MPD2    N1 8310   3.567   2.689  11.457  0.2040 -0.5104  0.4348
  556MPD2    H7 8311   3.466   2.688  11.455  0.2109  0.7472 -0.1837
  557TMC3    C1 8312   3.468   2.234  10.941 -0.0615  0.1742  0.3807
  557TMC3    C2 8313   3.484   2.217  10.806 -0.0984 -0.4734  0.9141
  557TMC3    C3 8314   3.372   2.185  10.733 -0.0227 -0.0776 -0.1439
  557TMC3    C4 8315   3.357   2.191  11.004 -0.2688 -0.4798 -0.0053
  557TMC3    C5 8316   3.253   2.141  10.926  0.3330 -0.2998  0.4633
  557TMC3    C6 8317   3.257   2.140  10.789 -0.0583  0.1306 -0.2614
  557TMC3     C 8318   3.578   2.306  10.997  0.5148  0.0191  0.5444
  557TMC3     O 8319   3.690   2.303  10.948  0.3542 -0.2349  0.2350
  557TMC3     H 8320   3.566   2.262  10.750 -1.3628 -0.5929 -1.0060
  557TMC3    H1 8321   3.336   2.200  11.109 -1.5067  2.2112 -0.4953
  557TMC3    H2 8322   3.166   2.111  10.738 -1.3190  4.3108 -0.3239
  557TMC3    C7 8323   3.123   2.127  11.005 -0.0757 -0.1293  0.6637
  557TMC3    C8 8324   3.370   2.242  10.599  0.6838  0.6930  0.2855
  557TMC3    O1 8325   3.094   2.215  11.078  0.6888  0.3226 -0.2091
  557TMC3    O2 8326   3.465   2.305  10.559 -0.1780  0.6273  0.1830
  558TMC3    C1 8327   0.832   0.221  10.175  0.0266 -0.2178  0.7003
  558TMC3    C2 8328   0.710   0.185  10.224  0.4934 -0.5658  0.6578
  558TMC3    C3 8329   0.600   0.214  10.151 -0.0656  0.5072 -0.1298
  558TMC3    C4 8330   0.846   0.288  10.055 -0.3833  0.1516  0.1403
  558TMC3    C5 8331   0.733   0.313   9.989 -0.2251  0.1374  0.0367
  558TMC3    C6 8332   0.608   0.275  10.028  0.1785 -0.3041 -0.0930
  558TMC3     C 8333   0.954   0.205  10.254  0.7312 -0.0733  0.1398
  558TMC3     O 8334   1.044   0.286  10.242 -0.0125 -0.0725  0.3822
  558TMC3     H 8335   0.705   0.135  10.320 -1.0330  1.6114  1.7158
  558TMC3    H1 8336   0.942   0.319  10.014 -0.6746  0.4947 -0.2738
  558TMC3    H2 8337   0.514   0.320   9.999  0.0817 -0.5878 -0.2179
  558TMC3    C7 8338   0.736   0.399   9.870  0.4115  0.6519  0.0181
  558TMC3    C8 8339   0.492   0.246  10.232 -0.6264  0.3460  0.0312
  558TMC3    O1 8340   0.834   0.476   9.864 -0.6116 -0.2034 -0.2535
  558TMC3    O2 8341   0.380   0.236  10.185  0.3976 -0.0127  0.0055
  559MPD2     C 8342   0.650   1.583  10.591  0.2050 -0.6508 -0.2833
  559MPD2    C1 8343   0.624   1.504  10.700 -0.6070 -0.3594  0.4151
  559MPD2    C2 8344   0.734   1.452  10.780 -0.3067 -0.2225 -0.1944
  559MPD2    C3 8345   0.864   1.489  10.748  0.1640 -0.6575  0.4720
  559MPD2    C4 8346   0.887   1.572  10.640  0.0724  0.0054 -0.0270
  559MPD2    C5 8347   0.783   1.618  10.562  0.3760 -0.2647 -0.0684
  559MPD2     H 8348   0.726   1.391  10.869  0.3427  0.4138  0.2928
  559MPD2    H1 8349   0.985   1.605  10.609 -0.9866 -0.0973 -3.5745
  559MPD2    H2 8350   0.570   1.605  10.522 -1.6022 -2.9791  1.0713
  559MPD2    H3 8351   0.805   1.681  10.476 -0.0734 -1.5150 -1.1102
  559MPD2     N 8352   0.966   1.429  10.827  0.8173  1.1206  0.6745
  559MPD2    H5 8353   0.941   1.343  10.873  0.2980 -0.3541 -2.3836
  559MPD2    N1 8354   0.487   1.470  10.724 -0.3345  0.5167 -0.1081
  559MPD2    H7 8355   0.417   1.523  10.674  0.8068  0.4887 -1.7408
  560TMC3    C1 8356   1.191   1.361  10.861 -0.6358  0.2961 -0.6311
  560TMC3    C2 8357   1.155   1.230  10.846  0.1681 -0.4344  0.2463
  560TMC3    C3 8358   1.235   1.140  10.908  0.0549  0.5080  0.0286
  560TMC3    C4 8359   1.312   1.401  10.918 -0.1158 -0.0693  0.1321
  560TMC3    C5 8360   1.386   1.308  10.978 -0.6398 -0.0966  0.3289
  560TMC3    C6 8361   1.355   1.175  10.973 -0.2828 -0.4230 -0.5901
  560TMC3     C 8362   1.101   1.466  10.823 -0.4122 -0.2237 -0.0237
  560TMC3     O 8363   1.151   1.579  10.825  0.1964 -0.1188  0.1281
  560TMC3     H 8364   1.060   1.206  10.801  0.5947  0.3638 -1.0945
  560TMC3    H1 8365   1.342   1.505  10.927  0.7260 -0.3321  0.3136
  560TMC3    H2 8366   1.408   1.098  11.028  0.6882  1.2742  0.8338
  560TMC3    C7 8367   1.506   1.345  11.050 -0.1255  0.2818  0.1010
  560TMC3    C8 8368   1.195   0.998  10.906  0.2685  0.5049  0.0733
  560TMC3    O1 8369   1.595   1.258  11.049  0.1136 -0.3841 -0.2930
  560TMC3    O2 8370   1.074   0.983  10.894 -0.4826  0.0415  0.5627
  561TMC3    C1 8371   3.688   0.070  11.535 -0.2962  0.3140  0.3024
  561TMC3    C2 8372   3.677   0.011  11.659  0.8157  0.3929  0.5618
  561TMC3    C3 8373   3.628   0.083  11.762 -0.1720 -0.0970 -0.1128
  561TMC3    C4 8374   3.662   0.205  11.524  0.1967 -0.3885  0.2947
  561TMC3    C5 8375   3.635   0.278  11.640  0.4270  0.0841 -0.0482
  561TMC3    C6 8376   3.617   0.220  11.759  0.8078  0.5986  0.5301
  561TMC3     C 8377   3.703   4.721  11.416  0.6508 -0.3856  0.4362
  561TMC3     O 8378   3.719   4.603  11.438 -0.6188 -0.1103  0.1680
  561TMC3     H 8379   3.680   4.641  11.674 -0.4301  0.1918 -0.6532
  561TMC3    H1 8380   3.673   0.261  11.432 -0.2395  0.2196  0.6115
  561TMC3    H2 8381   3.577   0.272  11.846 -0.4726 -0.6794  0.7151
  561TMC3    C7 8382   3.582   0.409  11.627  0.7817 -0.1090  0.1891
  561TMC3    C8 8383   3.571   0.008  11.862  0.1037 -0.5988 -0.5797
  561TMC3    O1 8384   3.540   0.459  11.730  0.3417 -0.9081 -0.3568
  561TMC3    O2 8385   3.603   4.630  11.879 -0.4437 -0.0187 -0.3255
  562TMC3    C1 8386   0.039   1.529  16.610 -0.0995 -0.0089 -0.1477
  562TMC3    C2 8387   0.010   1.641  16.538  0.0257 -0.8065 -0.6400
  562TMC3    C3 8388   4.681   1.629  16.407 -0.3469  0.1610  0.0281
  562TMC3    C4 8389   0.006   1.402  16.567 -1.1837 -0.2797  1.0118
  562TMC3    C5 8390   4.672   1.399  16.449 -0.7606  0.1608 -0.4428
  562TMC3    C6 8391   4.644   1.503  16.370  0.3744 -0.0342 -0.5094
  562TMC3     C 8392   0.123   1.544  16.726 -0.6323 -0.0154  0.1631
  562TMC3     O 8393   0.160   1.660  16.745 -0.2006 -0.1717 -0.5267
  562TMC3     H 8394   0.058   1.737  16.551 -2.4390  0.2551  0.6146
  562TMC3    H1 8395   0.017   1.306  16.615 -1.6539 -1.0851 -0.4734
  562TMC3    H2 8396   4.608   1.503  16.268  0.6716  0.7672 -0.6166
  562TMC3    C7 8397   4.661   1.271  16.384 -0.0537  0.5089 -0.4152
  562TMC3    C8 8398   0.037   1.691  16.311  0.3201 -0.3436 -0.0293
  562TMC3    O1 8399   4.564   1.253  16.317 -0.0199 -0.5613 -0.3224
  562TMC3    O2 8400   0.149   1.693  16.352 -0.7281  0.1792 -0.3638
  563MPD2     C 8401   2.409   3.140  15.725  0.4069  0.2928  0.1367
  563MPD2    C1 8402   2.491   3.167  15.831  0.6011  0.1383 -0.2478
  563MPD2    C2 8403   2.614   3.095  15.834  0.3126  0.8644  0.0265
  563MPD2    C3 8404   2.668   3.038  15.720  0.1783  0.9698  0.2114
  563MPD2    C4 8405   2.586   3.025  15.605  0.9218  0.3225 -0.2056
  563MPD2    C5 8406   2.458   3.075  15.613  0.6682  0.6131  0.3668
  563MPD2     H 8407   2.679   3.090  15.921 -0.9323  3.5349  1.0785
  563MPD2    H1 8408   2.617   2.970  15.517 -1.6105 -0.8163 -0.3733
  563MPD2    H2 8409   2.305   3.170  15.732  0.2185 -0.6780  1.5066
  563MPD2    H3 8410   2.389   3.059  15.532 -0.5612  1.5876  1.2171
  563MPD2     N 8411   2.802   2.996  15.728 -0.3749  0.6871  0.5339
  563MPD2    H5 8412   2.846   3.009  15.819  0.3298  1.8342  0.0331
  563MPD2    N1 8413   2.429   3.225  15.944 -0.2063 -0.6967 -0.1368
  563MPD2    H7 8414   2.328   3.238  15.940  0.2639  3.4984  1.4231
  564TMC3    C1 8415   2.446   3.163  16.167  0.5977  0.0303 -0.2537
  564TMC3    C2 8416   2.310   3.144  16.179  0.3024  1.0183  0.3944
  564TMC3    C3 8417   2.266   3.042  16.263  0.6277  0.3387 -0.6682
  564TMC3    C4 8418   2.535   3.078  16.239  0.0746 -0.4248 -0.1239
  564TMC3    C5 8419   2.487   2.993  16.330  0.1748  0.7439  0.3457
  564TMC3    C6 8420   2.351   2.981  16.355 -0.0995  0.5001 -0.5885
  564TMC3     C 8421   2.502   3.239  16.057 -0.1168  0.7405 -0.2285
  564TMC3     O 8422   2.618   3.272  16.068  0.3393 -0.5986 -0.4787
  564TMC3     H 8423   2.249   3.204  16.112 -1.0166 -3.0190 -1.9806
  564TMC3    H1 8424   2.641   3.098  16.234  0.2270 -0.9779  0.8874
  564TMC3    H2 8425   2.302   2.911  16.421  0.3685 -1.2122 -2.0478
  564TMC3    C7 8426   2.559   2.872  16.314  0.3103  0.3841  0.2746
  564TMC3    C8 8427   2.204   2.936  16.189  0.2687 -0.0387  0.5957
  564TMC3    O1 8428   2.551   2.786  16.402  0.8457 -0.1527 -0.1438
  564TMC3    O2 8429   2.171   2.833  16.247  0.7444  0.5399 -1.2073
  565TMC3    C1 8430   2.398   3.233  10.727  0.2582  0.6108  0.8618
  565TMC3    C2 8431   2.397   3.215  10.868  0.2902  0.1602  0.4031
  565TMC3    C3 8432   2.298   3.134  10.920  0.6262  0.6410 -0.3920
  565TMC3    C4 8433   2.302   3.167  10.652 -0.0920  0.2975  0.4827
  565TMC3    C5 8434   2.214   3.084  10.714 -0.3247 -1.3842  0.8121
  565TMC3    C6 8435   2.201   3.075  10.848  0.6897  0.5174 -0.4298
  565TMC3     C 8436   2.507   3.303  10.654  0.0208 -0.8297  0.0595
  565TMC3     O 8437   2.530   3.272  10.536  0.0211  0.1901  0.4633
  565TMC3     H 8438   2.465   3.271  10.930  1.1819 -0.6319  0.1481
  565TMC3    H1 8439   2.286   3.204  10.552 -0.8119 -0.5788  0.2704
  565TMC3    H2 8440   2.135   2.996  10.882  1.3067  0.0169 -0.3936
  565TMC3    C7 8441   2.109   3.015  10.637 -0.1723  0.8780 -0.8417
  565TMC3    C8 8442   2.292   3.126  11.064  0.4907  0.2484 -0.2981
  565TMC3    O1 8443   1.999   3.026  10.695 -0.1517  0.1181 -0.4780
  565TMC3    O2 8444   2.391   3.168  11.131 -0.3550  0.0918  0.3852
  566MPD2     C 8445   0.387   1.156  14.452 -0.0229  0.5135  0.0257
  566MPD2    C1 8446   0.426   1.173  14.326  0.4478 -0.5205  0.3798
  566MPD2    C2 8447   0.357   1.106  14.226  0.2752  0.2298 -0.4190
  566MPD2    C3 8448   0.235   1.039  14.254  0.5852 -0.1359  0.6041
  566MPD2    C4 8449   0.196   1.020  14.387 -0.4931  0.3081  0.0534
  566MPD2    C5 8450   0.278   1.077  14.487 -0.2533 -0.4116  0.0694
  566MPD2     H 8451   0.398   1.104  14.125 -2.3733  1.7952 -1.5323
  566MPD2    H1 8452   0.097   0.978  14.404 -1.4495  3.0140  1.2090
  566MPD2    H2 8453   0.448   1.205  14.527 -1.4579  4.1039 -1.1592
  566MPD2    H3 8454   0.246   1.067  14.590  1.4588  1.5274  0.7730
  566MPD2     N 8455   0.161   0.993  14.140  0.1952  0.5993 -0.5225
  566MPD2    H5 8456   0.201   1.008  14.048  1.7019  1.8169  0.3224
  566MPD2    N1 8457   0.538   1.255  14.302 -0.1643 -0.7115  0.1990
  566MPD2    H7 8458   0.589   1.294  14.381  0.5757 -4.6843  1.6858
  567TMC3    C1 8459   0.700   1.381  14.173  0.1197  0.0411  0.1600
  567TMC3    C2 8460   0.743   1.426  14.056  0.1960  0.0876  0.2885
  567TMC3    C3 8461   0.795   1.550  14.048 -0.0756  0.1601  0.4750
  567TMC3    C4 8462   0.725   1.460  14.280  0.4714  0.2295  0.5433
  567TMC3    C5 8463   0.783   1.584  14.280 -0.2400  0.3208 -0.3251
  567TMC3    C6 8464   0.819   1.629  14.153 -0.0766 -0.7264  0.5656
  567TMC3     C 8465   0.587   1.287  14.176 -0.4134 -0.0771 -0.0056
  567TMC3     O 8466   0.540   1.268  14.066  0.6171 -0.6786  0.2130
  567TMC3     H 8467   0.705   1.372  13.970 -0.5746 -0.8631  1.2212
  567TMC3    H1 8468   0.701   1.427  14.380  0.9333  1.9239  1.2212
  567TMC3    H2 8469   0.868   1.726  14.144  0.0227 -0.7068  1.2894
  567TMC3    C7 8470   0.821   1.656  14.399  0.8617 -0.3050  0.3826
  567TMC3    C8 8471   0.764   1.617  13.917 -0.2578 -0.0227  0.2984
  567TMC3    O1 8472   0.931   1.712  14.391 -0.0212 -1.0672  0.3414
  567TMC3    O2 8473   0.700   1.552  13.833  0.1834 -0.0663 -0.3538
  568MPD2     C 8474   2.426   1.445  15.871  0.3304  0.0107  0.8618
  568MPD2    C1 8475   2.425   1.483  16.005 -0.4652 -0.3204 -0.7343
  568MPD2    C2 8476   2.448   1.618  16.033 -0.0451 -0.2091 -0.4477
  568MPD2    C3 8477   2.469   1.712  15.931 -1.2204  0.0997  1.0396
  568MPD2    C4 8478   2.465   1.671  15.802  0.4756 -0.5339  0.3746
  568MPD2    C5 8479   2.443   1.539  15.776 -0.1887 -0.4926 -0.0451
  568MPD2     H 8480   2.456   1.656  16.135 -0.1468  0.8878 -0.8417
  568MPD2    H1 8481   2.497   1.736  15.721  0.7676 -0.2354  0.7305
  568MPD2    H2 8482   2.428   1.340  15.844  1.9456  1.1371 -3.4621
  568MPD2    H3 8483   2.452   1.510  15.671 -0.2832 -3.0144  0.6527
  568MPD2     N 8484   2.506   1.843  15.965 -0.1613 -0.3483 -0.4083
  568MPD2    H5 8485   2.507   1.860  16.065  0.0119 -2.5222 -0.0403
  568MPD2    N1 8486   2.429   1.380  16.107 -0.4984 -0.0300 -0.1095
  568MPD2    H7 8487   2.418   1.283  16.079  2.8816 -0.4151 -0.0856
  569TMC3    C1 8488   2.515   2.074  15.947 -0.7857 -0.0414  0.3859
  569TMC3    C2 8489   2.502   2.073  16.082  1.0233 -0.6168  0.4944
  569TMC3    C3 8490   2.456   2.182  16.136  0.2223  0.0164 -0.2414
  569TMC3    C4 8491   2.494   2.190  15.872 -0.1607 -0.1556  0.0705
  569TMC3    C5 8492   2.454   2.302  15.941 -0.0538  0.2863 -0.1817
  569TMC3    C6 8493   2.430   2.307  16.076  0.3099  0.7064 -0.6677
  569TMC3     C 8494   2.532   1.951  15.880 -0.1217  0.0099  0.2757
  569TMC3     O 8495   2.540   1.954  15.759  0.0505 -0.0198  0.4568
  569TMC3     H 8496   2.524   1.991  16.150 -0.1969 -0.2033  1.3835
  569TMC3    H1 8497   2.524   2.192  15.768  2.1136  0.8144  0.7409
  569TMC3    H2 8498   2.380   2.384  16.134 -1.2202 -1.9219  1.5841
  569TMC3    C7 8499   2.408   2.407  15.858  0.1062  0.1450  0.1618
  569TMC3    C8 8500   2.416   2.157  16.274  0.6903 -0.2505 -0.0153
  569TMC3    O1 8501   2.418   2.393  15.735 -0.8211  0.3016 -0.1495
  569TMC3    O2 8502   2.375   2.048  16.307  0.0480  0.2153 -0.6210
  570TMC3    C1 8503   2.099   0.503  16.352 -0.3666  0.5972 -0.4965
  570TMC3    C2 8504   2.184   0.493  16.247  0.4243  0.3022  0.1924
  570TMC3    C3 8505   2.269   0.592  16.220  0.5017 -0.4316 -0.4797
  570TMC3    C4 8506   2.088   0.620  16.422 -0.0280 -0.2160  0.0670
  570TMC3    C5 8507   2.167   0.728  16.379 -0.5093 -0.6849 -0.2979
  570TMC3    C6 8508   2.264   0.716  16.284 -0.3818 -0.2595 -0.1049
  570TMC3     C 8509   2.035   0.375  16.396  0.5080  0.0060  0.8975
  570TMC3     O 8510   2.054   0.276  16.328  0.4774  0.1751 -0.3853
  570TMC3     H 8511   2.199   0.395  16.205 -0.8235 -0.4426  1.4793
  570TMC3    H1 8512   2.031   0.610  16.514 -1.2769 -1.8686 -0.8780
  570TMC3    H2 8513   2.335   0.796  16.264 -0.0145 -0.1991  1.4021
  570TMC3    C7 8514   2.165   0.847  16.462  0.0698 -0.3016  0.3539
  570TMC3    C8 8515   2.353   0.580  16.098  0.3810 -0.1268 -0.7208
  570TMC3    O1 8516   2.256   0.928  16.456  0.1658  0.0208  0.2273
  570TMC3    O2 8517   2.401   0.683  16.051  0.2814  0.3274  0.3473
  571MPD2     C 8518   4.613   2.557  17.495  0.0656  0.1089 -0.6787
  571MPD2    C1 8519   4.503   2.506  17.547 -0.4988  0.2241 -0.7972
  571MPD2    C2 8520   4.475   2.541  17.681 -0.1609 -0.3785 -0.4529
  571MPD2    C3 8521   4.563   2.630  17.745  0.2232  0.1897  0.2586
  571MPD2    C4 8522   4.662   2.694  17.683 -0.3494 -0.1402 -0.7218
  571MPD2    C5 8523   4.691   2.653  17.556  0.2242 -0.1604 -0.4488
  571MPD2     H 8524   4.385   2.502  17.727  0.2849  0.1885  0.9210
  571MPD2    H1 8525   4.725   2.771  17.726  0.3252 -0.4374 -1.1760
  571MPD2    H2 8526   4.625   2.542  17.388  1.7426  1.2758 -0.6578
  571MPD2    H3 8527   0.046   2.685  17.510 -0.0518  2.5510  0.9111
  571MPD2     N 8528   4.542   2.674   0.131 -0.3751  0.0568  0.1899
  571MPD2    H5 8529   4.600   2.748   0.170  0.6952 -1.5642  1.6625
  571MPD2    N1 8530   4.426   2.430  17.457  0.6589  0.5888  0.0120
  571MPD2    H7 8531   4.470   2.419  17.366 -0.4517  0.4413 -0.5016
  572TMC3    C1 8532   4.450   2.694   0.345  0.3308  0.0424  0.0814
  572TMC3    C2 8533   4.402   2.627   0.448 -0.2407  0.4494 -0.3511
  572TMC3    C3 8534   4.320   2.698   0.535  0.2515 -0.2212 -0.4472
  572TMC3    C4 8535   4.421   2.826   0.324  1.1901  0.2921  0.2345
  572TMC3    C5 8536   4.347   2.901   0.416 -0.9421  0.3249 -0.0761
  572TMC3    C6 8537   4.291   2.834   0.525 -0.3687 -0.0001  0.8115
  572TMC3     C 8538   4.486   2.602   0.230 -0.5157 -0.3918  0.1881
  572TMC3     O 8539   4.463   2.483   0.236  0.0384  0.2842 -0.3836
  572TMC3     H 8540   4.453   2.533   0.470  0.5302  1.2652  1.3392
  572TMC3    H1 8541   4.476   2.889   0.255 -0.0618  1.1766  0.0485
  572TMC3    H2 8542   4.206   2.870   0.582  1.0448  0.7836  2.4045
  572TMC3    C7 8543   4.346   3.045   0.406 -0.1702  0.4647  0.0362
  572TMC3    C8 8544   4.246   2.627   0.639  0.4990  0.1592  0.1857
  572TMC3    O1 8545   4.381   3.104   0.305  0.2068 -0.1091 -0.7809
  572TMC3    O2 8546   4.181   2.711   0.710 -0.5840  0.1050 -0.4110
  573MPD2     C 8547   0.808   3.259   1.787 -0.2699  0.0596  0.3396
  573MPD2    C1 8548   0.872   3.141   1.750 -0.4533  0.7603  0.2844
  573MPD2    C2 8549   0.873   3.101   1.620 -0.1175 -0.3517 -0.1771
  573MPD2    C3 8550   0.800   3.171   1.521  0.3914 -0.1493  0.3052
  573MPD2    C4 8551   0.741   3.283   1.560  0.1040  0.0091  0.6071
  573MPD2    C5 8552   0.740   3.335   1.692  0.1062  0.0277  0.5938
  573MPD2     H 8553   0.931   3.013   1.593 -1.6224 -0.5723 -2.7124
  573MPD2    H1 8554   0.690   3.347   1.489 -0.2354  0.1753  0.9979
  573MPD2    H2 8555   0.823   3.305   1.884 -0.1402 -1.5633  1.0882
  573MPD2    H3 8556   0.693   3.428   1.720 -1.3469 -0.7051  0.5766
  573MPD2     N 8557   0.783   3.121   1.386  0.0740 -0.2873  0.1527
  573MPD2    H5 8558   0.704   3.161   1.336  2.6830  1.9850 -2.1711
  573MPD2    N1 8559   0.944   3.076   1.852  0.2912 -0.0441  1.0600
  573MPD2    H7 8560   0.935   3.121   1.943 -0.4179 -1.2040  1.5484
  574TMC3    C1 8561   0.834   3.009   1.189 -0.7584  0.3115 -0.5321
  574TMC3    C2 8562   0.701   3.013   1.156 -0.1820 -0.3429 -0.1613
  574TMC3    C3 8563   0.679   2.981   1.025  0.2216  0.0728 -0.2765
  574TMC3    C4 8564   0.940   2.992   1.105 -0.1721  0.3425  1.1103
  574TMC3    C5 8565   0.912   2.968   0.976  0.0537  0.5972  0.2131
  574TMC3    C6 8566   0.781   2.967   0.934  0.2383 -0.2472 -0.3673
  574TMC3     C 8567   0.875   3.033   1.325  0.3332 -1.0360  0.1794
  574TMC3     O 8568   0.982   2.986   1.368 -0.1953 -0.0784  0.0969
  574TMC3     H 8569   0.625   3.013   1.234 -1.3407 -1.0408 -1.2919
  574TMC3    H1 8570   1.041   2.993   1.143  0.2777  2.0698 -0.1637
  574TMC3    H2 8571   0.762   2.919   0.839  2.7032  1.6909 -1.8460
  574TMC3    C7 8572   1.016   2.914   0.890 -0.0836  0.5392 -0.1306
  574TMC3    C8 8573   0.539   2.963   0.981  0.6058  0.3212 -0.0227
  574TMC3    O1 8574   0.976   2.901   0.774 -0.1431 -0.0454 -0.8108
  574TMC3    O2 8575   0.453   2.955   1.070 -0.1063 -0.1136 -0.1194
  575TMC3    C1 8576   2.625   3.222  11.823 -0.2129 -0.2419 -1.0397
  575TMC3    C2 8577   2.552   3.272  11.925  0.5728  0.0195 -0.1642
  575TMC3    C3 8578   2.419   3.248  11.915  0.7079 -0.2504  0.2336
  575TMC3    C4 8579   2.573   3.151  11.719 -0.5975 -0.0786 -0.1233
  575TMC3    C5 8580   2.437   3.134  11.712  0.0765 -0.4434 -0.4009
  575TMC3    C6 8581   2.353   3.187  11.806 -0.3390 -0.5637  0.3914
  575TMC3     C 8582   2.766   3.268  11.806  0.2249 -0.0374 -0.1172
  575TMC3     O 8583   2.794   3.381  11.854 -0.0294  0.2741 -0.7656
  575TMC3     H 8584   2.604   3.334  11.997 -0.4013 -1.6371  2.0011
  575TMC3    H1 8585   2.629   3.131  11.628 -1.3676 -0.7441 -0.4596
  575TMC3    H2 8586   2.246   3.174  11.805 -0.5120  0.9212 -0.1657
  575TMC3    C7 8587   2.382   3.073  11.589  0.6283 -0.6343  0.4722
  575TMC3    C8 8588   2.345   3.322  12.021 -0.1749  0.0058  0.5559
  575TMC3    O1 8589   2.464   3.055  11.503 -0.3213  0.3545  0.3654
  575TMC3    O2 8590   2.412   3.404  12.083 -0.0051 -0.2259  0.2519
  576MPD2     C 8591   2.468   0.335  12.773  0.0561  0.2214 -0.6895
  576MPD2    C1 8592   2.539   0.450  12.726 -0.2364  0.1478  0.4074
  576MPD2    C2 8593   2.541   0.564  12.803 -0.1452  0.6028 -0.8094
  576MPD2    C3 8594   2.471   0.572  12.923  0.7054 -0.1332 -0.5077
  576MPD2    C4 8595   2.409   0.456  12.973  0.5219 -0.6765  0.2413
  576MPD2    C5 8596   2.411   0.336  12.899 -0.0631 -0.5602  0.6264
  576MPD2     H 8597   2.602   0.649  12.774 -1.2035  2.1510  1.4850
  576MPD2    H1 8598   2.358   0.464  13.068  1.8453 -1.7547  1.0392
  576MPD2    H2 8599   2.466   0.240  12.722 -1.4900  0.3324 -0.8246
  576MPD2    H3 8600   2.369   0.246  12.942  0.2816 -0.6323  0.8135
  576MPD2     N 8601   2.475   0.696  12.992 -0.2516 -0.5274  0.1369
  576MPD2    H5 8602   2.528   0.775  12.955 -0.4157 -0.4071  0.1550
  576MPD2    N1 8603   2.615   0.451  12.612 -0.2867 -0.3456 -0.3254
  576MPD2    H7 8604   2.673   0.534  12.601 -3.0777  1.5942 -0.5024
  577TMC3    C1 8605   2.720   0.359  12.412  0.5326 -0.3397 -0.2641
  577TMC3    C2 8606   2.801   0.253  12.399  0.2446  0.8815  0.3820
  577TMC3    C3 8607   2.894   0.266  12.299 -0.1878  0.5848 -0.3564
  577TMC3    C4 8608   2.740   0.484  12.361 -0.6388  0.1374  0.1617
  577TMC3    C5 8609   2.835   0.488  12.268 -0.5572  0.3863  0.0868
  577TMC3    C6 8610   2.917   0.382  12.234  0.4938 -0.4205  0.2351
  577TMC3     C 8611   2.622   0.343  12.518 -0.0792  0.2074  0.0913
  577TMC3     O 8612   2.565   0.233  12.514  0.3541  0.1770  0.6187
  577TMC3     H 8613   2.777   0.162  12.453  0.7388  0.2424 -0.4779
  577TMC3    H1 8614   2.679   0.572  12.375 -0.7999 -0.1650  1.3841
  577TMC3    H2 8615   2.991   0.395  12.155  2.4233  3.0658  2.6216
  577TMC3    C7 8616   2.886   0.623  12.250 -0.0405 -0.6577  0.1488
  577TMC3    C8 8617   2.996   0.166  12.298  0.6511 -0.2128  0.5417
  577TMC3    O1 8618   2.906   0.685  12.355 -0.4634  0.1852 -0.2231
  577TMC3    O2 8619   2.990   0.082  12.385 -0.0225 -0.2368 -0.5726
  578MPD2     C 8620   0.358   0.804   0.739  0.2454  0.1976  0.7402
  578MPD2    C1 8621   0.464   0.733   0.701  0.5952 -0.3382 -0.5641
  578MPD2    C2 8622   0.520   0.651   0.795 -0.0951 -0.6765  0.9888
  578MPD2    C3 8623   0.466   0.644   0.921 -0.1681  0.5554  0.3335
  578MPD2    C4 8624   0.354   0.706   0.959  0.4373 -0.9684  0.0898
  578MPD2    C5 8625   0.299   0.798   0.864  0.4941  0.2093 -0.1419
  578MPD2     H 8626   0.608   0.593   0.769 -1.6033 -1.5386 -2.1830
  578MPD2    H1 8627   0.302   0.703   1.055  0.7994 -1.9360  0.2554
  578MPD2    H2 8628   0.324   0.878   0.667 -1.9654 -1.8458 -0.3065
  578MPD2    H3 8629   0.215   0.864   0.881  0.9311  0.5643  0.6702
  578MPD2     N 8630   0.556   0.575   1.015 -0.1032 -0.7652 -0.5813
  578MPD2    H5 8631   0.637   0.529   0.976 -0.4281 -1.4057 -0.5061
  578MPD2    N1 8632   0.522   0.752   0.573  0.0257  0.5076  0.4319
  578MPD2    H7 8633   0.484   0.832   0.522 -0.5043  0.9577  1.5371
  579TMC3    C1 8634   0.684   0.576   1.212 -0.0208  0.3528 -0.4347
  579TMC3    C2 8635   0.734   0.682   1.271  0.4775 -0.8305 -0.5774
  579TMC3    C3 8636   0.870   0.699   1.287  0.4450  0.2851 -0.3765
  579TMC3    C4 8637   0.765   0.475   1.159  0.6222 -0.0192  0.1941
  579TMC3    C5 8638   0.907   0.492   1.178 -0.4532  0.2134 -0.2155
  579TMC3    C6 8639   0.961   0.605   1.238  0.4989  0.0227 -0.4459
  579TMC3     C 8640   0.555   0.594   1.151  0.1836  0.2729 -0.1020
  579TMC3     O 8641   0.467   0.649   1.217 -0.2225  0.2041 -0.6600
  579TMC3     H 8642   0.664   0.763   1.289  0.8516 -0.3959 -1.0995
  579TMC3    H1 8643   0.721   0.392   1.106 -0.2585  0.0102  0.8902
  579TMC3    H2 8644   1.069   0.614   1.240  0.6614 -2.4320  1.5336
  579TMC3    C7 8645   0.993   0.382   1.164  0.6523  1.2278  0.2765
  579TMC3    C8 8646   0.918   0.831   1.313 -0.1877  0.1391 -0.3141
  579TMC3    O1 8647   1.103   0.414   1.202  0.1209 -0.5169 -0.1379
  579TMC3    O2 8648   0.829   0.914   1.302 -0.2200  0.8126  0.3773
  580TMC3    C1 8649   0.911   4.475  12.397  0.0960 -0.1451 -0.5073
  580TMC3    C2 8650   1.040   4.514  12.399 -0.0570 -0.3849  0.3074
  580TMC3    C3 8651   1.138   4.424  12.447 -0.3701  0.6199 -0.0556
  580TMC3    C4 8652   0.865   4.357  12.450 -0.2744  0.0466  0.8369
  580TMC3    C5 8653   0.962   4.278  12.504 -0.0678 -0.4101 -0.1136
  580TMC3    C6 8654   1.098   4.297  12.485 -0.2967 -0.1334  0.3452
  580TMC3     C 8655   0.836   4.539  12.291  0.5179  0.2101 -0.5065
  580TMC3     O 8656   0.908   4.599  12.211 -0.7922  0.1299  0.2949
  580TMC3     H 8657   1.056   4.615  12.363 -0.3911 -0.3478  0.2668
  580TMC3    H1 8658   0.764   4.319  12.459  0.3131 -2.0703 -1.3590
  580TMC3    H2 8659   1.166   4.221  12.520  0.3485 -0.3282 -1.3581
  580TMC3    C7 8660   0.926   4.143  12.522 -0.1613  0.5350 -0.3109
  580TMC3    C8 8661   1.259   4.422  12.360  0.6495 -0.6866 -0.4873
  580TMC3    O1 8662   0.949   4.102  12.635  0.4391  0.0943 -0.1834
  580TMC3    O2 8663   1.279   4.309  12.312 -0.2114 -0.0339 -0.2906
  581MPD2     C 8664   3.880   4.185  15.030  0.2270  0.4394 -0.5394
  581MPD2    C1 8665   3.800   4.193  15.145  0.2479 -0.5368  0.0833
  581MPD2    C2 8666   3.674   4.247  15.135 -0.1556 -0.3833 -1.1776
  581MPD2    C3 8667   3.626   4.285  15.012  0.2249 -0.4076  0.2160
  581MPD2    C4 8668   3.702   4.277  14.896  0.2241 -0.3843 -0.0822
  581MPD2    C5 8669   3.830   4.234  14.912  0.4307  0.1396  0.0449
  581MPD2     H 8670   3.612   4.235  15.223 -0.0185 -2.6471 -1.4061
  581MPD2    H1 8671   3.669   4.299  14.795 -0.8753 -0.5498  0.2358
  581MPD2    H2 8672   3.975   4.137  15.012  0.1182  0.2779 -0.6953
  581MPD2    H3 8673   3.887   4.224  14.820  1.6703  2.1641  0.5914
  581MPD2     N 8674   3.483   4.312  15.012 -0.3806 -0.5254 -0.3877
  581MPD2    H5 8675   3.437   4.327  15.101  1.1672 -0.3352  0.3839
  581MPD2    N1 8676   3.846   4.126  15.260 -0.2575  0.3318 -0.0186
  581MPD2    H7 8677   3.930   4.069  15.252 -1.2125 -1.3037  1.6866
  582TMC3    C1 8678   3.848   4.064  15.487  0.0227 -0.0240  0.0540
  582TMC3    C2 8679   3.855   4.122  15.612  0.2658 -0.7547  0.1819
  582TMC3    C3 8680   3.898   4.034  15.705  0.3361 -0.0576  0.4698
  582TMC3    C4 8681   3.874   3.935  15.449 -0.1624 -0.3640  0.0498
  582TMC3    C5 8682   3.918   3.854  15.551 -0.0061 -0.6202  0.1092
  582TMC3    C6 8683   3.926   3.904  15.680 -0.4422 -0.1293 -0.1984
  582TMC3     C 8684   3.783   4.135  15.384 -0.4033  0.0823 -0.1283
  582TMC3     O 8685   3.701   4.218  15.433  0.1892 -0.4146  0.0544
  582TMC3     H 8686   3.812   4.221  15.626 -0.8885 -0.8745 -2.6262
  582TMC3    H1 8687   3.859   3.886  15.353 -2.5091  0.5136 -0.0403
  582TMC3    H2 8688   3.946   3.839  15.764 -0.2969  1.4579  0.9717
  582TMC3    C7 8689   3.954   3.720  15.518  1.3437  0.0150  0.2515
  582TMC3    C8 8690   3.869   4.081  15.844  0.0682  0.1976 -0.3427
  582TMC3    O1 8691   4.065   3.687  15.560 -0.2234  0.4127 -0.0720
  582TMC3    O2 8692   3.778   4.162  15.851 -0.0399 -0.5148 -0.4983
  583MPD2     C 8693   3.266   1.041  16.312  0.5432 -0.0624 -0.7826
  583MPD2    C1 8694   3.372   1.130  16.306  0.3818 -0.4966 -0.3118
  583MPD2    C2 8695   3.368   1.235  16.392  0.7714 -0.0650  0.6320
  583MPD2    C3 8696   3.278   1.240  16.495  0.0737  0.7823  0.8119
  583MPD2    C4 8697   3.174   1.157  16.492  0.2576  0.0354 -0.0741
  583MPD2    C5 8698   3.170   1.056  16.402  0.2330  0.0484 -0.2548
  583MPD2     H 8699   3.445   1.312  16.387 -1.2931  1.9911  0.3227
  583MPD2    H1 8700   3.108   1.156  16.578 -1.2280  0.1312 -1.2011
  583MPD2    H2 8701   3.254   0.953  16.250 -1.4779 -0.3944  0.0669
  583MPD2    H3 8702   3.089   0.984  16.412 -1.1355  1.3321 -1.9334
  583MPD2     N 8703   3.298   1.338  16.598 -0.5790 -0.1228 -0.1637
  583MPD2    H5 8704   3.370   1.408  16.584  1.7378 -2.5524 -0.5041
  583MPD2    N1 8705   3.484   1.119  16.213 -0.1024  0.4538 -0.1294
  583MPD2    H7 8706   3.552   1.194  16.216  1.0029 -0.4801 -2.8805
  584TMC3    C1 8707   3.270   1.454  16.803  0.6764  0.4609  0.3994
  584TMC3    C2 8708   3.281   1.583  16.747  0.3205  0.5476 -0.0635
  584TMC3    C3 8709   3.295   1.682  16.844  0.6230 -0.6419  0.0710
  584TMC3    C4 8710   3.242   1.429  16.938  0.4904  0.1166  0.0299
  584TMC3    C5 8711   3.241   1.539  17.020  0.4249 -0.6281 -0.6086
  584TMC3    C6 8712   3.274   1.663  16.978 -0.2228  0.1325 -0.1927
  584TMC3     C 8713   3.219   1.352  16.713 -0.7320 -0.4345 -0.1313
  584TMC3     O 8714   3.122   1.285  16.748 -0.6811 -0.0342 -0.4208
  584TMC3     H 8715   3.291   1.596  16.639  0.2546  0.9032 -0.0265
  584TMC3    H1 8716   3.208   1.333  16.975  2.4065 -0.1645  0.9997
  584TMC3    H2 8717   3.249   1.757  17.025 -1.3148 -0.0468 -0.4143
  584TMC3    C7 8718   3.178   1.520  17.146  0.7299  0.8971 -0.2999
  584TMC3    C8 8719   3.353   1.803  16.794 -0.1433 -0.0804 -0.7197
  584TMC3    O1 8720   3.169   1.404  17.190 -0.1971 -0.3687 -0.3531
  584TMC3    O2 8721   3.334   1.828  16.677  0.1376 -0.7166  0.0058
  585MPD2     C 8722   2.446   0.464   0.879  0.0801 -0.1949  0.0832
  585MPD2    C1 8723   2.491   0.463   0.746 -0.4853  0.0476  0.2920
  585MPD2    C2 8724   2.547   0.345   0.698 -0.0905  0.4362 -0.5260
  585MPD2    C3 8725   2.545   0.238   0.777  0.6356 -0.6611  0.1846
  585MPD2    C4 8726   2.488   0.238   0.900  0.0910  0.3301  0.8017
  585MPD2    C5 8727   2.436   0.352   0.950  0.1492 -0.4564 -0.2283
  585MPD2     H 8728   2.594   0.350   0.600  0.9880 -2.1902 -0.1268
  585MPD2    H1 8729   2.485   0.145   0.956  0.9970  0.2983  0.8080
  585MPD2    H2 8730   2.406   0.555   0.922  0.5337 -0.6952  1.5542
  585MPD2    H3 8731   2.392   0.355   1.049  1.5970 -0.6278  0.4099
  585MPD2     N 8732   2.578   0.111   0.738 -0.2885  0.1927  0.0776
  585MPD2    H5 8733   2.577   0.034   0.805 -2.6324  2.3652  2.5191
  585MPD2    N1 8734   2.492   0.579   0.665 -0.8593  0.1707  0.0494
  585MPD2    H7 8735   2.517   0.562   0.568  1.8598 -0.3215  0.8481
  586TMC3    C1 8736   2.637   4.671   0.592  0.3787  0.2750  0.0299
  586TMC3    C2 8737   2.752   4.615   0.539  0.0506  0.4706 -0.5603
  586TMC3    C3 8738   2.724   4.500   0.468  0.3905  0.1198 -1.0044
  586TMC3    C4 8739   2.506   4.625   0.597  0.3191  0.0001 -0.3361
  586TMC3    C5 8740   2.496   4.511   0.520 -0.1357 -0.7928  0.7361
  586TMC3    C6 8741   2.600   4.445   0.464  0.7481 -0.3819 -0.2071
  586TMC3     C 8742   2.641   0.078   0.618  0.4749 -0.1321  0.0392
  586TMC3     O 8743   2.707   0.152   0.546 -0.1234  0.2343  0.5116
  586TMC3     H 8744   2.853   4.648   0.559 -0.1642  0.4229  0.6064
  586TMC3    H1 8745   2.418   4.674   0.637  2.0686  1.0468  2.1867
  586TMC3    H2 8746   2.579   4.349   0.419  1.0999 -1.0866  1.1186
  586TMC3    C7 8747   2.363   4.466   0.474 -0.0347  0.2347  0.1174
  586TMC3    C8 8748   2.846   4.429   0.429 -0.1578  0.2162 -0.2294
  586TMC3    O1 8749   2.357   4.367   0.408  0.2630 -0.2962 -0.0080
  586TMC3    O2 8750   2.952   4.462   0.481  0.5422  0.3612  0.4384
  587TMC3    C1 8751   0.118   3.312  16.636 -0.4939  0.4365  0.2879
  587TMC3    C2 8752   0.118   3.377  16.760  0.5301  0.0331 -0.3868
  587TMC3    C3 8753   0.231   3.392  16.828 -0.5640  0.2726  0.7304
  587TMC3    C4 8754   0.231   3.262  16.583  0.1035 -0.0734 -0.1063
  587TMC3    C5 8755   0.351   3.285  16.649 -0.1248  0.7768  0.0595
  587TMC3    C6 8756   0.353   3.349  16.771  0.7998  0.2152  0.1783
  587TMC3     C 8757   4.735   3.318  16.554 -0.0509  0.8143 -0.4712
  587TMC3     O 8758   0.001   3.239  16.459 -0.2957 -0.0353 -0.2805
  587TMC3     H 8759   0.029   3.410  16.813  0.8162 -0.7811  0.6107
  587TMC3    H1 8760   0.230   3.212  16.487 -1.9576  2.2681 -1.2789
  587TMC3    H2 8761   0.443   3.334  16.831  1.6202  3.4790 -0.2650
  587TMC3    C7 8762   0.461   3.205  16.587  0.5244 -0.6013  0.3858
  587TMC3    C8 8763   0.236   3.439  16.962 -1.1978 -0.0113  0.6988
  587TMC3    O1 8764   0.434   3.100  16.534 -0.1835  1.0443  0.3065
  587TMC3    O2 8765   0.324   3.415  17.043 -0.2310  0.8561  0.3906
  588TMC3    C1 8766   2.197   1.165  10.115  0.0867  0.6491  0.2121
  588TMC3    C2 8767   2.113   1.071  10.071  0.5458 -0.9715  0.4994
  588TMC3    C3 8768   2.142   0.944  10.119  0.5468  0.1469 -0.2851
  588TMC3    C4 8769   2.300   1.153  10.204  0.1189 -0.1700 -0.0095
  588TMC3    C5 8770   2.324   1.022  10.247  0.7150 -0.3953 -0.1044
  588TMC3    C6 8771   2.248   0.914  10.213  0.1153 -0.3954 -0.0099
  588TMC3     C 8772   2.171   1.302  10.072 -0.6133 -0.1526 -0.0279
  588TMC3     O 8773   2.107   1.315   9.967 -0.3854  0.1061  0.7086
  588TMC3     H 8774   2.033   1.087   9.999 -0.8953  0.6214  2.4630
  588TMC3    H1 8775   2.372   1.234  10.211  0.1963 -0.2117 -0.3329
  588TMC3    H2 8776   2.270   0.813  10.247 -0.5949 -0.4961  0.1377
  588TMC3    C7 8777   2.441   0.999  10.325 -0.6476 -0.5652  0.5692
  588TMC3    C8 8778   2.034   0.844  10.105 -0.5150  0.4148  0.3303
  588TMC3    O1 8779   2.494   0.891  10.291  0.2614  0.3774  0.1378
  588TMC3    O2 8780   1.946   0.871  10.021  0.5294  0.2130  0.3682
  589TMC3    C1 8781   2.087   3.498   1.508 -0.3510 -0.3189  0.2906
  589TMC3    C2 8782   2.202   3.570   1.525  0.4159 -0.6212 -0.5529
  589TMC3    C3 8783   2.318   3.518   1.472  0.7627  0.5852 -0.9182
  589TMC3    C4 8784   2.089   3.378   1.441  0.1479 -0.6188 -0.1681
  589TMC3    C5 8785   2.208   3.323   1.404 -0.1007 -0.6600 -0.0126
  589TMC3    C6 8786   2.325   3.394   1.425  0.1880  0.3379 -0.6447
  589TMC3     C 8787   1.963   3.533   1.564  1.0263 -0.0911 -0.0520
  589TMC3     O 8788   1.877   3.449   1.552 -0.4839  0.1381  0.4184
  589TMC3     H 8789   2.210   3.670   1.565 -0.7157 -1.0948  0.8681
  589TMC3    H1 8790   2.002   3.316   1.425  1.1275 -1.5566 -1.8528
  589TMC3    H2 8791   2.420   3.344   1.410 -0.9118 -1.6535 -1.0475
  589TMC3    C7 8792   2.208   3.196   1.342  0.5824  0.2661  0.6469
  589TMC3    C8 8793   2.444   3.590   1.502 -0.8688  0.0546 -0.1263
  589TMC3    O1 8794   2.117   3.116   1.352  0.4187 -0.9983  0.4424
  589TMC3    O2 8795   2.453   3.676   1.594  0.4285 -0.0003 -0.2280
  590MPD2     C 8796   1.138   2.115  16.919  0.4712 -0.1915 -0.0842
  590MPD2    C1 8797   1.134   2.198  16.809  0.2308 -0.1600  0.6429
  590MPD2    C2 8798   1.254   2.248  16.758 -0.3836 -0.1538 -0.7402
  590MPD2    C3 8799   1.377   2.201  16.802 -0.1318  0.2843  0.1793
  590MPD2    C4 8800   1.377   2.114  16.911 -0.0437  0.4399  0.5356
  590MPD2    C5 8801   1.259   2.071  16.971  1.2257  0.0142 -0.1496
  590MPD2     H 8802   1.244   2.311  16.670  1.4633  0.1076 -0.7672
  590MPD2    H1 8803   1.477   2.089  16.944 -0.1615 -1.4643 -0.5301
  590MPD2    H2 8804   1.044   2.080  16.962  0.3303 -0.4034 -0.5602
  590MPD2    H3 8805   1.256   2.011  17.062  1.3196 -2.0761 -1.5262
  590MPD2     N 8806   1.495   2.258  16.751  0.2785  0.6709 -0.8102
  590MPD2    H5 8807   1.483   2.337  16.688 -2.0401 -1.3098 -2.8226
  590MPD2    N1 8808   1.013   2.238  16.758 -1.1406 -0.2485  0.2395
  590MPD2    H7 8809   0.933   2.211  16.814 -1.2135 -1.0677 -0.2701
  591TMC3    C1 8810   1.716   2.303  16.711 -0.0258  0.4767 -0.3281
  591TMC3    C2 8811   1.823   2.260  16.639 -0.1363 -0.2326 -0.0779
  591TMC3    C3 8812   1.876   2.348  16.549 -0.2326  0.5850  0.1755
  591TMC3    C4 8813   1.672   2.431  16.704 -0.7729  0.2502  0.3527
  591TMC3    C5 8814   1.724   2.518  16.617  0.1327 -0.5353 -0.3024
  591TMC3    C6 8815   1.820   2.476  16.526  0.1954 -0.0509 -0.2370
  591TMC3     C 8816   1.621   2.211  16.765 -0.1446 -0.4686  0.4671
  591TMC3     O 8817   1.650   2.095  16.795 -0.3434 -0.0385  0.7536
  591TMC3     H 8818   1.872   2.164  16.647  0.5580 -0.0113 -1.6439
  591TMC3    H1 8819   1.602   2.469  16.777 -0.4617 -0.3852  0.9715
  591TMC3    H2 8820   1.847   2.542  16.445  1.7855  1.0715  1.1933
  591TMC3    C7 8821   1.644   2.638  16.592  0.7479 -0.2040 -0.0894
  591TMC3    C8 8822   1.966   2.295  16.446  0.2327  0.0931 -0.1084
  591TMC3    O1 8823   1.578   2.676  16.688  0.3987 -0.9656 -0.0496
  591TMC3    O2 8824   2.000   2.178  16.454 -0.1788 -0.2338 -0.0858
  592MPD2     C 8825   1.760   3.795  11.326 -0.2813 -0.2207  0.2404
  592MPD2    C1 8826   1.752   3.858  11.446  0.6332  0.3919 -0.1928
  592MPD2    C2 8827   1.663   3.813  11.544 -0.4052 -0.0556 -0.1951
  592MPD2    C3 8828   1.582   3.708  11.526  0.0587 -0.2856 -0.4433
  592MPD2    C4 8829   1.582   3.642  11.398 -0.0828  0.1929  0.3690
  592MPD2    C5 8830   1.674   3.687  11.304  0.0151 -0.2999 -0.2260
  592MPD2     H 8831   1.654   3.869  11.636 -0.3899 -1.1165  0.4577
  592MPD2    H1 8832   1.530   3.549  11.378 -1.3224  0.8495  0.5311
  592MPD2    H2 8833   1.838   3.835  11.263 -1.4509  0.7140 -0.6185
  592MPD2    H3 8834   1.683   3.634  11.210  1.1138 -0.9247  0.2434
  592MPD2     N 8835   1.494   3.673  11.625  0.2060  0.2957  0.6086
  592MPD2    H5 8836   1.511   3.711  11.717  0.0520  2.0615 -0.0773
  592MPD2    N1 8837   1.839   3.969  11.467 -0.6985  0.6034 -0.5632
  592MPD2    H7 8838   1.891   4.010  11.390 -1.0559 -2.3747 -2.3577
  593TMC3    C1 8839   1.971   4.136  11.578  0.1929 -0.4279  0.3201
  593TMC3    C2 8840   1.978   4.218  11.690  0.2118 -0.5578 -0.3046
  593TMC3    C3 8841   2.062   4.324  11.678 -0.2359  0.0196 -0.4327
  593TMC3    C4 8842   2.030   4.164  11.461 -0.8835  0.0843 -0.2079
  593TMC3    C5 8843   2.119   4.267  11.459 -0.7037 -0.1971 -0.3276
  593TMC3    C6 8844   2.140   4.348  11.570 -0.4420 -0.2778  0.9079
  593TMC3     C 8845   1.867   4.031  11.590 -0.2460 -0.5092 -0.3289
  593TMC3     O 8846   1.843   3.996  11.708  1.0263  0.4716  0.2348
  593TMC3     H 8847   1.940   4.189  11.787 -2.2025  1.3918 -0.6516
  593TMC3    H1 8848   2.047   4.089  11.386 -2.1495 -1.1928  0.7756
  593TMC3    H2 8849   2.192   4.443  11.561  0.5178 -0.5637  3.4820
  593TMC3    C7 8850   2.196   4.298  11.338 -0.2845  0.3118 -0.5083
  593TMC3    C8 8851   2.103   4.403  11.792 -0.6498  0.3329  0.2810
  593TMC3    O1 8852   2.288   4.373  11.361  0.4071  0.4087 -0.2680
  593TMC3    O2 8853   2.223   4.427  11.798 -0.3528 -0.3859  0.4887
  594MPD2     C 8854   0.816   2.734  14.969 -0.7182 -0.4969  0.1449
  594MPD2    C1 8855   0.742   2.807  14.878  0.6723 -0.5007  0.6968
  594MPD2    C2 8856   0.805   2.912  14.809  0.6499  0.8374 -0.9141
  594MPD2    C3 8857   0.937   2.932  14.825  0.0014 -0.6506  0.2379
  594MPD2    C4 8858   1.013   2.844  14.903 -0.8308 -0.3428 -0.1199
  594MPD2    C5 8859   0.952   2.758  14.988  0.0042  0.1722 -0.5535
  594MPD2     H 8860   0.750   2.982  14.748  1.5989  3.6593  1.4591
  594MPD2    H1 8861   1.120   2.839  14.894 -0.6953 -1.3109  1.8512
  594MPD2    H2 8862   0.768   2.649  15.017  1.2363 -2.1080 -0.7310
  594MPD2    H3 8863   1.000   2.698  15.065  0.3379  0.3603 -0.6175
  594MPD2     N 8864   0.997   3.033  14.752 -0.7695 -0.1431  0.9009
  594MPD2    H5 8865   0.940   3.071  14.677 -2.5314 -0.5272  2.0702
  594MPD2    N1 8866   0.602   2.781  14.874  0.1496  0.6084 -0.0253
  594MPD2    H7 8867   0.561   2.700  14.919  1.2060 -0.3173 -0.7234
  595TMC3    C1 8868   1.319   3.263  14.510 -0.2764 -0.3863 -0.0021
  595TMC3    C2 8869   1.282   3.162  14.590  0.6855  0.0475  0.2187
  595TMC3    C3 8870   1.157   3.166  14.640 -0.0271  0.6371  0.3870
  595TMC3    C4 8871   1.245   3.376  14.479 -0.3034 -0.4035  0.6839
  595TMC3    C5 8872   1.120   3.377  14.531  0.5399 -0.1206  0.3410
  595TMC3    C6 8873   1.067   3.269  14.608 -0.4091  0.6584  0.5142
  595TMC3     C 8874   1.461   3.285  14.505  0.6051  0.0085  0.4054
  595TMC3     O 8875   1.493   3.406  14.508 -0.1994 -0.5362 -0.0611
  595TMC3     H 8876   1.343   3.077  14.620 -1.2086 -1.5150 -0.3185
  595TMC3    H1 8877   1.285   3.462  14.426  1.9428 -0.1286  2.8631
  595TMC3    H2 8878   0.967   3.271  14.649 -0.0617 -2.0242  1.4507
  595TMC3    C7 8879   1.021   3.481  14.507  0.7717  0.2484  0.1735
  595TMC3    C8 8880   1.124   3.066  14.747 -0.1866  1.0192 -0.0463
  595TMC3    O1 8881   0.914   3.479  14.571 -0.9348 -1.0076 -0.1138
  595TMC3    O2 8882   1.222   3.032  14.818  0.5402  0.4221  0.1917
  596MPD2     C 8883   4.142   0.647  16.677 -0.4406 -0.1391 -0.4040
  596MPD2    C1 8884   4.115   0.767  16.627 -1.1739  0.1735 -0.1607
  596MPD2    C2 8885   4.164   0.809  16.500  0.1033 -0.2080  0.6129
  596MPD2    C3 8886   4.232   0.720  16.421 -0.4078 -0.1623  0.0711
  596MPD2    C4 8887   4.260   0.599  16.472 -0.1431 -0.8654  0.1601
  596MPD2    C5 8888   4.207   0.555  16.596 -0.3117  0.3008  0.7439
  596MPD2     H 8889   4.134   0.904  16.456 -0.5032  0.0466  1.5892
  596MPD2    H1 8890   4.310   0.526  16.409  1.5975  0.2368  0.2462
  596MPD2    H2 8891   4.102   0.606  16.769  2.1782 -1.3064  0.2077
  596MPD2    H3 8892   4.234   0.456  16.631 -3.1014 -0.8721 -0.4618
  596MPD2     N 8893   4.278   0.741  16.292  0.0969  0.0643  0.4411
  596MPD2    H5 8894   4.326   0.658  16.259 -2.0974 -0.8799 -0.4175
  596MPD2    N1 8895   4.035   0.869  16.692  0.3218  0.1823 -0.0571
  596MPD2    H7 8896   4.037   0.962  16.650 -0.0368  0.1735 -0.0939
  597TMC3    C1 8897   3.933   0.974  16.883 -0.3101 -0.3833  0.0608
  597TMC3    C2 8898   3.939   1.101  16.823 -0.6803 -0.1735 -0.6445
  597TMC3    C3 8899   3.927   1.213  16.899 -0.7381 -0.4775 -0.2652
  597TMC3    C4 8900   3.931   0.963  17.017  0.0128  0.2103 -0.7068
  597TMC3    C5 8901   3.936   1.079  17.087  0.2979 -0.0096 -0.0392
  597TMC3    C6 8902   3.938   1.207  17.034 -0.3379  0.3619  0.1042
  597TMC3     C 8903   3.973   0.853  16.813 -0.5694  0.0579  0.2524
  597TMC3     O 8904   3.967   0.747  16.880 -0.0813 -0.0633  0.1736
  597TMC3     H 8905   3.930   1.105  16.715  1.0216 -2.5868 -0.8845
  597TMC3    H1 8906   3.908   0.871  17.070 -1.3889  1.3193  0.6443
  597TMC3    H2 8907   3.940   1.298  17.093 -0.7989  1.9126 -2.2983
  597TMC3    C7 8908   3.952   1.078  17.234  0.6560  0.1195  0.3425
  597TMC3    C8 8909   3.943   1.343  16.832 -0.4921  0.2804  0.5579
  597TMC3    O1 8910   3.907   0.984  17.292 -0.4794 -0.2980  0.0188
  597TMC3    O2 8911   3.993   1.336  16.717  0.7362 -0.3174 -0.5247
  598TMC3    C1 8912   2.688   2.504  15.534 -0.2739  0.0380 -0.5413
  598TMC3    C2 8913   2.612   2.392  15.488 -0.4196  0.1730 -0.4826
  598TMC3    C3 8914   2.545   2.401  15.365  0.3685  0.1773  0.3453
  598TMC3    C4 8915   2.708   2.613  15.453 -0.4400 -0.2065 -0.6945
  598TMC3    C5 8916   2.649   2.607  15.326  0.6082  0.1219 -0.5423
  598TMC3    C6 8917   2.560   2.508  15.280 -0.0504  0.8374 -0.2395
  598TMC3     C 8918   2.808   2.472  15.607 -0.5468 -0.1440  0.5320
  598TMC3     O 8919   2.874   2.570  15.635  0.1817  0.1738 -0.0945
  598TMC3     H 8920   2.595   2.309  15.556  0.8404  1.5014  1.4725
  598TMC3    H1 8921   2.778   2.689  15.486 -1.1346 -0.8046  2.1424
  598TMC3    H2 8922   2.501   2.517  15.189 -3.5379 -2.2730  1.7293
  598TMC3    C7 8923   2.695   2.698  15.220 -0.2363 -0.0872  0.5930
  598TMC3    C8 8924   2.445   2.299  15.326 -0.3479  0.7774  0.0168
  598TMC3    O1 8925   2.680   2.659  15.105 -0.4453  0.1261 -0.2528
  598TMC3    O2 8926   2.385   2.312  15.217  0.2088  0.2771 -0.2018
  599MPD2     C 8927   2.316   4.675  15.894  0.7400  0.8738 -0.4885
  599MPD2    C1 8928   2.401   4.632  16.002  0.3944  0.1136  0.7086
  599MPD2    C2 8929   2.358   4.667  16.128  0.5013  0.0200 -0.0635
  599MPD2    C3 8930   2.241   4.732  16.151  0.6636  0.5569  0.7494
  599MPD2    C4 8931   2.162   0.033  16.043 -0.1296  0.5206 -0.0902
  599MPD2    C5 8932   2.200   0.007  15.915  0.2095  0.5030  0.1093
  599MPD2     H 8933   2.422   4.651  16.214  0.8849  0.6569 -0.2310
  599MPD2    H1 8934   2.075   0.095  16.061 -0.2038 -0.2788  2.3637
  599MPD2    H2 8935   2.351   4.651  15.795 -1.7067 -4.0545 -0.1290
  599MPD2    H3 8936   2.153   0.041  15.823 -2.0806 -1.2266  0.6369
  599MPD2     N 8937   2.189   0.005  16.283  0.7615  0.4938 -0.0461
  599MPD2    H5 8938   2.113   0.069  16.300  2.7824  3.3733 -1.8835
  599MPD2    N1 8939   2.525   4.573  15.981  0.3385  0.0044 -0.0164
  599MPD2    H7 8940   2.588   4.578  16.060 -2.3770 -1.2036  2.2198
  600TMC3    C1 8941   2.192   4.714  16.509  1.2608  0.2938  0.3717
  600TMC3    C2 8942   2.139   4.629  16.598 -0.7267 -0.0802  0.5910
  600TMC3    C3 8943   2.141   4.673  16.731 -0.7697 -0.6859  0.6473
  600TMC3    C4 8944   2.237   0.100  16.532 -0.2640  0.4543 -0.6403
  600TMC3    C5 8945   2.238   0.136  16.660  0.2938  0.3392 -0.7979
  600TMC3    C6 8946   2.202   0.054  16.762 -0.1979  0.3592 -0.1906
  600TMC3     C 8947   2.221   4.659  16.385 -0.3314 -0.1795 -0.8545
  600TMC3     O 8948   2.269   4.547  16.378  0.5471 -0.0182 -0.1272
  600TMC3     H 8949   2.111   4.528  16.573  0.6296 -0.3418  0.1514
  600TMC3    H1 8950   2.277   0.163  16.453  0.9059 -0.8541 -1.0815
  600TMC3    H2 8951   2.208   0.086  16.865 -0.6837 -1.4368  0.4007
  600TMC3    C7 8952   2.296   0.258  16.702 -0.8609 -0.7220  0.0184
  600TMC3    C8 8953   2.062   4.610  16.829  0.6702  0.2293 -0.1323
  600TMC3    O1 8954   2.301   0.280  16.821 -0.4924 -0.1942 -0.1456
  600TMC3    O2 8955   2.085   4.639  16.944  0.0220  0.2282 -0.1822
  601MPD2     C 8956   4.251   3.515   0.594 -0.0803 -0.5622 -0.6158
  601MPD2    C1 8957   4.291   3.483   0.465 -0.9322 -0.2770 -0.6469
  601MPD2    C2 8958   4.311   3.348   0.437  0.1465 -0.5806  0.1818
  601MPD2    C3 8959   4.314   3.249   0.539 -1.2212  0.3214  0.0057
  601MPD2    C4 8960   4.293   3.296   0.667 -0.0519 -0.4955 -0.7395
  601MPD2    C5 8961   4.252   3.422   0.692 -0.6412 -0.0706 -0.3414
  601MPD2     H 8962   4.329   3.326   0.332  2.3272 -1.3133  0.7042
  601MPD2    H1 8963   4.313   3.231   0.751 -1.7935 -1.1831 -0.8409
  601MPD2    H2 8964   4.215   3.611   0.628  0.1834 -0.8874  0.5753
  601MPD2    H3 8965   4.240   3.442   0.798 -0.3339 -3.0124  0.2540
  601MPD2     N 8966   4.321   3.105   0.522 -0.4947  0.0215 -0.1320
  601MPD2    H5 8967   4.316   3.049   0.606 -0.4163 -0.5230 -0.4828
  601MPD2    N1 8968   4.302   3.574   0.355  0.1527  0.4300 -0.4281
  601MPD2    H7 8969   4.331   3.524   0.271  0.3276  2.8480 -1.7888
  602TMC3    C1 8970   4.264   3.761   0.220  0.1496  0.4591 -0.3146
  602TMC3    C2 8971   4.187   3.873   0.211 -0.7421 -0.1808  0.4333
  602TMC3    C3 8972   4.108   3.887   0.101  0.2753  1.5211 -0.1484
  602TMC3    C4 8973   4.261   3.664   0.116 -0.0683 -0.0749  0.0934
  602TMC3    C5 8974   4.175   3.689   0.017  0.2928 -0.2489  0.2166
  602TMC3    C6 8975   4.087   3.795   0.008 -0.2355 -0.2549  0.3119
  602TMC3     C 8976   4.282   3.707   0.353  0.4968 -0.6200 -0.5984
  602TMC3     O 8977   4.269   3.784   0.447 -0.0208 -0.0651  0.0813
  602TMC3     H 8978   4.165   3.931   0.299 -0.5040 -1.2919  1.2311
  602TMC3    H1 8979   4.334   3.584   0.110  1.5595  1.6665 -3.0654
  602TMC3    H2 8980   4.019   3.802  17.672  0.2356 -1.2660 -0.1450
  602TMC3    C7 8981   4.132   3.567  17.688  0.2501  0.3936 -0.3327
  602TMC3    C8 8982   4.005   3.984   0.117 -0.9935 -0.5622 -0.1759
  602TMC3    O1 8983   4.221   3.488  17.664 -0.1707  0.2411  0.3733
  602TMC3    O2 8984   4.029   4.089   0.170  0.0338 -0.1581  0.2793
  603TMC3    C1 8985   1.980   3.416  11.333 -0.1485  0.0954  0.2075
  603TMC3    C2 8986   2.053   3.406  11.454  0.7099  0.1404 -0.7046
  603TMC3    C3 8987   2.190   3.416  11.455 -0.0757 -0.2253  0.6863
  603TMC3    C4 8988   2.038   3.448  11.216 -0.0329  0.2576 -0.3430
  603TMC3    C5 8989   2.169   3.455  11.221  0.1311 -0.3737 -0.7385
  603TMC3    C6 8990   2.248   3.445  11.330 -0.3788 -0.5673 -0.2270
  603TMC3     C 8991   1.841   3.371  11.321  0.0385 -0.1231 -0.3651
  603TMC3     O 8992   1.812   3.334  11.207 -0.5851 -0.5974 -0.3200
  603TMC3     H 8993   2.000   3.373  11.543  2.3161 -1.6163 -0.4111
  603TMC3    H1 8994   1.984   3.468  11.124  0.9985 -1.3922 -1.2970
  603TMC3    H2 8995   2.355   3.436  11.315 -0.5556 -0.2410 -1.6753
  603TMC3    C7 8996   2.236   3.489  11.093  0.2936  0.1840  0.2630
  603TMC3    C8 8997   2.271   3.447  11.578  0.6229 -0.6649  0.5755
  603TMC3    O1 8998   2.354   3.514  11.093  0.0914  0.0386 -0.4158
  603TMC3    O2 8999   2.219   3.409  11.682  0.3590 -0.1611  0.2643
  604MPD2     C 9000   3.439   1.857  16.107  0.0224 -0.7575  0.2633
  604MPD2    C1 9001   3.403   1.986  16.082  0.1055 -0.5081 -0.2719
  604MPD2    C2 9002   3.456   2.050  15.964 -0.5034 -0.0779 -0.2496
  604MPD2    C3 9003   3.547   1.977  15.896 -0.0365 -0.3174 -0.1687
  604MPD2    C4 9004   3.588   1.855  15.936  0.1625 -0.3245 -0.0908
  604MPD2    C5 9005   3.535   1.792  16.041  0.5091  0.5707  0.1278
  604MPD2     H 9006   3.430   2.149  15.927  1.4826  0.3002 -0.6174
  604MPD2    H1 9007   3.677   1.808  15.895  0.7078  0.9275 -0.3681
  604MPD2    H2 9008   3.387   1.803  16.186  0.8918  0.3056  1.5669
  604MPD2    H3 9009   3.563   1.690  16.067  2.1102  0.4920 -1.9399
  604MPD2     N 9010   3.599   2.031  15.774  0.6741 -0.0870 -0.3612
  604MPD2    H5 9011   3.534   2.099  15.738  1.0348  2.3869  3.5876
  604MPD2    N1 9012   3.312   2.045  16.168  0.3419 -0.0894 -0.0020
  604MPD2    H7 9013   3.291   1.991  16.251 -1.1613  0.9518  0.3090
  605TMC3    C1 9014   3.189   2.217  16.276 -0.7530  0.6119 -0.4469
  605TMC3    C2 9015   3.220   2.175  16.401 -0.6979 -0.6251  0.2978
  605TMC3    C3 9016   3.129   2.205  16.497 -0.3646 -0.4882 -0.2023
  605TMC3    C4 9017   3.076   2.282  16.247  0.4153  0.4003  0.4092
  605TMC3    C5 9018   2.987   2.316  16.348 -0.0100 -0.2312 -0.3562
  605TMC3    C6 9019   3.011   2.276  16.478  0.0906  0.3942  0.3668
  605TMC3     C 9020   3.278   2.176  16.171 -0.7415 -0.5381  0.3924
  605TMC3     O 9021   3.305   2.266  16.091  0.3392 -0.6744  0.1162
  605TMC3     H 9022   3.316   2.132  16.425 -0.6177 -1.3213 -1.2667
  605TMC3    H1 9023   3.051   2.306  16.144  0.0460 -0.2270  0.3526
  605TMC3    H2 9024   2.951   2.304  16.564  0.5205 -2.0006  1.4450
  605TMC3    C7 9025   2.876   2.407  16.320  0.2415  0.0601 -0.3853
  605TMC3    C8 9026   3.192   2.224  16.624 -0.4386 -0.5065 -0.0755
  605TMC3    O1 9027   2.845   2.478  16.413 -0.0888  0.3368  0.5491
  605TMC3    O2 9028   3.128   2.203  16.729  0.4500  0.6459 -0.4070
  606TMC3    C1 9029   4.361   0.974  17.345  0.0373  0.4825  0.1029
  606TMC3    C2 9030   4.318   0.953  17.478  0.4700  0.1050  0.0411
  606TMC3    C3 9031   4.287   0.822  17.512  0.0574  0.0327  0.9591
  606TMC3    C4 9032   4.380   0.869  17.261 -1.1490 -0.0947 -0.0714
  606TMC3    C5 9033   4.367   0.745  17.314  0.6487 -0.1438 -0.2421
  606TMC3    C6 9034   4.316   0.715  17.436  0.6892  0.1414  0.1938
  606TMC3     C 9035   4.393   1.108  17.299 -0.2892  0.1448 -0.3013
  606TMC3     O 9036   4.365   1.140  17.185  0.3626  0.2721  0.3100
  606TMC3     H 9037   4.285   1.032  17.544 -2.0720 -0.5597 -0.4580
  606TMC3    H1 9038   4.420   0.888  17.162 -0.2703  2.6129  0.8222
  606TMC3    H2 9039   4.335   0.614  17.471  3.7644  1.4936  2.3968
  606TMC3    C7 9040   4.385   0.629  17.227 -0.0752 -0.1264 -0.3244
  606TMC3    C8 9041   4.293   0.793  17.656 -0.2868 -0.3320  0.0603
  606TMC3    O1 9042   4.488   0.623  17.161  0.4587 -0.4373 -0.3408
  606TMC3    O2 9043   4.336   0.886  17.724  0.2979  0.4113  0.5263
  607MPD2     C 9044   1.662   3.443  11.879  0.3290 -0.2931 -0.4691
  607MPD2    C1 9045   1.690   3.575  11.908  0.1518  0.9361  0.1294
  607MPD2    C2 9046   1.636   3.625  12.028 -0.1026  0.2440 -0.2221
  607MPD2    C3 9047   1.575   3.541  12.121  0.2790  0.2293  0.0469
  607MPD2    C4 9048   1.545   3.415  12.082 -0.1947 -1.2815 -0.1784
  607MPD2    C5 9049   1.587   3.365  11.961 -0.5107  0.1056 -0.0778
  607MPD2     H 9050   1.672   3.724  12.053  1.3507 -1.0091  2.6415
  607MPD2    H1 9051   1.493   3.349  12.151 -0.9639  0.0865  0.5511
  607MPD2    H2 9052   1.706   3.396  11.792 -0.2601 -0.0510 -0.9034
  607MPD2    H3 9053   1.564   3.262  11.937  0.1058 -0.7533  3.0299
  607MPD2     N 9054   1.560   3.589  12.250 -0.4946 -0.3646  0.1431
  607MPD2    H5 9055   1.597   3.683  12.264 -0.2717 -0.0857 -2.3243
  607MPD2    N1 9056   1.789   3.656  11.843 -0.2974  0.1671  0.1302
  607MPD2    H7 9057   1.807   3.742  11.892  1.1308 -0.8236  1.3219
  608TMC3    C1 9058   1.999   3.681  11.757 -0.2807  0.2120  0.2435
  608TMC3    C2 9059   2.064   3.674  11.870 -0.4762 -0.1394  0.2750
  608TMC3    C3 9060   2.180   3.745  11.870 -0.8604  0.9407 -0.2982
  608TMC3    C4 9061   2.031   3.750  11.639 -0.4145 -0.1656  0.2571
  608TMC3    C5 9062   2.146   3.831  11.648 -0.7110 -0.1631 -0.3597
  608TMC3    C6 9063   2.221   3.829  11.768  0.1276  0.3351  0.2951
  608TMC3     C 9064   1.871   3.611  11.746  0.4781 -0.4723  1.0588
  608TMC3     O 9065   1.866   3.512  11.671  0.0883  0.4275  0.2869
  608TMC3     H 9066   2.041   3.609  11.954  1.1026 -0.3901  0.5151
  608TMC3    H1 9067   1.969   3.763  11.551  1.4175 -1.7957 -1.2845
  608TMC3    H2 9068   2.306   3.896  11.778  2.0323 -1.9664 -0.2615
  608TMC3    C7 9069   2.207   3.892  11.527 -0.1255 -0.2272  0.0765
  608TMC3    C8 9070   2.223   3.792  11.999 -0.0956 -0.7419  0.6000
  608TMC3    O1 9071   2.156   3.862  11.420 -0.0001 -0.3375 -0.0459
  608TMC3    O2 9072   2.334   3.847  12.008  0.1969 -0.7056 -0.6801
  609TMC3    C1 9073   4.376   1.651   9.296  0.3724 -0.1808 -0.6963
  609TMC3    C2 9074   4.412   1.622   9.161 -0.4032 -0.3096 -0.5343
  609TMC3    C3 9075   4.548   1.592   9.143  0.2934  0.0118 -0.2381
  609TMC3    C4 9076   4.452   1.648   9.406 -0.4930 -0.4746 -0.1084
  609TMC3    C5 9077   4.581   1.601   9.378 -0.3569 -0.2745  0.5920
  609TMC3    C6 9078   4.627   1.585   9.252 -1.3211 -0.1071 -0.4579
  609TMC3     C 9079   4.237   1.689   9.327 -0.1425  0.4362  0.4852
  609TMC3     O 9080   4.214   1.728   9.439 -1.2535 -0.0697  0.6885
  609TMC3     H 9081   4.349   1.657   9.080 -0.5093  0.9007  0.0694
  609TMC3    H1 9082   4.413   1.656   9.507  1.1825  0.4475  0.4759
  609TMC3    H2 9083   4.731   1.558   9.239 -1.2157  0.6195 -1.0948
  609TMC3    C7 9084   4.686   1.636   9.474 -0.7236 -0.2693 -0.2734
  609TMC3    C8 9085   4.607   1.561   9.016  0.6404 -0.0260  0.2437
  609TMC3    O1 9086   0.057   1.671   9.435  0.0627 -0.0014 -0.2198
  609TMC3    O2 9087   4.549   1.608   8.919 -0.2896 -0.2123 -0.5797
  610TMC3    C1 9088   2.287   3.597  12.956  0.6846  0.3812 -0.4585
  610TMC3    C2 9089   2.368   3.658  12.866 -0.1573  0.2178 -0.1682
  610TMC3    C3 9090   2.494   3.597  12.846  0.0258 -0.1386  0.4022
  610TMC3    C4 9091   2.321   3.484  13.019  0.5227  0.2526  0.5126
  610TMC3    C5 9092   2.441   3.425  12.989 -0.8282 -0.3499 -0.8257
  610TMC3    C6 9093   2.532   3.486  12.909  0.4800  0.0520 -0.4646
  610TMC3     C 9094   2.148   3.637  12.967 -1.3938 -0.5388 -0.0319
  610TMC3     O 9095   2.079   3.581  13.053  0.3067 -0.4111 -0.0331
  610TMC3     H 9096   2.348   3.759  12.833  1.5866  0.8249  0.6543
  610TMC3    H1 9097   2.256   3.434  13.091  0.8272  1.4007  1.5860
  610TMC3    H2 9098   2.631   3.444  12.896  0.9617  1.1183 -0.2747
  610TMC3    C7 9099   2.496   3.334  13.090 -0.6232  0.8312  0.7454
  610TMC3    C8 9100   2.589   3.655  12.762 -0.8626  0.1936  0.7397
  610TMC3    O1 9101   2.584   3.255  13.057  0.6515  0.0391 -0.3006
  610TMC3    O2 9102   2.705   3.625  12.775  0.0690  0.0234  0.2220
  611MPD2     C 9103   1.306   3.277  10.007 -0.0342 -0.3984 -0.5142
  611MPD2    C1 9104   1.327   3.267  10.136  0.0789 -0.1776 -0.1668
  611MPD2    C2 9105   1.462   3.249  10.178  0.3605 -0.3407 -0.1308
  611MPD2    C3 9106   1.564   3.243  10.089  0.4702  0.4439 -0.0524
  611MPD2    C4 9107   1.538   3.262   9.954 -0.7468 -0.1204  0.2853
  611MPD2    C5 9108   1.408   3.287   9.916 -0.3675  0.3003 -0.3535
  611MPD2     H 9109   1.485   3.226  10.281 -0.5431 -1.3090 -0.1387
  611MPD2    H1 9110   1.619   3.260   9.882  0.8405 -0.0927  2.0793
  611MPD2    H2 9111   1.203   3.299   9.978 -0.5261  1.8036  2.9780
  611MPD2    H3 9112   1.389   3.297   9.810  1.3221  0.8365 -0.6038
  611MPD2     N 9113   1.704   3.241  10.114 -0.1284  0.9582 -0.7538
  611MPD2    H5 9114   1.775   3.249  10.043  0.3052  1.5717 -0.2424
  611MPD2    N1 9115   1.214   3.280  10.223  0.3290 -0.0571  0.4673
  611MPD2    H7 9116   1.127   3.303  10.178  1.5357  2.5797 -0.5282
  612TMC3    C1 9117   1.894   3.222  10.243  0.8157 -0.0690  0.1286
  612TMC3    C2 9118   1.964   3.306  10.332 -0.4664 -0.2580  0.0382
  612TMC3    C3 9119   2.088   3.340  10.293  0.1330  0.0908 -0.4918
  612TMC3    C4 9120   1.956   3.157  10.139 -0.0264  0.2490  0.3871
  612TMC3    C5 9121   2.091   3.177  10.117  0.2487  0.1248 -0.4767
  612TMC3    C6 9122   2.155   3.275  10.189  0.0852 -0.1613 -0.7171
  612TMC3     C 9123   1.752   3.235  10.242 -0.0720 -0.0819 -0.4033
  612TMC3     O 9124   1.703   3.221  10.353  0.3865  0.0104 -0.1750
  612TMC3     H 9125   1.915   3.367  10.406  0.7865  1.3590 -0.4713
  612TMC3    H1 9126   1.909   3.087  10.072  0.9693  1.5423 -1.6753
  612TMC3    H2 9127   2.260   3.300  10.179  0.2094 -0.8428 -1.1479
  612TMC3    C7 9128   2.160   3.097  10.023  1.2347  0.7645 -0.0923
  612TMC3    C8 9129   2.168   3.427  10.378 -0.0527  0.6214  0.5781
  612TMC3    O1 9130   2.101   3.042   9.931 -0.3063  0.2716 -0.6503
  612TMC3    O2 9131   2.264   3.490  10.334  0.0988  0.5533  0.8794
  613MPD2     C 9132   0.781   0.949  17.074  0.5015  0.3528 -0.0197
  613MPD2    C1 9133   0.694   0.987  16.971  0.2204  0.9102 -0.4981
  613MPD2    C2 9134   0.620   0.879  16.906  1.0660 -0.5264 -0.0581
  613MPD2    C3 9135   0.641   0.753  16.956  0.6962 -0.0811  0.7229
  613MPD2    C4 9136   0.710   0.727  17.074 -0.2666 -0.2679 -0.7095
  613MPD2    C5 9137   0.780   0.825  17.135 -0.2769  0.2126  0.7756
  613MPD2     H 9138   0.559   0.897  16.818  0.1451 -0.5074  0.5799
  613MPD2    H1 9139   0.718   0.628  17.118 -1.8954  1.1346  2.6535
  613MPD2    H2 9140   0.851   1.017  17.119  1.0714 -0.0253 -0.3296
  613MPD2    H3 9141   0.845   0.799  17.218 -0.0762 -0.0518  0.5345
  613MPD2     N 9142   0.593   0.639  16.895  0.2320 -0.2940 -0.7324
  613MPD2    H5 9143   0.640   0.553  16.919 -1.1326 -1.2489 -1.4646
  613MPD2    N1 9144   0.706   1.118  16.930  0.1249 -0.1310  0.1565
  613MPD2    H7 9145   0.767   1.182  16.979 -1.4571  1.5029 -0.0162
  614TMC3    C1 9146   0.708   1.290  16.772 -0.1017 -0.4295  0.0883
  614TMC3    C2 9147   0.825   1.237  16.728 -0.3475  0.1251 -0.0299
  614TMC3    C3 9148   0.871   1.258  16.606  0.6108 -0.7098 -0.5855
  614TMC3    C4 9149   0.637   1.372  16.695 -0.1487 -0.1240  0.8046
  614TMC3    C5 9150   0.686   1.397  16.575 -0.5101  0.1208 -0.4236
  614TMC3    C6 9151   0.801   1.339  16.517 -0.1753  0.2249 -0.3466
  614TMC3     C 9152   0.632   1.176  16.828  0.4644  0.6359 -0.0185
  614TMC3     O 9153   0.548   1.126  16.755  0.1589 -0.5014 -0.0793
  614TMC3     H 9154   0.885   1.179  16.797 -0.8604 -0.1673  0.1682
  614TMC3    H1 9155   0.534   1.388  16.726 -1.5348 -2.8282 -2.3786
  614TMC3    H2 9156   0.832   1.342  16.413 -0.2603 -1.4309 -0.4152
  614TMC3    C7 9157   0.575   1.421  16.485  0.1209  0.5344 -0.4749
  614TMC3    C8 9158   0.938   1.137  16.556  0.4553  0.4928 -0.2848
  614TMC3    O1 9159   0.462   1.416  16.530  0.1221 -0.1103  0.8672
  614TMC3    O2 9160   0.964   1.043  16.630  0.0030 -0.1325 -0.1647
  615MPD2     C 9161   0.686   2.747  16.416  0.1407  0.0861  0.5138
  615MPD2    C1 9162   0.558   2.748  16.464 -0.5556 -0.1653  0.1744
  615MPD2    C2 9163   0.452   2.714  16.373  0.2934  0.0878 -0.0130
  615MPD2    C3 9164   0.483   2.673  16.246 -0.7273  0.2484 -0.0491
  615MPD2    C4 9165   0.611   2.676  16.207 -0.3507  0.4068 -0.4484
  615MPD2    C5 9166   0.714   2.719  16.284 -0.0813 -0.7908  0.1592
  615MPD2     H 9167   0.351   2.726  16.408  0.7536  2.0287  0.6349
  615MPD2    H1 9168   0.633   2.658  16.102  0.7895 -2.4501  0.2870
  615MPD2    H2 9169   0.772   2.766  16.479 -0.4530  0.6456  1.1649
  615MPD2    H3 9170   0.814   2.721  16.242 -0.4641 -2.0341 -0.8226
  615MPD2     N 9171   0.396   2.656  16.137  0.4192  0.4154  0.1906
  615MPD2    H5 9172   0.429   2.649  16.041 -1.2533  0.2270 -0.3841
  615MPD2    N1 9173   0.528   2.788  16.597  0.0340  0.1568 -0.2326
  615MPD2    H7 9174   0.429   2.787  16.619 -0.3601 -0.4082 -2.0736
  616TMC3    C1 9175   0.578   2.898  16.796 -0.5941 -0.2214 -0.7840
  616TMC3    C2 9176   0.676   2.974  16.857 -0.1814 -0.4413  0.3713
  616TMC3    C3 9177   0.637   3.058  16.957  0.2799 -0.2372  0.5111
  616TMC3    C4 9178   0.448   2.921  16.825 -0.2052 -0.9384 -0.6086
  616TMC3    C5 9179   0.418   3.011  16.921 -0.5316  0.4763 -0.3610
  616TMC3    C6 9180   0.506   3.092  16.977  0.3826  0.6145  0.2910
  616TMC3     C 9181   0.623   2.821  16.684  0.2120  0.0863  0.6771
  616TMC3     O 9182   0.744   2.788  16.697  0.0956  0.1872 -0.3649
  616TMC3     H 9183   0.780   2.978  16.826 -0.3763  1.3672 -0.0517
  616TMC3    H1 9184   0.376   2.852  16.782 -0.0233 -1.7798  0.4400
  616TMC3    H2 9185   0.482   3.168  17.050  0.4644  2.2209 -1.3762
  616TMC3    C7 9186   0.283   3.050  16.935  0.4975  0.8167 -0.5613
  616TMC3    C8 9187   0.732   3.169  16.984  0.1894  1.0242 -0.0068
  616TMC3    O1 9188   0.221   3.017  16.836  0.2822 -0.5062  0.3508
  616TMC3    O2 9189   0.691   3.282  16.958  0.0471 -0.8006 -0.2869
  617MPD2     C 9190   3.435   0.794  14.529 -0.4711 -0.1535  0.5083
  617MPD2    C1 9191   3.438   0.721  14.418  0.1427  0.0146 -0.5038
  617MPD2    C2 9192   3.318   0.666  14.370  0.5837 -0.1891 -0.8582
  617MPD2    C3 9193   3.202   0.696  14.439 -0.0830  0.7127  0.4807
  617MPD2    C4 9194   3.207   0.780  14.549 -0.7660  0.6678 -0.2824
  617MPD2    C5 9195   3.321   0.829  14.593 -0.2469 -0.2334  0.4332
  617MPD2     H 9196   3.325   0.595  14.289 -0.1580 -0.3126 -0.8072
  617MPD2    H1 9197   3.118   0.811  14.603 -0.9404  0.5964 -0.5267
  617MPD2    H2 9198   3.527   0.830  14.574  0.7717 -1.3295 -1.0821
  617MPD2    H3 9199   3.321   0.885  14.686 -1.2007  0.2479  0.1409
  617MPD2     N 9200   3.076   0.636  14.407 -0.7308  0.0557 -0.3921
  617MPD2    H5 9201   2.995   0.672  14.455 -1.7750  1.7208 -3.3892
  617MPD2    N1 9202   3.565   0.687  14.365  0.7156 -0.7752  0.1408
  617MPD2    H7 9203   3.644   0.739  14.404  0.0329  0.4250 -0.0780
  618TMC3    C1 9204   3.734   0.574  14.237  0.4362  0.2458 -0.4712
  618TMC3    C2 9205   3.773   0.498  14.132 -0.3788 -0.7767  0.7867
  618TMC3    C3 9206   3.904   0.468  14.131  0.1804 -0.0987  0.2736
  618TMC3    C4 9207   3.824   0.610  14.334 -0.0809 -0.2273  0.4131
  618TMC3    C5 9208   3.960   0.583  14.327  0.4990 -0.3341  0.4535
  618TMC3    C6 9209   4.004   0.506  14.222  0.1555  0.3529 -0.6754
  618TMC3     C 9210   3.594   0.597  14.267  0.5140  0.6929  0.7643
  618TMC3     O 9211   3.520   0.538  14.194 -0.5349  0.2393  0.3252
  618TMC3     H 9212   3.705   0.459  14.058 -0.4367 -1.3991  1.1679
  618TMC3    H1 9213   3.794   0.676  14.415 -0.0191  1.3917 -0.8647
  618TMC3    H2 9214   4.107   0.474  14.218 -0.1952 -0.5029 -3.0913
  618TMC3    C7 9215   4.048   0.661  14.415 -0.1820  0.2325  0.2598
  618TMC3    C8 9216   3.939   0.372  14.028 -0.6708 -0.0721 -0.1932
  618TMC3    O1 9217   4.007   0.683  14.527 -0.2405  0.1140 -0.4105
  618TMC3    O2 9218   3.862   0.282  14.001  0.8719 -0.0212 -0.1607
  619MPD2     C 9219   0.051   1.769  13.913  0.5867 -0.0004  0.0607
  619MPD2    C1 9220   4.714   1.828  13.811 -0.5886 -0.0078  0.1171
  619MPD2    C2 9221   4.581   1.803  13.809 -0.5705 -0.4808 -0.0743
  619MPD2    C3 9222   4.516   1.727  13.913 -0.1389 -0.5778 -0.6407
  619MPD2    C4 9223   4.592   1.660  14.008 -0.3718 -0.3233 -0.2409
  619MPD2    C5 9224   4.726   1.691  14.006  0.2360 -0.2155 -0.1421
  619MPD2     H 9225   4.522   1.847  13.729  1.4602  1.9260 -0.2364
  619MPD2    H1 9226   4.550   1.598  14.087 -2.5630  1.9026  0.3715
  619MPD2    H2 9227   0.155   1.792  13.932  1.3722 -2.5076 -1.3569
  619MPD2    H3 9228   0.051   1.651  14.086 -0.9273  1.3676  1.5359
  619MPD2     N 9229   4.376   1.716  13.924 -0.1065 -0.5155  0.2819
  619MPD2    H5 9230   4.342   1.659  14.001  0.1534  0.2434  0.9566
  619MPD2    N1 9231   0.032   1.898  13.700 -0.2185 -0.1297 -0.4636
  619MPD2    H7 9232   4.710   1.917  13.621 -2.6969 -0.6812  1.2663
  620TMC3    C1 9233   0.192   2.026  13.583  0.8311 -0.4522 -0.6637
  620TMC3    C2 9234   0.150   1.966  13.468 -0.3754 -0.1488  0.2007
  620TMC3    C3 9235   0.164   2.039  13.355  0.2193  0.3168 -0.5317
  620TMC3    C4 9236   0.255   2.148  13.583 -0.3061 -0.3574 -0.1534
  620TMC3    C5 9237   0.248   2.231  13.475 -0.1356 -0.9184 -0.3223
  620TMC3    C6 9238   0.206   2.170  13.362  0.3583  0.5025  0.6920
  620TMC3     C 9239   0.149   1.970  13.711 -0.5727  0.5217  0.2726
  620TMC3     O 9240   0.207   2.009  13.814 -0.3964 -0.4109  0.5176
  620TMC3     H 9241   0.105   1.867  13.474  2.3569 -1.3945  0.0746
  620TMC3    H1 9242   0.284   2.189  13.679  0.2480 -0.7019 -0.1704
  620TMC3    H2 9243   0.185   2.214  13.265 -0.2435  0.9237  1.0157
  620TMC3    C7 9244   0.192   2.356  13.508  0.1285  0.4936  0.2609
  620TMC3    C8 9245   0.118   1.992  13.220  0.5373 -0.1903 -0.8587
  620TMC3    O1 9246   0.176   2.376  13.628 -0.2875  0.1720 -0.3678
  620TMC3    O2 9247   0.194   2.026  13.128  0.4010 -0.3314 -0.6549
  621MPD2     C 9248   0.009   1.637  10.335  0.3492 -0.5320  0.2657
  621MPD2    C1 9249   4.622   1.599  10.281 -0.0515  0.3597 -0.9237
  621MPD2    C2 9250   4.566   1.681  10.183 -0.0334  0.1555  0.1924
  621MPD2    C3 9251   4.624   1.800  10.148 -0.6229  0.2102  0.3421
  621MPD2    C4 9252   0.000   1.842  10.213 -0.0067  0.2217 -0.5176
  621MPD2    C5 9253   0.057   1.760  10.307 -0.2904  0.5485 -0.1145
  621MPD2     H 9254   4.478   1.647  10.130 -0.5769 -0.5080  1.5181
  621MPD2    H1 9255   0.049   1.937  10.191  0.5272 -0.1582 -0.9634
  621MPD2    H2 9256   0.063   1.576  10.406  1.9156 -0.0608 -0.5236
  621MPD2    H3 9257   0.144   1.801  10.359 -1.5720  0.2616  2.2483
  621MPD2     N 9258   4.569   1.886  10.049  0.5727 -0.4211 -0.3220
  621MPD2    H5 9259   4.621   1.971  10.031  2.0467 -1.6298 -1.7658
  621MPD2    N1 9260   4.555   1.478  10.318 -0.2892  0.2756 -0.1144
  621MPD2    H7 9261   4.483   1.447  10.254 -0.3872  1.0319 -0.3701
  622TMC3    C1 9262   4.464   1.325  10.464 -0.0728 -0.0921  0.8400
  622TMC3    C2 9263   4.444   1.329  10.597  0.1228 -0.1758 -0.0823
  622TMC3    C3 9264   4.349   1.250  10.645  0.9209  0.4666  0.4726
  622TMC3    C4 9265   4.393   1.257  10.378 -0.0350  0.1190  0.2777
  622TMC3    C5 9266   4.305   1.165  10.431 -0.6710 -0.2986 -0.2768
  622TMC3    C6 9267   4.288   1.157  10.567 -0.2083  0.5667 -0.8519
  622TMC3     C 9268   4.585   1.390  10.417 -0.2440  0.1869 -0.8373
  622TMC3     O 9269   4.675   1.395  10.495  0.2769 -0.1370  0.0001
  622TMC3     H 9270   4.500   1.390  10.668 -0.7762  0.0911  0.4015
  622TMC3    H1 9271   4.414   1.249  10.272  0.4516 -1.5300  0.5128
  622TMC3    H2 9272   4.214   1.093  10.613 -1.5726  1.1699 -2.2227
  622TMC3    C7 9273   4.183   1.135  10.359  0.4761  0.6383  0.2236
  622TMC3    C8 9274   4.253   1.300  10.748  0.3958 -0.5635  0.0124
  622TMC3    O1 9275   4.100   1.076  10.425  0.1487 -0.1189  0.3469
  622TMC3    O2 9276   4.155   1.230  10.778 -0.1436  0.1939  0.0667
  623MPD2     C 9277   3.571   3.032  15.810  0.0831 -0.2959  0.2728
  623MPD2    C1 9278   3.488   2.955  15.884 -0.1795  1.2405 -0.8783
  623MPD2    C2 9279   3.523   2.929  16.018  0.2455 -0.5313 -0.1484
  623MPD2    C3 9280   3.611   3.014  16.075 -0.1371  0.2164 -0.9275
  623MPD2    C4 9281   3.668   3.118  16.010  1.1008 -0.8715  0.2775
  623MPD2    C5 9282   3.661   3.120  15.870 -0.7512  0.2718 -0.1248
  623MPD2     H 9283   3.456   2.864  16.072  0.6097  0.7708  1.8858
  623MPD2    H1 9284   3.741   3.189  16.048 -2.4314  2.3294  1.0607
  623MPD2    H2 9285   3.565   3.037  15.701 -0.7913 -1.4737  0.2662
  623MPD2    H3 9286   3.713   3.194  15.809  0.1551  0.7153  1.1958
  623MPD2     N 9287   3.638   2.984  16.212  0.1734  0.3795 -0.5699
  623MPD2    H5 9288   3.602   2.895  16.246  0.2542  0.9203  0.9143
  623MPD2    N1 9289   3.378   2.887  15.839  0.1617 -0.0276  0.0493
  623MPD2    H7 9290   3.318   2.850  15.912  0.9766 -0.3077  0.5731
  624TMC3    C1 9291   3.841   3.000  16.633 -0.0759  0.1672  0.5764
  624TMC3    C2 9292   3.760   2.896  16.668 -0.3811 -0.0404  0.2342
  624TMC3    C3 9293   3.650   2.856  16.586 -0.3049 -0.1512 -0.2460
  624TMC3    C4 9294   3.813   3.070  16.518 -0.3995 -0.6142 -0.0168
  624TMC3    C5 9295   3.713   3.023  16.438  0.3375 -0.4587  0.3535
  624TMC3    C6 9296   3.630   2.926  16.474 -0.5605  0.0918  0.5559
  624TMC3     C 9297   3.977   2.995  16.689  0.2175  0.1811 -0.2089
  624TMC3     O 9298   3.980   2.954  16.804 -0.2859  0.2352  0.5434
  624TMC3     H 9299   3.780   2.836  16.755 -1.2161  1.0451  1.1891
  624TMC3    H1 9300   3.875   3.152  16.483 -1.2607  0.0472  0.0256
  624TMC3    H2 9301   3.540   2.911  16.416 -0.9199  1.2971  0.7961
  624TMC3    C7 9302   3.697   3.075  16.299  0.2726 -0.2712 -1.2848
  624TMC3    C8 9303   3.565   2.744  16.606 -0.5878  0.0711  0.2635
  624TMC3    O1 9304   3.750   3.185  16.279 -0.2695 -0.6283 -0.7315
  624TMC3    O2 9305   3.491   2.718  16.511 -0.0930 -0.6594  0.5158
  625MPD2     C 9306   4.185   3.835   1.009 -0.6185  0.1798  0.1195
  625MPD2    C1 9307   4.204   3.958   1.058  0.4425  0.4762  0.0761
  625MPD2    C2 9308   4.318   3.979   1.133 -0.2062  0.1988  0.2760
  625MPD2    C3 9309   4.412   3.879   1.157 -0.2352 -1.2655 -0.4218
  625MPD2    C4 9310   4.391   3.752   1.101  0.2012 -0.0356  0.3593
  625MPD2    C5 9311   4.271   3.736   1.032 -0.1924 -0.0576  0.1232
  625MPD2     H 9312   4.327   4.077   1.179 -1.5784  0.4257  0.0427
  625MPD2    H1 9313   4.462   3.672   1.118 -0.3451 -0.7083 -0.5389
  625MPD2    H2 9314   4.102   3.803   0.947  0.5823 -1.7095 -0.5141
  625MPD2    H3 9315   4.253   3.643   0.979  0.1878  1.4534 -2.6411
  625MPD2     N 9316   4.534   3.912   1.216  0.3839 -0.2409 -0.4419
  625MPD2    H5 9317   4.557   4.011   1.222  1.6128 -0.7802  3.6799
  625MPD2    N1 9318   4.122   4.071   1.038  0.3192 -0.0130 -0.0212
  625MPD2    H7 9319   4.154   4.155   1.086  0.5771 -0.3172  0.3453
  626TMC3    C1 9320   3.950   4.196   0.935 -0.1279  0.0823 -0.0373
  626TMC3    C2 9321   3.887   4.233   0.823  0.0523  0.2121  0.1546
  626TMC3    C3 9322   3.859   4.365   0.794 -0.2427  0.0080  0.7618
  626TMC3    C4 9323   3.981   4.295   1.026  0.2139 -0.4989 -0.8297
  626TMC3    C5 9324   3.948   4.426   1.002 -0.7186 -0.0571 -0.3029
  626TMC3    C6 9325   3.886   4.470   0.884  1.0041  0.3440  0.4704
  626TMC3     C 9326   4.016   4.067   0.949 -0.3253 -0.0990 -0.0846
  626TMC3     O 9327   3.967   3.972   0.889  0.5824  0.5537 -0.1713
  626TMC3     H 9328   3.877   4.150   0.755  0.0663  0.8076 -0.5675
  626TMC3    H1 9329   4.021   4.267   1.123  0.0329 -0.8872 -0.8663
  626TMC3    H2 9330   3.874   4.573   0.853  0.5735  0.3688  0.7258
  626TMC3    C7 9331   3.993   4.516   1.103 -0.1093 -0.6883 -0.7342
  626TMC3    C8 9332   3.794   4.400   0.670  0.5149  0.2791  0.0958
  626TMC3    O1 9333   4.052   4.482   1.203  0.7055  0.0222 -0.6269
  626TMC3    O2 9334   3.814   4.332   0.573  0.4304  0.4524 -0.2501
  627MPD2     C 9335   3.010   4.161  14.398 -0.3351 -0.7475  0.9350
  627MPD2    C1 9336   2.966   4.156  14.525  0.2245  0.4977 -0.1019
  627MPD2    C2 9337   2.863   4.070  14.561 -0.1144  0.2521  0.0967
  627MPD2    C3 9338   2.804   3.995  14.460 -0.2832  0.0871 -0.1317
  627MPD2    C4 9339   2.849   4.002  14.333  0.3153  0.4289 -0.8833
  627MPD2    C5 9340   2.957   4.079  14.304  0.3818  0.4821 -0.7538
  627MPD2     H 9341   2.838   4.052  14.665 -3.0464 -0.1729 -0.6932
  627MPD2    H1 9342   2.804   3.941  14.256  0.1329 -0.2936 -0.1969
  627MPD2    H2 9343   3.097   4.220  14.371 -0.7279 -1.6707 -2.3589
  627MPD2    H3 9344   2.993   4.096  14.203  0.8798  4.4254  0.0998
  627MPD2     N 9345   2.700   3.915  14.502 -0.4805  0.1786  0.5497
  627MPD2    H5 9346   2.679   3.920  14.601 -0.1997  1.8348  0.5158
  627MPD2    N1 9347   3.036   4.229  14.622 -0.1105 -0.2217  0.7873
  627MPD2    H7 9348   3.127   4.267  14.599 -0.0137 -1.3505 -0.6849
  628TMC3    C1 9349   3.066   4.309  14.844 -0.0489  0.2999  0.2490
  628TMC3    C2 9350   3.194   4.282  14.838 -0.1661 -0.3533 -0.1570
  628TMC3    C3 9351   3.275   4.340  14.930  0.2294  0.3303  1.0155
  628TMC3    C4 9352   3.014   4.400  14.931  0.1847  0.2550 -0.0862
  628TMC3    C5 9353   3.099   4.457  15.028  0.0530  0.7642 -0.3434
  628TMC3    C6 9354   3.232   4.419  15.034  0.0229 -0.3451 -0.0669
  628TMC3     C 9355   2.978   4.253  14.745  0.2861  0.1389  0.1896
  628TMC3     O 9356   2.856   4.249  14.766  0.1639 -0.0346  0.5253
  628TMC3     H 9357   3.237   4.207  14.774  0.1987 -0.4267  0.1740
  628TMC3    H1 9358   2.908   4.421  14.937  0.4561  0.9270  2.3941
  628TMC3    H2 9359   3.299   4.485  15.088  1.2756 -1.2532 -0.5179
  628TMC3    C7 9360   3.084   4.593  15.057 -0.5481  0.7851  0.7222
  628TMC3    C8 9361   3.412   4.321  14.894  0.4191 -0.1474  0.4619
  628TMC3    O1 9362   3.122   4.638  15.162 -0.2701  0.3364 -0.3204
  628TMC3    O2 9363   3.446   4.311  14.776 -0.0414 -0.7570  0.0874
  629MPD2     C 9364   1.200   3.357  17.017 -0.2947  0.7196 -0.0872
  629MPD2    C1 9365   1.212   3.221  17.000  0.1835  0.5578  0.0810
  629MPD2    C2 9366   1.098   3.141  17.011  0.1427  1.0213  1.1788
  629MPD2    C3 9367   0.975   3.205  17.015 -0.0592 -0.2854  0.0487
  629MPD2    C4 9368   0.965   3.343  17.025 -0.3175  0.2725  0.2343
  629MPD2    C5 9369   1.079   3.415  17.034 -0.0976  0.0568  0.9552
  629MPD2     H 9370   1.109   3.034  17.000 -0.2904  1.0443  0.5374
  629MPD2    H1 9371   0.868   3.390  17.042 -1.3877 -2.4222  1.5705
  629MPD2    H2 9372   1.285   3.424  17.013 -0.3840  0.8622  0.3382
  629MPD2    H3 9373   1.073   3.522  17.051 -0.4110  0.2708 -0.5048
  629MPD2     N 9374   0.861   3.123  16.994  0.4458  0.0412  0.6078
  629MPD2    H5 9375   0.868   3.022  17.001 -0.1461 -0.0344  0.1211
  629MPD2    N1 9376   1.341   3.173  16.972  0.6635  0.4583  0.2196
  629MPD2    H7 9377   1.407   3.248  16.954  1.8051 -0.1776  1.7433
  630TMC3    C1 9378   1.499   3.019  16.865  0.0848  0.8314  0.1410
  630TMC3    C2 9379   1.546   3.105  16.770 -0.4398 -0.0394  0.2768
  630TMC3    C3 9380   1.673   3.097  16.729  0.9774 -0.3682 -0.0589
  630TMC3    C4 9381   1.570   2.913  16.909 -0.0255  0.6731 -0.5884
  630TMC3    C5 9382   1.701   2.900  16.859 -0.4985  0.2898  0.4868
  630TMC3    C6 9383   1.750   2.999  16.781  0.2672 -0.5836 -0.0978
  630TMC3     C 9384   1.374   3.040  16.941 -0.0162 -0.9026 -1.2435
  630TMC3     O 9385   1.317   2.939  16.981  0.3070  0.6399 -0.6839
  630TMC3     H 9386   1.482   3.188  16.744 -0.5225 -0.8218 -1.9706
  630TMC3    H1 9387   1.541   2.850  16.993 -1.0219  3.1528  0.9287
  630TMC3    H2 9388   1.845   2.976  16.735  0.1147 -2.0547  0.3288
  630TMC3    C7 9389   1.793   2.856  16.962  0.0660  0.0411 -0.3392
  630TMC3    C8 9390   1.736   3.221  16.677  0.3514  0.1588 -0.0199
  630TMC3    O1 9391   1.772   2.751  17.020 -0.5624 -0.1577 -0.2544
  630TMC3    O2 9392   1.832   3.260  16.736 -0.0328  0.0725  0.3755
  631MPD2     C 9393   4.141   2.716  15.711 -0.6394 -0.3469 -0.0483
  631MPD2    C1 9394   4.229   2.788  15.637 -0.2330 -0.3755 -0.8322
  631MPD2    C2 9395   4.371   2.760  15.641 -0.2795  0.0729  1.3152
  631MPD2    C3 9396   4.414   2.664  15.730  0.0359  0.2212  0.0855
  631MPD2    C4 9397   4.323   2.599  15.811 -0.1878 -0.5948  0.3285
  631MPD2    C5 9398   4.192   2.623  15.797 -0.1220 -0.1153 -0.1792
  631MPD2     H 9399   4.441   2.816  15.581 -0.5847 -2.3666 -1.3148
  631MPD2    H1 9400   4.359   2.528  15.885 -0.7563  0.0276  1.2065
  631MPD2    H2 9401   4.036   2.739  15.726 -0.7310  0.3262 -1.7744
  631MPD2    H3 9402   4.121   2.578  15.866  1.0603 -0.7734  0.6199
  631MPD2     N 9403   4.555   2.650  15.744  0.2453  0.3724  0.4385
  631MPD2    H5 9404   4.609   2.682  15.664  0.8661 -0.0662  0.6748
  631MPD2    N1 9405   4.175   2.891  15.558  0.8331  0.6739  0.6922
  631MPD2    H7 9406   4.080   2.919  15.582  1.0286  1.7854  0.1637
  632TMC3    C1 9407   4.188   3.087  15.424 -0.0584  0.3636 -0.3852
  632TMC3    C2 9408   4.096   3.137  15.515 -0.3109  0.1750 -0.0133
  632TMC3    C3 9409   4.098   3.277  15.534  0.3629 -0.5269  0.0207
  632TMC3    C4 9410   4.284   3.168  15.368 -0.1256 -0.7433  0.1385
  632TMC3    C5 9411   4.292   3.302  15.411 -0.1839 -0.2038 -0.6842
  632TMC3    C6 9412   4.202   3.358  15.496  0.2206  0.4438 -0.7267
  632TMC3     C 9413   4.236   2.953  15.453 -0.2356 -0.2236  0.4801
  632TMC3     O 9414   4.335   2.911  15.388  0.0370  0.1274  0.3875
  632TMC3     H 9415   4.011   3.072  15.537 -1.5312  0.9316 -2.5258
  632TMC3    H1 9416   4.356   3.124  15.301  0.5666  0.1393  0.3115
  632TMC3    H2 9417   4.209   3.465  15.514 -1.9048  0.9807 -3.0002
  632TMC3    C7 9418   4.404   3.375  15.370 -0.3956 -0.0105  0.1213
  632TMC3    C8 9419   4.004   3.324  15.631 -0.1848 -0.2468 -0.2275
  632TMC3    O1 9420   4.451   3.456  15.448  0.5537 -0.1142  0.6766
  632TMC3    O2 9421   3.914   3.242  15.658 -0.5038  0.1906  0.0525
  633MPD2     C 9422   3.556   0.804  17.140 -0.1623  0.2608  0.3969
  633MPD2    C1 9423   3.543   0.725  17.029  0.6753 -0.0325 -0.0248
  633MPD2    C2 9424   3.550   0.585  17.037  0.6200 -1.0804 -0.5474
  633MPD2    C3 9425   3.571   0.523  17.156  0.3875  0.1799  0.5437
  633MPD2    C4 9426   3.566   0.602  17.265  0.6422 -0.1264 -0.7013
  633MPD2    C5 9427   3.557   0.744  17.261  0.0665  0.0436  0.6950
  633MPD2     H 9428   3.566   0.529  16.945 -0.9789 -1.3559 -0.6480
  633MPD2    H1 9429   3.576   0.562  17.365 -3.2400  0.0685 -0.2551
  633MPD2    H2 9430   3.548   0.912  17.129  1.2083  0.3816  0.6331
  633MPD2    H3 9431   3.553   0.803  17.351 -1.2118 -0.7932  1.1941
  633MPD2     N 9432   3.602   0.387  17.165  0.5776  0.9039 -0.0263
  633MPD2    H5 9433   3.611   0.344  17.256 -2.9987  0.0415 -0.0738
  633MPD2    N1 9434   3.535   0.782  16.898  0.3345 -0.2221 -0.5145
  633MPD2    H7 9435   3.527   0.714  16.823  0.5152 -0.3520 -0.4180
  634TMC3    C1 9436   3.585   0.927  16.714  0.6450 -0.4353  0.2570
  634TMC3    C2 9437   3.657   0.826  16.657 -0.0998  0.7038  0.6376
  634TMC3    C3 9438   3.731   0.855  16.544  0.6773  0.0707 -0.3802
  634TMC3    C4 9439   3.583   1.056  16.664 -0.6045 -0.2001 -0.4975
  634TMC3    C5 9440   3.663   1.081  16.556  0.2325 -0.2485 -0.3309
  634TMC3    C6 9441   3.727   0.980  16.487 -0.0844 -0.4940 -0.1320
  634TMC3     C 9442   3.547   0.915  16.860  0.2117 -0.0562  0.4794
  634TMC3     O 9443   3.534   1.016  16.932  0.7705  0.4365 -0.7509
  634TMC3     H 9444   3.647   0.726  16.697  2.5637 -0.0685 -0.6309
  634TMC3    H1 9445   3.527   1.132  16.719  3.2413  2.0591  0.2655
  634TMC3    H2 9446   3.778   0.985  16.392 -1.6352  1.6633 -0.8508
  634TMC3    C7 9447   3.696   1.211  16.508  0.1325  0.0946 -0.1687
  634TMC3    C8 9448   3.798   0.737  16.487  0.0469 -0.3182 -0.0336
  634TMC3    O1 9449   3.749   1.217  16.399 -0.8569 -0.2297 -0.0188
  634TMC3    O2 9450   3.812   0.647  16.569 -0.8064 -0.3631  0.6840
  635TMC3    C1 9451   4.235   2.316  17.387  0.4551  0.1827 -0.8642
  635TMC3    C2 9452   4.237   2.382  17.261 -0.1796  0.4098 -0.4594
  635TMC3    C3 9453   4.162   2.323  17.160  0.1091  0.1761 -0.2883
  635TMC3    C4 9454   4.148   2.211  17.410  0.4103 -0.2273 -0.3104
  635TMC3    C5 9455   4.076   2.165  17.297  0.0745 -0.3094 -0.5495
  635TMC3    C6 9456   4.087   2.215  17.170 -0.2266  0.1664 -0.4983
  635TMC3     C 9457   4.317   2.362  17.495  0.1045  0.3369 -0.5630
  635TMC3     O 9458   4.272   2.352  17.607 -0.2662  0.4632  0.5032
  635TMC3     H 9459   4.307   2.462  17.242  0.1463  0.5813  1.3850
  635TMC3    H1 9460   4.142   2.162  17.506  2.1923 -0.4829 -0.3408
  635TMC3    H2 9461   4.017   2.184  17.093 -1.4090  2.8304 -0.4774
  635TMC3    C7 9462   3.996   2.042  17.302 -0.5349  0.2628  0.0554
  635TMC3    C8 9463   4.165   2.383  17.029  0.0453  0.0707 -0.0795
  635TMC3    O1 9464   3.907   2.022  17.220  0.4805 -0.2948 -0.3188
  635TMC3    O2 9465   4.163   2.501  17.019 -0.4078 -0.5218 -0.2549
  636MPD2     C 9466   4.666   0.973  16.306 -0.1368 -0.0499 -0.4071
  636MPD2    C1 9467   0.026   1.039  16.372  0.3676 -0.5122  0.2413
  636MPD2    C2 9468   0.136   0.958  16.412  0.2335 -0.4313  0.1702
  636MPD2    C3 9469   0.140   0.821  16.380 -0.9108 -0.5303  0.3568
  636MPD2    C4 9470   0.044   0.764  16.298 -0.1236 -0.4161 -0.7188
  636MPD2    C5 9471   4.674   0.845  16.262 -0.8514  0.1844 -0.5111
  636MPD2     H 9472   0.221   0.995  16.469  1.2508 -1.7804 -0.4814
  636MPD2    H1 9473   0.035   0.661  16.265  0.4523  0.1071 -2.5248
  636MPD2    H2 9474   4.569   1.019  16.286  0.7299  1.2471 -1.6492
  636MPD2    H3 9475   4.592   0.810  16.199 -1.1296  0.5684 -0.3554
  636MPD2     N 9476   0.236   0.743  16.454  0.0485 -0.0520 -0.3599
  636MPD2    H5 9477   0.304   0.788  16.514 -0.8029 -0.1805  0.6783
  636MPD2    N1 9478   0.022   1.178  16.411 -0.1527  0.1022  0.0411
  636MPD2    H7 9479   0.098   1.219  16.463  0.6084 -0.2725 -0.7822
  637TMC3    C1 9480   0.371   0.572  16.507 -1.0243 -0.2317 -0.4990
  637TMC3    C2 9481   0.359   0.557  16.642  0.3335  0.3112 -0.5581
  637TMC3    C3 9482   0.479   0.544  16.710  0.0250  0.1969 -0.2850
  637TMC3    C4 9483   0.482   0.572  16.438 -0.3180  0.1699 -0.5621
  637TMC3    C5 9484   0.600   0.566  16.517  0.3869  0.5934  0.3257
  637TMC3    C6 9485   0.599   0.532  16.644  0.0137 -0.1706 -0.1073
  637TMC3     C 9486   0.262   0.612  16.427 -0.7557 -0.1312  0.5413
  637TMC3     O 9487   0.205   0.537  16.350 -0.0411 -0.9790 -0.1826
  637TMC3     H 9488   0.268   0.581  16.696 -0.2584  0.9234 -1.8363
  637TMC3    H1 9489   0.479   0.605  16.335  0.9424  1.1002 -0.3119
  637TMC3    H2 9490   0.693   0.544  16.696  0.5335  0.0587 -1.1005
  637TMC3    C7 9491   0.692   0.672  16.491 -0.3108 -0.7673 -0.2362
  637TMC3    C8 9492   0.481   0.640  16.814  0.5158  0.0692 -0.7628
  637TMC3    O1 9493   0.708   0.743  16.592  0.0214  0.5350  0.1898
  637TMC3    O2 9494   0.402   0.731  16.790 -0.4577  0.3763  0.0112
  638MPD2     C 9495   0.349   0.532  14.966 -0.1198 -0.2212  0.0224
  638MPD2    C1 9496   0.337   0.445  14.865 -0.1177  0.1851 -0.0056
  638MPD2    C2 9497   0.343   0.305  14.889 -0.2279 -0.3734  0.5065
  638MPD2    C3 9498   0.370   0.262  15.019 -0.3804  0.2202  0.8373
  638MPD2    C4 9499   0.358   0.348  15.120 -0.1870  0.2527 -0.8354
  638MPD2    C5 9500   0.364   0.482  15.087 -1.1709 -0.1868 -0.4261
  638MPD2     H 9501   0.335   0.234  14.807  0.4106 -0.1818  0.2793
  638MPD2    H1 9502   0.360   0.315  15.223 -1.2737  1.5342 -0.4077
  638MPD2    H2 9503   0.351   0.638  14.944 -2.0333 -0.1884 -0.0027
  638MPD2    H3 9504   0.368   0.553  15.168  0.6517 -0.7336 -0.0429
  638MPD2     N 9505   0.400   0.122  15.042  0.4325  0.8185  0.0364
  638MPD2    H5 9506   0.403   0.060  14.961  1.0343 -0.5602  1.1061
  638MPD2    N1 9507   0.354   0.488  14.733  0.4715  0.4010 -0.0279
  638MPD2    H7 9508   0.404   0.576  14.720 -1.8612  1.5737 -1.0640
  639TMC3    C1 9509   0.482   4.664  15.140  0.4527 -0.2334 -0.8247
  639TMC3    C2 9510   0.380   4.604  15.073 -0.2460  0.3172 -0.5734
  639TMC3    C3 9511   0.377   4.464  15.086 -0.4531 -0.1448  0.0113
  639TMC3    C4 9512   0.584   4.596  15.205 -0.3961  0.6748  0.2718
  639TMC3    C5 9513   0.578   4.461  15.198  0.7786  0.1065 -0.3339
  639TMC3    C6 9514   0.476   4.396  15.151 -0.1192  0.8923  0.7836
  639TMC3     C 9515   0.479   0.072  15.145  0.6548 -0.5575  0.0102
  639TMC3     O 9516   0.526   0.120  15.250  0.6018 -0.4198 -0.0017
  639TMC3     H 9517   0.304   4.657  15.016 -0.4179  2.1181  1.3216
  639TMC3    H1 9518   0.667   4.654  15.245  0.4756 -0.0623 -0.4771
  639TMC3    H2 9519   0.490   4.289  15.138 -0.4162  1.0016 -0.4015
  639TMC3    C7 9520   0.707   4.393  15.216 -0.5055  0.4066  0.4350
  639TMC3    C8 9521   0.267   4.389  15.021 -0.1323  0.6076  0.0319
  639TMC3    O1 9522   0.804   4.469  15.212  0.0031 -0.3687  0.3517
  639TMC3    O2 9523   0.216   4.429  14.920  0.0473  0.4598  0.2190
  640MPD2     C 9524   0.049   3.307  10.231 -0.3919 -0.2987  0.0666
  640MPD2    C1 9525   4.715   3.298  10.117 -1.1619  0.0048  0.0407
  640MPD2    C2 9526   4.651   3.413  10.078  0.4338 -0.1359  0.2633
  640MPD2    C3 9527   4.670   3.532  10.142  0.9771  0.3100  0.5718
  640MPD2    C4 9528   4.734   3.538  10.260  0.4774 -0.5973  0.1212
  640MPD2    C5 9529   0.052   3.421  10.309 -0.0098  0.2946  0.1814
  640MPD2     H 9530   4.580   3.421   9.996  0.6890 -3.9827 -0.3167
  640MPD2    H1 9531   4.732   3.626  10.323  1.1217  1.4381 -2.6875
  640MPD2    H2 9532   0.113   3.226  10.262 -0.8936 -0.7844 -0.1686
  640MPD2    H3 9533   0.095   3.416  10.408  0.4879  3.7181  0.1385
  640MPD2     N 9534   4.602   3.652  10.107 -0.2132  0.6971  0.1427
  640MPD2    H5 9535   4.613   3.738  10.158 -0.4087  0.2434  0.9534
  640MPD2    N1 9536   4.708   3.174  10.051 -0.1698  0.2871 -0.1888
  640MPD2    H7 9537   0.020   3.102  10.103  1.3105  1.3922 -0.0610
  641TMC3    C1 9538   4.669   3.009   9.871  0.0790  0.0712  0.8602
  641TMC3    C2 9539   0.044   2.937   9.903  0.0765 -0.2678 -0.3654
  641TMC3    C3 9540   0.069   2.827   9.832 -0.1826 -0.7034  1.1683
  641TMC3    C4 9541   4.578   2.964   9.788  0.1115  0.6919 -0.1612
  641TMC3    C5 9542   4.610   2.855   9.712  0.5579 -0.0472 -0.3086
  641TMC3    C6 9543   4.719   2.779   9.738 -0.1051 -0.2607 -0.9858
  641TMC3     C 9544   4.657   3.145   9.922 -1.3602 -0.4917  0.4554
  641TMC3     O 9545   4.605   3.227   9.848  0.1770 -0.2041 -0.4068
  641TMC3     H 9546   0.124   2.986   9.957  1.0540 -1.4743 -0.7274
  641TMC3    H1 9547   4.496   3.030   9.760  0.2527  0.6129 -0.7664
  641TMC3    H2 9548   0.012   2.693   9.679  0.7215 -0.9498  0.4394
  641TMC3    C7 9549   4.517   2.808   9.612  0.1526 -0.0580  0.7328
  641TMC3    C8 9550   0.173   2.746   9.875 -0.6083 -0.4857  0.5074
  641TMC3    O1 9551   4.415   2.875   9.582  0.5699  0.5106 -1.1159
  641TMC3    O2 9552   0.220   2.672   9.790 -0.3902  0.2614 -0.0921
  642TMC3    C1 9553   1.731   4.346  12.370  0.3439 -0.1303 -0.4360
  642TMC3    C2 9554   1.842   4.351  12.287 -0.0590  0.0766 -0.0839
  642TMC3    C3 9555   1.850   4.282  12.172  0.0742 -0.1011 -1.0533
  642TMC3    C4 9556   1.624   4.269  12.330  0.5046  0.6656  0.0014
  642TMC3    C5 9557   1.628   4.207  12.210  0.4006  0.6151 -0.5751
  642TMC3    C6 9558   1.743   4.200  12.136  0.4236  0.1652  0.3471
  642TMC3     C 9559   1.699   4.466  12.451  0.5925  0.4038 -0.1567
  642TMC3     O 9560   1.778   4.559  12.446 -0.3962 -0.3034 -0.4588
  642TMC3     H 9561   1.913   4.430  12.307 -0.8192  0.6460  0.3637
  642TMC3    H1 9562   1.535   4.269  12.392  1.5456  0.8618  1.4996
  642TMC3    H2 9563   1.756   4.143  12.045 -1.9185  0.4224 -0.1283
  642TMC3    C7 9564   1.520   4.115  12.166  0.7238 -0.4412 -0.2428
  642TMC3    C8 9565   1.986   4.227  12.134  0.3172 -0.5544 -0.8099
  642TMC3    O1 9566   1.506   4.093  12.046  0.0634  0.3133 -0.3292
  642TMC3    O2 9567   1.997   4.153  12.035  0.3109  0.3177  0.5371
  643TMC3    C1 9568   0.899   3.481   0.441 -0.0437  0.9188  0.3812
  643TMC3    C2 9569   0.787   3.477   0.367 -0.3381 -0.0555 -0.4585
  643TMC3    C3 9570   0.779   3.387   0.259  0.3049  0.0822  0.6112
  643TMC3    C4 9571   1.001   3.393   0.405 -0.2788 -0.7197  0.2481
  643TMC3    C5 9572   0.990   3.300   0.300 -0.1642 -0.5039 -0.1589
  643TMC3    C6 9573   0.873   3.296   0.227  0.5086  0.5398  0.3409
  643TMC3     C 9574   0.945   3.608   0.490 -0.4306 -0.0538 -0.4634
  643TMC3     O 9575   0.906   3.705   0.424 -0.4871 -0.4989 -0.5587
  643TMC3     H 9576   0.711   3.546   0.402 -2.3463 -1.6116 -1.7102
  643TMC3    H1 9577   1.094   3.404   0.459 -2.3226  2.2828  3.0953
  643TMC3    H2 9578   0.864   3.248   0.130 -1.2725  1.2089  0.1788
  643TMC3    C7 9579   1.099   3.328   0.210 -0.2333 -0.2027  0.7572
  643TMC3    C8 9580   0.738   3.452   0.138 -0.6169  0.7017  0.2758
  643TMC3    O1 9581   1.165   3.428   0.240  0.0913 -0.1851  0.4492
  643TMC3    O2 9582   0.718   3.389   0.037 -1.1586  0.2267  0.1026
  644MPD2     C 9583   0.177   3.801   9.841  0.2954 -0.1130  0.0456
  644MPD2    C1 9584   0.248   3.749   9.951 -0.2090 -0.0241 -0.7293
  644MPD2    C2 9585   0.326   3.829  10.039  0.8758 -1.0355 -0.0616
  644MPD2    C3 9586   0.334   3.965  10.009 -0.0546  0.0627  0.1815
  644MPD2    C4 9587   0.252   4.015   9.910 -0.0410  0.4955 -0.2476
  644MPD2    C5 9588   0.179   3.936   9.827 -0.8535  0.8737 -0.1728
  644MPD2     H 9589   0.392   3.789  10.115  0.8289 -0.0488  0.4983
  644MPD2    H1 9590   0.241   4.122   9.890  0.2475  0.5992  0.1585
  644MPD2    H2 9591   0.129   3.743   9.763 -0.9296 -0.2004  0.8785
  644MPD2    H3 9592   0.130   3.978   9.740 -0.9520 -0.5880 -0.8101
  644MPD2     N 9593   0.410   4.048  10.096 -0.0962 -0.0066 -0.2641
  644MPD2    H5 9594   0.463   4.005  10.170 -0.4081 -0.8480 -0.5234
  644MPD2    N1 9595   0.225   3.608   9.967  0.4166 -0.4950 -0.2494
  644MPD2    H7 9596   0.183   3.549   9.896  2.2062 -2.5025  0.3652
  645TMC3    C1 9597   0.512   4.231  10.195  0.3625  0.0885  0.2890
  645TMC3    C2 9598   0.504   4.186  10.319 -0.1252  0.1987 -0.1735
  645TMC3    C3 9599   0.597   4.231  10.411 -0.1253 -0.0526 -0.3323
  645TMC3    C4 9600   0.603   4.325  10.161 -0.2019  0.4920 -0.7837
  645TMC3    C5 9601   0.686   4.380  10.256  0.3629  0.0318 -0.4233
  645TMC3    C6 9602   0.687   4.331  10.380  0.5466  0.8853  0.1135
  645TMC3     C 9603   0.435   4.185  10.083  0.0085 -0.3370  0.2969
  645TMC3     O 9604   0.415   4.261   9.991  0.1356 -0.3310  0.4503
  645TMC3     H 9605   0.420   4.122  10.344  0.7839 -1.5825 -1.6674
  645TMC3    H1 9606   0.620   4.356  10.059  0.6400 -1.1206 -1.1275
  645TMC3    H2 9607   0.753   4.379  10.452 -0.8085  2.3204  0.3784
  645TMC3    C7 9608   0.789   4.469  10.212 -0.4902 -0.3482  0.4572
  645TMC3    C8 9609   0.632   4.155  10.538  0.6401 -0.7186 -0.0113
  645TMC3    O1 9610   0.876   4.480  10.297  0.1495 -0.1441 -0.0630
  645TMC3    O2 9611   0.709   4.207  10.620 -0.2952 -0.0187 -0.1595
  646MPD2     C 9612   0.612   3.537  14.381 -0.2944 -0.8617 -0.2613
  646MPD2    C1 9613   0.569   3.573  14.511 -0.6902 -0.4938 -0.4783
  646MPD2    C2 9614   0.467   3.662  14.515  0.5930 -0.0259 -0.4099
  646MPD2    C3 9615   0.405   3.714  14.407  0.0109  0.0833  0.4298
  646MPD2    C4 9616   0.455   3.684  14.279  1.1755 -0.4887  0.0578
  646MPD2    C5 9617   0.566   3.605  14.275 -0.0693 -0.6793 -0.2832
  646MPD2     H 9618   0.437   3.702  14.611 -0.8211 -0.3975 -0.6878
  646MPD2    H1 9619   0.423   3.738  14.191  0.9427 -0.8191 -0.0580
  646MPD2    H2 9620   0.692   3.465  14.372  0.7761  0.6196 -2.3854
  646MPD2    H3 9621   0.618   3.582  14.182 -1.5954  0.8371 -1.4976
  646MPD2     N 9622   0.282   3.797  14.437  0.7360  0.6595 -0.2962
  646MPD2    H5 9623   0.255   3.796  14.535 -1.3651 -3.0867 -0.9307
  646MPD2    N1 9624   0.645   3.528  14.624  0.4228  0.4362 -0.1829
  646MPD2    H7 9625   0.734   3.485  14.601  0.9142  1.8759 -0.9722
  647TMC3    C1 9626   0.659   3.443  14.837 -0.1034  0.3055  0.1752
  647TMC3    C2 9627   0.587   3.348  14.906 -0.3438  0.4898  0.3808
  647TMC3    C3 9628   0.651   3.245  14.956  0.4767  0.3367  0.1458
  647TMC3    C4 9629   0.798   3.443  14.847  0.4268 -0.3231 -0.5309
  647TMC3    C5 9630   0.859   3.343  14.910 -0.0567 -1.1943 -0.3679
  647TMC3    C6 9631   0.784   3.240  14.963 -0.0059  0.1800  0.0220
  647TMC3     C 9632   0.589   3.531  14.746  0.3371 -0.0036  0.4535
  647TMC3     O 9633   0.467   3.552  14.770  0.0505  0.1817  0.6123
  647TMC3     H 9634   0.480   3.361  14.901 -0.2719  0.5184 -1.0159
  647TMC3    H1 9635   0.860   3.521  14.804 -0.6351  0.5099 -0.5357
  647TMC3    H2 9636   0.840   3.151  14.991  0.7402  1.4420  2.5402
  647TMC3    C7 9637   1.004   3.341  14.943  0.3520  0.0920 -0.5233
  647TMC3    C8 9638   0.586   3.142  15.027 -0.0466 -0.8522  0.4218
  647TMC3    O1 9639   1.047   3.261  15.026 -0.0536  0.0006 -0.1135
  647TMC3    O2 9640   0.653   3.078  15.108  0.0698 -0.5633 -0.1026
  648TMC3    C1 9641   4.297   0.842  16.076 -0.1986 -0.6117 -0.0646
  648TMC3    C2 9642   4.311   0.717  16.016  0.3308  0.2708  0.2105
  648TMC3    C3 9643   4.324   0.702  15.884 -0.3725 -0.6722 -0.4429
  648TMC3    C4 9644   4.302   0.957  16.001 -0.4037 -0.3599  0.3005
  648TMC3    C5 9645   4.323   0.944  15.867 -0.1228 -0.0368  0.4084
  648TMC3    C6 9646   4.342   0.820  15.813 -0.0376 -0.6069 -0.4477
  648TMC3     C 9647   4.273   0.857  16.221 -0.0405  0.0887 -0.2861
  648TMC3     O 9648   4.235   0.968  16.255 -0.2970 -0.7445  0.3742
  648TMC3     H 9649   4.297   0.626  16.074  0.5387  0.2347  0.2025
  648TMC3    H1 9650   4.304   1.056  16.046 -1.0955  0.8268 -2.3281
  648TMC3    H2 9651   4.358   0.820  15.705  0.4602  2.2443 -0.3741
  648TMC3    C7 9652   4.342   1.062  15.782  0.3378  1.0075 -0.4749
  648TMC3    C8 9653   4.381   0.578  15.845 -0.8073  0.0037 -0.1367
  648TMC3    O1 9654   4.414   1.059  15.682 -0.3336  0.2267  0.1447
  648TMC3    O2 9655   4.340   0.471  15.878 -0.0781 -0.6182  0.5520
  649TMC3    C1 9656   3.127   1.821  13.345  0.3920  1.0674  0.3617
  649TMC3    C2 9657   3.250   1.860  13.385 -0.4923 -0.1837  0.4401
  649TMC3    C3 9658   3.278   1.832  13.511 -0.4887  0.7596  0.4917
  649TMC3    C4 9659   3.027   1.763  13.422  0.2221 -0.5955  0.7906
  649TMC3    C5 9660   3.074   1.728  13.545  0.3632  0.3773  0.8680
  649TMC3    C6 9661   3.194   1.764  13.598  0.0239  0.1798  0.3649
  649TMC3     C 9662   3.076   1.889  13.230 -0.0799 -0.0752 -0.1107
  649TMC3     O 9663   3.151   1.983  13.197  0.0940  0.5900  0.2988
  649TMC3     H 9664   3.320   1.906  13.318 -0.8963  0.1038  0.2182
  649TMC3    H1 9665   2.929   1.731  13.387  0.5233 -1.2757  0.5747
  649TMC3    H2 9666   3.224   1.738  13.699  0.5361 -3.0639 -0.6483
  649TMC3    C7 9667   2.976   1.663  13.630 -0.2665  0.7114  0.0140
  649TMC3    C8 9668   3.400   1.886  13.567  0.2463  0.0096 -0.5924
  649TMC3    O1 9669   2.863   1.710  13.637  0.1289 -0.1870 -0.2526
  649TMC3    O2 9670   3.432   1.837  13.675 -0.2438 -0.5833 -0.0906
  650TMC3    C1 9671   1.123   3.484  12.813 -0.6315 -0.3335  1.0466
  650TMC3    C2 9672   1.052   3.560  12.896  0.0313  0.3444 -0.5510
  650TMC3    C3 9673   0.923   3.586  12.871 -0.7865  0.1826  0.3322
  650TMC3    C4 9674   1.073   3.438  12.699  1.1060 -0.2041  0.1724
  650TMC3    C5 9675   0.938   3.460  12.679  0.1552  0.0381 -0.0648
  650TMC3    C6 9676   0.865   3.531  12.762 -0.1420  1.0638 -0.4224
  650TMC3     C 9677   1.263   3.516  12.802 -0.2490  0.3055  0.8971
  650TMC3     O 9678   1.296   3.629  12.762  0.6716 -0.1423 -0.1754
  650TMC3     H 9679   1.109   3.599  12.980  2.6044 -0.0490 -2.1051
  650TMC3    H1 9680   1.133   3.418  12.611  0.3621 -0.4885 -0.2699
  650TMC3    H2 9681   0.758   3.544  12.750 -0.5827 -0.8384  1.4381
  650TMC3    C7 9682   0.905   3.501  12.557  0.0174 -1.0312  0.6719
  650TMC3    C8 9683   0.894   3.719  12.894  0.4003  0.0531  0.2045
  650TMC3    O1 9684   0.858   3.415  12.484  0.0033  0.0117 -0.6746
  650TMC3    O2 9685   0.986   3.798  12.907 -0.5911  0.1510 -0.0220
  651MPD2     C 9686   4.382   0.824  10.826  0.9612  0.2113  0.5211
  651MPD2    C1 9687   4.337   0.942  10.878  0.0512  0.1891  0.0252
  651MPD2    C2 9688   4.428   1.045  10.903 -0.1753 -0.1767  0.3371
  651MPD2    C3 9689   4.564   1.035  10.861  0.1473 -0.9117  0.2260
  651MPD2    C4 9690   4.611   0.919  10.812 -0.0731  0.0161  0.0977
  651MPD2    C5 9691   4.514   0.820  10.790 -0.7326  0.4203  0.3180
  651MPD2     H 9692   4.390   1.142  10.933  0.5166 -0.0581  0.8382
  651MPD2    H1 9693   4.716   0.910  10.789 -0.0518 -0.6188  0.4614
  651MPD2    H2 9694   4.317   0.741  10.801  0.5316  0.1819  1.7545
  651MPD2    H3 9695   4.548   0.725  10.749  0.5706  0.8344  0.4339
  651MPD2     N 9696   4.651   1.148  10.883 -0.5430 -0.9330  0.0888
  651MPD2    H5 9697   4.614   1.233  10.924 -0.3421 -0.4974 -0.6414
  651MPD2    N1 9698   4.201   0.975  10.912  0.1911 -0.1036 -0.1176
  651MPD2    H7 9699   4.178   1.066  10.950  1.2309  0.0942  0.0320
  652TMC3    C1 9700   0.297   1.396  10.825  0.0399 -0.5530 -0.1175
  652TMC3    C2 9701   0.228   1.284  10.859  0.1219  0.2256 -0.0407
  652TMC3    C3 9702   0.098   1.288  10.880 -0.4725  0.2536 -0.3216
  652TMC3    C4 9703   0.234   1.517  10.798 -0.2058  0.0552  0.7227
  652TMC3    C5 9704   0.096   1.519  10.810  0.6596  0.7134 -0.7692
  652TMC3    C6 9705   0.029   1.404  10.850  0.3900  0.6154 -0.2983
  652TMC3     C 9706   0.442   1.383  10.821  0.1597  0.1973  1.2889
  652TMC3     O 9707   0.505   1.305  10.890 -0.2367 -0.4209 -0.3342
  652TMC3     H 9708   0.294   1.198  10.867 -0.8845 -0.4439  1.0678
  652TMC3    H1 9709   0.286   1.608  10.772 -0.5263 -0.1062 -0.4800
  652TMC3    H2 9710   4.659   1.420  10.860  0.1591 -1.7610  0.8901
  652TMC3    C7 9711   0.027   1.646  10.833 -0.2268  0.1567  0.1771
  652TMC3    C8 9712   0.043   1.153  10.869  0.0186 -0.5692 -0.0835
  652TMC3    O1 9713   4.705   1.652  10.941 -0.0967  0.2737 -0.1013
  652TMC3    O2 9714   0.125   1.058  10.870 -0.6536 -0.1737 -0.1131
  653MPD2     C 9715   3.333   1.209  17.627 -0.2751 -0.6413  0.1223
  653MPD2    C1 9716   3.395   1.088  17.628  0.3034 -1.1526 -0.5644
  653MPD2    C2 9717   3.382   1.002  17.516 -0.3425  1.0740 -0.1969
  653MPD2    C3 9718   3.315   1.045  17.402  0.1895  0.8349 -0.6840
  653MPD2    C4 9719   3.267   1.173  17.397 -0.3334  0.2328 -0.6528
  653MPD2    C5 9720   3.289   1.251  17.503  0.6017  0.3501 -0.1005
  653MPD2     H 9721   3.433   0.907  17.521 -0.4499  0.8998 -2.3492
  653MPD2    H1 9722   3.208   1.221  17.320 -0.3039 -0.7772 -1.3002
  653MPD2    H2 9723   3.315   1.281  17.706 -3.5083 -0.0021 -1.1921
  653MPD2    H3 9724   3.257   1.355  17.495  2.4692  1.1133  2.3545
  653MPD2     N 9725   3.291   0.946  17.302 -0.1713  0.2728  0.6293
  653MPD2    H5 9726   3.319   0.851  17.324  1.4956  0.1379 -2.0585
  653MPD2    N1 9727   3.471   1.045  17.734  0.0678 -0.0170 -0.3694
  653MPD2    H7 9728   3.532   0.965  17.717 -0.2725 -0.2413 -0.5195
  654TMC3    C1 9729   3.225   0.871  17.082 -0.3287 -0.2207 -0.5553
  654TMC3    C2 9730   3.211   0.903  16.954  0.5730  0.6535  0.5602
  654TMC3    C3 9731   3.167   0.796  16.871  0.1425  0.5884 -0.1506
  654TMC3    C4 9732   3.203   0.749  17.135  0.3271  0.1716 -0.6106
  654TMC3    C5 9733   3.170   0.651  17.050  0.1604 -0.9204  0.1102
  654TMC3    C6 9734   3.147   0.669  16.919 -0.6313  0.5464 -0.4051
  654TMC3     C 9735   3.257   0.982  17.173 -0.0870  0.3776  0.5694
  654TMC3     O 9736   3.248   1.096  17.135 -0.6273 -0.6662  0.2957
  654TMC3     H 9737   3.226   1.001  16.912  0.4394  1.4951  2.4673
  654TMC3    H1 9738   3.209   0.728  17.241 -1.4853  0.6221 -0.4231
  654TMC3    H2 9739   3.113   0.589  16.854 -0.1983 -0.0628  0.1230
  654TMC3    C7 9740   3.128   0.518  17.098  0.5781 -0.2780  0.3072
  654TMC3    C8 9741   3.083   0.837  16.766 -0.5228 -0.9294 -0.1218
  654TMC3    O1 9742   3.047   0.456  17.022 -0.1136 -0.0207 -0.6156
  654TMC3    O2 9743   3.040   0.944  16.781  0.1789  0.1296  0.1212
  655MPD2     C 9744   0.276   1.253  15.863 -0.2490 -0.1390  0.8218
  655MPD2    C1 9745   0.227   1.333  15.759  0.3731  0.1707  0.5982
  655MPD2    C2 9746   0.283   1.323  15.635  0.2950 -0.5742 -0.0553
  655MPD2    C3 9747   0.377   1.231  15.613  0.3777 -0.0333 -0.4432
  655MPD2    C4 9748   0.417   1.148  15.720  0.8073  0.2214  0.3061
  655MPD2    C5 9749   0.373   1.162  15.845  0.1734  1.0510 -0.0112
  655MPD2     H 9750   0.255   1.388  15.552  1.3813  1.0338  0.8206
  655MPD2    H1 9751   0.501   1.081  15.706  1.5553  0.5376  3.2039
  655MPD2    H2 9752   0.246   1.277  15.964 -1.0667  1.4394  0.2070
  655MPD2    H3 9753   0.408   1.092  15.920  1.6966  0.6128 -1.1155
  655MPD2     N 9754   0.453   1.220  15.492 -0.4943  0.2104  0.8302
  655MPD2    H5 9755   0.520   1.144  15.485 -0.3538  0.4549 -0.5328
  655MPD2    N1 9756   0.119   1.427  15.778 -0.0706 -0.0011  0.2047
  655MPD2    H7 9757   0.084   1.474  15.695 -1.0169  1.1105  1.2243
  656TMC3    C1 9758   4.680   1.542  15.883 -0.1756 -0.2004 -0.1842
  656TMC3    C2 9759   4.581   1.536  15.974 -0.0322  0.4813 -0.2209
  656TMC3    C3 9760   4.492   1.633  15.978 -0.5132  0.7507 -0.5742
  656TMC3    C4 9761   4.678   1.641  15.787  0.0606 -0.0572  0.8324
  656TMC3    C5 9762   4.590   1.745  15.799 -0.3029 -0.0204 -0.3015
  656TMC3    C6 9763   4.487   1.736  15.893  0.3647 -0.8808  0.3226
  656TMC3     C 9764   0.046   1.442  15.889  0.1618 -0.0448  0.4870
  656TMC3     O 9765   0.038   1.360  15.977 -0.0288  0.1111  0.4953
  656TMC3     H 9766   4.576   1.461  16.052  1.3580 -0.9563 -1.5010
  656TMC3    H1 9767   0.026   1.650  15.722 -0.1617 -0.6136  0.4564
  656TMC3    H2 9768   4.418   1.819  15.907 -1.0385 -1.8300 -0.9605
  656TMC3    C7 9769   4.573   1.820  15.675  0.0620  0.0461  0.3890
  656TMC3    C8 9770   4.394   1.640  16.082 -1.3700 -0.3507  0.2407
  656TMC3    O1 9771   4.659   1.801  15.588 -0.1784  0.2311  0.3099
  656TMC3    O2 9772   4.397   1.737  16.158  0.5523 -0.0875 -0.4010
  657TMC3    C1 9773   3.567   0.529  15.392  0.3996  0.1472  0.0777
  657TMC3    C2 9774   3.524   0.617  15.486 -0.3936 -0.2140  0.5918
  657TMC3    C3 9775   3.536   0.746  15.460  0.3157 -0.4530  0.0439
  657TMC3    C4 9776   3.615   0.574  15.276  0.5921  0.3104  0.0268
  657TMC3    C5 9777   3.630   0.707  15.257  0.3825  0.1601  0.1418
  657TMC3    C6 9778   3.590   0.799  15.344  0.1782 -0.4600 -0.3514
  657TMC3     C 9779   3.529   0.391  15.410 -0.1073  0.0776  0.9958
  657TMC3     O 9780   3.444   0.362  15.490 -0.3345 -0.2788  0.8207
  657TMC3     H 9781   3.472   0.585  15.575 -1.1434  0.3857  0.3674
  657TMC3    H1 9782   3.625   0.508  15.191 -0.5348  0.2445 -0.0508
  657TMC3    H2 9783   3.594   0.907  15.333 -3.3315  0.0020  2.7763
  657TMC3    C7 9784   3.652   0.742  15.119  0.4461  1.0260 -0.0290
  657TMC3    C8 9785   3.475   0.838  15.556 -0.3488  0.4484 -0.2441
  657TMC3    O1 9786   3.708   0.655  15.058 -0.4438 -0.0137  0.4508
  657TMC3    O2 9787   3.366   0.817  15.606 -0.9445  0.4143  0.0174
  658MPD2     C 9788   0.841   1.608  14.912 -0.6489 -0.1021 -0.3977
  658MPD2    C1 9789   0.728   1.543  14.868  0.1518 -0.3447  0.2456
  658MPD2    C2 9790   0.694   1.561  14.735  0.4221  0.1681  0.1313
  658MPD2    C3 9791   0.786   1.621  14.647  0.4504  0.0683 -0.2191
  658MPD2    C4 9792   0.911   1.663  14.686 -0.2866 -0.4332 -0.5965
  658MPD2    C5 9793   0.925   1.667  14.824  0.3738  0.0146  0.3183
  658MPD2     H 9794   0.604   1.517  14.696  0.8778  0.1572 -0.8870
  658MPD2    H1 9795   0.999   1.699  14.633 -0.7390 -0.1034 -1.1293
  658MPD2    H2 9796   0.872   1.624  15.014  0.2334  1.2271 -0.8792
  658MPD2    H3 9797   1.021   1.704  14.858  0.7298  0.5714 -1.2852
  658MPD2     N 9798   0.752   1.623  14.511 -0.1367 -0.3219  0.4645
  658MPD2    H5 9799   0.667   1.571  14.496 -0.3681  0.8675 -2.3880
  658MPD2    N1 9800   0.656   1.463  14.960 -0.4570  0.8664 -0.4898
  658MPD2    H7 9801   0.650   1.506  15.052  2.4620  0.1119  0.0430
  659TMC3    C1 9802   0.507   1.295  15.029  0.3867  0.2075 -0.4609
  659TMC3    C2 9803   0.526   1.324  15.165  0.3651 -0.1533  0.0849
  659TMC3    C3 9804   0.479   1.246  15.263 -0.3170 -0.9388 -0.1178
  659TMC3    C4 9805   0.429   1.184  14.994 -0.7501 -0.3495  0.1179
  659TMC3    C5 9806   0.388   1.103  15.098 -0.2358  0.2693  0.4290
  659TMC3    C6 9807   0.410   1.133  15.230  0.4878 -0.2016 -0.1452
  659TMC3     C 9808   0.581   1.350  14.921  0.4096 -0.1483 -0.0962
  659TMC3     O 9809   0.568   1.301  14.809  0.5012  0.0375  0.2374
  659TMC3     H 9810   0.594   1.402  15.197  0.6304 -0.2551 -0.2230
  659TMC3    H1 9811   0.383   1.177  14.896  1.1602  1.1337 -0.8610
  659TMC3    H2 9812   0.370   1.072  15.310 -0.2855  1.5875  0.8187
  659TMC3    C7 9813   0.279   1.005  15.073  0.4468  0.0621  0.5162
  659TMC3    C8 9814   0.438   1.304  15.385 -0.5350 -0.0193  0.2138
  659TMC3    O1 9815   0.207   0.984  15.171  0.0363  0.0279  0.6165
  659TMC3    O2 9816   0.400   1.419  15.383  1.1739 -0.0630  0.2518
  660MPD2     C 9817   3.063   4.623  12.698 -0.2524 -0.2110 -0.1134
  660MPD2    C1 9818   2.925   4.589  12.697  1.0322  1.4051 -0.5917
  660MPD2    C2 9819   2.877   4.507  12.794 -0.0294 -0.2923 -0.1018
  660MPD2    C3 9820   2.954   4.456  12.897 -0.2216  0.4285 -0.7413
  660MPD2    C4 9821   3.089   4.482  12.894  0.0115 -0.5812  0.0938
  660MPD2    C5 9822   3.144   4.568  12.796  0.6450  0.0525 -0.6109
  660MPD2     H 9823   2.772   4.478  12.797 -0.0359  0.0045  2.5002
  660MPD2    H1 9824   3.150   4.440  12.973  1.2445  0.3534 -0.3719
  660MPD2    H2 9825   3.116   4.684  12.625 -2.3740  1.4059 -0.3164
  660MPD2    H3 9826   3.249   4.595  12.790  0.4036  1.6198  2.0919
  660MPD2     N 9827   2.903   4.374  13.011 -0.4255 -0.1205 -0.2290
  660MPD2    H5 9828   2.975   4.343  13.075 -0.6914 -0.5757 -0.1582
  660MPD2    N1 9829   2.844   4.612  12.583 -0.0684  0.0727 -0.7902
  660MPD2    H7 9830   2.883   4.645  12.496  3.0562 -0.9269  0.2278
  661TMC3    C1 9831   2.637   4.644  12.449 -0.2722 -0.2475 -0.3619
  661TMC3    C2 9832   2.718   4.651  12.338 -0.3126 -0.3606  0.1873
  661TMC3    C3 9833   2.654   4.698  12.223  0.2135  0.0094  0.1152
  661TMC3    C4 9834   2.505   4.684  12.453  0.3331  0.2170 -0.3119
  661TMC3    C5 9835   2.453   4.735  12.340  0.4948  0.1803  0.1331
  661TMC3    C6 9836   2.529   0.009  12.225  0.5675 -0.1648 -0.2589
  661TMC3     C 9837   2.704   4.616  12.585 -0.0609 -0.8140  0.2190
  661TMC3     O 9838   2.625   4.642  12.676 -0.0930 -0.4738 -0.6925
  661TMC3     H 9839   2.822   4.623  12.336 -0.6142 -1.5394  1.3423
  661TMC3    H1 9840   2.448   4.662  12.542  1.9127 -0.6576  0.5023
  661TMC3    H2 9841   2.489   0.060  12.138 -0.4970  1.2533  1.0818
  661TMC3    C7 9842   2.311   4.733  12.321  0.3341 -0.1206  0.1777
  661TMC3    C8 9843   2.726   4.726  12.100 -0.3257 -0.4628 -0.4772
  661TMC3    O1 9844   2.238   4.724  12.422  0.9666  0.3818 -0.3007
  661TMC3    O2 9845   2.667   0.045  12.007 -0.3205 -0.0968  0.0800
  662MPD2     C 9846   3.132   4.121   0.141  1.2535  0.1963  0.2281
  662MPD2    C1 9847   3.022   4.173   0.066  0.3687  0.0381  0.5553
  662MPD2    C2 9848   2.913   4.237   0.133  0.3816  0.4489  0.2136
  662MPD2    C3 9849   2.921   4.265   0.267 -0.4363  0.0039  0.6461
  662MPD2    C4 9850   3.038   4.232   0.333 -0.4888 -0.6895 -0.0335
  662MPD2    C5 9851   3.139   4.157   0.273 -0.0743  0.4425  0.2123
  662MPD2     H 9852   2.834   4.275   0.070  1.0004 -0.7024 -1.2368
  662MPD2    H1 9853   3.044   4.245   0.441 -0.6722 -2.0184  0.1338
  662MPD2    H2 9854   3.222   4.085   0.093  0.2834 -0.1642 -1.3347
  662MPD2    H3 9855   3.218   4.121   0.338 -0.0788  0.0429 -0.0062
  662MPD2     N 9856   2.820   4.344   0.323  0.2349 -0.0343 -0.2266
  662MPD2    H5 9857   2.728   4.346   0.280 -0.1140  0.3554  0.5186
  662MPD2    N1 9858   3.011   4.154  17.671  0.4709 -0.9618  0.1036
  662MPD2    H7 9859   2.937   4.206  17.626  0.8866 -0.7422 -0.3253
  663TMC3    C1 9860   3.051   4.078  17.457 -0.8349 -0.7175  0.2982
  663TMC3    C2 9861   2.963   4.173  17.421 -0.1591  0.0938 -0.7534
  663TMC3    C3 9862   2.870   4.160  17.322  0.2895 -0.1674  0.1437
  663TMC3    C4 9863   3.046   3.956  17.397  0.7300 -0.7665  0.4049
  663TMC3    C5 9864   2.948   3.940  17.302 -0.4750  0.7442  0.0607
  663TMC3    C6 9865   2.859   4.036  17.262  0.2651  0.3442  0.2008
  663TMC3     C 9866   3.089   4.074  17.596  0.0155  0.4659 -0.2417
  663TMC3     O 9867   3.171   3.992  17.626 -0.2806 -0.1505 -0.3394
  663TMC3     H 9868   2.973   4.275  17.458 -0.0745 -0.4208  0.6280
  663TMC3    H1 9869   3.102   3.873  17.438  4.8723  0.3936 -2.9349
  663TMC3    H2 9870   2.769   4.009  17.208 -0.7931 -0.6698  2.4676
  663TMC3    C7 9871   2.935   3.812  17.232 -0.3586  0.8905 -0.1069
  663TMC3    C8 9872   2.748   4.217  17.370  0.2834  0.3828  0.2382
  663TMC3    O1 9873   2.861   3.810  17.135  0.3068  0.2123  0.5674
  663TMC3    O2 9874   2.723   4.335  17.361  0.0176  0.0160  0.1795
  664MPD2     C 9875   1.416   2.479   0.141 -0.6101 -0.4619  0.6223
  664MPD2    C1 9876   1.512   2.542   0.212 -0.5297  0.2812 -0.0511
  664MPD2    C2 9877   1.486   2.563   0.346 -0.0173  0.5126 -0.1852
  664MPD2    C3 9878   1.370   2.530   0.407  0.0446  0.0595  0.8860
  664MPD2    C4 9879   1.270   2.470   0.332  0.0186 -0.1952 -0.3125
  664MPD2    C5 9880   1.296   2.452   0.201  0.7880  0.4400 -0.0938
  664MPD2     H 9881   1.561   2.615   0.404  0.2402  0.0255 -0.0824
  664MPD2    H1 9882   1.171   2.455   0.373  1.0558 -2.3616  1.4345
  664MPD2    H2 9883   1.415   2.466   0.034  0.2956  0.5928  0.4834
  664MPD2    H3 9884   1.223   2.402   0.140 -1.0118  1.2697  1.3719
  664MPD2     N 9885   1.368   2.555   0.549  0.2955  0.0712 -0.2153
  664MPD2    H5 9886   1.450   2.598   0.590  0.2134  0.3477 -0.3392
  664MPD2    N1 9887   1.620   2.598   0.148  0.1466  0.2050  0.1487
  664MPD2    H7 9888   1.686   2.653   0.201  0.6493 -0.9034  0.6804
  665TMC3    C1 9889   1.292   2.532   0.774 -0.2278 -0.1880  0.8701
  665TMC3    C2 9890   1.185   2.538   0.864 -1.3346  0.0631  0.3363
  665TMC3    C3 9891   1.221   2.548   0.993 -0.0594 -0.0172 -0.1782
  665TMC3    C4 9892   1.424   2.534   0.813 -0.3064  0.3938 -0.3194
  665TMC3    C5 9893   1.449   2.529   0.949  0.3260  0.2050 -0.8192
  665TMC3    C6 9894   1.350   2.529   1.043 -0.0248  0.0136 -0.2166
  665TMC3     C 9895   1.263   2.517   0.634 -0.6133  0.3215 -0.6771
  665TMC3     O 9896   1.152   2.475   0.603  0.1655  0.4951 -0.3947
  665TMC3     H 9897   1.083   2.544   0.829 -0.5249  3.1036 -1.4704
  665TMC3    H1 9898   1.512   2.549   0.752  2.2987  0.2256  3.4077
  665TMC3    H2 9899   1.361   2.505   1.148 -1.2389  1.2390  0.2051
  665TMC3    C7 9900   1.576   2.580   1.003  0.0543 -0.1259  0.0255
  665TMC3    C8 9901   1.116   2.550   1.093 -0.8944 -0.0659  0.4926
  665TMC3    O1 9902   1.666   2.593   0.922 -0.2295  0.1197 -0.0232
  665TMC3    O2 9903   1.148   2.510   1.204 -0.8192 -0.0189 -0.2614
  666TMC3    C1 9904   4.433   1.968   9.883 -0.0999  0.4652  0.4324
  666TMC3    C2 9905   4.459   1.929   9.754 -0.4317 -0.4354 -0.1415
  666TMC3    C3 9906   4.478   2.031   9.661 -0.1426  0.2043 -0.1678
  666TMC3    C4 9907   4.427   2.100   9.922  0.1541  0.2114  0.1144
  666TMC3    C5 9908   4.431   2.193   9.823  0.1441 -0.0704 -0.1731
  666TMC3    C6 9909   4.464   2.162   9.692 -0.0525 -0.2607 -0.0869
  666TMC3     C 9910   4.449   1.869   9.981  0.4136  0.4394 -0.1082
  666TMC3     O 9911   4.386   1.771   9.954 -0.2559  0.6674 -0.4172
  666TMC3     H 9912   4.477   1.826   9.725 -1.5741 -0.6038 -0.2537
  666TMC3    H1 9913   4.404   2.140  10.021  0.7482 -1.2970  0.8591
  666TMC3    H2 9914   4.441   2.230   9.611  2.1392 -1.4700 -1.7212
  666TMC3    C7 9915   4.417   2.333   9.852  0.3316  0.5651  1.2627
  666TMC3    C8 9916   4.544   1.999   9.543  0.3121  0.3437  1.2755
  666TMC3    O1 9917   4.454   2.367   9.958 -0.6669 -0.0141  0.6644
  666TMC3    O2 9918   4.493   1.928   9.456 -0.3429 -0.1353  0.1622
  667MPD2     C 9919   2.576   2.543  14.632  0.9751 -0.3651  0.3409
  667MPD2    C1 9920   2.451   2.575  14.681 -0.0232  0.0690 -0.2944
  667MPD2    C2 9921   2.335   2.492  14.667  0.4032  0.6239  0.4921
  667MPD2    C3 9922   2.353   2.373  14.601 -0.1424  0.4597  0.1963
  667MPD2    C4 9923   2.481   2.336  14.553 -0.3127 -0.0963  0.0355
  667MPD2    C5 9924   2.591   2.421  14.565 -0.5576  0.1967  0.7151
  667MPD2     H 9925   2.238   2.526  14.699 -0.9458 -0.9972 -1.8571
  667MPD2    H1 9926   2.498   2.239  14.506  2.4019  0.6750 -0.5854
  667MPD2    H2 9927   2.662   2.599  14.667  0.4779 -0.3306  1.5184
  667MPD2    H3 9928   2.690   2.385  14.541 -1.9102 -1.8477 -1.8034
  667MPD2     N 9929   2.248   2.285  14.574  0.1186  0.2675  0.6749
  667MPD2    H5 9930   2.273   2.198  14.529 -0.9618 -1.2725  2.9951
  667MPD2    N1 9931   2.432   2.688  14.764 -0.1484 -0.1348  0.7431
  667MPD2    H7 9932   2.337   2.704  14.797  0.2818 -0.2097  2.0154
  668TMC3    C1 9933   2.462   2.861  14.918  0.1465  0.4868 -0.8559
  668TMC3    C2 9934   2.515   2.989  14.942 -0.2010 -0.4396 -0.4042
  668TMC3    C3 9935   2.478   3.051  15.056  0.3551 -0.3116 -0.0404
  668TMC3    C4 9936   2.381   2.798  15.008  1.0460  0.8569 -0.0654
  668TMC3    C5 9937   2.339   2.869  15.121  0.0225 -0.2306 -0.3124
  668TMC3    C6 9938   2.396   2.991  15.152  0.1601  0.4286 -0.1157
  668TMC3     C 9939   2.515   2.787  14.807 -0.1228  1.1582  0.2776
  668TMC3     O 9940   2.620   2.826  14.753  0.0006 -0.3012 -0.0359
  668TMC3     H 9941   2.587   3.031  14.872  1.0908  0.3176  1.3692
  668TMC3    H1 9942   2.351   2.693  15.005  1.5690  0.7265 -0.6725
  668TMC3    H2 9943   2.375   3.032  15.250 -0.6787 -3.2765  1.2721
  668TMC3    C7 9944   2.283   2.798  15.232  0.3033  0.1166  0.5928
  668TMC3    C8 9945   2.521   3.183  15.099  0.5342  0.2312  0.5351
  668TMC3    O1 9946   2.304   2.833  15.346  0.2350  0.2120  0.1196
  668TMC3    O2 9947   2.481   3.231  15.202  0.0465  0.3933  0.0030
  669TMC3    C1 9948   0.218   2.653  14.883 -0.0854 -0.8687  0.6686
  669TMC3    C2 9949   0.144   2.657  14.770 -0.2383 -0.0737 -0.8517
  669TMC3    C3 9950   0.198   2.720  14.663  0.1456 -0.5865  0.5812
  669TMC3    C4 9951   0.335   2.722  14.901  0.4528 -0.5376 -0.1085
  669TMC3    C5 9952   0.373   2.794  14.791 -0.1584  0.6287  0.9028
  669TMC3    C6 9953   0.312   2.798  14.676 -0.0563 -0.3430 -0.2705
  669TMC3     C 9954   0.169   2.580  14.996  0.1494 -0.5793  0.2875
  669TMC3     O 9955   0.048   2.551  14.997 -0.4795 -0.2752 -0.3243
  669TMC3     H 9956   0.048   2.608  14.762 -0.1104 -1.1101  3.7252
  669TMC3    H1 9957   0.378   2.738  14.999  1.1075  0.5170 -0.5701
  669TMC3    H2 9958   0.368   2.839  14.593  0.2519  0.4941  0.3596
  669TMC3    C7 9959   0.508   2.853  14.796  0.6553  0.2917 -0.3795
  669TMC3    C8 9960   0.147   2.682  14.533 -0.0342 -0.5375  0.3676
  669TMC3    O1 9961   0.527   2.943  14.712 -0.1822 -0.2973 -0.4398
  669TMC3    O2 9962   0.045   2.619  14.532  0.3311 -0.0301  0.2553
  670MPD2     C 9963   3.338   0.699  13.704  0.6380 -0.7245 -0.5727
  670MPD2    C1 9964   3.461   0.675  13.774  0.0674 -0.2822 -0.5184
  670MPD2    C2 9965   3.461   0.576  13.880  0.3231  1.1202 -0.3196
  670MPD2    C3 9966   3.347   0.505  13.907  1.1430  0.6124 -0.5538
  670MPD2    C4 9967   3.233   0.532  13.838 -0.1187 -0.2953  0.4575
  670MPD2    C5 9968   3.227   0.633  13.747  0.0157  0.2991  0.3276
  670MPD2     H 9969   3.550   0.556  13.938 -0.7388 -1.5578  0.3960
  670MPD2    H1 9970   3.141   0.482  13.867  0.3266 -0.4479  1.6277
  670MPD2    H2 9971   3.327   0.772  13.625 -0.8303 -1.3739 -0.9728
  670MPD2    H3 9972   3.140   0.670  13.693  0.0960  0.0144  0.0073
  670MPD2     N 9973   3.348   0.425  14.019  0.3726 -0.3360  0.1788
  670MPD2    H5 9974   3.420   0.459  14.081  0.4294  0.3504 -0.2566
  670MPD2    N1 9975   3.579   0.743  13.743 -0.2014  0.0560  0.1273
  670MPD2    H7 9976   3.661   0.699  13.785 -0.8281 -0.4008  0.8735
  671TMC3    C1 9977   3.306   0.227  14.151  0.7004  0.0622 -0.0949
  671TMC3    C2 9978   3.321   0.291  14.273 -0.4630  0.0607 -0.0000
  671TMC3    C3 9979   3.264   0.238  14.386 -0.3160  0.0725  0.6926
  671TMC3    C4 9980   3.234   0.112  14.141 -0.3543 -0.2350  0.3731
  671TMC3    C5 9981   3.178   0.063  14.258  0.3600  0.8623 -0.1293
  671TMC3    C6 9982   3.194   0.120  14.382 -0.8374 -0.3275 -0.2669
  671TMC3     C 9983   3.285   0.309  14.031  0.1805 -0.0715  0.6430
  671TMC3     O 9984   3.207   0.265  13.951 -0.3127 -0.7109  0.6585
  671TMC3     H 9985   3.362   0.391  14.277  0.1964 -0.3185  2.5661
  671TMC3    H1 9986   3.221   0.062  14.045  1.5679  1.1901 -0.6301
  671TMC3    H2 9987   3.162   0.072  14.474  2.2763 -0.4222  0.7455
  671TMC3    C7 9988   3.095   4.687  14.244  0.1529  0.2347 -0.0995
  671TMC3    C8 9989   3.273   0.305  14.518 -0.4411  0.0913  0.3968
  671TMC3    O1 9990   3.100   4.635  14.131 -0.0825 -0.6239 -0.0804
  671TMC3    O2 9991   3.185   0.280  14.598 -0.2352  0.2213  0.6723
  672MPD2     C 9992   4.225   0.963   0.266 -1.1437  0.9101 -0.0765
  672MPD2    C1 9993   4.177   0.892   0.377 -0.0960  0.0056 -1.1626
  672MPD2    C2 9994   4.232   0.924   0.502  0.1093  0.0848 -0.8102
  672MPD2    C3 9995   4.313   1.037   0.506 -0.1872  0.2617 -0.2032
  672MPD2    C4 9996   4.359   1.096   0.396 -0.4688  0.5677  0.1856
  672MPD2    C5 9997   4.318   1.057   0.277  0.9034 -0.3173 -0.3235
  672MPD2     H 9998   4.193   0.874   0.589  0.8426 -1.5031 -1.3944
  672MPD2    H1 9999   4.431   1.177   0.397 -2.3895  2.2566  1.3090
  672MPD2    H210000   4.194   0.945   0.164  1.0060  1.5252 -0.8432
  672MPD2    H310001   4.359   1.110   0.192 -0.0066  0.1645 -0.4617
  672MPD2     N10002   4.375   1.085   0.625 -0.3088  0.2098 -0.0298
  672MPD2    H510003   4.440   1.162   0.620 -1.0144  0.8270  0.2717
  672MPD2    N110004   4.066   0.813   0.371  0.1725  0.0482  0.0824
  672MPD2    H710005   4.039   0.761   0.454  4.0841 -3.4188 -0.8285
  673TMC3    C110006   3.874   0.706   0.305  0.5710 -0.2244  0.5830
  673TMC3    C210007   3.900   0.596   0.371 -0.0870 -0.5703 -0.1465
  673TMC3    C310008   3.795   0.516   0.413  0.0983  0.0932  0.0189
  673TMC3    C410009   3.745   0.750   0.283  0.3480 -1.1237 -0.5240
  673TMC3    C510010   3.646   0.660   0.316  0.2280  1.2510 -0.3362
  673TMC3    C610011   3.673   0.534   0.369  0.2664 -0.2806  0.0862
  673TMC3     C10012   3.980   0.794   0.265  0.4533 -0.1504 -0.6726
  673TMC3     O10013   3.961   0.859   0.159  0.1999  0.0958 -0.5713
  673TMC3     H10014   4.002   0.567   0.392 -0.2954 -2.7962 -2.2429
  673TMC3    H110015   3.725   0.845   0.235  0.5908 -1.5801 -1.5236
  673TMC3    H210016   3.597   0.458   0.383  0.1856 -0.6097 -2.1500
  673TMC3    C710017   3.509   0.693   0.287  0.1051 -0.3460  0.4351
  673TMC3    C810018   3.820   0.376   0.464  0.9261  0.2346  0.1443
  673TMC3    O110019   3.495   0.790   0.212 -0.0090 -0.6305 -0.0432
  673TMC3    O210020   3.758   0.285   0.413  0.6756 -0.0589 -0.4334
  674MPD2     C10021   2.900   0.790  17.694  0.3311  0.0305 -0.0866
  674MPD2    C110022   2.884   0.686   0.035  0.1183 -0.1589 -1.2085
  674MPD2    C210023   2.788   0.700   0.136  0.1199  0.7465 -0.5573
  674MPD2    C310024   2.700   0.802   0.140 -0.0370  0.4863  0.0502
  674MPD2    C410025   2.704   0.893   0.036 -0.1080 -0.2195  1.3363
  674MPD2    C510026   2.802   0.886  17.691 -0.2080  0.1418 -0.2933
  674MPD2     H10027   2.784   0.628   0.217  0.7910  0.6811 -0.5784
  674MPD2    H110028   2.639   0.979   0.028  2.1742  1.4610  0.8378
  674MPD2    H210029   2.966   0.775  17.609  1.8351  0.1697  1.0569
  674MPD2    H310030   2.799   0.959  17.611 -0.6933  0.4030 -0.0325
  674MPD2     N10031   2.616   0.817   0.253 -0.0259 -0.7557 -0.1611
  674MPD2    H510032   2.628   0.746   0.326 -1.3857 -0.4183  0.3749
  674MPD2    N110033   2.976   0.582   0.035 -0.0163  0.4378 -0.0916
  674MPD2    H710034   3.050   0.587  17.714 -1.0852 -1.5284 -1.3940
  675TMC3    C110035   3.129   0.424   0.139 -0.6219 -0.5815  0.9156
  675TMC3    C210036   3.144   0.337   0.254 -0.2334 -0.2084  0.1896
  675TMC3    C310037   3.265   0.291   0.290  0.1403  0.2836 -0.2005
  675TMC3    C410038   3.240   0.456   0.063  0.2004 -0.3397  0.4627
  675TMC3    C510039   3.355   0.395   0.098  0.2253 -0.1861 -0.7625
  675TMC3    C610040   3.370   0.315   0.210 -0.9347 -0.4105 -0.2488
  675TMC3     C10041   2.993   0.481   0.130 -0.1041  0.3825 -0.8960
  675TMC3     O10042   2.912   0.431   0.208  0.0040 -0.0090  0.2549
  675TMC3     H10043   3.063   0.332   0.326 -1.2623 -0.7138 -1.0042
  675TMC3    H110044   3.235   0.529  17.731  1.5194  1.2975  1.8733
  675TMC3    H210045   3.459   0.265   0.247  0.5725  1.0419 -1.8903
  675TMC3    C710046   3.484   0.417   0.031 -0.6190  0.3092  0.5622
  675TMC3    C810047   3.296   0.289   0.433  0.0180  0.2652  0.4528
  675TMC3    O110048   3.568   0.331   0.050  0.2962 -0.0426  0.3861
  675TMC3    O210049   3.397   0.339   0.482 -0.3352  0.5887 -0.5369
  676MPD2     C10050   1.357   3.172  11.055 -0.7006 -0.0596 -0.3943
  676MPD2    C110051   1.222   3.131  11.053 -0.1414  0.1380 -0.1485
  676MPD2    C210052   1.185   3.038  10.961  0.3151  0.4448  0.1372
  676MPD2    C310053   1.267   2.986  10.867  0.6478  0.0203 -0.4895
  676MPD2    C410054   1.396   3.034  10.867  0.6699 -0.0876 -0.0933
  676MPD2    C510055   1.440   3.131  10.952 -0.3422  0.4900 -0.0802
  676MPD2     H10056   1.083   3.000  10.963  0.3413  0.4974  3.8976
  676MPD2    H110057   1.473   2.991  10.803  1.7929  0.5632  0.8212
  676MPD2    H210058   1.397   3.246  11.123  0.1443  0.7146 -1.7314
  676MPD2    H310059   1.539   3.173  10.942  0.3081 -1.4032 -1.4396
  676MPD2     N10060   1.219   2.888  10.770 -0.1143  0.0692 -0.7875
  676MPD2    H510061   1.123   2.863  10.790 -0.6940  0.0398 -3.6588
  676MPD2    N110062   1.124   3.178  11.141 -0.7779  0.1510 -0.7191
  676MPD2    H710063   1.030   3.141  11.131 -0.4994 -1.5627  2.9881
  677TMC3    C110064   1.027   3.306  11.294  0.8033 -0.1834  0.2537
  677TMC3    C210065   0.910   3.234  11.277 -0.0534  0.1878 -0.9022
  677TMC3    C310066   0.797   3.274  11.349 -1.0267 -0.4165  0.4232
  677TMC3    C410067   1.022   3.424  11.372  0.7481  0.2743 -0.2123
  677TMC3    C510068   0.911   3.459  11.440 -0.4256  0.3407 -0.1308
  677TMC3    C610069   0.793   3.387  11.419  0.3852 -0.1449  0.4821
  677TMC3     C10070   1.150   3.280  11.232 -0.4435  0.2783 -0.3112
  677TMC3     O10071   1.236   3.369  11.222  0.5937  0.4699 -0.3560
  677TMC3     H10072   0.905   3.136  11.231  3.3279 -0.4013 -0.0328
  677TMC3    H110073   1.118   3.471  11.394  0.6929 -0.6702  2.0311
  677TMC3    H210074   0.703   3.426  11.465  0.1200  0.9712 -0.9659
  677TMC3    C710075   0.916   3.549  11.554 -0.1728  0.1163 -0.3790
  677TMC3    C810076   0.693   3.179  11.355  0.2365 -0.5167 -0.0283
  677TMC3    O110077   0.818   3.545  11.630  0.5065 -0.5604  0.4985
  677TMC3    O210078   0.649   3.141  11.245 -0.5420  0.0638  0.0897
  678MPD2     C10079   2.961   3.573   1.435 -0.3150 -0.2079 -0.0523
  678MPD2    C110080   2.893   3.530   1.323  1.0688  0.1509 -0.5287
  678MPD2    C210081   2.760   3.536   1.312  1.5297  0.1275 -0.1461
  678MPD2    C310082   2.676   3.578   1.415 -0.0887 -0.1457  0.1519
  678MPD2    C410083   2.747   3.632   1.521 -0.4659 -0.2115 -0.1140
  678MPD2    C510084   2.886   3.627   1.536 -0.6779  1.1220  0.2109
  678MPD2     H10085   2.713   3.507   1.219  3.8436 -3.6788 -0.1224
  678MPD2    H110086   2.699   3.697   1.593 -1.0561  1.0317 -1.6232
  678MPD2    H210087   3.070   3.572   1.439 -0.3447 -3.3652  0.2806
  678MPD2    H310088   2.936   3.670   1.622 -0.9305  3.1857 -0.6496
  678MPD2     N10089   2.533   3.572   1.398  0.4645  0.6162 -0.0218
  678MPD2    H510090   2.500   3.523   1.315 -3.0259 -0.9634  2.3062
  678MPD2    N110091   2.958   3.475   1.204  0.4724 -0.1920  0.4816
  678MPD2    H710092   2.883   3.436   1.147  0.4271  0.9373 -0.2444
  679TMC3    C110093   3.198   3.206   0.936 -0.6972 -0.5297  0.3203
  679TMC3    C210094   3.202   3.283   1.047  0.1809 -0.0020  0.2962
  679TMC3    C310095   3.100   3.375   1.053  0.3087  1.0782  0.7515
  679TMC3    C410096   3.114   3.224   0.827  0.7311 -0.5958 -0.2685
  679TMC3    C510097   3.016   3.321   0.839 -0.2778  0.2254  0.2625
  679TMC3    C610098   3.006   3.399   0.949  0.2614 -0.1084  0.2037
  679TMC3     C10099   3.284   3.091   0.925  0.3302 -0.2836 -0.0170
  679TMC3     O10100   3.349   3.079   0.817 -0.5812 -0.5023 -0.1001
  679TMC3     H10101   3.264   3.262   1.134  1.7514 -0.4687 -0.9388
  679TMC3    H110102   3.120   3.165   0.736 -2.9053 -1.2100 -0.0890
  679TMC3    H210103   2.952   3.493   0.938  0.4370  0.0936  1.0327
  679TMC3    C710104   2.928   3.345   0.728  0.5963 -0.2441  0.1915
  679TMC3    C810105   3.088   3.445   1.179 -0.0367 -0.0155 -0.0343
  679TMC3    O110106   2.877   3.453   0.740 -0.7449 -0.0047  0.1088
  679TMC3    O210107   3.180   3.449   1.256 -0.5637  0.1153  0.2305
  680MPD2     C10108   2.646   2.224  14.198 -0.4942 -0.3206  0.0464
  680MPD2    C110109   2.731   2.140  14.263 -0.2201 -0.4284 -0.0809
  680MPD2    C210110   2.852   2.190  14.308 -0.1889  0.5444 -0.0423
  680MPD2    C310111   2.883   2.326  14.284 -0.7996  0.0149 -0.6504
  680MPD2    C410112   2.793   2.411  14.228 -0.7558  0.4432  0.4088
  680MPD2    C510113   2.675   2.357  14.184  0.4073  0.0617 -0.6739
  680MPD2     H10114   2.918   2.116  14.352 -0.8218  1.1426  1.9086
  680MPD2    H110115   2.811   2.517  14.211  0.5345  0.4411  1.7650
  680MPD2    H210116   2.548   2.195  14.162  0.2564 -0.9436 -1.5047
  680MPD2    H310117   2.618   2.426  14.123 -0.3531  1.7647  1.9457
  680MPD2     N10118   3.013   2.380  14.310 -0.3586  0.0160  0.1246
  680MPD2    H510119   3.024   2.479  14.290 -2.1943  0.2212  0.0890
  680MPD2    N110120   2.691   2.006  14.299  0.3202 -0.0097  0.4451
  680MPD2    H710121   2.748   1.955  14.365  0.0369  0.5565  1.1151
  681TMC3    C110122   2.574   1.804  14.295 -0.0781 -0.3237 -0.9668
  681TMC3    C210123   2.587   1.797  14.431 -0.3639  0.2894 -0.4018
  681TMC3    C310124   2.616   1.672  14.482 -0.5875  0.4147  0.4127
  681TMC3    C410125   2.599   1.700  14.210  0.0252  0.0342  0.3172
  681TMC3    C510126   2.630   1.574  14.267 -0.4742 -0.7515  0.0802
  681TMC3    C610127   2.638   1.560  14.408  0.6507  0.1497 -0.6433
  681TMC3     C10128   2.587   1.936  14.239  0.4472 -0.3829  0.4358
  681TMC3     O10129   2.533   1.966  14.139 -0.0321 -0.2144 -0.0208
  681TMC3     H10130   2.571   1.888  14.486  0.8760 -0.3667  1.0285
  681TMC3    H110131   2.595   1.709  14.102 -2.2547 -0.2049  0.3937
  681TMC3    H210132   2.669   1.467  14.454  0.6278  0.1863 -0.5543
  681TMC3    C710133   2.712   1.483  14.195  1.0834 -0.0136  0.1237
  681TMC3    C810134   2.622   1.665  14.629  0.1277  0.6496 -0.1081
  681TMC3    O110135   2.723   1.378  14.256 -0.0232  0.2649  0.3574
  681TMC3    O210136   2.626   1.559  14.685 -0.2653  0.0670  0.4279
  682MPD2     C10137   4.331   3.649  10.331  0.0452  0.4970 -0.3575
  682MPD2    C110138   4.283   3.547  10.404 -0.4921  0.0612  0.2676
  682MPD2    C210139   4.278   3.561  10.543 -0.0509  0.4192  0.2015
  682MPD2    C310140   4.319   3.670  10.612  0.2286 -0.0759 -0.2564
  682MPD2    C410141   4.343   3.781  10.539 -0.1228  1.1886  0.1895
  682MPD2    C510142   4.352   3.767  10.400  0.2831 -0.0728  0.6006
  682MPD2     H10143   4.260   3.470  10.599  0.5829  0.2128  0.0742
  682MPD2    H110144   4.373   3.880  10.573 -0.5249  1.3741 -0.0024
  682MPD2    H210145   4.346   3.649  10.224 -0.7726 -0.8444 -0.4715
  682MPD2    H310146   4.380   3.852  10.337  0.2761  0.5619  1.4528
  682MPD2     N10147   4.327   3.659  10.754  0.5593 -0.1706  0.6184
  682MPD2    H510148   4.278   3.578  10.791  1.8455 -1.1220  0.2691
  682MPD2    N110149   4.258   3.420  10.347  0.1474 -0.9390 -0.0517
  682MPD2    H710150   4.230   3.345  10.410 -0.8238 -2.0007 -1.7509
  683TMC3    C110151   4.534   3.662  11.154  0.6597 -0.7286  0.2202
  683TMC3    C210152   4.462   3.552  11.192  0.1347  0.3428 -1.0873
  683TMC3    C310153   4.364   3.516  11.111  0.3705  0.1461  0.8812
  683TMC3    C410154   4.511   3.747  11.049  0.5685  0.1096  0.9333
  683TMC3    C510155   4.397   3.714  10.976 -0.1469  0.4943  0.4342
  683TMC3    C610156   4.326   3.598  11.005  0.1344  0.1233  0.4292
  683TMC3     C10157   4.614   3.716  11.258 -0.5683  0.4236  0.2470
  683TMC3     O10158   4.710   3.788  11.226 -0.1586  0.6041 -0.3510
  683TMC3     H10159   4.511   3.476  11.252  0.3077  0.4695 -1.0671
  683TMC3    H110160   4.575   3.830  11.023  0.0789  0.3488  0.4721
  683TMC3    H210161   4.234   3.571  10.954  0.4274  0.1753 -0.1268
  683TMC3    C710162   4.405   3.746  10.836  0.4202  0.5220 -0.0418
  683TMC3    C810163   4.299   3.386  11.115 -0.3365 -0.0042  0.7272
  683TMC3    O110164   4.485   3.832  10.804  0.7021 -1.4400 -0.2591
  683TMC3    O210165   4.259   3.358  11.004  0.2381  0.1659 -0.0326
  684MPD2     C10166   3.047   2.718  16.307 -0.3821  0.2268 -0.5113
  684MPD2    C110167   3.009   2.822  16.223  0.7048  0.1281 -0.0925
  684MPD2    C210168   2.979   2.946  16.278  0.2089  0.2330  0.2645
  684MPD2    C310169   2.981   2.962  16.414  0.2307  0.4549  0.3303
  684MPD2    C410170   3.006   2.857  16.497 -0.0611  0.2903 -0.3996
  684MPD2    C510171   3.048   2.733  16.443 -0.0207  0.2957  0.0958
  684MPD2     H10172   2.965   3.025  16.205 -0.6689 -1.6751 -1.6468
  684MPD2    H110173   2.987   2.851  16.604 -1.2413  0.9804 -0.5752
  684MPD2    H210174   3.062   2.616  16.272  2.3694  0.2748  0.4889
  684MPD2    H310175   3.065   2.652  16.513  0.0115 -0.2794 -0.5742
  684MPD2     N10176   2.986   3.093  16.466  0.0877 -0.2842  0.0008
  684MPD2    H510177   3.007   3.098  16.565  2.8557 -0.5977 -0.5514
  684MPD2    N110178   3.012   2.814  16.084  0.1801  0.3487  0.4129
  684MPD2    H710179   2.984   2.903  16.043  0.8328  0.5098  0.3236
  685TMC3    C110180   3.060   2.729  15.876  0.1229  0.8891 -0.3531
  685TMC3    C210181   2.962   2.809  15.821  0.0835 -0.0936 -0.0748
  685TMC3    C310182   2.989   2.873  15.700  0.5884  0.3012 -0.6985
  685TMC3    C410183   3.186   2.735  15.823  0.0341 -0.2924  0.7298
  685TMC3    C510184   3.209   2.810  15.712  0.0409  0.4907 -0.1384
  685TMC3    C610185   3.107   2.866  15.638  0.0436  0.7758 -0.0144
  685TMC3     C10186   3.061   2.703  16.017 -0.3818 -0.0052 -0.2645
  685TMC3     O10187   3.120   2.602  16.056  0.2678  0.1136 -0.3651
  685TMC3     H10188   2.865   2.811  15.868 -0.0314  0.2444 -0.3260
  685TMC3    H110189   3.254   2.666  15.870 -0.4430 -1.3740 -0.1818
  685TMC3    H210190   3.141   2.944  15.571  2.6984 -1.4504 -1.2561
  685TMC3    C710191   3.330   2.883  15.710 -0.7528  0.7997 -0.5041
  685TMC3    C810192   2.873   2.932  15.636  0.3919  0.1431  0.1873
  685TMC3    O110193   3.384   2.923  15.607  0.5053 -0.1969 -0.0448
  685TMC3    O210194   2.857   2.936  15.515  0.5238  0.7218  0.5205
  686MPD2     C10195   4.548   3.097  15.611  0.3907  0.0161 -0.3232
  686MPD2    C110196   4.590   3.045  15.728  0.2993 -0.0118 -0.5037
  686MPD2    C210197   4.721   3.001  15.727  0.1123 -0.2321  0.7188
  686MPD2    C310198   0.065   2.987  15.617 -0.4006  0.1100  0.1218
  686MPD2    C410199   0.012   3.033  15.496 -0.0096 -0.1509 -1.2576
  686MPD2    C510200   4.626   3.096  15.497 -0.1343 -0.3930 -0.1928
  686MPD2     H10201   0.027   2.985  15.825  3.1820 -3.5448 -1.1429
  686MPD2    H110202   0.053   3.025  15.396 -2.9978 -1.7516 -2.3607
  686MPD2    H210203   4.449   3.142  15.608 -0.5391 -1.9138  2.1658
  686MPD2    H310204   4.591   3.153  15.412 -3.4812 -2.1210  0.0142
  686MPD2     N10205   0.201   2.937  15.621 -0.2334 -0.3971  0.2682
  686MPD2    H510206   0.252   2.952  15.535  0.5283 -1.1269  0.5932
  686MPD2    N110207   4.506   3.027  15.840 -0.0987 -0.0643  0.6639
  686MPD2    H710208   4.408   3.053  15.840  0.1881  1.0129  0.2736
  687TMC3    C110209   0.196   2.781  15.812 -0.5266  0.3025  0.4720
  687TMC3    C210210   0.081   2.711  15.772  0.6086 -0.1419  0.1778
  687TMC3    C310211   0.017   2.635  15.868 -0.7634 -0.6679  0.0969
  687TMC3    C410212   0.265   2.749  15.930 -0.3092 -0.0297 -0.1523
  687TMC3    C510213   0.201   2.671  16.023  0.0780 -0.4375  0.2107
  687TMC3    C610214   0.072   2.627  15.999 -1.1112  0.3551 -0.4984
  687TMC3     C10215   0.269   2.868  15.716 -0.4340 -0.6664 -0.2167
  687TMC3     O10216   0.389   2.848  15.719  0.5063 -0.4548 -0.1928
  687TMC3     H10217   0.057   2.704  15.667 -1.5799  0.1965  0.6409
  687TMC3    H110218   0.358   2.800  15.955 -2.1660  3.3331 -0.2523
  687TMC3    H210219   0.017   2.576  16.076  1.1609  1.7364  2.0220
  687TMC3    C710220   0.260   2.652  16.145 -0.3673 -0.2730  0.4188
  687TMC3    C810221   4.623   2.581  15.853 -0.0518 -0.1472 -0.2682
  687TMC3    O110222   0.181   2.640  16.238  0.0285  0.3184  0.6409
  687TMC3    O210223   4.579   2.514  15.947 -0.2372 -0.1823  0.3025
  688MPD2     C10224   4.118   1.287  17.666  0.3359  0.5241  0.7827
  688MPD2    C110225   4.017   1.196  17.645  0.3482 -0.3882  0.3904
  688MPD2    C210226   3.986   1.158  17.515  0.1318 -0.1459 -0.5918
  688MPD2    C310227   4.053   1.216  17.409 -0.5581 -0.2443  0.7853
  688MPD2    C410228   4.153   1.307  17.436 -0.3226 -0.2241 -0.0751
  688MPD2    C510229   4.183   1.343  17.560 -0.7774 -0.0103 -0.4101
  688MPD2     H10230   3.901   1.094  17.492  0.8876 -0.5802 -2.2163
  688MPD2    H110231   4.202   1.352  17.351 -2.4092  2.5662  0.2045
  688MPD2    H210232   4.140   1.333   0.014  1.3154  3.0757 -0.6699
  688MPD2    H310233   4.257   1.420  17.580 -1.0284  0.5530 -1.6802
  688MPD2     N10234   4.034   1.183  17.271  0.5154  1.4966  0.0125
  688MPD2    H510235   4.100   1.223  17.205 -0.3750 -0.2584 -1.9072
  688MPD2    N110236   3.946   1.136   0.006 -0.2781  0.0014 -0.3723
  688MPD2    H710237   3.885   1.061  17.723 -0.3392 -0.8025  1.7214
  689TMC3    C110238   3.824   1.119   0.205 -0.5344 -0.1144  0.5859
  689TMC3    C210239   3.815   1.115   0.341  1.0092  0.0958 -0.4164
  689TMC3    C310240   3.689   1.123   0.404  0.7873 -0.2649  0.0910
  689TMC3    C410241   3.708   1.096   0.133 -0.5906 -0.0956 -0.1489
  689TMC3    C510242   3.586   1.080   0.196 -0.2499  0.0576  0.2607
  689TMC3    C610243   3.571   1.103   0.335 -0.0377  0.4969 -0.7201
  689TMC3     C10244   3.938   1.178   0.136 -0.0939  0.1974 -0.2233
  689TMC3     O10245   4.002   1.264   0.192  0.4614 -0.9328  0.0984
  689TMC3     H10246   3.909   1.136   0.391  1.3875  1.1582 -1.5777
  689TMC3    H110247   3.707   1.104   0.025 -1.1259 -2.3447 -0.3098
  689TMC3    H210248   3.473   1.118   0.379  0.6875 -0.9005  1.3507
  689TMC3    C710249   3.465   1.101   0.113  0.2451  0.3669  0.1308
  689TMC3    C810250   3.683   1.201   0.525  0.1069 -0.0935  0.2635
  689TMC3    O110251   3.381   1.181   0.161 -0.3222  0.4318  0.1631
  689TMC3    O210252   3.787   1.262   0.562  0.5413  0.8560  0.3696
  690MPD2     C10253   1.608   3.622  15.903 -0.3985 -0.1762 -0.3567
  690MPD2    C110254   1.534   3.617  15.786 -0.9831  0.1355 -0.2153
  690MPD2    C210255   1.584   3.662  15.669  0.0871 -0.6598  0.0359
  690MPD2    C310256   1.714   3.708  15.658  1.0926 -0.1856 -0.1853
  690MPD2    C410257   1.784   3.722  15.778 -0.3212  0.0267 -0.2082
  690MPD2    C510258   1.732   3.672  15.899  0.1246 -0.2346 -0.4726
  690MPD2     H10259   1.521   3.655  15.581  1.4244  0.2694 -0.9846
  690MPD2    H110260   1.882   3.768  15.782  0.1694 -0.9727 -0.8040
  690MPD2    H210261   1.583   3.580  15.999 -2.4732 -0.9559 -1.2429
  690MPD2    H310262   1.785   3.679  15.994  0.6792 -3.8859 -0.4799
  690MPD2     N10263   1.772   3.747  15.533  0.6845  0.0552 -0.0072
  690MPD2    H510264   1.707   3.771  15.458 -0.2348  0.7815  1.0206
  690MPD2    N110265   1.399   3.567  15.784  0.0491 -0.4933 -0.1005
  690MPD2    H710266   1.350   3.566  15.695  0.8957 -1.3535 -0.5478
  691TMC3    C110267   1.203   3.470  15.848  0.3041 -0.4832 -0.5804
  691TMC3    C210268   1.091   3.495  15.918 -0.1514 -0.3333 -0.2790
  691TMC3    C310269   0.992   3.405  15.896 -0.8349 -0.3425  0.0163
  691TMC3    C410270   1.207   3.380  15.748 -0.2484 -0.0834  0.1177
  691TMC3    C510271   1.109   3.289  15.726 -0.1720 -0.4947 -0.6982
  691TMC3    C610272   0.995   3.302  15.803 -0.0061  0.6423  0.6344
  691TMC3     C10273   1.327   3.524  15.894  0.4410  0.4447 -0.1486
  691TMC3     O10274   1.354   3.531  16.015  0.1315 -0.2240 -0.3215
  691TMC3     H10275   1.089   3.571  15.996  0.2618 -0.2953 -0.3025
  691TMC3    H110276   1.293   3.375  15.682 -0.4771 -0.4012 -0.1575
  691TMC3    H210277   0.907   3.241  15.785  0.8190 -1.0397  2.3573
  691TMC3    C710278   1.123   3.169  15.642 -0.2865 -0.8849  0.2897
  691TMC3    C810279   0.851   3.441  15.928  0.5111 -0.5103  0.1721
  691TMC3    O110280   1.235   3.151  15.592  0.5037 -0.1525  0.3061
  691TMC3    O210281   0.776   3.348  15.937 -0.0361  0.4162  0.0981
  692TMC3    C110282   2.694   4.442  15.887 -0.4210  0.2923 -0.2620
  692TMC3    C210283   2.783   4.500  15.975  0.3239 -0.0537  0.4399
  692TMC3    C310284   2.897   4.435  15.992 -0.2418  0.1696  0.7898
  692TMC3    C410285   2.700   4.309  15.845 -0.4854 -0.2601 -0.6107
  692TMC3    C510286   2.807   4.244  15.886  0.5255 -0.4369  0.2572
  692TMC3    C610287   2.904   4.300  15.963  0.7372  0.0804  0.2334
  692TMC3     C10288   2.565   4.507  15.874  0.4355  0.6258 -0.1583
  692TMC3     O10289   2.501   4.478  15.772  0.3639 -0.0986 -0.0093
  692TMC3     H10290   2.778   4.608  15.990 -1.2871 -0.0708  0.0094
  692TMC3    H110291   2.612   4.268  15.795 -1.3802  0.4610  0.3780
  692TMC3    H210292   2.997   4.248  15.986  1.5479  1.3845 -0.0647
  692TMC3    C710293   2.816   4.102  15.842  0.1313  0.2868  0.7122
  692TMC3    C810294   2.981   4.474  16.103  0.3302 -0.1569 -0.2972
  692TMC3    O110295   2.757   4.080  15.738 -0.0188 -0.2265  0.2872
  692TMC3    O210296   3.071   4.389  16.127 -1.0530  0.4716 -0.8423
  693MPD2     C10297   2.137   2.276  10.633  0.0799 -0.2024 -0.1734
  693MPD2    C110298   2.055   2.307  10.740 -0.9209 -0.4550  0.3105
  693MPD2    C210299   2.112   2.355  10.852 -0.2563  0.4801  0.5155
  693MPD2    C310300   2.251   2.369  10.867  0.1138 -0.8238  0.2279
  693MPD2    C410301   2.330   2.346  10.756  0.0910 -0.1789 -0.6967
  693MPD2    C510302   2.271   2.309  10.642  0.1043  0.3494  0.3187
  693MPD2     H10303   2.041   2.372  10.933  0.2742 -0.6383  1.2228
  693MPD2    H110304   2.437   2.366  10.753  0.2585 -0.7728  1.1445
  693MPD2    H210305   2.104   2.241  10.536  1.7551 -0.9702 -0.4660
  693MPD2    H310306   2.329   2.305  10.550  0.8645 -0.0488  0.8111
  693MPD2     N10307   2.305   2.390  10.997 -0.0575  0.4368  0.3918
  693MPD2    H510308   2.407   2.391  11.006  0.1671  1.5924 -2.2463
  693MPD2    N110309   1.915   2.281  10.734 -0.1227 -0.5617 -0.2844
  693MPD2    H710310   1.867   2.297  10.822 -0.1387  0.0820 -0.4120
  694TMC3    C110311   1.732   2.155  10.662 -0.0921  0.2804  0.0281
  694TMC3    C210312   1.640   2.131  10.563 -0.9187 -0.3486 -0.2047
  694TMC3    C310313   1.523   2.063  10.605  0.5374  0.8469 -0.0552
  694TMC3    C410314   1.707   2.139  10.799  0.2148 -0.2470  0.3146
  694TMC3    C510315   1.588   2.084  10.833  0.8325 -0.3834 -0.3536
  694TMC3    C610316   1.502   2.025  10.742  0.8640  0.1479  0.3111
  694TMC3     C10317   1.858   2.221  10.622 -0.3588 -0.5576  1.0256
  694TMC3     O10318   1.880   2.227  10.501 -0.2119 -0.2682  0.6595
  694TMC3     H10319   1.661   2.165  10.463 -0.0568 -2.2076 -0.6358
  694TMC3    H110320   1.777   2.140  10.883  1.3517 -0.5222 -0.6327
  694TMC3    H210321   1.411   1.975  10.773 -0.9475  2.5844 -1.0653
  694TMC3    C710322   1.555   2.104  10.975 -0.0568  0.3581 -0.7239
  694TMC3    C810323   1.427   2.017  10.507 -0.0508 -0.4156  0.1665
  694TMC3    O110324   1.595   2.210  11.023 -0.9260  0.1172 -0.6321
  694TMC3    O210325   1.335   1.944  10.542  0.0800 -0.4352  0.2886
  695MPD2     C10326   3.449   4.214  13.854  0.2924  0.2956  0.7268
  695MPD2    C110327   3.383   4.271  13.963 -0.3666 -0.3359 -0.0083
  695MPD2    C210328   3.246   4.278  13.976  0.6609 -0.1504 -0.1870
  695MPD2    C310329   3.176   4.226  13.863  0.0530 -0.4802  0.2165
  695MPD2    C410330   3.240   4.159  13.752 -0.4628 -0.4504  0.1313
  695MPD2    C510331   3.377   4.158  13.744 -1.0208 -0.2467  0.1844
  695MPD2     H10332   3.200   4.318  14.066  1.8146  0.4571  0.1368
  695MPD2    H110333   3.178   4.113  13.676 -0.0618 -1.9542  0.7158
  695MPD2    H210334   3.557   4.203  13.848  0.1441 -1.1892  0.6066
  695MPD2    H310335   3.433   4.128  13.657 -0.2892  0.3522  0.4451
  695MPD2     N10336   3.032   4.235  13.865  0.2479 -0.5686 -0.1808
  695MPD2    H510337   2.985   4.276  13.945 -1.0905 -0.2817 -1.1193
  695MPD2    N110338   3.463   4.322  14.067 -0.0783  0.3804  0.1752
  695MPD2    H710339   3.410   4.371  14.138 -0.1372 -0.3296  0.6204
  696TMC3    C110340   2.815   4.222  13.772 -0.3619  0.1583  0.0890
  696TMC3    C210341   2.768   4.221  13.894 -0.7897 -0.8170 -0.2213
  696TMC3    C310342   2.665   4.304  13.921 -0.3021  0.1686 -0.2378
  696TMC3    C410343   2.759   4.286  13.664 -0.5056  0.1759  0.5545
  696TMC3    C510344   2.658   4.373  13.692  0.0193 -0.1257 -0.2135
  696TMC3    C610345   2.603   4.371  13.819 -0.6096 -0.1202  0.2589
  696TMC3     C10346   2.957   4.207  13.755 -0.3947  1.3372 -0.0170
  696TMC3     O10347   2.993   4.210  13.634  0.3174  0.0748 -0.0428
  696TMC3     H10348   2.810   4.166  13.977 -1.0317 -0.8422 -0.1171
  696TMC3    H110349   2.816   4.305  13.574 -0.1563 -1.6688  0.3750
  696TMC3    H210350   2.515   4.432  13.839 -0.2027  0.3948  0.4651
  696TMC3    C710351   2.666   4.509  13.637  0.1355  0.0661  0.4660
  696TMC3    C810352   2.712   4.391  14.023 -0.6854 -0.0806  0.3322
  696TMC3    O110353   2.673   4.513  13.516 -0.6431 -0.0238 -0.0368
  696TMC3    O210354   2.773   4.484  13.977 -0.5040 -0.1383  0.3587
  697MPD2     C10355   2.708   1.437  15.540  0.5163 -0.2065  0.3412
  697MPD2    C110356   2.613   1.381  15.450 -0.7647  0.3018 -0.1669
  697MPD2    C210357   2.534   1.463  15.378 -0.7618 -0.2729  0.0368
  697MPD2    C310358   2.545   1.602  15.392  0.1697  0.1236 -0.2156
  697MPD2    C410359   2.630   1.652  15.492  0.1380 -0.9899 -0.7479
  697MPD2    C510360   2.709   1.571  15.567  0.6333 -0.3632  0.9973
  697MPD2     H10361   2.467   1.420  15.304 -1.2932  0.5306  0.0575
  697MPD2    H110362   2.636   1.757  15.520 -2.8660 -1.6191  2.2760
  697MPD2    H210363   2.784   1.379  15.590  0.1612 -1.5542 -0.6934
  697MPD2    H310364   2.780   1.609  15.640 -0.6319  1.0624  1.4798
  697MPD2     N10365   2.493   1.684  15.290 -0.2132  0.0276  0.0995
  697MPD2    H510366   2.430   1.643  15.222 -0.3734 -0.1181  0.3342
  697MPD2    N110367   2.598   1.241  15.417  0.1369  0.5713 -0.3921
  697MPD2    H710368   2.525   1.214  15.352 -0.2105 -0.8654  0.6068
  698TMC3    C110369   2.472   1.876  15.148  0.2621 -0.3103  0.3662
  698TMC3    C210370   2.527   1.998  15.115  0.2208  0.4040 -0.2308
  698TMC3    C310371   2.478   2.067  15.008 -0.4912 -0.1021  0.3515
  698TMC3    C410372   2.370   1.810  15.076  0.8993 -0.3501 -0.0178
  698TMC3    C510373   2.326   1.891  14.970 -0.4434 -0.0383  0.3218
  698TMC3    C610374   2.371   2.020  14.940  0.3291 -0.7028  0.3463
  698TMC3     C10375   2.531   1.815  15.267 -0.7847 -0.5757  0.5207
  698TMC3     O10376   2.620   1.883  15.319 -0.3377 -0.3929  0.7205
  698TMC3     H10377   2.622   2.030  15.156 -0.4274  2.4028 -0.3187
  698TMC3    H110378   2.327   1.716  15.110 -0.8169  0.6537  0.6161
  698TMC3    H210379   2.324   2.080  14.862  1.7764 -2.9210 -2.2621
  698TMC3    C710380   2.257   1.817  14.864  0.0465  0.1507 -0.7817
  698TMC3    C810381   2.569   2.146  14.938  0.1730 -0.1265  0.3842
  698TMC3    O110382   2.210   1.884  14.772  0.1046 -0.4204 -0.5853
  698TMC3    O210383   2.555   2.141  14.814  0.6267 -0.2468 -0.1306
  699TMC3    C110384   2.749   4.245  13.143 -0.3784 -0.1095 -0.6427
  699TMC3    C210385   2.843   4.169  13.208 -0.2169 -0.2375 -0.4019
  699TMC3    C310386   2.792   4.070  13.283  0.3107 -0.3216 -0.5591
  699TMC3    C410387   2.616   4.253  13.173 -0.0920  0.5950  0.1296
  699TMC3    C510388   2.573   4.151  13.253 -0.1737 -0.5900  0.2914
  699TMC3    C610389   2.659   4.064  13.312 -1.0173  0.3919 -0.1507
  699TMC3     C10390   2.778   4.324  13.017 -0.3638 -0.0870 -0.3393
  699TMC3     O10391   2.679   4.347  12.946 -0.0865 -0.4247 -0.0937
  699TMC3     H10392   2.949   4.178  13.188 -0.1640 -0.4005 -0.2020
  699TMC3    H110393   2.549   4.328  13.132 -0.2396  0.8519  0.8452
  699TMC3    H210394   2.622   4.002  13.393 -0.4160  0.8447  0.4657
  699TMC3    C710395   2.440   4.161  13.308  0.1247  0.8977  0.2226
  699TMC3    C810396   2.872   3.992  13.371 -0.5172 -0.1410  0.0719
  699TMC3    O110397   2.426   4.159  13.427 -0.3637  0.4115 -0.5944
  699TMC3    O210398   2.818   3.948  13.474  0.0069  0.2298  0.2962
  700TMC3    C110399   1.772   1.813  17.222  0.1818 -0.1745  0.3058
  700TMC3    C210400   1.859   1.743  17.143  0.9522 -0.1027 -0.0453
  700TMC3    C310401   1.977   1.691  17.203  0.0199  0.4217  0.2404
  700TMC3    C410402   1.788   1.812  17.358  0.0037 -0.5345 -0.6249
  700TMC3    C510403   1.897   1.751  17.413 -0.3574  0.7601  0.5893
  700TMC3    C610404   1.989   1.685  17.340 -0.4170 -0.1097  0.0507
  700TMC3     C10405   1.703   1.925  17.172  0.1141  0.1182 -0.8836
  700TMC3     O10406   1.585   1.905  17.148 -0.2024  0.4226 -0.1254
  700TMC3     H10407   1.852   1.738  17.035  1.4228 -1.2153 -0.0282
  700TMC3    H110408   1.718   1.874  17.412  1.5397  2.6970 -2.3763
  700TMC3    H210409   2.080   1.637  17.374 -0.4841  0.9945  1.7872
  700TMC3    C710410   1.942   1.807  17.535  0.3631  0.3060 -0.7212
  700TMC3    C810411   2.068   1.613  17.108  0.3723 -0.3089 -0.1714
  700TMC3    O110412   2.064   1.810  17.553  0.2450  0.4420 -0.6048
  700TMC3    O210413   2.023   1.570  17.003 -0.4641 -0.4491 -0.9094
  701TMC3    C110414   2.013   0.584  15.818 -1.2197  0.1388  1.0365
  701TMC3    C210415   2.072   0.562  15.697 -0.7379  0.2725 -0.1349
  701TMC3    C310416   2.172   0.649  15.659 -0.3193  0.1803  0.1989
  701TMC3    C410417   2.049   0.685  15.907 -0.6369  0.2456 -0.5478
  701TMC3    C510418   2.147   0.765  15.864  1.0871  0.0151  0.5832
  701TMC3    C610419   2.215   0.744  15.747 -0.1922 -0.5386 -0.0183
  701TMC3     C10420   1.935   0.485  15.888 -0.3751 -0.9886  0.0127
  701TMC3     O10421   1.868   0.518  15.982 -0.2874  0.2961 -0.0004
  701TMC3     H10422   2.051   0.475  15.636 -0.5820 -0.4129  0.7797
  701TMC3    H110423   1.995   0.696  16.000 -3.4984 -1.6677 -1.9608
  701TMC3    H210424   2.296   0.811  15.724  0.0724 -1.3323 -1.4172
  701TMC3    C710425   2.138   0.910  15.893  0.2428  0.1846  0.5405
  701TMC3    C810426   2.185   0.694  15.518 -0.0457 -0.1719  0.2616
  701TMC3    O110427   2.175   0.976  15.799  0.3597 -0.0586  0.1924
  701TMC3    O210428   2.277   0.763  15.480 -0.0914 -0.3882  0.2150
  702MPD2     C10429   0.964   2.869  10.073  0.0792  0.1396  0.6855
  702MPD2    C110430   0.935   2.894  10.205  0.0752  0.5560  0.2529
  702MPD2    C210431   0.852   3.006  10.234 -0.3431 -0.1256  0.1579
  702MPD2    C310432   0.812   3.101  10.141  0.1775 -0.1469 -0.0036
  702MPD2    C410433   0.846   3.071  10.009  0.1645 -0.3290  0.1650
  702MPD2    C510434   0.904   2.952   9.980 -0.0268 -0.1151  0.3642
  702MPD2     H10435   0.826   3.022  10.338  0.0373 -2.3696  0.5979
  702MPD2    H110436   0.818   3.126   9.920 -0.2563  1.4257  1.3874
  702MPD2    H210437   1.019   2.786  10.031  0.7147  0.4748  0.8453
  702MPD2    H310438   0.927   2.927   9.877  0.0725 -1.6402  0.7545
  702MPD2     N10439   0.736   3.217  10.159 -1.1963 -0.5367 -0.2179
  702MPD2    H510440   0.705   3.268  10.077  0.2698 -0.9559 -1.0161
  702MPD2    N110441   0.975   2.817  10.319 -0.5398  0.0019  0.7452
  702MPD2    H710442   0.937   2.838  10.411  0.2140 -0.5528  1.1873
  703TMC3    C110443   0.842   3.270  10.376 -0.1396  0.7043  0.6635
  703TMC3    C210444   0.821   3.281  10.515  0.3483 -0.3713  0.4253
  703TMC3    C310445   0.930   3.276  10.600 -0.0003  0.2748  0.8811
  703TMC3    C410446   0.971   3.266  10.327 -0.2954 -1.3220  0.6234
  703TMC3    C510447   1.075   3.256  10.417  0.1066  0.7902  0.4639
  703TMC3    C610448   1.059   3.252  10.554 -0.0688  0.0016 -0.7891
  703TMC3     C10449   0.730   3.291  10.279  0.1976  0.2026 -0.2515
  703TMC3     O10450   0.659   3.384  10.317  0.4013  0.1302 -0.4880
  703TMC3     H10451   0.724   3.312  10.553  0.8503  0.5458  0.9665
  703TMC3    H110452   0.986   3.261  10.219 -1.0716 -0.9993  0.4994
  703TMC3    H210453   1.140   3.246  10.626 -1.7108  2.7260  1.3113
  703TMC3    C710454   1.209   3.262  10.363 -0.4768  0.2308  0.8743
  703TMC3    C810455   0.911   3.312  10.741  0.2594 -0.3667  1.3104
  703TMC3    O110456   1.307   3.243  10.432  0.2212 -0.0617  0.1607
  703TMC3    O210457   1.014   3.349  10.798 -0.1595 -0.1535  0.4421
  704TMC3    C110458   3.421   1.263  13.128  0.2776 -0.8185  0.0514
  704TMC3    C210459   3.448   1.333  13.011 -0.8026 -0.2985  0.1644
  704TMC3    C310460   3.539   1.433  13.025  0.3294 -0.2540 -0.6394
  704TMC3    C410461   3.494   1.283  13.246 -0.0244  0.3340 -0.3275
  704TMC3    C510462   3.594   1.378  13.248  0.1973 -0.5276  0.5307
  704TMC3    C610463   3.620   1.458  13.135 -0.2037 -0.2873  0.0852
  704TMC3     C10464   3.355   1.136  13.111 -0.2429  0.0192  0.0143
  704TMC3     O10465   3.318   1.079  13.214  0.7530 -0.1873 -0.0763
  704TMC3     H10466   3.374   1.331  12.933  0.0345 -0.5695 -0.6200
  704TMC3    H110467   3.468   1.222  13.332 -1.1371 -0.0698 -0.9481
  704TMC3    H210468   3.699   1.531  13.138 -1.1928  0.7721  0.6222
  704TMC3    C710469   3.710   1.360  13.331 -0.5206 -0.1602  0.1168
  704TMC3    C810470   3.611   1.438  12.897  0.1269 -0.0479  0.5351
  704TMC3    O110471   3.782   1.456  13.348  0.6560  0.2791  0.6052
  704TMC3    O210472   3.578   1.350  12.820 -0.2390 -0.2177  0.0208
  705MPD2     C10473   3.249   4.435  17.097 -0.4544  0.6978  0.0020
  705MPD2    C110474   3.219   4.398  16.969  0.1508  0.1186  0.3773
  705MPD2    C210475   3.087   4.376  16.934  0.4270  0.4555 -0.4003
  705MPD2    C310476   2.994   4.400  17.032  0.0185 -0.4569 -0.2283
  705MPD2    C410477   3.024   4.440  17.158  0.8792 -0.3633  0.1244
  705MPD2    C510478   3.154   4.441  17.197 -0.1861  0.0825  0.6494
  705MPD2     H10479   3.073   4.355  16.829 -0.5007  0.7067 -0.3253
  705MPD2    H110480   2.954   4.484  17.229  2.6160 -0.5730  1.9921
  705MPD2    H210481   3.350   4.460  17.127  0.6721 -1.8694 -1.6289
  705MPD2    H310482   3.173   4.493  17.291  2.4186 -0.0612  0.1951
  705MPD2     N10483   2.861   4.409  16.997  1.0121  0.4823 -0.1789
  705MPD2    H510484   2.807   4.469  17.059 -1.1909 -1.5159 -0.1900
  705MPD2    N110485   3.321   4.399  16.873 -0.0871  0.4665 -0.2011
  705MPD2    H710486   3.407   4.453  16.885 -0.8021  1.4966  0.3176
  706TMC3    C110487   3.536   4.285  16.473  0.1963 -0.3444 -0.3309
  706TMC3    C210488   3.570   4.411  16.439 -0.1930 -0.8959  0.5340
  706TMC3    C310489   3.542   4.510  16.529 -0.2088 -0.5520  0.0084
  706TMC3    C410490   3.451   4.259  16.575  0.8315  1.1033 -0.4921
  706TMC3    C510491   3.415   4.365  16.655 -0.5174 -0.3074 -0.2426
  706TMC3    C610492   3.460   4.490  16.638  0.2380  0.3699 -0.4712
  706TMC3     C10493   3.624   4.181  16.447 -0.2024  0.2449 -0.5782
  706TMC3     O10494   3.633   4.088  16.528  0.2729 -0.0334  0.0460
  706TMC3     H10495   3.647   4.428  16.365  0.2636 -1.1434  0.9571
  706TMC3    H110496   3.413   4.161  16.601  2.0728  0.9907  0.8602
  706TMC3    H210497   3.417   4.575  16.690 -0.7508 -0.5791  0.2543
  706TMC3    C710498   3.314   4.326  16.754  0.4255 -0.2738 -0.4040
  706TMC3    C810499   3.555   4.646  16.475  0.1059 -0.2104  1.0923
  706TMC3    O110500   3.234   4.244  16.714  0.2112  0.6305  0.2214
  706TMC3    O210501   3.571   4.653  16.356  0.0498  0.4939 -0.5097
  707TMC3    C110502   0.653   3.664   2.236  0.0284  0.0912  0.0472
  707TMC3    C210503   0.569   3.582   2.166 -0.1374 -0.3893 -0.2901
  707TMC3    C310504   0.516   3.627   2.053 -0.1578 -0.7108  0.3925
  707TMC3    C410505   0.688   3.785   2.190 -0.3513  0.7269  0.4278
  707TMC3    C510506   0.637   3.824   2.069 -0.7687  0.1894  0.5947
  707TMC3    C610507   0.555   3.745   1.992 -0.1704  0.3886 -0.2694
  707TMC3     C10508   0.741   3.590   2.325 -0.2128 -0.2914  0.9230
  707TMC3     O10509   0.702   3.490   2.382  0.5016 -0.1899  0.4066
  707TMC3     H10510   0.535   3.494   2.219 -0.5443 -0.1056 -0.0760
  707TMC3    H110511   0.754   3.855   2.239  0.7738 -1.3567  1.8973
  707TMC3    H210512   0.521   3.771   1.892 -1.4831 -1.2321 -0.2485
  707TMC3    C710513   0.638   3.961   2.036  0.1739 -0.3953  0.0509
  707TMC3    C810514   0.424   3.548   1.969 -1.3247  0.4428 -1.0582
  707TMC3    O110515   0.672   4.047   2.120 -0.3229 -0.0331 -0.0075
  707TMC3    O210516   0.348   3.615   1.903 -0.5687  0.0879  0.2227
  708MPD2     C10517   1.777   3.042  14.034  0.1392 -0.3897 -0.1398
  708MPD2    C110518   1.690   2.994  14.123  0.1435  0.2198 -0.1140
  708MPD2    C210519   1.728   2.894  14.214  0.3568  0.1384 -0.1768
  708MPD2    C310520   1.859   2.852  14.219  0.7799  0.8995 -0.4216
  708MPD2    C410521   1.951   2.916  14.137 -0.1564 -0.1308 -0.3991
  708MPD2    C510522   1.909   3.002  14.039 -0.1406  0.6325  0.3002
  708MPD2     H10523   1.654   2.856  14.284 -0.0202 -0.7991 -1.0914
  708MPD2    H110524   2.056   2.894  14.145 -0.2720 -1.3169 -2.1712
  708MPD2    H210525   1.756   3.124  13.967  0.1168  1.0973  1.6772
  708MPD2    H310526   1.985   3.049  13.979  0.0160 -0.5638 -0.4492
  708MPD2     N10527   1.898   2.753  14.311  0.1402 -0.5176  0.1946
  708MPD2    H510528   1.995   2.727  14.323  0.4066  0.4848  0.1906
  708MPD2    N110529   1.560   3.040  14.103 -0.6843  0.1947  0.1960
  708MPD2    H710530   1.546   3.101  14.024 -0.1421 -2.2249 -1.7764
  709TMC3    C110531   1.333   3.075  14.135 -0.5226 -0.7064  0.2410
  709TMC3    C210532   1.319   3.031  14.005 -0.4665 -0.3849 -0.3427
  709TMC3    C310533   1.244   2.922  13.987 -0.6967  0.7729  0.5737
  709TMC3    C410534   1.243   3.028  14.231 -0.2026  0.3999 -0.3129
  709TMC3    C510535   1.157   2.925  14.204 -0.0748 -0.5695  1.2527
  709TMC3    C610536   1.169   2.865  14.088 -0.1815  0.3003  0.1814
  709TMC3     C10537   1.457   3.034  14.192  0.2139 -0.2767 -0.1091
  709TMC3     O10538   1.452   2.982  14.306 -0.1674 -0.5035  0.4732
  709TMC3     H10539   1.380   3.074  13.925  0.9153 -1.7107  0.0088
  709TMC3    H110540   1.241   3.077  14.328  0.9469  0.6479 -0.4098
  709TMC3    H210541   1.096   2.786  14.074  1.1623 -1.0144  0.6285
  709TMC3    C710542   1.117   2.847  14.321 -0.2391 -0.3020 -0.2273
  709TMC3    C810543   1.275   2.834  13.878  1.1042 -1.0248 -0.2202
  709TMC3    O110544   1.020   2.775  14.303 -0.4812  0.1616 -0.3078
  709TMC3    O210545   1.215   2.732  13.880 -0.0221  0.0591  0.4234
  710TMC3    C110546   2.289   3.827   0.397 -0.7280 -0.5445 -0.8301
  710TMC3    C210547   2.279   3.864   0.264 -0.3000 -0.3931  0.2588
  710TMC3    C310548   2.362   3.800   0.178 -0.7064 -0.4654 -0.9733
  710TMC3    C410549   2.383   3.734   0.445 -0.1642 -0.7738 -0.0467
  710TMC3    C510550   2.455   3.665   0.350 -0.0622 -0.2036 -0.4825
  710TMC3    C610551   2.442   3.690   0.211  0.0560  0.1297 -0.5113
  710TMC3     C10552   2.214   3.894   0.499  0.0552  0.5609  0.4891
  710TMC3     O10553   2.179   4.009   0.478  0.2280  0.2841 -0.1626
  710TMC3     H10554   2.218   3.949   0.235 -1.4915 -0.9873  0.9928
  710TMC3    H110555   2.413   3.716   0.547  0.0920 -1.2775 -0.2138
  710TMC3    H210556   2.508   3.648   0.137  2.2750  0.4823  1.2669
  710TMC3    C710557   2.569   3.592   0.396 -0.3229 -0.1732  0.3956
  710TMC3    C810558   2.405   3.868   0.059 -0.7449  0.1123  0.0236
  710TMC3    O110559   2.614   3.620   0.506 -0.2870  0.1316  0.4930
  710TMC3    O210560   2.456   3.806  17.713  0.2819 -0.2931 -0.1623
  711TMC3    C110561   2.578   0.114  15.141  0.1238  0.2218 -0.3745
  711TMC3    C210562   2.613   0.224  15.211 -0.0079  1.4463  0.2049
  711TMC3    C310563   2.727   0.207  15.289 -0.0896 -0.1718 -0.2059
  711TMC3    C410564   2.637   4.726  15.142 -0.7281 -0.1316  0.3179
  711TMC3    C510565   2.751   4.714  15.221 -0.4862  0.2995 -0.1868
  711TMC3    C610566   2.793   0.086  15.288 -0.2337 -0.2504  0.4829
  711TMC3     C10567   2.454   0.110  15.064 -0.4016  0.8560 -0.1108
  711TMC3     O10568   2.441   0.018  14.984  0.3586  0.3585  0.4944
  711TMC3     H10569   2.568   0.321  15.194 -0.2225  1.2519 -0.3369
  711TMC3    H110570   2.576   4.640  15.119 -1.3290  0.5748 -0.7268
  711TMC3    H210571   2.872   0.071  15.360 -0.1908  1.8829  0.8772
  711TMC3    C710572   2.799   4.583  15.258 -0.2575 -0.5934 -0.4730
  711TMC3    C810573   2.769   0.332  15.355  0.4425  0.2311 -0.4003
  711TMC3    O110574   2.883   4.578  15.345 -0.2892 -0.0684 -0.1513
  711TMC3    O210575   2.701   0.429  15.341  0.4535  0.4064  0.0990
  712MPD2     C10576   3.899   1.065  14.150  0.3985 -0.1583  0.8683
  712MPD2    C110577   3.801   1.147  14.090  0.2651 -1.0894 -0.1793
  712MPD2    C210578   3.825   1.280  14.075  0.2216  0.5136  0.5311
  712MPD2    C310579   3.946   1.334  14.113  0.0288  0.0765  0.2863
  712MPD2    C410580   4.043   1.255  14.168 -0.1787  0.2032  0.6345
  712MPD2    C510581   4.020   1.122  14.189 -0.6707 -1.0366 -0.3259
  712MPD2     H10582   3.750   1.335  14.019 -2.9801 -1.3280  2.9593
  712MPD2    H110583   4.141   1.293  14.196  1.6411 -2.0400 -2.6781
  712MPD2    H210584   3.880   0.958  14.154  2.0562 -0.4015  2.2655
  712MPD2    H310585   4.102   1.064  14.229  2.0298  1.1464 -2.7533
  712MPD2     N10586   3.982   1.463  14.088 -0.1634  0.2191  0.9492
  712MPD2    H510587   4.078   1.486  14.109  0.3436 -1.5935  0.6228
  712MPD2    N110588   3.681   1.102  14.043  0.9941 -0.3859 -0.4434
  712MPD2    H710589   3.621   1.166  13.991 -1.8708 -1.7938  1.1022
  713TMC3    C110590   3.973   1.678  14.010 -0.3689 -0.1962  0.4276
  713TMC3    C210591   4.096   1.671  13.947  0.4386  0.0312 -0.1095
  713TMC3    C310592   4.152   1.792  13.920 -0.0978 -0.4215  0.1243
  713TMC3    C410593   3.909   1.797  14.026 -0.0852 -0.1889 -0.8513
  713TMC3    C510594   3.967   1.915  13.987 -0.7728  0.5856  0.0018
  713TMC3    C610595   4.092   1.912  13.930 -0.8061  0.0318  0.8093
  713TMC3     C10596   3.898   1.556  14.038  0.0059  0.0718 -0.3264
  713TMC3     O10597   3.774   1.563  14.054 -0.3820 -0.3807  0.2627
  713TMC3     H10598   4.150   1.577  13.948 -0.1411 -0.3013 -0.7318
  713TMC3    H110599   3.816   1.797  14.081 -0.0006 -0.2712 -0.7086
  713TMC3    H210600   4.147   2.005  13.924  0.9229 -1.0972 -0.7779
  713TMC3    C710601   3.918   2.040  14.032  0.3482  0.1201 -0.6238
  713TMC3    C810602   4.284   1.788  13.851 -0.3383  0.4197 -0.4388
  713TMC3    O110603   3.994   2.130  14.057  0.5087  0.2227 -0.2902
  713TMC3    O210604   4.295   1.881  13.772  0.0335 -0.0461 -0.2653
  714MPD2     C10605   0.922   0.260   1.570 -0.5011 -0.4352  0.9018
  714MPD2    C110606   0.960   0.143   1.513  0.8242 -0.2421  0.2018
  714MPD2    C210607   0.888   0.084   1.421  0.5264  0.2725  0.1036
  714MPD2    C310608   0.769   0.147   1.385  0.4724  0.3147 -0.2293
  714MPD2    C410609   0.729   0.266   1.437 -0.0254 -0.3717 -0.0066
  714MPD2    C510610   0.807   0.324   1.532 -1.1686 -0.0234  0.3849
  714MPD2     H10611   0.926   0.007   1.355  0.0004 -0.7746  1.0091
  714MPD2    H110612   0.644   0.326   1.407 -0.0573 -0.7966 -0.7651
  714MPD2    H210613   0.984   0.317   1.638  1.7595 -0.9974 -0.6973
  714MPD2    H310614   0.777   0.417   1.580 -1.2689  0.2753 -0.2520
  714MPD2     N10615   0.697   0.079   1.281  0.4212 -0.2370 -0.4510
  714MPD2    H510616   0.734   4.729   1.246 -1.1464 -1.0322 -0.1458
  714MPD2    N110617   1.083   0.085   1.554  0.3337  0.3689 -0.2654
  714MPD2    H710618   1.145   0.145   1.607  0.0932 -0.8145  1.3508
  715TMC3    C110619   1.272   4.676   1.522  0.1985 -0.4675  0.0018
  715TMC3    C210620   1.314   4.551   1.485 -0.1584  0.1593  0.2228
  715TMC3    C310621   1.449   4.536   1.454 -0.6727  0.2535  0.2512
  715TMC3    C410622   1.352   0.047   1.513 -0.5114  0.0967  0.1595
  715TMC3    C510623   1.487   0.025   1.486 -0.0126 -0.8644  1.0967
  715TMC3    C610624   1.538   4.638   1.468 -0.7370 -0.0580 -0.8019
  715TMC3     C10625   1.127   4.698   1.509  0.7101  0.9946 -0.0873
  715TMC3     O10626   1.067   4.603   1.465 -0.0006  0.4592  0.3666
  715TMC3     H10627   1.250   4.464   1.496  1.2248 -0.9330 -0.3458
  715TMC3    H110628   1.317   0.149   1.522  0.3887  0.4470 -0.2698
  715TMC3    H210629   1.645   4.630   1.455 -0.7722  1.6098 -2.0449
  715TMC3    C710630   1.582   0.130   1.503  0.4976 -0.0700 -0.2230
  715TMC3    C810631   1.493   4.399   1.423 -0.0798  0.0235 -0.3834
  715TMC3    O110632   1.705   0.102   1.495  0.1938 -0.1432  0.4672
  715TMC3    O210633   1.399   4.319   1.412 -0.5452  0.6846 -0.2109
  716MPD2     C10634   0.260   2.653  10.219  0.1350  1.3825  0.5589
  716MPD2    C110635   0.269   2.663  10.084  0.0044 -0.6030  0.2260
  716MPD2    C210636   0.355   2.571  10.015 -0.7193 -1.3588 -0.2879
  716MPD2    C310637   0.417   2.467  10.086 -0.0778 -0.2606  0.2523
  716MPD2    C410638   0.388   2.457  10.221 -0.1833 -0.0363 -0.3092
  716MPD2    C510639   0.319   2.550  10.292  0.2000 -0.4957  0.6693
  716MPD2     H10640   0.378   2.595   9.912 -1.1613 -0.3157 -0.1474
  716MPD2    H110641   0.430   2.379  10.283  1.8251  1.6630  0.4572
  716MPD2    H210642   0.199   2.728  10.268 -2.6185  0.0034 -0.8168
  716MPD2    H310643   0.312   2.528  10.398 -0.8709 -2.2426  0.2460
  716MPD2     N10644   0.477   2.360  10.017 -0.3966 -0.6438 -0.1856
  716MPD2    H510645   0.503   2.380   9.922  1.4275  2.0908  0.9015
  716MPD2    N110646   0.195   2.755  10.005  0.6817 -0.0194  0.4177
  716MPD2    H710647   0.138   2.824  10.052  1.0691  2.3517 -2.6247
  717TMC3    C110648   0.525   2.132   9.979 -0.3806  0.2132 -0.3821
  717TMC3    C210649   0.417   2.060   9.925 -1.4364  0.2516 -0.6694
  717TMC3    C310650   0.443   1.984   9.813  0.0991  0.5380 -0.0488
  717TMC3    C410651   0.645   2.140   9.913 -0.4235 -0.0772  0.8785
  717TMC3    C510652   0.658   2.058   9.799 -0.4165  0.1064  0.4422
  717TMC3    C610653   0.564   1.981   9.743 -0.0632 -0.1245  0.3463
  717TMC3     C10654   0.488   2.235  10.074 -0.0389  0.2220  0.0230
  717TMC3     O10655   0.429   2.185  10.168 -0.4520  0.0227 -0.0597
  717TMC3     H10656   0.317   2.073   9.964 -1.0638 -1.0660  0.7820
  717TMC3    H110657   0.723   2.206   9.949 -0.2974  0.8916 -1.2245
  717TMC3    H210658   0.592   1.908   9.668 -0.0681  0.8834 -0.6391
  717TMC3    C710659   0.794   2.008   9.789  0.4482 -0.1097 -0.0235
  717TMC3    C810660   0.344   1.892   9.756 -0.6118  0.2360 -0.4560
  717TMC3    O110661   0.859   2.007   9.895  0.3965 -0.2289 -0.4228
  717TMC3    O210662   0.357   1.857   9.634 -0.0509  0.1044 -0.1280
  718MPD2     C10663   0.630   1.456  12.956 -0.1470  0.2151  0.5390
  718MPD2    C110664   0.533   1.479  12.863 -0.0602  0.4587 -0.7703
  718MPD2    C210665   0.409   1.442  12.896  0.3373 -1.1736 -0.2302
  718MPD2    C310666   0.375   1.365  13.006 -0.2793 -0.0198 -0.4452
  718MPD2    C410667   0.474   1.330  13.091 -0.5746 -0.0680  0.7015
  718MPD2    C510668   0.595   1.380  13.063  0.1136 -0.7890 -0.3475
  718MPD2     H10669   0.325   1.451  12.828 -0.5717 -0.3079  0.9893
  718MPD2    H110670   0.462   1.270  13.180  0.0137 -1.5376 -0.2137
  718MPD2    H210671   0.733   1.487  12.940 -0.1349  0.4739  1.1233
  718MPD2    H310672   0.677   1.366  13.133  0.7914 -1.3997 -1.2651
  718MPD2     N10673   0.239   1.328  13.033 -0.7268  0.6574  0.6070
  718MPD2    H510674   0.176   1.356  12.959 -2.2397 -1.5757  1.0706
  718MPD2    N110675   0.569   1.545  12.742  0.3020 -0.1780  0.0828
  718MPD2    H710676   0.667   1.573  12.735  0.9168 -2.5255 -0.7439
  719TMC3    C110677   0.540   1.641  12.514 -0.3413  0.1072  0.0321
  719TMC3    C210678   0.448   1.618  12.414  0.4238  0.5983  0.4670
  719TMC3    C310679   0.380   1.722  12.350 -0.4770  0.3240 -0.2927
  719TMC3    C410680   0.578   1.768  12.545 -0.3869  0.3898  0.0317
  719TMC3    C510681   0.511   1.869  12.475 -0.1694  0.0229 -0.1952
  719TMC3    C610682   0.416   1.854  12.381 -0.3240 -0.5529 -0.1075
  719TMC3     C10683   0.487   1.560  12.627 -0.9597 -0.2217 -0.6130
  719TMC3     O10684   0.375   1.506  12.621 -0.8613  0.3058 -0.0300
  719TMC3     H10685   0.431   1.515  12.383  1.5968  0.3932  0.5271
  719TMC3    H110686   0.644   1.791  12.628  0.0631  0.6935 -0.4092
  719TMC3    H210687   0.353   1.935  12.345  0.9794  0.2357 -0.5841
  719TMC3    C710688   0.565   2.003  12.486  0.4700 -0.2851  0.0283
  719TMC3    C810689   0.233   1.697  12.337  0.7849  0.7492  0.4312
  719TMC3    O110690   0.545   2.078  12.392 -0.0069  0.3019  0.1465
  719TMC3    O210691   0.165   1.793  12.299  0.3106  0.0072  0.5464
  720MPD2     C10692   4.113   3.148  14.050  0.0025  0.1621 -0.1504
  720MPD2    C110693   4.123   3.285  14.023 -0.2712 -0.1102 -0.0207
  720MPD2    C210694   4.208   3.355  14.110 -0.2704  1.1677 -0.5172
  720MPD2    C310695   4.286   3.299  14.207 -0.4614  0.5307  0.5031
  720MPD2    C410696   4.275   3.158  14.221 -0.0643  0.2670 -0.1733
  720MPD2    C510697   4.192   3.084  14.142  0.0001 -0.3310 -0.0885
  720MPD2     H10698   4.212   3.462  14.096  0.8862  1.1422 -0.3564
  720MPD2    H110699   4.336   3.113  14.299  0.5348  2.5149  0.6602
  720MPD2    H210700   4.036   3.091  14.000  0.8582 -0.1388 -1.1059
  720MPD2    H310701   4.174   2.979  14.164 -2.4314  0.7821  3.2519
  720MPD2     N10702   4.380   3.371  14.276  0.4121 -0.1876 -1.2164
  720MPD2    H510703   4.405   3.462  14.239  2.8350 -0.2287  0.3415
  720MPD2    N110704   4.057   3.351  13.917  0.1397 -0.5776  0.2089
  720MPD2    H710705   4.087   3.447  13.902 -0.6233 -0.3673  0.0383
  721TMC3    C110706   4.559   3.409  14.425  0.3184 -0.5901 -0.4438
  721TMC3    C210707   4.591   3.421  14.560  0.2030 -0.6044 -0.6804
  721TMC3    C310708   4.722   3.426  14.602  0.1643  0.1516 -0.3571
  721TMC3    C410709   4.656   3.408  14.331 -0.0011  0.6617  0.3788
  721TMC3    C510710   0.045   3.426  14.374  0.4956  0.6926 -0.2043
  721TMC3    C610711   0.080   3.426  14.511  1.1351  0.0912 -0.6340
  721TMC3     C10712   4.444   3.330  14.396  0.1873  0.2001  0.0387
  721TMC3     O10713   4.424   3.236  14.471 -1.0027 -0.1406  0.1478
  721TMC3     H10714   4.504   3.427  14.624 -2.0229  1.3320 -3.8913
  721TMC3    H110715   4.632   3.377  14.230 -0.6871  1.2959  0.3505
  721TMC3    H210716   0.182   3.449  14.538  1.6752 -0.4624 -2.2146
  721TMC3    C710717   0.151   3.367  14.290  0.0707  0.6689  0.2557
  721TMC3    C810718   0.023   3.454  14.743 -0.1826 -0.4462  0.2864
  721TMC3    O110719   0.155   3.386  14.171  0.3799 -0.3607 -0.5967
  721TMC3    O210720   0.131   3.510  14.761 -0.5359 -0.8686 -0.4628
  722MPD2     C10721   3.019   2.135  13.578 -0.4001  0.6221 -0.6970
  722MPD2    C110722   2.911   2.060  13.612 -0.4302 -0.3018  0.2097
  722MPD2    C210723   2.824   2.040  13.511 -0.4918  0.4117 -0.0021
  722MPD2    C310724   2.833   2.104  13.386  0.1624 -0.0840 -0.3142
  722MPD2    C410725   2.948   2.171  13.358 -0.2482 -0.2548 -0.1638
  722MPD2    C510726   3.036   2.194  13.461 -0.2212  0.0660  0.0308
  722MPD2     H10727   2.737   1.978  13.533 -0.0087 -0.3221 -0.1795
  722MPD2    H110728   2.962   2.212  13.258  2.8943  0.9461  0.7522
  722MPD2    H210729   3.092   2.168  13.650  0.1555 -1.4386 -0.3214
  722MPD2    H310730   3.109   2.272  13.443 -1.2174  1.2779  1.3072
  722MPD2     N10731   2.721   2.087  13.293 -0.1058 -0.0829  0.1361
  722MPD2    H510732   2.648   2.021  13.317 -0.7926  0.6898  0.1648
  722MPD2    N110733   2.895   2.001  13.738  0.2591 -0.3518 -0.8988
  722MPD2    H710734   2.860   1.907  13.725 -1.7904  0.4042 -0.8008
  723TMC3    C110735   2.563   2.162  13.134  0.7442 -0.2959  0.4169
  723TMC3    C210736   2.530   2.040  13.077 -0.2581 -0.0944 -0.7870
  723TMC3    C310737   2.439   2.038  12.969 -0.4365 -0.5452 -0.1112
  723TMC3    C410738   2.507   2.281  13.095  0.7607 -0.0917 -0.3467
  723TMC3    C510739   2.404   2.273  13.005  0.1542 -0.1601  0.3481
  723TMC3    C610740   2.374   2.156  12.935  0.4082  0.2010 -0.2791
  723TMC3     C10741   2.691   2.177  13.197  0.5259 -0.9314 -0.0263
  723TMC3     O10742   2.754   2.278  13.163  0.7974 -0.0413 -0.0709
  723TMC3     H10743   2.610   1.968  13.081 -0.4984 -0.2899  0.4630
  723TMC3    H110744   2.540   2.371  13.146 -1.1823  0.2454  0.2951
  723TMC3    H210745   2.284   2.146  12.874  0.5897 -2.0240 -0.2051
  723TMC3    C710746   2.324   2.394  12.971  0.1109 -0.4621  0.3046
  723TMC3    C810747   2.391   1.913  12.914  0.0385 -0.4851 -0.0274
  723TMC3    O110748   2.266   2.388  12.861  0.5862  0.4584 -0.1363
  723TMC3    O210749   2.421   1.812  12.975  0.7942  0.0540 -0.4905
  724TMC3    C110750   2.362   4.452   9.970 -0.1659  0.6025 -0.1936
  724TMC3    C210751   2.292   4.569   9.954  0.6248  0.0987 -0.1654
  724TMC3    C310752   2.361   4.685   9.929 -1.1070 -0.4586  0.5643
  724TMC3    C410753   2.498   4.453   9.964  0.0691  0.2260 -0.8145
  724TMC3    C510754   2.559   4.571   9.929  0.1505  0.4103 -0.2879
  724TMC3    C610755   2.495   4.693   9.927  0.1396 -0.0549 -0.6308
  724TMC3     C10756   2.292   4.339  10.016  0.6422 -0.1254 -0.4510
  724TMC3     O10757   2.169   4.347  10.013  0.3512 -0.1802  0.4076
  724TMC3     H10758   2.184   4.575   9.940  0.2134 -1.4764  2.4650
  724TMC3    H110759   2.557   4.363   9.961 -0.7076 -0.3158  0.2191
  724TMC3    H210760   2.558   0.045   9.934 -0.3957  0.3601 -1.1242
  724TMC3    C710761   2.706   4.566   9.897  0.4030  0.2318  0.7182
  724TMC3    C810762   2.273   0.065   9.920  0.1558 -0.4549  0.4131
  724TMC3    O110763   2.770   4.464   9.922  0.0994  0.3826 -0.0703
  724TMC3    O210764   2.163   0.057   9.976  0.3276  0.3726 -0.0431
  725TMC3    C110765   4.453   3.772  13.253 -0.7117 -0.0091 -0.3746
  725TMC3    C210766   4.339   3.835  13.201 -0.4802  0.0806 -0.3134
  725TMC3    C310767   4.290   3.788  13.083  0.5262  0.5262 -0.1073
  725TMC3    C410768   4.511   3.665  13.182  0.1481  0.6700 -0.4697
  725TMC3    C510769   4.454   3.627  13.065 -0.6406 -0.9020 -0.0204
  725TMC3    C610770   4.347   3.688  13.010  0.1846 -0.2719 -0.8410
  725TMC3     C10771   4.548   3.846  13.341  0.5690  0.2760  0.1344
  725TMC3     O10772   4.535   3.969  13.341 -0.0932 -0.3766  0.6817
  725TMC3     H10773   4.285   3.907  13.261 -1.4435  0.0104 -1.1035
  725TMC3    H110774   4.605   3.619  13.211 -1.1346 -1.1822  0.6813
  725TMC3    H210775   4.306   3.637  12.924 -0.7110 -0.3861 -0.3419
  725TMC3    C710776   4.511   3.510  13.000 -0.0350 -0.2220  0.1995
  725TMC3    C810777   4.168   3.847  13.038 -0.5675  0.6827 -0.0093
  725TMC3    O110778   4.502   3.501  12.881 -0.2649  0.3675 -0.4701
  725TMC3    O210779   4.108   3.910  13.125 -0.5021 -0.3771  0.0311
  726MPD2     C10780   1.441   0.310  10.178  0.4946 -0.7824  0.6172
  726MPD2    C110781   1.560   0.352  10.243 -0.0090  0.4918  0.4084
  726MPD2    C210782   1.632   0.250  10.308  0.3118  0.0757  0.1162
  726MPD2    C310783   1.588   0.119  10.307 -0.1666 -0.6839  0.7317
  726MPD2    C410784   1.475   0.089  10.241  0.4697  0.4139 -0.7422
  726MPD2    C510785   1.400   0.176  10.173 -0.7514  0.3115  0.1240
  726MPD2     H10786   1.725   0.273  10.357  0.0611 -0.5087  0.8638
  726MPD2    H110787   1.447   4.724  10.218 -0.7208  0.6591 -0.3722
  726MPD2    H210788   1.373   0.382  10.133  0.6281 -1.7481 -1.1200
  726MPD2    H310789   1.309   0.136  10.129 -1.7156  1.9697  0.6228
  726MPD2     N10790   1.660   0.007  10.359 -0.0306  0.0463  0.6430
  726MPD2    H510791   1.617   4.653  10.347 -0.6188  0.2218  1.3931
  726MPD2    N110792   1.603   0.487  10.253 -0.4190 -0.3866 -0.0212
  726MPD2    H710793   1.697   0.501  10.288 -0.0203  0.0738 -1.2643
  727TMC3    C110794   1.571   0.728  10.232  0.8647  1.0386 -0.3680
  727TMC3    C210795   1.686   0.752  10.302 -0.4820 -0.0749  0.2183
  727TMC3    C310796   1.697   0.877  10.364  0.0753 -0.9949 -0.5468
  727TMC3    C410797   1.474   0.828  10.212 -0.3621 -0.3125  0.4310
  727TMC3    C510798   1.492   0.949  10.274 -1.0509  0.2477 -0.4376
  727TMC3    C610799   1.603   0.976  10.351  1.0086 -0.6491 -0.0206
  727TMC3     C10800   1.522   0.596  10.231 -0.2509  0.1660 -0.4495
  727TMC3     O10801   1.399   0.592  10.215  0.1301  0.5210 -0.3262
  727TMC3     H10802   1.760   0.673  10.316  0.8656  1.1611  0.1269
  727TMC3    H110803   1.391   0.802  10.146  1.4223  0.6302 -2.1790
  727TMC3    H210804   1.598   1.060  10.419 -1.4086 -0.1693 -0.7728
  727TMC3    C710805   1.385   1.050  10.268  0.3804  0.1847  0.1594
  727TMC3    C810806   1.824   0.929  10.415  0.4304 -0.9657  0.3507
  727TMC3    O110807   1.403   1.163  10.316 -0.1703  0.1049  0.5051
  727TMC3    O210808   1.906   0.849  10.452  0.2428 -0.3541 -0.0799
  728TMC3    C110809   1.947   3.835  15.389 -0.1963  0.5227 -0.2851
  728TMC3    C210810   2.066   3.905  15.389  0.4163  0.9241 -0.1638
  728TMC3    C310811   2.109   3.955  15.268 -0.1926  0.3116 -0.9725
  728TMC3    C410812   1.865   3.822  15.280  0.5509 -0.8066 -0.5018
  728TMC3    C510813   1.911   3.883  15.166 -0.7148  0.4667 -1.0649
  728TMC3    C610814   2.033   3.946  15.151  0.1870 -0.2252 -0.0931
  728TMC3     C10815   1.901   3.771  15.518 -0.0090 -0.4384  0.7451
  728TMC3     O10816   1.996   3.740  15.590 -0.5409 -0.0703 -0.1819
  728TMC3     H10817   2.107   3.913  15.489  2.4161 -2.4023 -0.7342
  728TMC3    H110818   1.771   3.768  15.285 -0.7210  1.5290  0.8061
  728TMC3    H210819   2.078   3.983  15.059 -0.9961  0.5943 -0.3470
  728TMC3    C710820   1.816   3.884  15.057  0.0875 -0.1014 -0.3392
  728TMC3    C810821   2.194   4.070  15.270  0.1537  0.3616 -0.5322
  728TMC3    O110822   1.732   3.794  15.057 -0.0472  0.3837  0.1681
  728TMC3    O210823   2.185   4.144  15.170  0.0127  0.0204 -0.0026
  729MPD2     C10824   3.928   4.306  16.694 -0.6864 -0.0636  0.5900
  729MPD2    C110825   3.900   4.437  16.679 -0.8403 -0.3617  0.0369
  729MPD2    C210826   3.801   4.497  16.753 -0.0332 -0.6347 -0.3231
  729MPD2    C310827   3.729   4.420  16.846 -0.0225 -0.2939  0.4192
  729MPD2    C410828   3.762   4.289  16.866 -0.5554 -0.0774 -0.0607
  729MPD2    C510829   3.859   4.235  16.786  0.0592 -0.5232  0.1357
  729MPD2     H10830   3.785   4.603  16.741 -0.1808 -0.5732  0.4471
  729MPD2    H110831   3.719   4.223  16.940  0.0725  1.5486  1.7691
  729MPD2    H210832   4.013   4.259  16.647 -0.7140  2.1540 -1.6831
  729MPD2    H310833   3.879   4.129  16.797  0.8255 -0.3465  0.4791
  729MPD2     N10834   3.640   4.475  16.941 -0.0833 -0.8775  0.0077
  729MPD2    H510835   3.628   4.421  17.026  0.3965  0.7575  1.1149
  729MPD2    N110836   3.977   4.512  16.591  0.4987 -0.0732  0.0435
  729MPD2    H710837   4.047   4.454  16.546  1.0085  0.5705  0.0056
  730TMC3    C110838   3.617   4.685  17.068 -0.4284  0.6426 -0.7964
  730TMC3    C210839   3.745   4.672  17.110 -0.2143  0.3121  0.0369
  730TMC3    C310840   3.812   0.042  17.157 -0.3867  0.9016  0.9721
  730TMC3    C410841   3.550   0.064  17.051  0.0651  0.2695  0.4923
  730TMC3    C510842   3.623   0.169  17.097 -0.3628  0.7942  0.0381
  730TMC3    C610843   3.752   0.161  17.154 -0.3095  0.4204 -0.3701
  730TMC3     C10844   3.599   4.611  16.943  0.1358  0.0819  0.0261
  730TMC3     O10845   3.579   4.678  16.844 -0.3607  0.2491 -0.0848
  730TMC3     H10846   3.790   4.574  17.100  0.9640  0.9892 -1.3863
  730TMC3    H110847   3.448   0.077  17.014  0.9182 -1.5286 -2.5041
  730TMC3    H210848   3.807   0.253  17.166 -0.2119  0.1558  1.1841
  730TMC3    C710849   3.577   0.297  17.063 -0.7784  0.2008 -0.2461
  730TMC3    C810850   3.959   0.033  17.149 -0.1092  0.4133  0.4250
  730TMC3    O110851   3.511   0.312  16.963 -0.6994 -0.0701  0.4084
  730TMC3    O210852   4.012   4.686  17.074  0.1074 -0.9660  0.3510
  731MPD2     C10853   4.606   2.694  12.471  0.4166  0.6390 -0.5011
  731MPD2    C110854   4.474   2.688  12.456  0.1267  0.1867 -0.0296
  731MPD2    C210855   4.398   2.643  12.562 -0.2800  0.5921  0.2815
  731MPD2    C310856   4.455   2.599  12.682  0.8930 -1.1860  0.7041
  731MPD2    C410857   4.593   2.590  12.681  0.0937 -0.4723  0.0046
  731MPD2    C510858   4.669   2.629  12.576  0.2792 -0.3877  0.2295
  731MPD2     H10859   4.290   2.641  12.558 -0.2851  1.0675  0.1616
  731MPD2    H110860   4.648   2.558  12.768  0.2866  1.4321  0.5806
  731MPD2    H210861   4.666   2.753  12.404  1.6785 -0.5441 -0.4182
  731MPD2    H310862   0.038   2.628  12.595  0.6090 -0.9990 -1.6127
  731MPD2     N10863   4.373   2.569  12.792  0.0717  0.3411  0.2046
  731MPD2    H510864   4.273   2.580  12.786  0.1814  0.4081 -1.5385
  731MPD2    N110865   4.416   2.749  12.348 -0.3599 -1.0473  0.2733
  731MPD2    H710866   4.474   2.779  12.269 -2.3763 -1.2004 -1.2702
  732TMC3    C110867   4.252   2.823  12.192  0.0020  0.0232 -0.8571
  732TMC3    C210868   4.139   2.775  12.125 -0.2544 -0.1539  0.1354
  732TMC3    C310869   4.119   2.822  12.003  0.3360 -0.5282 -0.3637
  732TMC3    C410870   4.337   2.918  12.140  0.6416 -0.3678  0.3025
  732TMC3    C510871   4.296   2.968  12.014 -0.7627  0.4167 -0.5321
  732TMC3    C610872   4.190   2.923  11.948  0.0499  0.5687  0.2579
  732TMC3     C10873   4.281   2.765  12.322 -0.4788  0.2713  0.1970
  732TMC3     O10874   4.183   2.744  12.388  0.1435 -0.0806 -0.1099
  732TMC3     H10875   4.088   2.687  12.164  0.1116  0.5087  2.1310
  732TMC3    H110876   4.413   2.961  12.204 -1.0035 -0.0838  2.0577
  732TMC3    H210877   4.158   2.962  11.852 -1.6540 -0.2525  0.4772
  732TMC3    C710878   4.347   3.096  11.972 -0.1066 -0.1752  0.5285
  732TMC3    C810879   4.016   2.759  11.925 -0.2068 -0.3097 -0.6907
  732TMC3    O110880   4.272   3.172  11.913  0.8470  0.6524  0.0742
  732TMC3    O210881   4.046   2.738  11.807 -0.2684 -0.4261 -0.1068
  733TMC3    C110882   4.554   1.327  13.198  0.8855  0.2635 -0.4510
  733TMC3    C210883   4.688   1.293  13.228 -0.5607  0.1797  0.3201
  733TMC3    C310884   0.034   1.273  13.126 -0.7771 -0.2015  0.4792
  733TMC3    C410885   4.512   1.319  13.072 -0.1257  0.0901  0.2571
  733TMC3    C510886   4.602   1.296  12.968  0.2807 -0.7669 -0.3297
  733TMC3    C610887   4.735   1.278  12.995  0.4233 -0.2394 -0.5895
  733TMC3     C10888   4.457   1.363  13.298  0.4953  0.9984  0.0288
  733TMC3     O10889   4.361   1.426  13.255 -0.4541  0.8520 -0.2383
  733TMC3     H10890   4.730   1.293  13.328 -1.2014 -2.3791  0.5854
  733TMC3    H110891   4.409   1.341  13.047 -0.4093 -0.0281  1.3488
  733TMC3    H210892   0.062   1.240  12.916  0.8696  1.2656 -0.9518
  733TMC3    C710893   4.552   1.344  12.837  0.2188  0.4836  0.1737
  733TMC3    C810894   0.181   1.275  13.147 -0.1835 -0.3981 -0.5126
  733TMC3    O110895   4.433   1.342  12.811 -0.1979  0.1587 -0.1202
  733TMC3    O210896   0.225   1.235  13.254  0.1569 -0.6160  0.0267
  734MPD2     C10897   2.084   4.013  12.436  0.0899  0.1842 -0.1572
  734MPD2    C110898   1.979   3.947  12.380 -0.2646 -0.0131 -0.0789
  734MPD2    C210899   1.996   3.866  12.268  0.6298 -0.0090 -0.3699
  734MPD2    C310900   2.119   3.868  12.205 -0.2626 -0.6632  0.4899
  734MPD2    C410901   2.225   3.930  12.260 -0.5393 -0.1266  0.3719
  734MPD2    C510902   2.206   4.011  12.372  0.6426  0.7652  0.0283
  734MPD2     H10903   1.921   3.800  12.226 -0.9002 -0.0510  2.3939
  734MPD2    H110904   2.325   3.929  12.218 -0.0883 -0.5711  1.4601
  734MPD2    H210905   2.079   4.074  12.526  0.3398 -1.7532  1.1581
  734MPD2    H310906   2.298   4.057  12.406  0.9271  0.1943  0.0230
  734MPD2     N10907   2.115   3.804  12.080  0.1581 -0.7305  0.0002
  734MPD2    H510908   2.026   3.763  12.053  1.6772 -2.9186 -1.6105
  734MPD2    N110909   1.861   3.942  12.450  0.6855  0.2033  0.1258
  734MPD2    H710910   1.861   3.980  12.544 -1.0164 -0.3286  0.3484
  735TMC3    C110911   1.667   3.819  12.519  0.8921 -0.3708 -0.2820
  735TMC3    C210912   1.579   3.734  12.462  0.7422  0.5367  0.1359
  735TMC3    C310913   1.578   3.599  12.487 -0.4079  0.2979  0.1927
  735TMC3    C410914   1.750   3.771  12.614  0.7591  0.1528 -0.4557
  735TMC3    C510915   1.757   3.632  12.635  1.0593  0.0390  0.4451
  735TMC3    C610916   1.673   3.544  12.569  0.0712 -0.5983 -0.1035
  735TMC3     C10917   1.743   3.876  12.408  0.0028 -0.8088  0.2640
  735TMC3     O10918   1.715   3.824  12.298 -0.0573 -0.4130  0.1344
  735TMC3     H10919   1.513   3.773  12.386 -1.9095  0.1299  2.2525
  735TMC3    H110920   1.808   3.845  12.667 -2.2617  0.5193  2.3267
  735TMC3    H210921   1.670   3.437  12.582 -0.4501 -0.9121 -2.8104
  735TMC3    C710922   1.895   3.598  12.653  0.3491 -0.0533  0.5065
  735TMC3    C810923   1.561   3.513  12.369  0.4063 -0.6070 -0.3398
  735TMC3    O110924   1.975   3.683  12.625 -0.5752 -0.0532 -0.2004
  735TMC3    O210925   1.573   3.398  12.388 -0.2929 -0.0194  0.1097
  736MPD2     C10926   2.046   3.295  12.787 -0.0886  0.4807 -0.1795
  736MPD2    C110927   2.042   3.405  12.697  0.4719 -0.7159  1.1180
  736MPD2    C210928   2.158   3.443  12.629  0.5269  0.4736 -0.8436
  736MPD2    C310929   2.274   3.374  12.638  0.4501 -0.5256  0.9626
  736MPD2    C410930   2.284   3.269  12.730 -0.2464 -0.2563  0.6657
  736MPD2    C510931   2.168   3.234  12.797  0.7489  0.3237 -0.2916
  736MPD2     H10932   2.150   3.519  12.552  0.4343 -0.4741 -1.7729
  736MPD2    H110933   2.371   3.204  12.736 -0.2596 -0.5447 -2.2244
  736MPD2    H210934   1.959   3.262  12.843 -0.0880  0.0602 -0.4221
  736MPD2    H310935   2.186   3.158  12.872  2.0933  0.9185 -0.0103
  736MPD2     N10936   2.388   3.390  12.553 -0.0893 -0.3355 -0.6750
  736MPD2    H510937   2.462   3.323  12.572 -0.9327 -1.3537 -0.9965
  736MPD2    N110938   1.917   3.470  12.694  0.4371 -0.0477  0.3459
  736MPD2    H710939   1.841   3.422  12.742 -0.2688  0.1433 -0.5805
  737TMC3    C110940   2.523   3.471  12.380 -0.3755 -0.1215  0.1659
  737TMC3    C210941   2.541   3.571  12.292 -0.2281  0.5449 -0.3062
  737TMC3    C310942   2.648   3.568  12.211 -0.4395  0.1821  0.4766
  737TMC3    C410943   2.602   3.362  12.385  0.0126  0.1811 -0.4356
  737TMC3    C510944   2.698   3.359  12.290 -0.1313  0.5884 -0.1855
  737TMC3    C610945   2.726   3.459  12.205 -0.1675  0.5649  0.7289
  737TMC3     C10946   2.398   3.488  12.458  0.0317  0.0147  0.5577
  737TMC3     O10947   2.332   3.589  12.441 -0.9788  0.1926 -0.4277
  737TMC3     H10948   2.486   3.664  12.281 -2.0022 -0.4768 -0.0185
  737TMC3    H110949   2.595   3.292  12.467 -0.3799 -0.3910 -0.9628
  737TMC3    H210950   2.789   3.439  12.118  1.1218  1.2027  1.5242
  737TMC3    C710951   2.766   3.228  12.268 -0.4171 -0.1104  0.3032
  737TMC3    C810952   2.652   3.645  12.089 -0.4739 -0.6897  0.2477
  737TMC3    O110953   2.698   3.132  12.308  0.2375  0.4832  0.0934
  737TMC3    O210954   2.754   3.714  12.071 -0.1460  0.2583  0.2307
  738MPD2     C10955   2.824   2.275  14.831 -0.1887 -0.1239 -0.3519
  738MPD2    C110956   2.770   2.290  14.957 -0.1907  0.9498 -0.7461
  738MPD2    C210957   2.840   2.357  15.054 -0.3554 -0.9699 -0.0322
  738MPD2    C310958   2.956   2.425  15.017 -0.2785  1.0256  0.4407
  738MPD2    C410959   3.005   2.408  14.890 -0.0801  0.7473 -0.0868
  738MPD2    C510960   2.944   2.325  14.805  0.1344  0.2342 -0.0335
  738MPD2     H10961   2.799   2.373  15.153 -0.4914 -0.6337 -0.1440
  738MPD2    H110962   3.103   2.440  14.856  0.4089  0.6015  1.1567
  738MPD2    H210963   2.772   2.228  14.748 -0.5780  0.8964 -0.6820
  738MPD2    H310964   2.999   2.303  14.714  2.3074 -1.5093  1.7211
  738MPD2     N10965   3.024   2.507  15.107 -0.3433 -0.2561  0.5504
  738MPD2    H510966   3.101   2.564  15.075  0.2421 -2.4000 -1.8738
  738MPD2    N110967   2.654   2.221  15.006 -0.6464 -0.0363 -0.4271
  738MPD2    H710968   2.631   2.232  15.104  0.6242 -3.1707  0.1986
  739TMC3    C110969   3.104   2.590  15.329 -0.2599  0.3636  0.7768
  739TMC3    C210970   3.163   2.690  15.252 -0.4015  0.6441  0.5088
  739TMC3    C310971   3.296   2.714  15.268  0.0631  0.4133 -0.0457
  739TMC3    C410972   3.161   2.534  15.439 -0.4035  0.2537 -0.0367
  739TMC3    C510973   3.289   2.584  15.470 -0.5936 -0.4368 -0.6974
  739TMC3    C610974   3.355   2.673  15.385 -0.0002  0.5313  0.3716
  739TMC3     C10975   3.010   2.502  15.249 -1.0945  1.0403  0.3560
  739TMC3     O10976   2.950   2.418  15.315  0.5077 -0.4942 -0.1843
  739TMC3     H10977   3.112   2.731  15.166  1.0937  1.5444  0.0565
  739TMC3    H110978   3.110   2.457  15.496  2.2475 -0.5171  1.3088
  739TMC3    H210979   3.462   2.683  15.394  0.1086  0.7783 -1.3329
  739TMC3    C710980   3.351   2.536  15.592 -0.2075 -0.2341  0.4510
  739TMC3    C810981   3.351   2.681  15.135  0.1347 -0.8646  0.1682
  739TMC3    O110982   3.289   2.451  15.650  0.4355  0.1115 -0.6966
  739TMC3    O210983   3.276   2.621  15.057  0.1786  0.1625 -0.1065
  740TMC3    C110984   3.807   3.564  14.671  0.8701 -0.1061  0.5746
  740TMC3    C210985   3.804   3.449  14.749  0.1871 -0.1366  0.2154
  740TMC3    C310986   3.911   3.359  14.754 -1.1143 -0.5270 -0.0435
  740TMC3    C410987   3.917   3.596  14.608  0.4640 -0.7877  0.1945
  740TMC3    C510988   4.020   3.505  14.614 -0.1864  0.7320 -0.4311
  740TMC3    C610989   4.026   3.395  14.693  0.0326  0.4539  0.3843
  740TMC3     C10990   3.744   3.680  14.731 -0.0966  0.4120 -0.8474
  740TMC3     O10991   3.806   3.786  14.723 -0.2846  0.4102  0.1173
  740TMC3     H10992   3.707   3.415  14.783 -0.1279  0.3950 -0.1610
  740TMC3    H110993   3.927   3.683  14.544 -2.1498 -1.7891 -1.5752
  740TMC3    H210994   4.119   3.339  14.688 -1.1363 -1.2981 -1.7831
  740TMC3    C710995   4.138   3.532  14.536 -1.0408  0.1355  0.0374
  740TMC3    C810996   3.897   3.251  14.841 -0.1618  0.1974  0.2692
  740TMC3    O110997   4.242   3.479  14.566 -0.3315  0.2379 -0.2042
  740TMC3    O210998   3.805   3.238  14.918 -0.2358  0.1070  0.4794
  741TMC3    C110999   3.285   3.380  14.317 -0.4771 -0.1412 -0.1596
  741TMC3    C211000   3.185   3.305  14.376  0.4310 -0.2069 -0.5184
  741TMC3    C311001   3.217   3.185  14.440 -0.0875  0.5296  0.1269
  741TMC3    C411002   3.414   3.343  14.329 -0.2912  0.3386  0.1670
  741TMC3    C511003   3.440   3.229  14.404  0.0428 -0.3707  0.2434
  741TMC3    C611004   3.349   3.141  14.447 -0.2029  0.8597  0.5481
  741TMC3     C11005   3.252   3.523  14.320 -0.6611 -0.3211 -0.8752
  741TMC3     O11006   3.156   3.557  14.386  0.3348  0.3120  0.0896
  741TMC3     H11007   3.083   3.335  14.358  0.3666  1.4627  2.5852
  741TMC3    H111008   3.497   3.390  14.277  0.0611 -1.0703 -0.5415
  741TMC3    H211009   3.368   3.051  14.504 -2.6082  0.1220  0.1655
  741TMC3    C711010   3.585   3.207  14.427 -0.3301  0.3828 -0.7834
  741TMC3    C811011   3.104   3.088  14.449 -0.4113  0.2639 -0.0631
  741TMC3    O111012   3.658   3.302  14.419 -0.0004 -0.2723  0.0115
  741TMC3    O211013   2.996   3.122  14.418 -0.3464  0.6395 -0.1316
  742TMC3    C111014   3.326   1.405  15.479  0.3997  0.0048 -0.2200
  742TMC3    C211015   3.230   1.380  15.386  0.1879  0.3703  1.3833
  742TMC3    C311016   3.254   1.288  15.291  0.1743 -0.5828  0.4449
  742TMC3    C411017   3.455   1.355  15.461 -0.0089  0.5611 -0.4274
  742TMC3    C511018   3.480   1.274  15.355  0.4688 -0.5769 -0.9533
  742TMC3    C611019   3.378   1.235  15.272 -0.6137 -0.0109  0.1743
  742TMC3     C11020   3.297   1.454  15.608 -0.2080 -0.0950 -0.1451
  742TMC3     O11021   3.390   1.523  15.656  0.3862 -0.0539  0.0255
  742TMC3     H11022   3.132   1.409  15.422 -1.5156 -1.1001 -2.1143
  742TMC3    H111023   3.526   1.379  15.539 -0.7483 -1.7810  0.9616
  742TMC3    H211024   3.398   1.180  15.180  1.2641 -0.4310  0.8211
  742TMC3    C711025   3.619   1.219  15.343 -0.2254 -0.3130  0.2267
  742TMC3    C811026   3.146   1.251  15.204 -0.5023  0.0114 -0.0328
  742TMC3    O111027   3.638   1.132  15.259 -0.5262  0.3464 -0.0477
  742TMC3    O211028   3.162   1.148  15.138  0.2311 -0.3913  0.2367
  743MPD2     C11029   1.020   2.745   2.328 -0.0040 -0.7346  0.2388
  743MPD2    C111030   1.036   2.682   2.211 -0.2214  0.0906 -0.2114
  743MPD2    C211031   1.167   2.643   2.179 -0.2735  0.0644 -0.0535
  743MPD2    C311032   1.273   2.673   2.260  0.2979  0.0386 -0.5495
  743MPD2    C411033   1.256   2.737   2.378 -0.7412 -0.3455  0.0585
  743MPD2    C511034   1.126   2.773   2.407  0.0222 -0.0528 -0.1093
  743MPD2     H11035   1.181   2.599   2.081  2.4061 -0.8876  0.7524
  743MPD2    H111036   1.330   2.777   2.447 -1.1206  0.7162 -0.1435
  743MPD2    H211037   0.923   2.777   2.364  0.0412  0.4510 -0.6955
  743MPD2    H311038   1.113   2.836   2.494  1.3324 -1.1339  0.8815
  743MPD2     N11039   1.402   2.620   2.217 -0.1757 -0.3780 -0.5060
  743MPD2    H511040   1.395   2.561   2.135 -0.6160 -0.9564 -0.0551
  743MPD2    N111041   0.927   2.657   2.123 -0.0210 -0.4952  0.2266
  743MPD2    H711042   0.840   2.697   2.157  0.5427 -0.6280  1.8289
  744TMC3    C111043   0.812   2.622   1.917  0.0520 -0.4468 -0.6297
  744TMC3    C211044   0.740   2.738   1.953 -0.7828 -0.4355 -0.2396
  744TMC3    C311045   0.680   2.807   1.857  0.4637 -0.9106  0.4809
  744TMC3    C411046   0.838   2.587   1.787  0.1666  0.5165  0.0095
  744TMC3    C511047   0.790   2.668   1.694  0.4826  0.6859 -0.1507
  744TMC3    C611048   0.710   2.776   1.725 -0.3020  0.2803 -0.2905
  744TMC3     C11049   0.926   2.588   2.003 -0.7202  0.2379 -0.2910
  744TMC3     O11050   1.015   2.521   1.947  0.2673  0.6649 -0.1407
  744TMC3     H11051   0.724   2.780   2.051 -0.0111  1.8224 -1.0723
  744TMC3    H111052   0.890   2.496   1.758  0.9319  1.1888 -0.7477
  744TMC3    H211053   0.679   2.845   1.648 -1.7950  0.5240  0.5410
  744TMC3    C711054   0.835   2.628   1.561 -0.0697  0.1902  0.0285
  744TMC3    C811055   0.599   2.930   1.885  0.1437  0.2743 -0.4252
  744TMC3    O111056   0.941   2.572   1.559  0.0409 -0.6022  0.1010
  744TMC3    O211057   0.622   2.974   1.994  0.2966  0.3341  0.2016
  745TMC3    C111058   3.496   0.948  14.007 -0.0891 -0.2518  0.2823
  745TMC3    C211059   3.412   0.895  14.098  0.0466 -0.2155  0.8523
  745TMC3    C311060   3.280   0.926  14.089 -0.8686 -0.6286  0.3087
  745TMC3    C411061   3.458   1.024  13.902  0.9452 -0.0383  0.1410
  745TMC3    C511062   3.322   1.042  13.891 -0.3048 -0.2124 -0.0060
  745TMC3    C611063   3.232   0.993  13.978  0.2585  0.0652 -0.7907
  745TMC3     C11064   3.628   0.974  14.063  1.0406  0.4709  0.7628
  745TMC3     O11065   3.675   0.883  14.133  0.5505  0.0713 -0.3047
  745TMC3     H11066   3.447   0.837  14.183  1.3900 -1.6705 -0.7074
  745TMC3    H111067   3.531   1.049  13.825  0.1795  1.1996 -0.1888
  745TMC3    H211068   3.125   1.010  13.978  0.1858 -0.3743 -1.7304
  745TMC3    C711069   3.270   1.113  13.782 -0.0912  0.4391 -0.4319
  745TMC3    C811070   3.230   0.990  14.206  0.7468  0.0230  0.3187
  745TMC3    O111071   3.167   1.068  13.730 -0.1734 -0.3211  0.2546
  745TMC3    O211072   3.110   1.021  14.218 -0.0500  0.0403 -0.5072
  746TMC3    C111073   1.217   2.701  10.635 -0.0624  1.1369 -0.4608
  746TMC3    C211074   1.211   2.699  10.498  0.2079 -0.1387 -0.2287
  746TMC3    C311075   1.096   2.655  10.440  0.0505  0.0334 -0.2900
  746TMC3    C411076   1.113   2.653  10.705 -0.0612  0.1536 -0.0227
  746TMC3    C511077   0.999   2.615  10.641 -0.0494  0.5165  0.3327
  746TMC3    C611078   0.985   2.624  10.503 -0.1809  0.1593  0.6735
  746TMC3     C11079   1.296   2.806  10.688 -0.4156 -0.2923  0.2953
  746TMC3     O11080   1.412   2.819  10.654 -0.0009  0.0260  0.1527
  746TMC3     H11081   1.292   2.742  10.441 -1.0203  2.0152 -0.3633
  746TMC3    H111082   1.124   2.639  10.812  0.9943  0.0311 -0.1448
  746TMC3    H211083   0.896   2.597  10.448 -0.9330  2.8721  0.5687
  746TMC3    C711084   0.886   2.569  10.720  0.0275 -0.0896  0.4347
  746TMC3    C811085   1.071   2.720  10.313  0.1980  0.9649 -0.5090
  746TMC3    O111086   0.782   2.569  10.654 -0.2160 -0.3790  0.1171
  746TMC3    O211087   1.145   2.708  10.218 -0.0267  1.0639  0.1684
  747TMC3    C111088   3.542   2.889  11.586  0.2519  0.2256 -1.2999
  747TMC3    C211089   3.429   2.852  11.655 -0.0650 -0.1333  0.3590
  747TMC3    C311090   3.391   2.944  11.753  0.5215 -0.5331  0.6454
  747TMC3    C411091   3.594   3.014  11.599 -0.2193 -0.3675 -0.0369
  747TMC3    C511092   3.539   3.106  11.679  0.2901 -0.0730 -0.0611
  747TMC3    C611093   3.445   3.066  11.768 -0.2387  0.6123 -0.9305
  747TMC3     C11094   3.634   2.786  11.528 -0.6839 -0.2328 -0.1174
  747TMC3     O11095   3.754   2.814  11.533  0.1089 -0.6366  0.0591
  747TMC3     H11096   3.383   2.753  11.654  0.8361 -0.5389 -0.1133
  747TMC3    H111097   3.678   3.041  11.536 -0.6094 -2.4798 -1.4808
  747TMC3    H211098   3.413   3.151  11.827  0.5485 -0.7397  1.4558
  747TMC3    C711099   3.570   3.239  11.667  0.0603  0.1748  0.3279
  747TMC3    C811100   3.254   2.925  11.806  0.3786  0.5490 -0.3364
  747TMC3    O111101   3.541   3.317  11.756 -0.4470 -0.1037  0.0162
  747TMC3    O211102   3.190   2.835  11.760  0.0226  0.0742  0.1047
  748MPD2     C11103   4.644   3.537   1.541  0.0409  0.0077 -0.4823
  748MPD2    C111104   4.692   3.664   1.574 -0.4136  0.2035 -0.9004
  748MPD2    C211105   0.088   3.692   1.569 -0.2147 -0.3519  0.4182
  748MPD2    C311106   0.173   3.603   1.515 -0.8900 -0.3398  0.4779
  748MPD2    C411107   0.129   3.473   1.489 -0.1394  0.9717  0.8454
  748MPD2    C511108   4.734   3.441   1.514  0.0459 -0.8325 -0.2678
  748MPD2     H11109   0.134   3.786   1.598 -0.1008 -0.6201  1.0940
  748MPD2    H111110   0.194   3.392   1.458  0.1116  1.3010  0.5028
  748MPD2    H211111   4.539   3.512   1.536 -0.2691  0.9924  1.3031
  748MPD2    H311112   4.707   3.338   1.493 -0.9689 -0.5527 -0.3362
  748MPD2     N11113   0.314   3.639   1.497  0.0068 -0.8663  0.2902
  748MPD2    H511114   0.339   3.735   1.516 -1.7679 -0.6996  1.8067
  748MPD2    N111115   4.593   3.756   1.610  0.2045 -0.5087 -0.2043
  748MPD2    H711116   4.499   3.719   1.612 -0.2451  0.6858  0.3937
  749TMC3    C111117   0.539   3.626   1.436  0.3913  0.2983 -0.6288
  749TMC3    C211118   0.599   3.668   1.551  0.0373 -0.2824  0.0115
  749TMC3    C311119   0.731   3.701   1.544 -0.5018 -0.5912  0.0986
  749TMC3    C411120   0.606   3.607   1.320  0.7889 -0.4354 -0.0312
  749TMC3    C511121   0.737   3.651   1.314 -0.3432 -0.1138  0.2508
  749TMC3    C611122   0.803   3.696   1.424  0.5845 -0.2252  0.2003
  749TMC3     C11123   0.409   3.561   1.439 -0.2194  0.1225  0.7344
  749TMC3     O11124   0.396   3.462   1.370  0.2869  0.4275  0.1517
  749TMC3     H11125   0.551   3.664   1.648 -0.3448  0.2271 -0.1578
  749TMC3    H111126   0.559   3.561   1.233 -1.2690 -0.2222  0.9742
  749TMC3    H211127   0.904   3.736   1.425  1.5055 -2.5334 -1.7569
  749TMC3    C711128   0.777   3.709   1.189  0.0395 -0.1716  0.4637
  749TMC3    C811129   0.811   3.692   1.665  0.2025 -0.0671 -0.0245
  749TMC3    O111130   0.838   3.813   1.202  0.1686  0.0279  0.1766
  749TMC3    O211131   0.748   3.711   1.766 -0.8345  0.3453  0.1628
  750MPD2     C11132   1.285   4.639  11.336 -0.1937  0.1258 -0.0463
  750MPD2    C111133   1.169   4.584  11.384 -0.3931  0.1468  0.0473
  750MPD2    C211134   1.139   4.454  11.353 -0.3356 -0.8358  0.0688
  750MPD2    C311135   1.236   4.373  11.291  0.4355 -0.7066 -0.2969
  750MPD2    C411136   1.353   4.428  11.243  0.2136  0.4860  0.1521
  750MPD2    C511137   1.375   4.562  11.260 -0.0221  0.1590 -0.5613
  750MPD2     H11138   1.044   4.410  11.381 -0.6059  0.0829  0.5961
  750MPD2    H111139   1.431   4.377  11.187  0.1292  2.4001 -1.6922
  750MPD2    H211140   1.289   0.009  11.350  2.6655  0.0402 -0.3367
  750MPD2    H311141   1.468   4.603  11.222 -0.2101  0.2348 -0.9418
  750MPD2     N11142   1.196   4.237  11.254 -0.4492 -0.0873  0.1861
  750MPD2    H511143   1.254   4.189  11.185  0.0860  1.2453 -0.2871
  750MPD2    N111144   1.078   4.668  11.449  0.3175 -0.1237  0.3709
  750MPD2    H711145   1.102   0.029  11.453  1.0370 -0.3242  1.0886
  751TMC3    C111146   1.059   4.038  11.268  0.6149  0.1562  0.5540
  751TMC3    C211147   0.957   3.968  11.330  0.5247  0.2878  0.3177
  751TMC3    C311148   0.866   3.910  11.247  0.8811  0.1602 -0.2365
  751TMC3    C411149   1.082   4.016  11.134 -0.5550  0.4801  0.0529
  751TMC3    C511150   0.991   3.939  11.062  0.9454 -0.3204 -0.7686
  751TMC3    C611151   0.877   3.888  11.114 -0.5385  0.1343 -0.4413
  751TMC3     C11152   1.094   4.167  11.323  0.4432 -0.1405 -0.3862
  751TMC3     O11153   1.028   4.201  11.419 -0.4468  0.2792  0.5673
  751TMC3     H11154   0.931   3.996  11.431  1.7089  0.0724  0.6869
  751TMC3    H111155   1.179   4.048  11.097  0.0276 -0.6489  0.6054
  751TMC3    H211156   0.812   3.822  11.059  0.2444  0.0562 -1.2731
  751TMC3    C711157   1.029   3.899  10.926  0.3488 -0.0473 -1.2246
  751TMC3    C811158   0.746   3.861  11.317  0.2314 -0.0218  0.1289
  751TMC3    O111159   1.139   3.939  10.892 -0.0383 -0.0265 -0.1343
  751TMC3    O211160   0.659   3.812  11.246 -0.5727 -0.8136 -0.1806
  752TMC3    C111161   4.527   4.519  17.365 -0.1611  0.6239 -0.0489
  752TMC3    C211162   4.567   4.415  17.459 -0.3128 -0.2341  0.5745
  752TMC3    C311163   4.504   4.427  17.582 -0.1352  0.3118 -0.3783
  752TMC3    C411164   4.446   4.623  17.397  0.2061  0.1735 -0.2439
  752TMC3    C511165   4.401   4.631  17.530  0.8662  0.2943  0.2921
  752TMC3    C611166   4.420   4.528  17.618 -1.3165  0.7338 -0.3433
  752TMC3     C11167   4.574   4.502  17.227  0.0852  0.8803  0.0529
  752TMC3     O11168   4.660   4.416  17.221  0.1336 -0.1844  0.0332
  752TMC3     H11169   4.642   4.341  17.432  2.0957  2.2257  0.5410
  752TMC3    H111170   4.428   4.712  17.338  0.5388 -0.5274 -1.3869
  752TMC3    H211171   4.360   4.515  17.707 -2.0450 -2.0605 -1.2286
  752TMC3    C711172   4.281   4.711  17.546 -0.8697  0.1977 -0.9932
  752TMC3    C811173   4.526   4.315  17.672 -0.1992 -0.5277  0.2075
  752TMC3    O111174   4.218   0.014  17.450  0.1151  0.5717  0.5194
  752TMC3    O211175   4.560   4.205  17.625  0.4087 -0.3353  0.0254
  753TMC3    C111176   1.589   1.225  13.188 -0.0560  0.9205 -0.4261
  753TMC3    C211177   1.630   1.213  13.321 -0.6112 -0.6767  0.2065
  753TMC3    C311178   1.575   1.101  13.382  0.6497 -0.1590 -0.2180
  753TMC3    C411179   1.496   1.146  13.127 -0.4497 -0.3119  0.1381
  753TMC3    C511180   1.437   1.046  13.192  0.2953  0.0899  0.1300
  753TMC3    C611181   1.470   1.030  13.327  0.4277  0.1816  0.1108
  753TMC3     C11182   1.644   1.324  13.101 -0.4420  0.2348  0.1890
  753TMC3     O11183   1.576   1.354  13.002 -0.3079  0.3137  0.2255
  753TMC3     H11184   1.712   1.272  13.359 -0.0058 -1.4211  0.0662
  753TMC3    H111185   1.482   1.160  13.020 -2.0890 -1.0284  0.2623
  753TMC3    H211186   1.425   0.949  13.383  1.5720 -0.1863  0.4986
  753TMC3    C711187   1.372   0.936  13.123 -0.2479 -0.6307  0.4685
  753TMC3    C811188   1.609   1.059  13.522  0.1602 -0.2109  0.4885
  753TMC3    O111189   1.378   0.931  13.000 -0.6064 -0.5748  0.3991
  753TMC3    O211190   1.547   0.960  13.573  0.2554 -0.1489  0.0269
  754MPD2     C11191   1.123   4.359  13.205 -0.4290  0.3041 -0.5208
  754MPD2    C111192   1.033   4.257  13.177 -0.0231  0.7545  0.6361
  754MPD2    C211193   0.893   4.273  13.158  0.2062  0.0827  0.3733
  754MPD2    C311194   0.841   4.402  13.168 -0.1716 -0.1706 -0.2739
  754MPD2    C411195   0.930   4.507  13.186  0.1955 -0.6062 -0.6139
  754MPD2    C511196   1.069   4.485  13.199  0.1793 -1.0270 -0.0960
  754MPD2     H11197   0.823   4.192  13.142  2.9730 -1.9932 -1.3285
  754MPD2    H111198   0.892   4.607  13.203  1.0429  0.2160 -3.5708
  754MPD2    H211199   1.227   4.348  13.233 -0.6111 -0.9721 -0.3726
  754MPD2    H311200   1.140   4.560  13.231 -0.0709 -0.7604 -0.1744
  754MPD2     N11201   0.699   4.428  13.170 -0.4272  0.0795 -0.7989
  754MPD2    H511202   0.681   4.520  13.209 -1.2582 -0.9476  1.2619
  754MPD2    N111203   1.105   4.135  13.199 -0.6982  0.3384  0.0153
  754MPD2    H711204   1.205   4.138  13.184 -0.1953 -2.2542  2.6356
  755MPD2     C11205   0.121   0.359  13.019  0.3085  0.6245  0.0864
  755MPD2    C111206   0.079   0.321  13.141  0.9813 -0.7090 -0.1902
  755MPD2    C211207   0.119   0.195  13.180  0.0202  0.6959  0.1028
  755MPD2    C311208   0.202   0.114  13.108 -0.3981 -0.1600 -0.1734
  755MPD2    C411209   0.233   0.153  12.979 -0.3312  0.2171 -0.1354
  755MPD2    C511210   0.193   0.277  12.936  0.0045  0.9232  0.3369
  755MPD2     H11211   0.079   0.155  13.272 -1.8847  0.6075 -0.7658
  755MPD2    H111212   0.291   0.090  12.912  0.1126  0.0467  0.4033
  755MPD2    H211213   0.106   0.459  12.981  0.6607  0.5781 -0.1811
  755MPD2    H311214   0.225   0.322  12.843 -2.7272  1.7988 -0.1809
  755MPD2     N11215   0.257   4.730  13.146 -0.3668  0.5809 -0.0404
  755MPD2    H511216   0.299   4.671  13.075  1.7063 -0.2770  1.8822
  755MPD2    N111217   4.735   0.402  13.234  0.4575 -0.0228 -0.8961
  755MPD2    H711218   4.703   0.370  13.324  1.0694 -1.8131 -1.3174
  756MPD2     C11219   0.678   0.540   9.609  0.7085 -1.0106  0.2594
  756MPD2    C111220   0.597   0.451   9.676 -0.1154  0.7486 -0.2666
  756MPD2    C211221   0.470   0.425   9.622  0.4683 -0.3362 -0.3334
  756MPD2    C311222   0.426   0.486   9.506 -0.3725 -1.1841 -0.5450
  756MPD2    C411223   0.508   0.585   9.450 -1.3892  0.4539 -0.7281
  756MPD2    C511224   0.633   0.614   9.498  0.1703  0.1744  0.8039
  756MPD2     H11225   0.407   0.354   9.674  2.0099  0.1893  2.2450
  756MPD2    H111226   0.471   0.647   9.369  0.0612 -0.3100 -1.9558
  756MPD2    H211227   0.780   0.545   9.646 -0.1646  1.2728  2.3689
  756MPD2    H311228   0.693   0.692   9.454 -0.6956  0.4103  0.0327
  756MPD2     N11229   0.309   0.443   9.441 -0.0465  0.1800  0.2341
  756MPD2    H511230   0.265   0.370   9.496 -0.5729  1.0904  1.0226
  756MPD2    N111231   0.633   0.376   9.784  0.0787 -0.2156  0.2682
  756MPD2    H711232   0.571   0.305   9.821  0.2728 -0.5067  0.0383
  757MPD2     C11233   4.643   4.459   9.563  0.1664 -0.0741  0.4743
  757MPD2    C111234   4.659   4.569   9.640 -0.4925  0.0504 -0.5657
  757MPD2    C211235   4.690   4.687   9.583 -0.2285  0.4562  0.4379
  757MPD2    C311236   4.698   4.699   9.447  0.4140 -0.9724  0.3085
  757MPD2    C411237   4.692   4.581   9.374 -0.0571 -0.0070 -0.0819
  757MPD2    C511238   4.669   4.460   9.431 -0.9097  0.2861  0.6473
  757MPD2     H11239   4.684   0.040   9.643 -0.3041  1.1990 -0.6786
  757MPD2    H111240   4.711   4.576   9.267  1.7089  4.4624  0.0348
  757MPD2    H211241   4.607   4.369   9.610 -0.0492 -1.2125 -1.9167
  757MPD2    H311242   4.651   4.370   9.375  0.0181  1.1635 -1.0543
  757MPD2     N11243   4.717   0.093   9.385  0.4400 -0.3664 -0.9133
  757MPD2    H511244   4.725   0.170   9.450 -1.7182 -1.6350  0.8796
  757MPD2    N111245   4.642   4.550   9.779  0.1930  0.0979 -0.9189
  757MPD2    H711246   4.612   4.458   9.811 -1.3959  0.7040 -0.7140
  758MPD2     C11247   0.890   3.791  16.232  0.1389 -0.1519 -0.3129
  758MPD2    C111248   0.992   3.816  16.322 -0.2443  0.2759  0.7084
  758MPD2    C211249   0.964   3.884  16.441  0.1718  1.0850  0.0400
  758MPD2    C311250   0.838   3.932  16.475 -0.2431  0.0928  0.1262
  758MPD2    C411251   0.739   3.908  16.375 -0.3133  0.2612 -0.4528
  758MPD2    C511252   0.766   3.833  16.267 -0.1578 -0.4932 -0.1144
  758MPD2     H11253   1.047   3.894  16.510 -0.2784 -1.9835  1.0428
  758MPD2    H111254   0.636   3.937  16.388  0.4286  2.3602  0.8531
  758MPD2    H211255   0.912   3.737  16.141 -0.2725 -0.8653  0.0142
  758MPD2    H311256   0.686   3.826  16.195 -1.4819  2.3986  1.0772
  758MPD2     N11257   0.807   4.006  16.586  0.4747 -0.4920 -0.4805
  758MPD2    H511258   0.708   4.027  16.596  0.7781  1.1825 -1.0149
  758MPD2    N111259   1.130   3.786  16.307 -0.3014 -0.4767 -0.5711
  758MPD2    H711260   1.192   3.799  16.387 -1.4927 -2.3744  0.6649
  759MPD2     C11261   4.099   2.350  10.182  0.5737 -0.9806 -0.2659
  759MPD2    C111262   3.977   2.301  10.223  0.1731  0.0986 -0.2379
  759MPD2    C211263   3.886   2.266  10.128 -0.0053 -0.6702 -0.0616
  759MPD2    C311264   3.910   2.287   9.992 -0.4803 -0.3019 -0.2519
  759MPD2    C411265   4.020   2.355   9.951 -0.3053  0.4538 -0.1707
  759MPD2    C511266   4.116   2.377  10.049  0.3739  0.5396 -0.1549
  759MPD2     H11267   3.797   2.216  10.163 -0.1690 -0.0048  0.4791
  759MPD2    H111268   4.032   2.380   9.846 -0.8203 -1.4514 -0.6809
  759MPD2    H211269   4.180   2.367  10.253 -1.3586  1.9169  1.2512
  759MPD2    H311270   4.214   2.419  10.026  0.4932 -0.5631 -1.6099
  759MPD2     N11271   3.805   2.244   9.905  0.0092 -0.2750 -0.2748
  759MPD2    H511272   3.718   2.207   9.943 -0.4457  0.8171 -0.2723
  759MPD2    N111273   3.954   2.248  10.353 -0.1084 -0.7552  0.0229
  759MPD2    H711274   3.865   2.206  10.376 -0.9845  1.4838  0.6769
  760MPD2     C11275   3.701   0.207  12.161  0.7778  0.7066 -0.5174
  760MPD2    C111276   3.820   0.181  12.100  0.2542 -0.3367 -0.7002
  760MPD2    C211277   3.861   0.049  12.099  0.6941  0.0747  0.1156
  760MPD2    C311278   3.800   4.678  12.166 -0.3814  0.4307 -0.2556
  760MPD2    C411279   3.680   4.713  12.226  0.0240 -0.9551  0.1085
  760MPD2    C511280   3.631   0.103  12.214 -0.1807  0.5702  0.1840
  760MPD2     H11281   3.956   0.040  12.046 -0.6762  2.6821 -2.7322
  760MPD2    H111282   3.617   4.645  12.280 -1.7118  1.7791  1.5455
  760MPD2    H211283   3.667   0.309  12.172 -0.4803  0.3315 -0.9226
  760MPD2    H311284   3.533   0.114  12.259 -0.5038  0.0490 -0.4081
  760MPD2     N11285   3.842   4.545  12.173 -0.0012  0.0151 -0.1792
  760MPD2    H511286   3.784   4.467  12.203  0.0049  0.0643 -0.0411
  760MPD2    N111287   3.905   0.276  12.040 -0.1799  0.1150 -0.2355
  760MPD2    H711288   4.000   0.250  12.013 -0.5808 -3.1031  1.3957
  761MPD2     C11289   0.442   3.700  11.689  0.1293 -0.5243 -0.2070
  761MPD2    C111290   0.424   3.686  11.553  0.3861 -0.4333 -0.6194
  761MPD2    C211291   0.520   3.753  11.480  0.3345  0.2253 -0.6847
  761MPD2    C311292   0.633   3.821  11.528 -0.1636 -0.3610  0.5593
  761MPD2    C411293   0.634   3.840  11.667  0.4135 -0.4637 -0.1882
  761MPD2    C511294   0.542   3.781  11.743 -0.2509 -0.3465  0.4159
  761MPD2     H11295   0.516   3.727  11.374  0.0092 -0.3969 -0.5213
  761MPD2    H111296   0.709   3.902  11.715 -0.0910 -1.4664  1.8819
  761MPD2    H211297   0.377   3.649  11.759 -0.2019  2.1742  1.4207
  761MPD2    H311298   0.550   3.808  11.848 -0.9338 -0.8413  0.5878
  761MPD2     N11299   0.745   3.861  11.452 -0.0233 -0.1948 -0.6438
  761MPD2    H511300   0.820   3.907  11.503 -0.5420  0.2093 -0.2512
  761MPD2    N111301   0.310   3.606  11.501 -0.4120  0.0701 -0.7002
  761MPD2    H711302   0.243   3.562  11.563  0.0781  1.6930  0.9870
  762MPD2     C11303   0.619   3.521  11.109  0.0894 -0.5291  0.4912
  762MPD2    C111304   0.536   3.465  11.021 -0.5025 -0.0308  0.3871
  762MPD2    C211305   0.588   3.394  10.903 -0.1524 -0.2347 -0.6339
  762MPD2    C311306   0.725   3.381  10.895 -0.4944 -0.9465 -0.2158
  762MPD2    C411307   0.805   3.444  10.989 -0.0012 -0.4760 -0.2258
  762MPD2    C511308   0.756   3.509  11.098  0.4442 -0.2575  0.4585
  762MPD2     H11309   0.521   3.350  10.830 -0.5879 -2.3432  1.0201
  762MPD2    H111310   0.913   3.448  10.984 -0.1750  3.2139 -1.5730
  762MPD2    H211311   0.583   3.593  11.182 -1.7603 -1.2629  0.2899
  762MPD2    H311312   0.818   3.573  11.159  0.9411  0.8420 -1.2069
  762MPD2     N11313   0.777   3.314  10.777  0.0147 -0.4533 -0.7313
  762MPD2    H511314   0.716   3.271  10.709  0.0247  0.0495 -1.0562
  762MPD2    N111315   0.398   3.479  11.046 -0.0554 -1.5279  0.0352
  762MPD2    H711316   0.367   3.536  11.124  3.0114  0.5628 -0.2843
  763MPD2     C11317   2.761   4.363  16.421 -0.0056  0.1739 -0.0273
  763MPD2    C111318   2.638   4.426  16.399 -0.2642  0.5517  0.2363
  763MPD2    C211319   2.600   4.539  16.462 -0.1382  0.7307  0.1581
  763MPD2    C311320   2.691   4.602  16.551  0.8040 -0.0969 -0.1803
  763MPD2    C411321   2.823   4.550  16.566 -0.3526 -0.1625  0.1813
  763MPD2    C511322   2.847   4.428  16.505 -0.5257 -0.4650 -0.2692
  763MPD2     H11323   2.496   4.569  16.460 -1.1270 -2.7764 -0.6406
  763MPD2    H111324   2.901   4.603  16.619 -0.3345 -0.1948  0.1869
  763MPD2    H211325   2.793   4.277  16.364  1.6717  0.4940  0.4447
  763MPD2    H311326   2.945   4.382  16.516 -1.2255 -1.3268  2.3590
  763MPD2     N11327   2.674   4.732  16.615  0.0208 -0.1034 -0.2018
  763MPD2    H511328   2.752   0.030  16.669  1.2536  1.3496 -2.9409
  763MPD2    N111329   2.542   4.379  16.305 -0.3443  0.6740 -0.6280
  763MPD2    H711330   2.464   4.440  16.288 -1.8251 -0.4328  2.2004
  764MPD2     C11331   0.313   1.233  17.693  0.2100 -0.1863  0.0687
  764MPD2    C111332   0.193   1.168  17.671  0.2244 -0.3094  0.2572
  764MPD2    C211333   0.151   1.085   0.035  0.6346  0.3259 -0.6700
  764MPD2    C311334   0.215   1.075   0.155 -0.2386 -0.3878 -0.6860
  764MPD2    C411335   0.340   1.141   0.169  0.0785 -0.2497 -0.0590
  764MPD2    C511336   0.382   1.223   0.065  0.2956 -0.8028  0.2952
  764MPD2     H11337   0.066   1.021   0.014  0.6356  0.6562 -1.6591
  764MPD2    H111338   0.401   1.137   0.258  0.9244  0.0330 -0.6252
  764MPD2    H211339   0.364   1.297  17.622  0.2474  0.6500  0.8537
  764MPD2    H311340   0.480   1.269   0.072  0.1544 -0.4200 -0.2376
  764MPD2     N11341   0.153   0.989   0.248  0.4072 -0.6469 -0.5227
  764MPD2    H511342   0.059   0.954   0.231  0.7453 -1.6536 -0.3059
  764MPD2    N111343   0.123   1.180  17.553  0.3216 -0.1453 -0.1485
  764MPD2    H711344   0.046   1.118  17.528  0.7909 -0.9522  0.4208
  765MPD2     C11345   0.461   3.767  15.981 -0.0092 -0.2157 -0.0044
  765MPD2    C111346   0.569   3.831  15.934 -0.7251 -0.9825  0.5644
  765MPD2    C211347   0.691   3.765  15.929 -0.0572  0.7807  0.4277
  765MPD2    C311348   0.704   3.638  15.967  0.0599  0.4851 -0.1105
  765MPD2    C411349   0.595   3.575  16.008  1.0846  1.3874  0.2181
  765MPD2    C511350   0.468   3.630  16.018 -0.1312  0.0283  0.0569
  765MPD2     H11351   0.772   3.804  15.869 -0.1829  2.0548  1.0953
  765MPD2    H111352   0.602   3.472  16.042  0.5198  1.2145 -0.1730
  765MPD2    H211353   0.361   3.808  15.981  0.5038  0.9803  3.4849
  765MPD2    H311354   0.390   3.567  16.060 -0.1719  0.9428  1.3424
  765MPD2     N11355   0.824   3.574  15.930 -0.3517 -0.2319 -0.7887
  765MPD2    H511356   0.905   3.624  15.895  0.6488 -1.9906 -1.0313
  765MPD2    N111357   0.552   3.960  15.866 -0.0703 -0.5392 -0.2459
  765MPD2    H711358   0.456   3.992  15.856  0.4753  1.9161  2.1831
  766MPD2     C11359   0.336   3.742  15.298 -0.1235  0.0137 -0.0446
  766MPD2    C111360   0.388   3.871  15.284 -0.5154 -0.1313  0.5303
  766MPD2    C211361   0.429   3.912  15.152  0.4895 -0.3509  0.1803
  766MPD2    C311362   0.415   3.830  15.039  0.3976 -0.0551  0.3651
  766MPD2    C411363   0.354   3.710  15.056  0.6923 -0.2311 -0.5365
  766MPD2    C511364   0.322   3.664  15.185  0.6178  0.0529 -0.0645
  766MPD2     H11365   0.462   4.012  15.127 -0.9848  0.0021 -0.3720
  766MPD2    H111366   0.336   3.642  14.973 -0.7317  0.9757 -1.2170
  766MPD2    H211367   0.308   3.693  15.391 -0.2844 -0.3261 -0.2751
  766MPD2    H311368   0.284   3.563  15.185  0.9048 -0.0352  2.1763
  766MPD2     N11369   0.421   3.878  14.906 -0.0148 -0.5366  0.0764
  766MPD2    H511370   0.357   3.835  14.840  0.0656 -0.3828 -0.1019
  766MPD2    N111371   0.385   3.953  15.401 -0.3372  0.8674 -0.8753
  766MPD2    H711372   0.356   3.904  15.485  0.1017  1.5024 -0.3538
  767MPD2     C11373   0.135   4.071  15.157 -0.0309  0.3775 -0.2188
  767MPD2    C111374   0.159   4.170  15.063  0.0409 -0.6441 -0.1030
  767MPD2    C211375   0.107   4.146  14.937  0.4736  0.1472  0.3318
  767MPD2    C311376   0.033   4.036  14.904  0.1195  0.1213 -0.0481
  767MPD2    C411377   0.017   3.934  15.000  0.7159 -0.1359  0.5187
  767MPD2    C511378   0.071   3.957  15.126  0.4039 -0.2979  1.0622
  767MPD2     H11379   0.127   4.221  14.861 -1.1994  0.7640  0.5052
  767MPD2    H111380   4.699   3.843  14.982  1.2451 -0.4073  0.2602
  767MPD2    H211381   0.164   4.085  15.261 -0.6283 -0.8085  0.1072
  767MPD2    H311382   0.048   3.882  15.201  1.5930 -2.0479 -0.3131
  767MPD2     N11383   4.732   4.013  14.772 -0.1654  0.4284 -0.1716
  767MPD2    H511384   0.020   4.082  14.702  1.9345  1.5652  1.7165
  767MPD2    N111385   0.237   4.278  15.100  0.2458 -0.0679 -0.0959
  767MPD2    H711386   0.289   4.274  15.187 -1.1081 -0.9823  0.6766
  768MPD2     C11387   0.517   2.286  10.554  0.1244  1.0450  0.0048
  768MPD2    C111388   0.484   2.243  10.679 -0.6196 -1.1456  0.3942
  768MPD2    C211389   0.578   2.203  10.767 -0.1417  0.5235 -0.1484
  768MPD2    C311390   0.714   2.218  10.735 -0.5425  0.1429  0.3472
  768MPD2    C411391   0.748   2.272  10.614  0.1022 -0.6441 -0.1160
  768MPD2    C511392   0.654   2.311  10.524  0.1539  0.1054 -0.0448
  768MPD2     H11393   0.546   2.148  10.854  0.6566 -0.0450 -0.2217
  768MPD2    H111394   0.854   2.283  10.595  0.2362  1.1485  1.6140
  768MPD2    H211395   0.443   2.304  10.477  1.1851  1.7647 -0.8426
  768MPD2    H311396   0.678   2.355  10.428 -1.4912 -2.9387 -1.8566
  768MPD2     N11397   0.808   2.182  10.829 -0.2539  0.2581 -0.4825
  768MPD2    H511398   0.901   2.170  10.790 -0.1591  1.9114 -0.7738
  768MPD2    N111399   0.350   2.228  10.726  0.7893 -0.2500 -0.3103
  768MPD2    H711400   0.358   2.204  10.824 -1.6607 -1.6010 -0.4386
  769MPD2     C11401   1.951   0.766  15.060 -0.2214 -0.5449  0.5587
  769MPD2    C111402   1.891   0.654  15.127 -0.7892 -0.1617  0.0328
  769MPD2    C211403   1.944   0.610  15.248 -0.4705 -0.0984 -0.4361
  769MPD2    C311404   2.050   0.672  15.309 -0.7246 -0.6319  0.1565
  769MPD2    C411405   2.122   0.762  15.231 -0.3939 -0.4452  0.3125
  769MPD2    C511406   2.076   0.811  15.108  0.2681  0.6373  0.3340
  769MPD2     H11407   1.886   0.535  15.303 -3.6983  1.0480 -2.2565
  769MPD2    H111408   2.215   0.805  15.267 -0.0707 -1.4205  0.6315
  769MPD2    H211409   1.908   0.821  14.977 -2.4503 -1.3421  1.1653
  769MPD2    H311410   2.110   0.904  15.065  0.9654  0.6628  0.9470
  769MPD2     N11411   2.081   0.645  15.443 -0.2388 -0.1138  0.2324
  769MPD2    H511412   2.017   0.587  15.496  0.6756 -0.4251  1.0041
  769MPD2    N111413   1.788   0.593  15.053 -0.7062  0.6563  0.0902
  769MPD2    H711414   1.761   0.636  14.965  1.2135  1.6016 -0.0368
  770MPD2     C11415   1.433   4.444  14.672 -0.2590  0.2244 -0.2395
  770MPD2    C111416   1.475   4.468  14.803 -0.2894  0.2946  0.2969
  770MPD2    C211417   1.503   4.599  14.840 -0.2262  0.2751 -0.3051
  770MPD2    C311418   1.486   4.707  14.752  0.5335 -0.3478 -0.9758
  770MPD2    C411419   1.436   4.683  14.622 -0.1246  0.1361 -0.4981
  770MPD2    C511420   1.417   4.548  14.584 -0.5386  0.0298 -0.0232
  770MPD2     H11421   1.548   4.628  14.934  2.3596 -0.5752 -1.2484
  770MPD2    H111422   1.431   0.021  14.544 -2.2188  0.1869 -0.2972
  770MPD2    H211423   1.416   4.342  14.638 -1.2194  0.6567 -1.0575
  770MPD2    H311424   1.370   4.536  14.487  1.2679 -0.2141 -0.8766
  770MPD2     N11425   1.525   0.099  14.796 -0.6732 -0.4881 -0.2236
  770MPD2    H511426   1.533   0.115  14.895  0.8531  2.5435 -0.8554
  770MPD2    N111427   1.494   4.354  14.885  0.0901 -0.0076  0.2579
  770MPD2    H711428   1.470   4.260  14.856 -0.5152  0.8364 -1.9235
  771MPD2     C11429   2.840   3.145  14.020 -0.4385  0.3777 -0.2902
  771MPD2    C111430   2.788   3.260  13.976  0.7106 -0.3398  0.2151
  771MPD2    C211431   2.667   3.251  13.910  0.2268 -0.0551 -0.8189
  771MPD2    C311432   2.612   3.130  13.874  0.0783  0.3078 -0.4069
  771MPD2    C411433   2.675   3.021  13.910 -0.0054 -0.8154  0.5235
  771MPD2    C511434   2.784   3.025  13.988  0.0564  0.1357 -0.0230
  771MPD2     H11435   2.615   3.345  13.894  0.2234 -0.0839 -0.9762
  771MPD2    H111436   2.650   2.926  13.863 -0.2570 -0.0910 -0.8012
  771MPD2    H211437   2.934   3.142  14.075 -1.0990 -1.1322  0.7549
  771MPD2    H311438   2.839   2.933  13.999 -3.0636 -1.5374  1.5398
  771MPD2     N11439   2.494   3.127  13.791  0.4249  0.1174 -0.7589
  771MPD2    H511440   2.442   3.214  13.789 -0.4368 -0.4355 -2.4119
  771MPD2    N111441   2.852   3.388  13.982 -0.0764  0.9458  0.0520
  771MPD2    H711442   2.793   3.469  13.963  0.0097  0.8336 -0.7128
  772MPD2     C11443   2.615   3.914  13.832  0.0507  0.1271  0.5686
  772MPD2    C111444   2.612   3.865  13.964  0.2206  0.1979 -0.1705
  772MPD2    C211445   2.488   3.854  14.024 -0.7635 -0.2962  0.1465
  772MPD2    C311446   2.370   3.897  13.963 -0.4248  0.1942  0.6753
  772MPD2    C411447   2.375   3.919  13.828 -0.5133 -0.1959  0.3537
  772MPD2    C511448   2.495   3.934  13.767 -0.8119 -0.2458 -0.2160
  772MPD2     H11449   2.493   3.811  14.123  1.5423 -1.1035 -0.3105
  772MPD2    H111450   2.280   3.940  13.779 -0.0711  1.6237  0.3008
  772MPD2    H211451   2.701   3.917  13.765 -0.5313  0.8595 -0.1577
  772MPD2    H311452   2.497   3.969  13.665  2.0910 -0.8965 -0.3817
  772MPD2     N11453   2.238   3.893  14.019  0.2542  0.4587 -0.3490
  772MPD2    H511454   2.167   3.902  13.947 -0.4664 -1.3796  0.1480
  772MPD2    N111455   2.728   3.833  14.033 -0.1892 -0.9155 -0.0477
  772MPD2    H711456   2.720   3.786  14.123 -0.3615 -1.1880 -0.2046
  773MPD2     C11457   1.347   4.185   0.526  0.6061 -0.3935  0.2145
  773MPD2    C111458   1.284   4.105   0.437  0.0020 -1.0895 -0.3424
  773MPD2    C211459   1.309   3.970   0.448  0.7973 -0.1599  0.0019
  773MPD2    C311460   1.390   3.909   0.544  0.2156  0.2457  0.6514
  773MPD2    C411461   1.454   3.996   0.631 -0.8812 -0.2226  1.0113
  773MPD2    C511462   1.423   4.131   0.626  0.3118 -0.9421  0.0565
  773MPD2     H11463   1.253   3.909   0.379 -1.0920  1.5646 -0.0027
  773MPD2    H111464   1.513   3.968   0.718  0.7457  1.9351  0.5876
  773MPD2    H211465   1.334   4.292   0.539 -1.2733 -0.3406 -2.1108
  773MPD2    H311466   1.461   4.194   0.706 -0.7746 -0.3846  0.1335
  773MPD2     N11467   1.391   3.771   0.551  0.3129 -0.1505 -0.7341
  773MPD2    H511468   1.364   3.712   0.473  0.8050  0.2384 -1.1923
  773MPD2    N111469   1.180   4.153   0.352 -0.0820  0.5201  0.3650
  773MPD2    H711470   1.110   4.092   0.311 -0.8104  2.5690 -1.4620
  774MPD2     C11471   0.574   3.329  13.596 -0.6087 -0.0289 -0.2106
  774MPD2    C111472   0.706   3.367  13.615 -0.5140 -0.1789 -0.4286
  774MPD2    C211473   0.752   3.473  13.539  0.0097  0.4556 -0.6132
  774MPD2    C311474   0.669   3.542  13.449  0.0487 -0.2061  0.2459
  774MPD2    C411475   0.532   3.514  13.445 -0.0758 -0.5292  0.2147
  774MPD2    C511476   0.497   3.403  13.515 -0.1240  0.8333  0.2779
  774MPD2     H11477   0.855   3.504  13.552  0.0148  0.9973 -1.9436
  774MPD2    H111478   0.455   3.570  13.393  0.5863 -0.9845 -1.2497
  774MPD2    H211479   0.527   3.240  13.637  1.5576 -1.0279  0.1273
  774MPD2    H311480   0.393   3.373  13.517 -0.5917  2.4446  0.1217
  774MPD2     N11481   0.726   3.655  13.396  0.2828 -0.1632 -1.0075
  774MPD2    H511482   0.815   3.686  13.434  1.3645 -1.8569 -2.1727
  774MPD2    N111483   0.778   3.297  13.710  0.7339  0.4024  0.5280
  774MPD2    H711484   0.722   3.237  13.770  1.5313  0.2949  1.1666
  775MPD2     C11485   2.469   0.292  15.902  0.1032 -0.2863 -0.4851
  775MPD2    C111486   2.443   0.425  15.929  0.2867 -0.4340 -0.4727
  775MPD2    C211487   2.485   0.518  15.832 -0.0994  0.7432 -0.1157
  775MPD2    C311488   2.538   0.477  15.711 -0.5492  0.4218 -0.0069
  775MPD2    C411489   2.557   0.343  15.685 -0.3298 -0.2192 -0.3121
  775MPD2    C511490   2.520   0.254  15.781  0.1510 -0.0568 -0.5046
  775MPD2     H11491   2.467   0.622  15.854  1.8902  1.1346 -0.2946
  775MPD2    H111492   2.587   0.310  15.586  0.3340  2.2054 -0.9163
  775MPD2    H211493   2.442   0.213  15.971  2.1446 -2.7221 -2.4681
  775MPD2    H311494   2.533   0.148  15.763 -0.0368  0.2009 -2.1498
  775MPD2     N11495   2.574   0.569  15.609 -0.1779  0.5808  0.2421
  775MPD2    H511496   2.601   0.533  15.518 -0.3632  0.2695  0.3102
  775MPD2    N111497   2.375   0.453  16.055  0.9015  0.1113  0.4283
  775MPD2    H711498   2.350   0.376  16.116 -0.3851  0.6627  0.5926
  776MPD2     C11499   0.562   0.582  11.353 -0.5395  0.1363 -0.3541
  776MPD2    C111500   0.684   0.534  11.399  0.0919  0.2282  0.6306
  776MPD2    C211501   0.800   0.610  11.380  0.1716 -0.1148  0.3120
  776MPD2    C311502   0.795   0.729  11.307 -0.4124  0.5115  0.0088
  776MPD2    C411503   0.680   0.769  11.248  0.1245 -0.0701 -0.5155
  776MPD2    C511504   0.561   0.698  11.280 -0.1584 -0.2249 -0.4155
  776MPD2     H11505   0.898   0.570  11.405 -0.8215 -1.5825  1.8396
  776MPD2    H111506   0.679   0.853  11.179 -1.1752 -1.7656 -2.5674
  776MPD2    H211507   0.473   0.523  11.367  1.4880 -2.5880  1.0495
  776MPD2    H311508   0.463   0.723  11.240 -0.4860  0.5007  0.8159
  776MPD2     N11509   0.910   0.802  11.264 -0.2682 -0.3470  0.1312
  776MPD2    H511510   0.883   0.880  11.204 -0.8397 -1.0559 -0.5429
  776MPD2    N111511   0.695   0.406  11.458  0.5595 -0.9342 -0.3087
  776MPD2    H711512   0.617   0.341  11.452 -1.1782  1.0965  0.1755
  777MPD2     C11513   1.850   2.901   1.293 -0.2591  0.1871  0.0882
  777MPD2    C111514   1.734   2.872   1.357 -0.2142  0.1674 -0.4612
  777MPD2    C211515   1.647   2.789   1.294 -0.5208  0.6402  0.6479
  777MPD2    C311516   1.680   2.719   1.179 -0.5418  0.9315 -0.2214
  777MPD2    C411517   1.806   2.730   1.134  0.0670  0.1506  0.2395
  777MPD2    C511518   1.892   2.822   1.190 -0.0463  0.2030 -0.3275
  777MPD2     H11519   1.553   2.761   1.340 -1.8190  2.6013 -0.8288
  777MPD2    H111520   1.833   2.664   1.053  0.7283  1.7178 -0.8196
  777MPD2    H211521   1.927   2.966   1.336  0.1451  0.6628 -1.3746
  777MPD2    H311522   1.993   2.838   1.154  0.3749 -3.0788 -0.6380
  777MPD2     N11523   1.571   2.647   1.121  0.0413  0.4938 -0.2116
  777MPD2    H511524   1.478   2.668   1.156  1.4898  2.1049  2.7065
  777MPD2    N111525   1.698   2.952   1.468  0.8033 -0.2211  0.8634
  777MPD2    H711526   1.781   3.006   1.492  1.5062 -1.8130  2.0497
  778MPD2     C11527   2.578   3.482  15.098 -0.6078  0.1173 -0.6075
  778MPD2    C111528   2.637   3.384  15.018  0.0561 -0.2693 -0.5523
  778MPD2    C211529   2.737   3.424  14.933  0.2633 -0.6202  0.7637
  778MPD2    C311530   2.794   3.554  14.937 -0.2607 -0.1645  1.7408
  778MPD2    C411531   2.755   3.637  15.033 -0.2173 -0.8734 -0.3337
  778MPD2    C511532   2.643   3.598  15.108  0.2337 -0.1142  0.0198
  778MPD2     H11533   2.781   3.342  14.877 -0.1729 -1.4257  1.5993
  778MPD2    H111534   2.805   3.731  15.052 -1.4524 -0.4683  0.8811
  778MPD2    H211535   2.494   3.461  15.163 -0.4946  0.5952 -0.3067
  778MPD2    H311536   2.607   3.667  15.184  0.8743 -2.6415  2.5990
  778MPD2     N11537   2.907   3.582  14.857  0.2782 -0.4888 -0.4712
  778MPD2    H511538   2.945   3.499  14.812 -1.1537 -2.4226  1.9186
  778MPD2    N111539   2.598   3.248  15.007  0.0330  0.2346 -0.1349
  778MPD2    H711540   2.650   3.193  14.939  2.1197  0.3903  1.3407
  779MPD2     C11541   1.979   2.146  14.188 -0.2311 -0.8916 -0.3157
  779MPD2    C111542   2.111   2.108  14.163 -0.2339 -0.6509 -0.3659
  779MPD2    C211543   2.214   2.201  14.170  0.2257 -0.1353 -0.7931
  779MPD2    C311544   2.192   2.330  14.218 -0.0530 -0.1497 -0.3659
  779MPD2    C411545   2.063   2.362  14.267  1.2987 -0.2492 -0.0124
  779MPD2    C511546   1.963   2.269  14.239 -0.0493 -0.0988 -0.0026
  779MPD2     H11547   2.313   2.164  14.144  0.3147 -0.7705  0.4507
  779MPD2    H111548   2.026   2.458  14.303 -1.2776 -1.7858  1.3845
  779MPD2    H211549   1.892   2.084  14.172  0.3941 -1.7231 -0.5169
  779MPD2    H311550   1.861   2.305  14.240  0.7510  2.2059 -0.4176
  779MPD2     N11551   2.293   2.425  14.193 -0.6278 -0.3234  0.4664
  779MPD2    H511552   2.374   2.405  14.135 -1.2934 -0.8932 -0.2775
  779MPD2    N111553   2.151   1.973  14.116  0.1603 -0.0958 -0.2444
  779MPD2    H711554   2.247   1.964  14.086  0.7378  0.7329  1.4013
  780MPD2     C11555   1.284   2.127   1.035 -0.2207  0.3167  0.2384
  780MPD2    C111556   1.263   2.071   0.908 -0.1478  1.3772  1.0295
  780MPD2    C211557   1.370   2.045   0.828 -0.1522 -0.4614  0.2679
  780MPD2    C311558   1.497   2.083   0.859 -0.4175  0.2119 -0.1891
  780MPD2    C411559   1.519   2.144   0.983  0.6369 -0.2979 -0.3676
  780MPD2    C511560   1.409   2.169   1.062  0.5997 -0.7487  0.4895
  780MPD2     H11561   1.349   1.998   0.733 -0.7771 -0.9361  0.6415
  780MPD2    H111562   1.614   2.185   1.016 -0.4755  3.4568 -1.7561
  780MPD2    H211563   1.205   2.153   1.104 -0.7668  0.9053 -0.6145
  780MPD2    H311564   1.418   2.225   1.155 -1.1913 -2.2498  1.5784
  780MPD2     N11565   1.597   2.047   0.768  0.1558 -0.6087  0.0293
  780MPD2    H511566   1.564   2.008   0.680 -0.0267  2.6328 -1.3183
  780MPD2    N111567   1.134   2.008   0.892 -0.4257  0.6957  0.3206
  780MPD2    H711568   1.073   1.995   0.972  0.0676 -1.1004  0.4036
  781MPD2     C11569   4.053   3.722  12.281 -0.3591 -0.2175 -0.1913
  781MPD2    C111570   3.927   3.758  12.321 -0.3614 -0.4747 -0.4380
  781MPD2    C211571   3.843   3.811  12.216 -0.0986  1.0834 -0.5212
  781MPD2    C311572   3.896   3.853  12.093 -0.1965 -0.0439 -0.0422
  781MPD2    C411573   4.029   3.822  12.070  0.1383 -0.0998 -0.1036
  781MPD2    C511574   4.101   3.753  12.160  0.3412  0.0796  0.3535
  781MPD2     H11575   3.738   3.824  12.238 -0.0133  0.9857 -0.0527
  781MPD2    H111576   4.078   3.833  11.974  1.3984 -0.5417  0.4834
  781MPD2    H211577   4.113   3.655  12.343 -0.9592 -1.7876 -1.3029
  781MPD2    H311578   4.203   3.721  12.142 -0.3780 -1.1520 -1.5644
  781MPD2     N11579   3.821   3.906  11.988 -0.1886 -0.1038  0.0722
  781MPD2    H511580   3.849   3.904  11.890 -0.4434 -0.5680  0.0083
  781MPD2    N111581   3.869   3.725  12.444  0.1892 -0.0584 -0.3801
  781MPD2    H711582   3.780   3.767  12.466  0.6503  0.4775  0.4344
  782MPD2     C11583   1.697   4.011   9.950 -1.1969  0.8643  0.5196
  782MPD2    C111584   1.647   3.987  10.080 -0.2034 -0.2595  0.3656
  782MPD2    C211585   1.670   4.084  10.175  0.8194  0.1812 -0.0573
  782MPD2    C311586   1.749   4.195  10.148 -0.9631 -0.2144 -0.6920
  782MPD2    C411587   1.806   4.215  10.024 -0.3857  0.0710 -0.2692
  782MPD2    C511588   1.768   4.127   9.918  0.1339  0.5042  0.6819
  782MPD2     H11589   1.624   4.067  10.272 -1.4723 -2.7465 -1.6512
  782MPD2    H111590   1.880   4.290  10.001  1.1432 -0.7870  1.9006
  782MPD2    H211591   1.677   3.941   9.871 -2.1399  1.7214 -0.0074
  782MPD2    H311592   1.807   4.133   9.817  0.8138  0.8786  0.9637
  782MPD2     N11593   1.771   4.289  10.250 -0.3421 -0.3864  0.7445
  782MPD2    H511594   1.808   4.379  10.219 -0.9080 -0.3992  0.0171
  782MPD2    N111595   1.579   3.872  10.125  0.1144 -0.7287  0.3782
  782MPD2    H711596   1.571   3.851  10.224  0.3875 -1.9065  0.1518
  783MPD2     C11597   0.820   3.744  10.661 -0.2209 -0.5685  0.2691
  783MPD2    C111598   0.935   3.774  10.724 -0.0696 -0.4380 -0.8571
  783MPD2    C211599   1.063   3.747  10.665  0.0782 -0.1834  1.2867
  783MPD2    C311600   1.066   3.693  10.540  0.1918 -0.6386 -0.3006
  783MPD2    C411601   0.947   3.664  10.477  0.0819  0.7552 -0.7275
  783MPD2    C511602   0.830   3.689  10.538 -0.5601  0.9839 -0.2157
  783MPD2     H11603   1.155   3.787  10.705  0.4853 -1.5734  1.7678
  783MPD2    H111604   0.931   3.613  10.383 -0.1283  2.1421 -1.4516
  783MPD2    H211605   0.721   3.762  10.698 -0.1394  0.7459 -0.1651
  783MPD2    H311606   0.737   3.671  10.484 -0.2598  1.5177 -0.9170
  783MPD2     N11607   1.185   3.661  10.471  0.2871 -0.0288 -0.2987
  783MPD2    H511608   1.268   3.664  10.529  0.8070  2.9784 -1.2345
  783MPD2    N111609   0.928   3.848  10.847 -0.2410 -0.2810 -0.0723
  783MPD2    H711610   0.837   3.852  10.892  0.7533  2.5099  1.6833
  784MPD2     C11611   4.064   0.034   0.758 -0.1444  0.0862 -0.1162
  784MPD2    C111612   4.122   0.159   0.783  0.8780 -0.1254 -0.4112
  784MPD2    C211613   4.065   0.267   0.721 -0.1238 -0.7175  0.0767
  784MPD2    C311614   3.965   0.256   0.623  0.0817 -0.5322  0.2945
  784MPD2    C411615   3.913   0.131   0.603 -0.5410 -1.0858  0.6607
  784MPD2    C511616   3.959   0.020   0.670  0.0375  0.3481 -0.2204
  784MPD2     H11617   4.101   0.364   0.752 -0.2674 -0.9535  0.9709
  784MPD2    H111618   3.849   0.106   0.520 -0.1758  0.0674  0.0343
  784MPD2    H211619   4.111   4.680   0.791  1.8894  1.4803  0.8412
  784MPD2    H311620   3.924   4.658   0.645 -1.0400  1.0263 -1.4156
  784MPD2     N11621   3.919   0.378   0.559  0.8891 -0.1467  0.1402
  784MPD2    H511622   3.963   0.467   0.581 -0.0775  0.4728 -0.4142
  784MPD2    N111623   4.215   0.179   0.890 -0.0846  0.0874 -0.7085
  784MPD2    H711624   4.246   0.272   0.916 -0.1066 -0.5905  1.6898
  785MPD2     C11625   3.727   2.871  11.206  0.4368 -0.0914  0.3678
  785MPD2    C111626   3.629   2.872  11.118  0.5082 -0.2051 -0.2404
  785MPD2    C211627   3.635   2.791  11.010  0.5099  0.1846  0.2288
  785MPD2    C311628   3.749   2.721  10.990  1.0049  0.8308  0.5541
  785MPD2    C411629   3.850   2.713  11.084  0.0859 -0.4189 -0.4197
  785MPD2    C511630   3.837   2.795  11.187 -0.1280 -0.1441  0.7744
  785MPD2     H11631   3.550   2.791  10.944 -0.0052  0.1367  0.8872
  785MPD2    H111632   3.938   2.651  11.074  0.3329 -0.1764  0.2376
  785MPD2    H211633   3.727   2.927  11.299  0.4753  0.4286  0.0595
  785MPD2    H311634   3.912   2.802  11.265 -0.4241  2.1972  0.8644
  785MPD2     N11635   3.760   2.645  10.872  0.6058  0.1580 -0.0241
  785MPD2    H511636   3.676   2.641  10.815  0.3774 -0.2189  0.3346
  785MPD2    N111637   3.504   2.951  11.124  0.4788 -0.0033  0.3441
  785MPD2    H711638   3.439   2.936  11.047  0.1435  0.3958  0.5472
  786MPD2     C11639   2.661   1.295  15.035  0.1650 -0.0590  0.0940
  786MPD2    C111640   2.757   1.205  15.010 -0.4656  0.2328 -0.7331
  786MPD2    C211641   2.883   1.208  15.069 -0.4942 -0.0348 -0.3607
  786MPD2    C311642   2.918   1.325  15.145 -0.2641 -0.0060 -0.6714
  786MPD2    C411643   2.821   1.424  15.162  0.3917  0.0467 -0.5873
  786MPD2    C511644   2.697   1.411  15.102  0.1676  0.3306  0.3152
  786MPD2     H11645   2.954   1.127  15.065 -0.8332 -0.2919 -1.1804
  786MPD2    H111646   2.834   1.506  15.232  1.8730  0.1804 -1.0288
  786MPD2    H211647   2.559   1.297  14.998 -0.2666 -1.1676  1.1861
  786MPD2    H311648   2.622   1.487  15.120 -1.3977 -1.2800  0.6185
  786MPD2     N11649   3.042   1.340  15.206  0.0309  0.1654  0.2954
  786MPD2    H511650   3.058   1.423  15.262  1.4156  0.6585 -0.8243
  786MPD2    N111651   2.735   1.083  14.938  0.0859  0.6161 -0.0521
  786MPD2    H711652   2.810   1.015  14.944  0.2280  0.7262 -0.5583
  787MPD2     C11653   3.177   0.708  14.957 -0.2216  0.2438  0.0333
  787MPD2    C111654   3.092   0.632  14.876 -0.0167  0.0979 -1.0564
  787MPD2    C211655   3.141   0.505  14.834 -0.5559 -0.3847  0.2898
  787MPD2    C311656   3.255   0.447  14.894 -0.0107 -0.0398 -0.4751
  787MPD2    C411657   3.333   0.532  14.970  0.4811 -0.5739 -0.0079
  787MPD2    C511658   3.301   0.663  15.001  0.1971 -0.8739  0.3271
  787MPD2     H11659   3.089   0.453  14.755 -1.5816  0.8000  0.1842
  787MPD2    H111660   3.428   0.504  15.014 -0.8223 -0.5326  2.8122
  787MPD2    H211661   3.150   0.809  14.984  4.2954  1.3884  0.3171
  787MPD2    H311662   3.372   0.711  15.068  0.1950  0.3447 -0.5467
  787MPD2     N11663   3.291   0.315  14.873 -0.1117  0.4922  0.1204
  787MPD2    H511664   3.234   0.263  14.807  0.1022  1.1759 -0.6124
  787MPD2    N111665   2.987   0.706  14.820 -0.2699 -0.2183  0.9805
  787MPD2    H711666   2.988   0.806  14.839  0.3273  0.3700 -2.1607
  788MPD2     C11667   0.198   4.542   1.182  0.0108 -0.1691 -0.2807
  788MPD2    C111668   0.220   4.451   1.078 -0.5338 -0.2858  0.3206
  788MPD2    C211669   0.241   4.515   0.954  0.4112  0.7893 -0.4333
  788MPD2    C311670   0.225   4.654   0.934  0.6089 -0.7632  0.3206
  788MPD2    C411671   0.199   4.732   1.042  0.3259  0.3591  0.4286
  788MPD2    C511672   0.190   4.676   1.168  0.0801  0.4426  0.0969
  788MPD2     H11673   0.260   4.452   0.868 -1.5736 -2.4016  1.4433
  788MPD2    H111674   0.204   0.102   1.029 -0.0165  0.3864  0.5258
  788MPD2    H211675   0.188   4.519   1.287 -0.9277 -0.2418 -0.3874
  788MPD2    H311676   0.185   0.003   1.255 -2.4926  0.1088  0.2104
  788MPD2     N11677   0.237   4.722   0.808 -0.5599  0.1569  0.1326
  788MPD2    H511678   0.237   0.087   0.810  0.6723  0.1980 -1.3638
  788MPD2    N111679   0.213   4.308   1.091  0.3444  0.6383 -0.0063
  788MPD2    H711680   0.230   4.253   1.007 -0.2463  1.8943 -0.9537
  789MPD2     C11681   0.162   3.554  17.229  0.3784 -0.0073  0.8342
  789MPD2    C111682   0.122   3.601  17.106  0.1272  0.6886 -0.0822
  789MPD2    C211683   0.047   3.712  17.109 -0.4158 -0.7969  0.6624
  789MPD2    C311684   0.025   3.793  17.219  0.0077  0.4144 -0.2544
  789MPD2    C411685   0.059   3.749  17.342  0.7778 -0.1850  0.1803
  789MPD2    C511686   0.126   3.626  17.346  0.4356 -0.6330 -0.3161
  789MPD2     H11687   0.015   3.747  17.011 -1.0437 -0.9878  0.7996
  789MPD2    H111688   0.040   3.819  17.423  2.6685  0.0123  0.4505
  789MPD2    H211689   0.217   3.461  17.240  3.5654  1.8606  0.5397
  789MPD2    H311690   0.166   3.583  17.437  0.9607  2.1540  0.7377
  789MPD2     N11691   4.689   3.913  17.205  0.4725 -0.5903 -0.2574
  789MPD2    H511692   4.673   3.968  17.289 -0.1368  1.4398 -1.7014
  789MPD2    N111693   0.139   3.531  16.985  0.6932 -0.0682 -0.5889
  789MPD2    H711694   0.087   3.559  16.902 -0.3626  1.0088  0.4247
  790MPD2     C11695   0.795   0.937  13.595 -0.4072 -0.1456  0.3953
  790MPD2    C111696   0.883   0.830  13.573 -0.8140 -0.1703  0.0300
  790MPD2    C211697   0.934   0.802  13.449  0.4882 -0.6847  0.4236
  790MPD2    C311698   0.889   0.876  13.341  0.1504 -0.9426 -0.1681
  790MPD2    C411699   0.800   0.978  13.364  0.4838 -0.5077  0.0862
  790MPD2    C511700   0.748   1.008  13.487 -0.3333 -0.1459 -0.0675
  790MPD2     H11701   0.997   0.718  13.422  1.9979  0.2646  0.9396
  790MPD2    H111702   0.754   1.038  13.286 -0.9110 -2.2042 -0.3674
  790MPD2    H211703   0.758   0.959  13.695 -0.3915  0.7813  0.2022
  790MPD2    H311704   0.678   1.089  13.505  0.8935  0.6663  1.1192
  790MPD2     N11705   0.937   0.846  13.211  0.1835 -0.3458 -0.3332
  790MPD2    H511706   0.990   0.759  13.203 -2.3423 -1.9245 -0.0845
  790MPD2    N111707   0.916   0.746  13.683 -0.2076  0.4926 -0.5007
  790MPD2    H711708   0.860   0.750  13.768  1.1400  0.9052  0.3667
  791MPD2     C11709   0.670   0.737  12.381  0.5543 -0.3935  0.4308
  791MPD2    C111710   0.696   0.672  12.500  0.4075 -0.0961  0.9755
  791MPD2    C211711   0.624   0.559  12.533 -0.0756 -0.3298 -0.2629
  791MPD2    C311712   0.523   0.522  12.452 -0.6389 -0.2626  0.5634
  791MPD2    C411713   0.502   0.578  12.326  0.1931 -0.3579  0.7615
  791MPD2    C511714   0.582   0.681  12.286  0.9237  0.0027 -0.2945
  791MPD2     H11715   0.646   0.511  12.628  1.3033 -1.2481 -1.0343
  791MPD2    H111716   0.434   0.533  12.255  0.3043 -1.2838  1.2428
  791MPD2    H211717   0.727   0.824  12.351 -0.9268 -0.2117 -1.8273
  791MPD2    H311718   0.580   0.726  12.188  0.8492 -1.2709 -0.8791
  791MPD2     N11719   0.439   0.418  12.498 -0.4885  0.3473 -0.3351
  791MPD2    H511720   0.482   0.359  12.569 -1.4901 -0.2907 -0.2565
  791MPD2    N111721   0.796   0.733  12.584 -0.4527 -0.2452 -0.2447
  791MPD2    H711722   0.842   0.820  12.562 -0.5716 -0.4486 -1.3072
  792MPD2     C11723   1.411   0.694  10.932  0.3146  0.0539 -1.3134
  792MPD2    C111724   1.299   0.770  10.935  0.9908  0.2643  0.6583
  792MPD2    C211725   1.175   0.710  10.956  0.9908  0.1246  0.0473
  792MPD2    C311726   1.168   0.571  10.969 -0.2071  0.1527  0.3064
  792MPD2    C411727   1.276   0.494  10.960 -0.3642  0.9507 -0.4347
  792MPD2    C511728   1.398   0.554  10.948  0.5244 -0.3821 -0.4996
  792MPD2     H11729   1.082   0.761  10.975  0.7904 -0.3507  0.3484
  792MPD2    H111730   1.281   0.386  10.972  1.6803  0.9774 -1.0095
  792MPD2    H211731   1.507   0.739  10.910  0.8133 -0.7843 -0.8757
  792MPD2    H311732   1.485   0.489  10.945  0.3446 -0.7503  3.1690
  792MPD2     N11733   1.039   0.508  10.992  0.5015 -0.1469  0.2284
  792MPD2    H511734   1.045   0.412  11.026 -0.4563  0.5126  2.2361
  792MPD2    N111735   1.303   0.914  10.920  0.2071  0.3946 -0.0851
  792MPD2    H711736   1.396   0.952  10.914  0.9119 -1.4848 -0.9613
  793MPD2     C11737   0.315   0.309  10.454 -0.1981  0.6242 -0.2893
  793MPD2    C111738   0.454   0.318  10.457  0.1414 -0.4800  0.3785
  793MPD2    C211739   0.507   0.361  10.576 -0.4080 -0.1292 -0.1103
  793MPD2    C311740   0.432   0.393  10.685 -0.0883  0.5065  0.3073
  793MPD2    C411741   0.295   0.375  10.686  0.2595 -0.3030 -0.0779
  793MPD2    C511742   0.242   0.343  10.564 -0.0159  0.1150 -0.5574
  793MPD2     H11743   0.615   0.371  10.586 -0.4567 -0.2731  0.5371
  793MPD2    H111744   0.233   0.407  10.769 -0.2742  1.8716 -1.3119
  793MPD2    H211745   0.258   0.279  10.366 -0.0122  0.3174 -0.3028
  793MPD2    H311746   0.134   0.345  10.549 -0.2972  0.1840  1.4448
  793MPD2     N11747   0.506   0.437  10.797  0.0179 -0.1317  0.2695
  793MPD2    H511748   0.603   0.465  10.786  0.1550 -0.3075  1.0396
  793MPD2    N111749   0.536   0.285  10.353 -0.1491 -0.2865  0.3373
  793MPD2    H711750   0.635   0.290  10.374 -0.0450 -1.4359  0.0987
  794MPD2     C11751   0.757   0.139   0.041 -0.1428  0.1067  0.1559
  794MPD2    C111752   0.751   0.033  17.702  0.3797  0.1100 -0.1667
  794MPD2    C211753   0.698   0.045  17.575 -0.0476  0.1056  0.3197
  794MPD2    C311754   0.631   0.162  17.545  0.1235 -0.1722 -0.5034
  794MPD2    C411755   0.625   0.270  17.640 -0.3693 -0.5499 -0.0156
  794MPD2    C511756   0.710   0.262   0.005 -0.4856 -0.0678  0.3769
  794MPD2     H11757   0.712   4.695  17.512  0.0220 -1.7342  2.8804
  794MPD2    H111758   0.564   0.359  17.632  0.4050  0.1836  2.3348
  794MPD2    H211759   0.781   0.121   0.145 -1.8153 -1.0512  0.3455
  794MPD2    H311760   0.702   0.343   0.077  0.9673 -0.2525  0.7481
  794MPD2     N11761   0.560   0.178  17.423 -0.1125 -0.3724  0.2604
  794MPD2    H511762   0.530   0.275  17.414 -0.3242 -0.4106  0.5567
  794MPD2    N111763   0.808   4.645  17.726 -0.2413 -0.6802  0.9628
  794MPD2    H711764   0.802   4.579  17.650  4.3091 -1.1006  1.0073
  795MPD2     C11765   3.523   2.355  14.119  0.9143  0.2433  0.6182
  795MPD2    C111766   3.473   2.245  14.053 -0.5434 -0.0295  0.1663
  795MPD2    C211767   3.554   2.135  14.026 -1.1338 -0.0205 -0.4467
  795MPD2    C311768   3.691   2.138  14.059 -0.3946 -0.2819  0.3344
  795MPD2    C411769   3.738   2.243  14.130  0.2701  0.1271 -0.0715
  795MPD2    C511770   3.653   2.352  14.159  0.0672 -0.3507  0.4946
  795MPD2     H11771   3.510   2.051  13.974 -3.6804  1.4347 -0.6226
  795MPD2    H111772   3.839   2.246  14.169  1.1786  0.6558 -2.4916
  795MPD2    H211773   3.457   2.436  14.145 -0.8851 -1.4539  1.3510
  795MPD2    H311774   3.689   2.434  14.219 -0.8895  1.9350 -2.0437
  795MPD2     N11775   3.784   2.037  14.013  0.2532 -0.1422 -0.2621
  795MPD2    H511776   3.743   1.964  13.955  1.0002 -0.1603 -0.7581
  795MPD2    N111777   3.338   2.242  14.016  0.3179  0.2452 -0.1720
  795MPD2    H711778   3.299   2.156  13.977 -1.2718  0.0600  1.8409
  796MPD2     C11779   2.974   3.630  15.915  0.6803  0.2910  0.5366
  796MPD2    C111780   2.986   3.692  16.036 -0.0423  0.0360  0.7049
  796MPD2    C211781   2.951   3.824  16.039 -0.0281 -0.3459 -0.1638
  796MPD2    C311782   2.913   3.897  15.924 -0.0402  0.1476 -0.4135
  796MPD2    C411783   2.919   3.832  15.801  0.1352 -0.1508 -0.0415
  796MPD2    C511784   2.942   3.695  15.799  0.1937 -0.9263  0.0495
  796MPD2     H11785   2.947   3.871  16.137  0.3262  0.1489 -0.3918
  796MPD2    H111786   2.884   3.880  15.710 -1.2380  0.5301  0.8488
  796MPD2    H211787   2.986   3.523  15.901  0.4149  0.1870  1.1019
  796MPD2    H311788   2.946   3.637  15.708 -2.0524 -0.8274 -0.1284
  796MPD2     N11789   2.882   4.028  15.938  0.4316 -0.1686 -0.2772
  796MPD2    H511790   2.898   4.074  16.027 -1.2977  0.3275 -0.2144
  796MPD2    N111791   3.011   3.610  16.149  0.3244 -0.2850  0.0286
  796MPD2    H711792   3.010   3.509  16.134  0.2667  0.0200 -2.0008
  797MPD2     C11793   3.966   3.351  17.564  0.6284 -0.2058 -0.1015
  797MPD2    C111794   3.916   3.462  17.636 -0.0523 -0.6876  0.3208
  797MPD2    C211795   3.779   3.475  17.665  0.3219 -0.8770 -0.2079
  797MPD2    C311796   3.693   3.395  17.592 -0.1430  0.1214 -0.2691
  797MPD2    C411797   3.739   3.290  17.528  0.8486  0.6858 -0.2848
  797MPD2    C511798   3.876   3.265  17.523 -0.0611 -0.4095  0.5534
  797MPD2     H11799   3.737   3.556  17.724  0.9529  0.4323 -1.5533
  797MPD2    H111800   3.675   3.215  17.482  0.9071  1.1971 -1.2029
  797MPD2    H211801   4.073   3.333  17.552  0.7528 -0.0945  0.8046
  797MPD2    H311802   3.906   3.166  17.490  1.3093  0.3895 -0.5895
  797MPD2     N11803   3.555   3.420  17.597 -0.1230  0.3096  0.0890
  797MPD2    H511804   3.533   3.502  17.652 -1.7668 -0.8887  1.2221
  797MPD2    N111805   3.996   3.561  17.693 -0.3219 -0.2024 -0.4220
  797MPD2    H711806   3.953   3.627   0.008 -0.6165 -2.4221  1.7061
  798MPD2     C11807   3.528   4.098  17.719  0.0068  0.0453  0.1185
  798MPD2    C111808   3.539   3.963  17.726  0.0536 -0.9101  0.8237
  798MPD2    C211809   3.655   3.904   0.026 -0.1160 -0.4114 -0.0027
  798MPD2    C311810   3.767   3.984   0.043 -0.2334 -0.4752  0.7142
  798MPD2    C411811   3.751   4.123   0.040  0.8677  0.2951 -0.5619
  798MPD2    C511812   3.629   4.180   0.018  0.1604  0.2711 -1.2659
  798MPD2     H11813   3.656   3.798   0.050 -1.9762 -0.9216 -2.1567
  798MPD2    H111814   3.831   4.184   0.081 -0.0675 -0.1482  1.9451
  798MPD2    H211815   3.434   4.144  17.690  0.4161  0.3982 -0.6471
  798MPD2    H311816   3.612   4.287   0.009 -0.2729  0.2191 -1.0614
  798MPD2     N11817   3.889   3.925   0.076 -0.4644 -0.1735  0.2816
  798MPD2    H511818   3.886   3.824   0.084 -0.6714 -0.2986 -1.3293
  798MPD2    N111819   3.421   3.890  17.685 -0.2439  0.0282  0.0094
  798MPD2    H711820   3.335   3.938  17.660 -0.9252 -1.2441 -0.0929
  799MPD2     C11821   2.990   0.141  15.039  0.5048 -0.7517 -0.1165
  799MPD2    C111822   2.980   0.055  14.935  0.2200  0.6656 -0.7618
  799MPD2    C211823   2.935   0.096  14.815  0.0188 -0.8309 -0.3507
  799MPD2    C311824   2.902   0.232  14.804 -0.6100 -0.5155  0.1204
  799MPD2    C411825   2.913   0.317  14.918  0.4903  0.5131  0.2065
  799MPD2    C511826   2.958   0.267  15.037 -0.0948  0.3475  0.9628
  799MPD2     H11827   2.943   0.026  14.733  1.5672 -0.4243 -0.5302
  799MPD2    H111828   2.906   0.425  14.922  1.0574  0.6242 -1.6081
  799MPD2    H211829   3.039   0.111  15.131 -0.1071  0.5501  0.6394
  799MPD2    H311830   2.973   0.336  15.119 -1.0992  1.4492  0.2390
  799MPD2     N11831   2.862   0.288  14.677  0.2113  0.6135 -0.1933
  799MPD2    H511832   2.865   0.390  14.676  1.8558  0.5487 -3.3618
  799MPD2    N111833   3.020   4.655  14.948  0.3794 -0.0392  0.3113
  799MPD2    H711834   3.016   4.600  14.863 -0.1380  1.6876 -0.7652
  800MPD2     C11835   3.382   1.327  14.559 -0.2861  0.3605  0.3972
  800MPD2    C111836   3.495   1.277  14.495  0.0929  0.1184  0.3272
  800MPD2    C211837   3.474   1.168  14.409  0.3723 -0.1888 -0.1300
  800MPD2    C311838   3.347   1.119  14.378  0.3097 -0.0817  0.4588
  800MPD2    C411839   3.247   1.166  14.452  0.0735 -0.2879  0.4633
  800MPD2    C511840   3.261   1.267  14.547 -0.3682  0.7929  0.3340
  800MPD2     H11841   3.549   1.117  14.350 -0.4033 -0.6717 -0.7107
  800MPD2    H111842   3.149   1.128  14.426  0.2865 -2.0582  2.2911
  800MPD2    H211843   3.385   1.414  14.624 -2.0068  0.2859  0.5683
  800MPD2    H311844   3.176   1.303  14.604  0.8464  1.7456  1.5722
  800MPD2     N11845   3.339   1.034  14.269 -0.2176 -0.3484 -0.0454
  800MPD2    H511846   3.430   1.011  14.231  0.6488  1.5723  0.8433
  800MPD2    N111847   3.619   1.348  14.508 -0.0874 -0.2731 -0.5861
  800MPD2    H711848   3.616   1.436  14.558 -0.1822 -0.5610 -0.0840
  801MPD2     C11849   3.800   2.022  14.431 -0.4190 -0.3281  1.0769
  801MPD2    C111850   3.743   1.924  14.506 -0.5142 -0.1053 -0.2180
  801MPD2    C211851   3.654   1.950  14.610  0.1797  0.2585 -0.0159
  801MPD2    C311852   3.642   2.084  14.643  0.6179  0.3801 -0.5727
  801MPD2    C411853   3.720   2.176  14.575  0.9226 -0.9890  0.6937
  801MPD2    C511854   3.801   2.150  14.469 -0.9729  0.1626  0.6530
  801MPD2     H11855   3.607   1.866  14.661  0.5718  0.3118  0.4460
  801MPD2    H111856   3.704   2.281  14.599 -0.4634 -0.9042 -0.5827
  801MPD2    H211857   3.866   2.015  14.345 -1.8524 -0.1159 -0.0343
  801MPD2    H311858   3.856   2.230  14.421 -3.1226 -0.2819 -2.4896
  801MPD2     N11859   3.559   2.137  14.747 -0.1707 -0.2170  0.9505
  801MPD2    H511860   3.583   2.231  14.776  0.9589 -0.2801  0.1952
  801MPD2    N111861   3.771   1.788  14.477 -0.0403 -0.1189 -0.3163
  801MPD2    H711862   3.725   1.717  14.533 -1.7198  0.2119 -1.2728
  802MPD2     C11863   3.076   2.789   0.676 -0.6996  0.0740  0.2244
  802MPD2    C111864   2.978   2.723   0.599 -0.0429 -0.0206 -0.0522
  802MPD2    C211865   3.024   2.614   0.525  0.0510 -0.3386 -0.0317
  802MPD2    C311866   3.154   2.581   0.500  0.1265 -1.1093 -0.9216
  802MPD2    C411867   3.247   2.653   0.569 -0.0723 -0.0917  0.4955
  802MPD2    C511868   3.202   2.751   0.658  0.5195 -0.1150  0.6006
  802MPD2     H11869   2.940   2.558   0.485 -0.7409 -0.5067  1.8595
  802MPD2    H111870   3.352   2.625   0.563 -0.1065 -0.0808 -0.2294
  802MPD2    H211871   3.060   2.884   0.727  0.8770 -0.5647  1.9096
  802MPD2    H311872   3.271   2.804   0.723  2.1870  0.1243 -1.3531
  802MPD2     N11873   3.180   2.476   0.408  0.4987  0.2106  0.0610
  802MPD2    H511874   3.098   2.442   0.359  1.4134 -0.1311 -1.2163
  802MPD2    N111875   2.845   2.766   0.580 -0.6167  0.2398  0.1577
  802MPD2    H711876   2.793   2.712   0.512  0.3425  0.7539 -1.0043
  803MPD2     C11877   3.901   0.536  12.423  0.0414  0.5365  0.0509
  803MPD2    C111878   3.933   0.653  12.488  0.6774  0.0289 -0.4078
  803MPD2    C211879   3.947   0.655  12.621 -0.7771  0.0481 -0.0329
  803MPD2    C311880   3.925   0.538  12.684 -0.4048 -0.2406  0.3890
  803MPD2    C411881   3.881   0.425  12.622 -0.0095  0.4873 -0.0570
  803MPD2    C511882   3.860   0.427  12.488  0.3311  0.0371  0.7466
  803MPD2     H11883   3.968   0.747  12.673 -1.5657 -0.9608  2.0794
  803MPD2    H111884   3.856   0.327  12.660  1.3415  0.2901  0.3162
  803MPD2    H211885   3.897   0.546  12.315  0.8880 -0.3970 -0.0679
  803MPD2    H311886   3.829   0.338  12.434 -0.9189  0.7089  0.3779
  803MPD2     N11887   3.938   0.520  12.825  0.3833 -0.2978  0.4060
  803MPD2    H511888   3.923   0.427  12.863  1.1073 -0.5638  0.0499
  803MPD2    N111889   3.957   0.782  12.429  0.2553 -0.6002 -0.2097
  803MPD2    H711890   3.976   0.852  12.500  0.0447  0.7237 -1.4514
  804MPD2     C11891   3.542   2.029  16.741 -0.1900 -0.5550 -0.0568
  804MPD2    C111892   3.516   1.976  16.867  0.9556 -0.1629 -0.0738
  804MPD2    C211893   3.577   2.029  16.979  0.3510 -0.4405  0.0099
  804MPD2    C311894   3.649   2.152  16.966  0.1800 -0.5905 -0.0634
  804MPD2    C411895   3.680   2.202  16.847  0.0423  0.3974  0.5126
  804MPD2    C511896   3.627   2.139  16.737 -0.2117  0.7724  0.9010
  804MPD2     H11897   3.548   1.989  17.075  1.6165  3.0547  1.8182
  804MPD2    H111898   3.738   2.292  16.832 -0.3614  0.3966 -1.1503
  804MPD2    H211899   3.504   1.996  16.645 -0.9176 -0.5854  0.2424
  804MPD2    H311900   3.634   2.190  16.642 -2.4098 -1.6043 -0.5383
  804MPD2     N11901   3.690   2.214  17.081  0.3353 -0.2079 -0.5874
  804MPD2    H511902   3.677   2.157  17.164  2.8881  0.2466  0.1281
  804MPD2    N111903   3.431   1.866  16.885  0.1478 -0.0909  0.0266
  804MPD2    H711904   3.415   1.826  16.977 -0.3971 -0.5948 -0.2809
  805MPD2     C11905   2.892   0.531  15.541  0.0628 -0.2289  0.1551
  805MPD2    C111906   2.957   0.420  15.498  0.3915  0.0671  0.6271
  805MPD2    C211907   3.076   0.387  15.561 -0.3536  0.3585  0.0979
  805MPD2    C311908   3.126   0.471  15.663  0.3809 -0.0818 -0.2416
  805MPD2    C411909   3.054   0.586  15.703  0.3495  1.1364  0.2092
  805MPD2    C511910   2.934   0.613  15.645 -0.2657  0.8793 -0.0447
  805MPD2     H11911   3.133   0.300  15.531  0.8223  1.4870 -0.9413
  805MPD2    H111912   3.086   0.648  15.786  1.6951  1.7628 -0.7899
  805MPD2    H211913   2.801   0.569  15.495  0.7507  1.4801  0.2213
  805MPD2    H311914   2.873   0.697  15.675 -1.7829 -0.2621  0.0539
  805MPD2     N11915   3.249   0.430  15.727  0.7416 -0.7953 -0.0397
  805MPD2    H511916   3.309   0.365  15.677  1.6083  0.3365 -0.5037
  805MPD2    N111917   2.896   0.323  15.411  0.4654  0.2252 -0.1338
  805MPD2    H711918   2.938   0.231  15.412 -0.4405 -0.1894 -2.3026
  806MPD2     C11919   3.086   0.236   0.897 -0.5974  0.1476 -0.1089
  806MPD2    C111920   3.202   0.306   0.863  0.4574 -0.1871  0.1204
  806MPD2    C211921   3.244   0.285   0.731 -0.2479 -0.3526 -0.1715
  806MPD2    C311922   3.158   0.231   0.637  0.2765  0.0778  0.4518
  806MPD2    C411923   3.045   0.161   0.673 -0.5358 -0.8007  0.4033
  806MPD2    C511924   3.012   0.168   0.803  0.1971  0.3283  0.4029
  806MPD2     H11925   3.339   0.332   0.706 -1.5887  2.3058 -0.3048
  806MPD2    H111926   2.989   0.092   0.611 -0.5470  0.3516 -0.8837
  806MPD2    H211927   3.044   0.237   0.997 -2.3583  1.4328 -0.8579
  806MPD2    H311928   2.926   0.107   0.830  0.1273  0.3514  0.2347
  806MPD2     N11929   3.193   0.223   0.500  0.5318  0.0321  0.3418
  806MPD2    H511930   3.134   0.173   0.434  1.1579  1.5787 -1.4121
  806MPD2    N111931   3.289   0.369   0.959  0.1091  0.1065 -0.0688
  806MPD2    H711932   3.248   0.368   1.052  2.3580 -0.0701  0.9131
  807MPD2     C11933   3.128   0.739   1.514  0.2467  0.3801  0.5729
  807MPD2    C111934   3.160   0.610   1.480  0.2576  0.4799 -0.5095
  807MPD2    C211935   3.080   0.506   1.521  0.2162  0.2529  0.1927
  807MPD2    C311936   2.967   0.526   1.593  0.7757 -0.4275  0.4415
  807MPD2    C411937   2.938   0.659   1.623  0.4104  0.4535  0.4272
  807MPD2    C511938   3.013   0.763   1.585 -0.4163  0.2341  0.1891
  807MPD2     H11939   3.108   0.405   1.495 -1.8082 -0.4893  0.8792
  807MPD2    H111940   2.850   0.695   1.675 -0.6591  0.3757 -1.3615
  807MPD2    H211941   3.202   0.818   1.505 -0.3300  0.7310 -0.9819
  807MPD2    H311942   2.987   0.859   1.629 -2.1019 -0.6500  1.0993
  807MPD2     N11943   2.892   0.417   1.651  0.2916 -0.3533 -0.1093
  807MPD2    H511944   2.920   0.324   1.621  0.0761 -0.3645 -0.2717
  807MPD2    N111945   3.266   0.575   1.401  0.1215  0.0502  0.0624
  807MPD2    H711946   3.268   0.479   1.369  2.0175  0.1739 -0.2150
  808MPD2     C11947   2.767   1.276   9.623  0.0275 -0.0213  0.1386
  808MPD2    C111948   2.847   1.255   9.734  0.0369 -0.1973  0.3432
  808MPD2    C211949   2.938   1.346   9.782 -0.4791  0.3317  0.4251
  808MPD2    C311950   2.948   1.465   9.723 -0.3716  0.9286 -0.2410
  808MPD2    C411951   2.862   1.491   9.610  0.5795 -0.1133  0.6943
  808MPD2    C511952   2.770   1.402   9.566  0.2128 -0.1316 -0.5508
  808MPD2     H11953   2.987   1.322   9.875  0.8539 -1.1098 -0.6420
  808MPD2    H111954   2.867   1.582   9.553  0.6586 -0.5958 -0.0731
  808MPD2    H211955   2.696   1.202   9.588  0.5742  0.1297 -1.2997
  808MPD2    H311956   2.720   1.415   9.470 -1.0561 -0.4266  0.0777
  808MPD2     N11957   3.028   1.570   9.771  0.5359  0.0045 -0.1612
  808MPD2    H511958   3.029   1.655   9.717  0.3109 -0.8617 -1.5394
  808MPD2    N111959   2.838   1.135   9.811  0.5122 -0.2665 -0.4033
  808MPD2    H711960   2.881   1.138   9.903  1.0101 -3.1387 -0.5509
  809MPD2     C11961   3.616   1.502   9.288 -0.4116  0.3189  0.3800
  809MPD2    C111962   3.683   1.528   9.405  0.5168 -0.0078  0.2100
  809MPD2    C211963   3.622   1.612   9.497  0.0618 -0.2736 -0.2087
  809MPD2    C311964   3.489   1.649   9.483 -0.4463 -0.4559  0.4517
  809MPD2    C411965   3.430   1.618   9.363 -0.0397  0.4185  0.1815
  809MPD2    C511966   3.486   1.545   9.269 -0.2928 -0.3822  0.9043
  809MPD2     H11967   3.679   1.641   9.585 -0.7800  1.2537 -0.1622
  809MPD2    H111968   3.329   1.655   9.351  0.2296  0.6180 -1.4083
  809MPD2    H211969   3.669   1.457   9.205  0.6347  3.2516 -0.5572
  809MPD2    H311970   3.433   1.526   9.177  0.0480  0.7423  0.4706
  809MPD2     N11971   3.423   1.729   9.580 -0.2861  0.2671  0.1919
  809MPD2    H511972   3.329   1.752   9.549  0.0107 -0.8790 -1.5909
  809MPD2    N111973   3.812   1.486   9.430  0.3910  0.0878  0.2591
  809MPD2    H711974   3.855   1.510   9.519 -1.6836 -0.0370  1.2860
  810MPD2     C11975   2.717   0.342  10.829  0.1089 -0.4249 -0.1745
  810MPD2    C111976   2.617   0.391  10.749 -0.7200 -0.1451 -0.1658
  810MPD2    C211977   2.599   0.528  10.752  0.2161  0.1712  0.5476
  810MPD2    C311978   2.673   0.613  10.833 -0.2130  0.4438 -0.0042
  810MPD2    C411979   2.778   0.554  10.904 -0.1470  0.3070  0.1791
  810MPD2    C511980   2.803   0.417  10.903 -0.4836 -0.2992  0.2218
  810MPD2     H11981   2.507   0.567  10.710 -0.2231  0.5976  1.8849
  810MPD2    H111982   2.847   0.620  10.956  0.8952 -1.7199  1.3699
  810MPD2    H211983   2.739   0.236  10.823  0.0813 -0.4691  0.6000
  810MPD2    H311984   2.884   0.370  10.958 -1.3179 -0.0514  1.6501
  810MPD2     N11985   2.665   0.748  10.819  0.0559  0.0839  0.0724
  810MPD2    H511986   2.704   0.799  10.897 -0.2825  0.5681 -0.0749
  810MPD2    N111987   2.532   0.314  10.669  0.4463  0.5139  0.6243
  810MPD2    H711988   2.468   0.368  10.613  0.4471 -2.5690 -2.3390
  811MPD2     C11989   1.909   0.341  10.157  0.6182 -0.7167 -0.1001
  811MPD2    C111990   1.995   0.382  10.251  0.3444 -0.6564 -0.1897
  811MPD2    C211991   2.029   0.509  10.272 -0.5101  0.3957  0.8425
  811MPD2    C311992   1.991   0.606  10.181 -0.3870  0.2961  0.0109
  811MPD2    C411993   1.897   0.569  10.086  0.0579  0.4375  0.0996
  811MPD2    C511994   1.854   0.436  10.080  0.6424 -1.1973  0.1098
  811MPD2     H11995   2.102   0.542  10.345  0.3380  0.6850 -0.1324
  811MPD2    H111996   1.854   0.638  10.014 -3.1011 -0.6097  1.0024
  811MPD2    H211997   1.888   0.238  10.130 -1.2071 -0.7589  1.4449
  811MPD2    H311998   1.779   0.410  10.006 -1.0751 -0.4414  1.5674
  811MPD2     N11999   2.046   0.736  10.193 -0.2926  0.2947 -0.5015
  811MPD2    H512000   2.113   0.756  10.266 -0.6221 -1.8692  0.3941
  811MPD2    N112001   2.041   0.275  10.330  0.3210  0.0277 -0.7848
  811MPD2    H712002   2.013   0.183  10.295  0.7264 -0.8743  1.2413
  812MPD2     C12003   1.118   0.635  12.490 -0.2024 -0.1420 -0.2426
  812MPD2    C112004   1.234   0.711  12.491 -0.4544  0.0058  1.1163
  812MPD2    C212005   1.331   0.682  12.590  0.4004 -0.1394 -0.3460
  812MPD2    C312006   1.315   0.576  12.683 -0.1007 -0.3662 -0.0881
  812MPD2    C412007   1.194   0.505  12.678  0.1520  0.1449  0.0270
  812MPD2    C512008   1.097   0.540  12.587 -0.4140 -0.6557 -0.4869
  812MPD2     H12009   1.414   0.752  12.596  0.2379 -0.1208  1.9754
  812MPD2    H112010   1.175   0.428  12.751 -0.2387  0.2406  0.0255
  812MPD2    H212011   1.040   0.648  12.415 -0.5679  0.5629  0.2641
  812MPD2    H312012   1.004   0.485  12.581  0.3345 -2.0722  0.6643
  812MPD2     N12013   1.414   0.546  12.772 -0.1859 -0.7244 -0.3624
  812MPD2    H512014   1.482   0.622  12.775 -2.2111  0.9797  2.3320
  812MPD2    N112015   1.255   0.807  12.387 -0.1664  0.5211 -0.0352
  812MPD2    H712016   1.180   0.818  12.320  0.0295 -1.0998 -0.5177
  813MPD2     C12017   1.754   2.396  13.237  0.5804  0.2267 -0.1971
  813MPD2    C112018   1.678   2.502  13.222 -0.0063  0.4195 -0.1840
  813MPD2    C212019   1.545   2.496  13.265 -0.1797  0.9654  0.2552
  813MPD2    C312020   1.504   2.387  13.339  0.3063  0.1876  0.2210
  813MPD2    C412021   1.579   2.272  13.346  0.7116  0.1278  0.2423
  813MPD2    C512022   1.706   2.284  13.299 -0.3554 -0.3311 -0.3810
  813MPD2     H12023   1.474   2.578  13.266 -1.1658  0.1843 -2.4678
  813MPD2    H112024   1.557   2.176  13.390  3.1662 -0.0025  1.1666
  813MPD2    H212025   1.859   2.397  13.209  0.5512 -3.5922 -0.4471
  813MPD2    H312026   1.775   2.201  13.311  0.0495  0.4227  2.4473
  813MPD2     N12027   1.374   2.390  13.388  0.0918 -0.3715 -0.2393
  813MPD2    H512028   1.313   2.464  13.353 -0.8467 -0.9920  0.0984
  813MPD2    N112029   1.718   2.627  13.187 -0.5767  0.7505 -0.3247
  813MPD2    H712030   1.650   2.701  13.202  0.0221  1.2797 -0.2443
  814MPD2     C12031   1.224   3.716  12.295 -0.1139 -0.1761 -0.4947
  814MPD2    C112032   1.283   3.754  12.172  0.0235 -0.2694 -0.2004
  814MPD2    C212033   1.347   3.870  12.164 -0.3944  0.3633 -0.0795
  814MPD2    C312034   1.359   3.953  12.269  0.4473  0.0330 -0.2410
  814MPD2    C412035   1.295   3.921  12.385 -0.1752  0.0353 -0.3367
  814MPD2    C512036   1.227   3.808  12.402  0.5994  0.0319 -0.1804
  814MPD2     H12037   1.384   3.895  12.065  0.3863 -0.9739 -0.1230
  814MPD2    H112038   1.302   3.982  12.474  0.3884 -1.2647  0.5094
  814MPD2    H212039   1.183   3.618  12.318 -1.2054  0.8219  1.7552
  814MPD2    H312040   1.194   3.783  12.502 -1.3385  0.1168 -0.8047
  814MPD2     N12041   1.447   4.064  12.274  0.3049  0.3393 -0.2345
  814MPD2    H512042   1.483   4.095  12.363 -1.8867  2.2044  0.0096
  814MPD2    N112043   1.281   3.676  12.058 -0.5278 -0.0734 -0.3558
  814MPD2    H712044   1.329   3.710  11.975  0.1019 -3.6958 -1.4761
  815MPD2     C12045   1.701   2.457  11.587 -0.6289  0.0280  0.5014
  815MPD2    C112046   1.662   2.323  11.586 -0.4507  0.5745  0.1832
  815MPD2    C212047   1.561   2.297  11.668 -0.1852 -0.9808  0.2179
  815MPD2    C312048   1.498   2.388  11.749 -0.2627 -0.3977 -0.1666
  815MPD2    C412049   1.544   2.517  11.752  0.0898 -0.6685  0.7468
  815MPD2    C512050   1.641   2.553  11.664 -0.8388  0.2179  0.7653
  815MPD2     H12051   1.523   2.195  11.672  0.1863 -1.1148  0.3743
  815MPD2    H112052   1.501   2.595  11.814 -1.0316 -1.0749  0.4756
  815MPD2    H212053   1.782   2.488  11.523 -0.7990 -0.5815 -0.0076
  815MPD2    H312054   1.666   2.659  11.655  0.5727  0.0621  2.7430
  815MPD2     N12055   1.394   2.346  11.835 -0.2205 -0.3957 -0.0451
  815MPD2    H512056   1.355   2.257  11.806 -4.0898  0.4746  2.4154
  815MPD2    N112057   1.738   2.225  11.511 -0.1630 -0.5625  0.5821
  815MPD2    H712058   1.807   2.270  11.451 -2.0858  0.6095 -0.7298
  816MPD2     C12059   2.420   1.529  17.137 -0.8972  0.3394  0.1938
  816MPD2    C112060   2.299   1.528  17.074 -0.0736 -0.0053 -0.4319
  816MPD2    C212061   2.291   1.469  16.947  0.0444  0.5322  0.4573
  816MPD2    C312062   2.401   1.417  16.877 -0.4395 -0.4586 -0.5229
  816MPD2    C412063   2.522   1.412  16.951 -0.2374 -0.5905 -0.2294
  816MPD2    C512064   2.527   1.468  17.076 -0.0558 -0.0989  0.2207
  816MPD2     H12065   2.193   1.458  16.902 -0.6559  2.9982  1.3450
  816MPD2    H112066   2.617   1.384  16.907  1.0642  0.8777  1.6520
  816MPD2    H212067   2.422   1.597  17.222  0.9405 -0.8918  1.1289
  816MPD2    H312068   2.626   1.483  17.118 -1.1468 -1.3594  3.2867
  816MPD2     N12069   2.376   1.350  16.755 -0.0717 -0.1502  0.0907
  816MPD2    H512070   2.284   1.364  16.714  0.1673  0.9043 -0.0955
  816MPD2    N112071   2.197   1.591  17.153 -0.4949 -0.0853 -0.2797
  816MPD2    H712072   2.232   1.637  17.236  0.5318  0.7713 -1.1875
  817MPD2     C12073   0.670   2.646  10.301 -0.3585 -0.2740  0.3372
  817MPD2    C112074   0.679   2.662  10.167  0.8524 -0.3024  0.2296
  817MPD2    C212075   0.622   2.774  10.111  0.3607  0.4702 -0.2386
  817MPD2    C312076   0.573   2.871  10.197  0.1212 -0.1442  0.3113
  817MPD2    C412077   0.572   2.855  10.334 -0.8381  0.1943 -0.7060
  817MPD2    C512078   0.628   2.742  10.385 -0.6210 -0.5281 -0.2846
  817MPD2     H12079   0.634   2.794  10.005  1.5060 -0.4651 -0.2918
  817MPD2    H112080   0.536   2.934  10.398  1.3647 -0.1333  0.9059
  817MPD2    H212081   0.702   2.556  10.354  0.9631 -1.5732 -2.6479
  817MPD2    H312082   0.632   2.720  10.491 -1.9082 -0.3251 -0.1976
  817MPD2     N12083   0.515   2.980  10.131 -0.4192  0.5296 -0.2913
  817MPD2    H512084   0.529   2.976  10.030  1.5447  1.8803 -0.0677
  817MPD2    N112085   0.739   2.567  10.082 -0.3793 -0.3047  0.6193
  817MPD2    H712086   0.734   2.587   9.983 -2.6556  0.3536  0.8714
  818MPD2     C12087   4.183   2.773   9.777 -0.0786  0.4235  0.5768
  818MPD2    C112088   4.287   2.746   9.870  0.3572 -0.1928 -0.0090
  818MPD2    C212089   4.337   2.620   9.857 -0.2821  0.2033 -0.0858
  818MPD2    C312090   4.289   2.527   9.766  0.2390  0.0416  0.1480
  818MPD2    C412091   4.200   2.562   9.668  0.3282  0.7027 -0.0346
  818MPD2    C512092   4.140   2.682   9.683 -0.3071  0.4393  0.0208
  818MPD2     H12093   4.404   2.587   9.935  1.2915 -0.5793 -1.7909
  818MPD2    H112094   4.160   2.493   9.594  1.2746 -1.6573  1.6618
  818MPD2    H212095   4.124   2.863   9.784 -0.2269  0.1848  2.3261
  818MPD2    H312096   4.060   2.699   9.612 -1.0997  1.0932  1.0550
  818MPD2     N12097   4.343   2.399   9.756 -0.1666 -0.2919  0.2702
  818MPD2    H512098   4.304   2.347   9.679  2.5737 -0.1832 -1.1734
  818MPD2    N112099   4.326   2.827   9.979 -0.1399 -0.3284  0.3923
  818MPD2    H712100   4.382   2.777  10.047  1.9968  2.4758  0.6722
  819MPD2     C12101   3.334   4.494  16.006  0.5354  0.1033  0.2280
  819MPD2    C112102   3.382   4.376  15.954  0.2367  0.1742 -0.7204
  819MPD2    C212103   3.519   4.352  15.965 -0.3294  0.4682  0.2884
  819MPD2    C312104   3.603   4.437  16.026  0.1767  0.8202 -0.4605
  819MPD2    C412105   3.551   4.553  16.076  0.2140 -0.0722  0.2364
  819MPD2    C512106   3.417   4.580  16.066 -0.0327 -1.0831  0.1318
  819MPD2     H12107   3.558   4.257  15.930  0.3069  0.6759  0.4531
  819MPD2    H112108   3.612   4.624  16.132  0.0748  0.8540 -0.7896
  819MPD2    H212109   3.230   4.521  15.998  0.3356 -0.7511 -0.0626
  819MPD2    H312110   3.387   4.673  16.111  1.7589  0.3537 -1.6414
  819MPD2     N12111   3.744   4.413  16.021 -0.4032 -0.0939  0.4888
  819MPD2    H512112   3.780   4.331  15.973  0.4199  0.2664  0.4817
  819MPD2    N112113   3.294   4.280  15.893 -0.9458  0.3953  0.4526
  819MPD2    H712114   3.197   4.307  15.883 -0.7626  0.4102 -1.2591
  820MPD2     C12115   2.732   4.257  15.099 -0.3881 -0.2196 -0.5332
  820MPD2    C112116   2.769   4.339  15.201  0.3190  0.0979  0.5050
  820MPD2    C212117   2.824   4.289  15.314  1.1316  1.0098  0.2043
  820MPD2    C312118   2.844   4.158  15.328 -0.0097  0.3670 -0.3588
  820MPD2    C412119   2.784   4.069  15.237 -0.2270 -0.1476 -0.3534
  820MPD2    C512120   2.735   4.120  15.117 -0.4171 -0.0924  0.5032
  820MPD2     H12121   2.832   4.354  15.401 -2.8684  2.0062 -0.1887
  820MPD2    H112122   2.782   3.963  15.255  1.1052 -0.0142  0.5637
  820MPD2    H212123   2.711   4.294  14.999 -1.0014 -0.2331 -0.4131
  820MPD2    H312124   2.690   4.052  15.046 -2.2596  0.3048  1.2813
  820MPD2     N12125   2.914   4.104  15.432  0.1404 -0.1976  0.0704
  820MPD2    H512126   2.898   4.004  15.441 -0.5060 -0.2662 -1.7583
  820MPD2    N112127   2.763   4.478  15.169 -0.6897 -0.2318 -0.7258
  820MPD2    H712128   2.715   4.502  15.083 -0.8251 -1.8058 -1.0806
  821MPD2     C12129   3.233   1.296  13.541  0.0427  0.0605 -0.5236
  821MPD2    C112130   3.337   1.298  13.631  0.0632 -0.1161  0.0044
  821MPD2    C212131   3.432   1.394  13.613 -0.8898  0.5968  0.0359
  821MPD2    C312132   3.438   1.498  13.523  0.3413 -0.7928  0.7958
  821MPD2    C412133   3.330   1.499  13.434 -0.2948  0.9501 -0.5937
  821MPD2    C512134   3.238   1.401  13.447  0.5153 -0.9557  0.1558
  821MPD2     H12135   3.506   1.369  13.689 -0.6046  2.5474  0.4104
  821MPD2    H112136   3.311   1.574  13.358  0.9886  0.8848 -0.9791
  821MPD2    H212137   3.149   1.228  13.545  0.9393 -0.9997  0.4494
  821MPD2    H312138   3.158   1.408  13.374  0.2521  2.1720  0.7360
  821MPD2     N12139   3.550   1.587  13.515  0.0345  0.2509  0.2092
  821MPD2    H512140   3.559   1.653  13.438 -0.2168  0.6213  0.4991
  821MPD2    N112141   3.360   1.204  13.735 -0.8601  0.2428 -0.3553
  821MPD2    H712142   3.438   1.223  13.796 -0.4456  1.3009 -1.2209
  822MPD2     C12143   4.354   1.336  15.671 -0.3537 -0.2106 -0.3736
  822MPD2    C112144   4.261   1.290  15.763  0.1948 -0.0664 -0.2102
  822MPD2    C212145   4.173   1.385  15.815 -0.3564  0.3886 -0.1407
  822MPD2    C312146   4.177   1.522  15.783  0.1753  0.0680 -0.2204
  822MPD2    C412147   4.265   1.560  15.685  0.3358  0.2476 -0.1193
  822MPD2    C512148   4.354   1.469  15.635  0.0240 -0.1727  0.0962
  822MPD2     H12149   4.092   1.354  15.880 -0.1547  0.5822  0.2057
  822MPD2    H112150   4.277   1.657  15.639 -0.3441  0.5619  0.3741
  822MPD2    H212151   4.427   1.274  15.620 -0.8213 -0.0191 -1.2767
  822MPD2    H312152   4.423   1.502  15.558 -0.3356 -0.2516 -0.2608
  822MPD2     N12153   4.093   1.610  15.854  0.1854  0.6349  0.6098
  822MPD2    H512154   4.035   1.573  15.929  1.7544 -1.2887  0.8939
  822MPD2    N112155   4.258   1.164  15.819 -0.4788  0.2522 -0.1448
  822MPD2    H712156   4.197   1.148  15.898 -2.9498  1.2412 -1.8520
  823MPD2     C12157   3.692   1.731  16.560  0.2442  0.3270  0.3971
  823MPD2    C112158   3.723   1.656  16.449  0.3455  0.4341  0.5004
  823MPD2    C212159   3.713   1.518  16.445  0.5731 -0.6821  0.5984
  823MPD2    C312160   3.662   1.457  16.563 -0.2567  0.3186 -0.6432
  823MPD2    C412161   3.640   1.527  16.674 -0.1436  0.2155  0.6554
  823MPD2    C512162   3.658   1.666  16.675  0.4888  0.0683  0.5595
  823MPD2     H12163   3.736   1.463  16.355 -0.4221 -1.1009  0.6073
  823MPD2    H112164   3.610   1.481  16.767 -0.6880 -0.2135  0.2631
  823MPD2    H212165   3.688   1.839  16.567 -0.1110  0.2277  1.7954
  823MPD2    H312166   3.638   1.729  16.760 -0.5440  0.4406  0.0413
  823MPD2     N12167   3.649   1.313  16.590  0.7389 -0.0217  0.0877
  823MPD2    H512168   3.614   1.281  16.680  1.0800 -1.1504 -0.1766
  823MPD2    N112169   3.781   1.732  16.338 -0.2767  0.1391 -0.4650
  823MPD2    H712170   3.799   1.831  16.352  1.4189 -0.2972  0.4932
  824MPD2     C12171   4.537   0.389  15.678 -0.4701 -0.1938  0.0591
  824MPD2    C112172   4.584   0.515  15.708  0.6203 -0.4050  0.2612
  824MPD2    C212173   4.701   0.557  15.657  0.9731 -0.5800  1.0996
  824MPD2    C312174   0.047   0.467  15.591  0.0450 -0.5737 -0.3139
  824MPD2    C412175   4.730   0.342  15.565 -0.1224 -0.4711  2.1386
  824MPD2    C512176   4.612   0.298  15.608 -0.0701 -0.2257 -0.9074
  824MPD2     H12177   0.004   0.656  15.676 -0.1007  0.0537  0.0347
  824MPD2    H112178   0.044   0.264  15.509  2.3424  2.4756  0.2966
  824MPD2    H212179   4.439   0.350  15.705 -1.1529  2.0537  0.8041
  824MPD2    H312180   4.581   0.196  15.589 -0.4074 -0.2736 -0.1307
  824MPD2     N12181   0.173   0.512  15.534  0.0852  0.1538  0.1941
  824MPD2    H512182   0.208   0.606  15.548 -0.5194  0.3419  0.4626
  824MPD2    N112183   4.497   0.607  15.773 -0.3226 -0.3705  0.6132
  824MPD2    H712184   4.532   0.701  15.788  0.4244 -0.3057 -1.6048
  825MPD2     C12185   0.796   0.945  15.154 -0.0207  0.0692  0.2874
  825MPD2    C112186   0.739   0.935  15.279 -0.6963 -0.1699  0.7263
  825MPD2    C212187   0.751   1.032  15.370  0.2420  0.3441  0.0784
  825MPD2    C312188   0.821   1.143  15.338 -0.1669  0.1851 -0.6003
  825MPD2    C412189   0.868   1.152  15.207 -0.6362  0.2505 -0.1437
  825MPD2    C512190   0.852   1.054  15.112  0.8306  0.0791  0.1609
  825MPD2     H12191   0.714   1.025  15.472  0.8928 -1.8177  0.1829
  825MPD2    H112192   0.926   1.242  15.190 -1.6776  1.1242  0.9402
  825MPD2    H212193   0.804   0.851  15.101  0.6055 -0.0926  0.6727
  825MPD2    H312194   0.905   1.053  15.017  0.8028  0.7599  0.1356
  825MPD2     N12195   0.837   1.266  15.413 -0.6666 -0.1587 -0.4279
  825MPD2    H512196   0.888   1.342  15.370  2.1477  0.4627  4.0361
  825MPD2    N112197   0.685   0.814  15.304 -0.0886  0.1492 -0.2505
  825MPD2    H712198   0.714   0.743  15.237 -1.6526 -0.4853 -0.2518
  826MPD2     C12199   0.048   0.233  13.566 -0.6052 -0.4649 -0.1246
  826MPD2    C112200   0.141   0.336  13.539  0.5365 -0.5637 -0.3377
  826MPD2    C212201   0.135   0.459  13.598 -0.0123  0.1244 -0.2687
  826MPD2    C312202   0.024   0.490  13.676  0.2454 -0.5966 -0.3524
  826MPD2    C412203   4.655   0.393  13.694 -0.1521  0.5947  0.5192
  826MPD2    C512204   4.665   0.266  13.628 -0.3539  0.0290 -0.2500
  826MPD2     H12205   0.219   0.527  13.592  0.7911 -0.8757 -0.2364
  826MPD2    H112206   4.572   0.413  13.761  0.5436  0.4616  1.4319
  826MPD2    H212207   0.064   0.136  13.520  1.0906 -0.1278 -0.2463
  826MPD2    H312208   4.590   0.190  13.644 -0.6345  0.7031  1.6796
  826MPD2     N12209   0.018   0.617  13.742  0.0684  0.4137 -0.1744
  826MPD2    H512210   4.683   0.615  13.813 -1.1989 -0.9022 -1.5034
  826MPD2    N112211   0.241   0.301  13.446 -0.5430 -0.2506  0.3384
  826MPD2    H712212   0.255   0.203  13.421 -0.5313  0.0304 -0.7214
  827MPD2     C12213   0.703   1.610   9.792 -0.3864 -0.3781  0.1797
  827MPD2    C112214   0.606   1.635   9.890  0.3451  0.1749 -0.1982
  827MPD2    C212215   0.482   1.574   9.880  0.4231  0.0562 -0.0200
  827MPD2    C312216   0.445   1.493   9.775  0.1300 -0.1418  0.3726
  827MPD2    C412217   0.547   1.460   9.684 -1.0702 -0.5810 -0.2261
  827MPD2    C512218   0.670   1.519   9.694  0.1957 -0.4578 -0.0931
  827MPD2     H12219   0.400   1.584   9.950 -0.1152  2.9402 -1.0821
  827MPD2    H112220   0.530   1.391   9.602  0.1925 -0.8356 -0.2745
  827MPD2    H212221   0.805   1.646   9.790 -0.3644 -0.4617 -0.1188
  827MPD2    H312222   0.754   1.491   9.631  0.9264 -0.4277  0.8543
  827MPD2     N12223   0.313   1.435   9.775 -0.5899  0.5138 -0.0714
  827MPD2    H512224   0.256   1.453   9.857 -0.2480 -1.2342  0.5460
  827MPD2    N112225   0.650   1.714   9.993 -0.4608  0.5413 -0.0111
  827MPD2    H712226   0.748   1.738   9.987 -0.4658  0.3905 -0.7687
  828MPD2     C12227   3.938   1.865  12.712 -0.6130  0.6415  0.0040
  828MPD2    C112228   3.827   1.850  12.630  0.4149  0.2240 -0.7993
  828MPD2    C212229   3.846   1.797  12.501 -0.1493  0.2872 -0.7514
  828MPD2    C312230   3.970   1.768  12.461 -0.0218 -0.0524 -0.3994
  828MPD2    C412231   4.085   1.793  12.537 -0.2054 -0.4997  0.0544
  828MPD2    C512232   4.066   1.842  12.664 -0.0589 -0.9561 -0.2467
  828MPD2     H12233   3.759   1.789  12.438 -0.1155 -1.1176 -0.6240
  828MPD2    H112234   4.180   1.750  12.508  1.6151  1.2171  3.4581
  828MPD2    H212235   3.922   1.891  12.816 -3.3036  1.7825 -0.7109
  828MPD2    H312236   4.149   1.860  12.732 -1.6331  0.1406  1.3818
  828MPD2     N12237   3.990   1.706  12.333 -0.0225  0.0390  0.4154
  828MPD2    H512238   4.084   1.681  12.305 -0.0227  1.1745 -0.6134
  828MPD2    N112239   3.693   1.877  12.677 -0.7919  0.0371  0.1366
  828MPD2    H712240   3.624   1.853  12.607 -0.6240 -0.0649  0.0066
  829MPD2     C12241   2.819   2.137  12.358 -0.9627  0.0030  0.1629
  829MPD2    C112242   2.796   2.012  12.430 -0.7342 -0.8758  0.1217
  829MPD2    C212243   2.896   1.977  12.514 -1.2215  0.4964 -0.8559
  829MPD2    C312244   3.010   2.049  12.534 -0.2997  0.2434  0.1042
  829MPD2    C412245   3.027   2.165  12.467  0.2406 -0.3328  0.5216
  829MPD2    C512246   2.926   2.211  12.387  0.0790 -0.7493  0.5656
  829MPD2     H12247   2.885   1.879  12.561  0.0520  0.6409 -0.2555
  829MPD2    H112248   3.110   2.228  12.496 -0.0724 -0.5678  1.9615
  829MPD2    H212249   2.752   2.173  12.280 -1.2682 -0.6050  0.1431
  829MPD2    H312250   2.939   2.304  12.334  1.9202 -2.1598 -1.4905
  829MPD2     N12251   3.104   1.992  12.623  0.4886  0.4057 -0.2599
  829MPD2    H512252   3.080   1.907  12.673 -1.2926 -0.4681 -2.6067
  829MPD2    N112253   2.685   1.928  12.388 -0.3933  0.2884  0.3628
  829MPD2    H712254   2.619   1.972  12.323 -0.1375 -0.4927 -0.4232
  830MPD2     C12255   4.491   4.475  15.740  0.3577 -0.5201  0.3835
  830MPD2    C112256   4.371   4.408  15.741  0.8138 -0.5359 -0.5813
  830MPD2    C212257   4.310   4.378  15.620 -0.1345  0.0500 -0.2766
  830MPD2    C312258   4.363   4.411  15.500  0.0836 -0.3030 -0.1457
  830MPD2    C412259   4.487   4.473  15.498  0.0305 -0.6473  0.2966
  830MPD2    C512260   4.550   4.500  15.620  0.2291 -0.0244 -0.2264
  830MPD2     H12261   4.206   4.350  15.614  0.0163  0.0040 -2.5793
  830MPD2    H112262   4.544   4.498  15.409 -0.3665 -0.5309  0.0759
  830MPD2    H212263   4.539   4.504  15.833 -2.0470 -0.3841  1.6094
  830MPD2    H312264   4.642   4.557  15.622 -1.1816  2.2806 -1.2918
  830MPD2     N12265   4.289   4.397  15.378 -0.0462  0.1573 -0.0288
  830MPD2    H512266   4.342   4.425  15.296 -1.9441  0.6090 -1.1078
  830MPD2    N112267   4.312   4.384  15.867 -0.3142 -0.5281  0.1136
  830MPD2    H712268   4.347   4.432  15.949 -0.1389  1.4849 -1.1451
  831MPD2     C12269   4.182   1.581  16.289  0.1391  0.2094  0.1605
  831MPD2    C112270   4.220   1.497  16.187 -0.1136  0.1159  0.2032
  831MPD2    C212271   4.156   1.375  16.168 -0.3317 -0.3119  0.3337
  831MPD2    C312272   4.042   1.330  16.240  0.0242  0.2233 -0.3577
  831MPD2    C412273   4.012   1.413  16.348  0.1149 -0.1011 -0.1748
  831MPD2    C512274   4.078   1.531  16.368  0.1781  0.8228  0.1361
  831MPD2     H12275   4.198   1.310  16.093  0.9647  0.3410  0.5052
  831MPD2    H112276   3.934   1.392  16.420 -0.8193 -0.3234 -1.2620
  831MPD2    H212277   4.232   1.676  16.301 -0.6902  0.9553 -2.2446
  831MPD2    H312278   4.054   1.601  16.446 -0.4578  0.5225  0.2099
  831MPD2     N12279   3.957   1.221  16.209 -0.2484 -0.3427  0.0741
  831MPD2    H512280   3.879   1.206  16.272 -0.1703 -1.3265 -0.0615
  831MPD2    N112281   4.321   1.526  16.095  0.1805 -0.7024  0.1499
  831MPD2    H712282   4.343   1.453  16.027 -1.4098 -0.1433 -0.9823
  832MPD2     C12283   2.833   2.459  17.381 -0.1042 -0.7538  0.3981
  832MPD2    C112284   2.814   2.589  17.352  0.6192  0.4249  0.0528
  832MPD2    C212285   2.725   2.633  17.255 -0.4282 -0.5609 -0.2629
  832MPD2    C312286   2.629   2.540  17.214  0.6404 -0.0788  0.0799
  832MPD2    C412287   2.644   2.408  17.247  0.1632 -0.2387 -0.0355
  832MPD2    C512288   2.747   2.369  17.326 -0.4552 -0.1314  0.1231
  832MPD2     H12289   2.702   2.735  17.225  2.2073 -0.1469 -0.9085
  832MPD2    H112290   2.581   2.330  17.205  2.1955 -1.3238 -1.0912
  832MPD2    H212291   2.918   2.424  17.439 -1.1388 -0.5647  2.0327
  832MPD2    H312292   2.752   2.262  17.343 -1.2356 -0.0906  0.5845
  832MPD2     N12293   2.511   2.567  17.145  0.6525 -0.0037  0.5077
  832MPD2    H512294   2.460   2.486  17.112  0.6773 -0.1834  0.9111
  832MPD2    N112295   2.898   2.684  17.417  0.1028 -0.0631  0.1508
  832MPD2    H712296   2.945   2.644  17.498 -0.3014  0.9945  0.9136
  833MPD2     C12297   0.052   3.991  12.401 -0.4281  0.6793  0.2626
  833MPD2    C112298   0.044   4.114  12.338 -0.4467  0.1107 -0.3067
  833MPD2    C212299   0.148   4.157  12.258  0.2728  0.7570  1.1579
  833MPD2    C312300   0.247   4.069  12.220  0.4437 -0.3706  0.3980
  833MPD2    C412301   0.246   3.943  12.280 -0.0398 -0.9076 -0.7669
  833MPD2    C512302   0.154   3.907  12.371 -0.1160  0.0492  0.4487
  833MPD2     H12303   0.143   4.255  12.213 -2.3234 -0.1278 -0.4795
  833MPD2    H112304   0.314   3.861  12.259 -1.0336 -1.3853 -2.1269
  833MPD2    H212305   4.711   3.955  12.467 -0.9459  0.1487 -0.6581
  833MPD2    H312306   0.181   3.817  12.425 -1.2212 -0.9730 -0.7184
  833MPD2     N12307   0.338   4.088  12.110 -0.2198  0.5081  0.1055
  833MPD2    H512308   0.386   4.003  12.082  0.2221 -0.3021  3.3768
  833MPD2    N112309   4.682   4.212  12.359 -0.2210 -0.4114 -0.0942
  833MPD2    H712310   4.698   4.298  12.309  2.1568 -0.7409  0.1375
  834MPD2     C12311   4.525   3.667  11.603 -0.4092  0.2764 -0.0429
  834MPD2    C112312   4.608   3.713  11.494 -0.0316 -0.2893 -0.1669
  834MPD2    C212313   4.721   3.786  11.525  0.0158 -0.0155 -0.0055
  834MPD2    C312314   0.026   3.820  11.649  0.0627  0.4945 -0.5840
  834MPD2    C412315   4.681   3.781  11.755  0.3596 -0.6804 -0.5324
  834MPD2    C512316   4.562   3.708  11.735  0.5919 -0.4067 -0.4153
  834MPD2     H12317   0.041   3.823  11.440 -0.7740  0.3769 -0.3662
  834MPD2    H112318   4.711   3.808  11.856  0.6871 -0.2543 -0.7431
  834MPD2    H212319   4.437   3.604  11.594  0.9307 -1.5537 -0.4295
  834MPD2    H312320   4.497   3.681  11.817 -0.8757  1.1823 -1.0575
  834MPD2     N12321   0.149   3.898  11.655  0.4631  0.6506  0.2867
  834MPD2    H512322   0.197   3.922  11.569  0.8114  0.7981  0.5214
  834MPD2    N112323   4.567   3.671  11.372 -0.3401 -0.4444 -0.6152
  834MPD2    H712324   4.484   3.613  11.370 -0.3731 -0.4755  1.5713
  835MPD2     C12325   4.154   2.063  11.128  0.1453  0.3316  0.3016
  835MPD2    C112326   4.079   2.049  11.243  0.0928  0.0568 -0.5100
  835MPD2    C212327   4.151   2.051  11.361  0.3995  0.3093  0.3454
  835MPD2    C312328   4.289   2.060  11.374  0.1877  0.1917  0.1740
  835MPD2    C412329   4.358   2.063  11.259  0.0174 -0.1932 -0.8047
  835MPD2    C512330   4.290   2.051  11.133  0.3553  0.0244  0.7367
  835MPD2     H12331   4.089   2.030  11.447 -0.8505 -1.9439 -1.0957
  835MPD2    H112332   4.465   2.075  11.266  0.2190 -2.7729  0.2934
  835MPD2    H212333   4.109   2.080  11.031  0.0026  0.5928  0.4137
  835MPD2    H312334   4.348   2.037  11.043 -0.1531 -1.9598  0.7068
  835MPD2     N12335   4.364   2.066  11.496 -0.3188 -0.9085 -0.2254
  835MPD2    H512336   4.464   2.079  11.483 -0.3180  1.3867  2.0317
  835MPD2    N112337   3.938   2.056  11.247 -0.4054  0.6747  0.5817
  835MPD2    H712338   3.897   2.054  11.339 -0.0919  3.0532  0.7689
  836MPD2     C12339   3.894   1.961  11.927  0.4835 -0.0741  0.0352
  836MPD2    C112340   3.998   1.992  12.007  0.1027  0.4560  0.4758
  836MPD2    C212341   3.978   2.030  12.140 -1.3794  0.1264 -0.4871
  836MPD2    C312342   3.851   2.030  12.193 -0.3416  0.0152  0.4016
  836MPD2    C412343   3.749   1.987  12.114 -0.3401 -0.5483 -0.7320
  836MPD2    C512344   3.769   1.953  11.982  1.1557 -0.1251 -0.0790
  836MPD2     H12345   4.063   2.056  12.203 -2.0950  3.6084 -0.9575
  836MPD2    H112346   3.647   1.991  12.148  0.4716 -2.1508  1.8871
  836MPD2    H212347   3.904   1.933  11.822  0.5317  2.7532 -0.7126
  836MPD2    H312348   3.688   1.922  11.917  1.4018  0.3657 -0.6179
  836MPD2     N12349   3.815   2.074  12.324 -0.0222 -0.4653 -0.1522
  836MPD2    H512350   3.717   2.081  12.348  0.2667 -0.3138  0.9942
  836MPD2    N112351   4.122   2.026  11.953  0.1348 -0.0836  0.1355
  836MPD2    H712352   4.118   2.049  11.854  1.6840 -1.1901 -0.1819
  837MPD2     C12353   2.727   1.061  10.398 -0.6027 -0.0009 -0.1939
  837MPD2    C112354   2.619   1.145  10.413  0.4827  0.4386  0.6512
  837MPD2    C212355   2.634   1.274  10.443 -0.1656  0.2938  0.6573
  837MPD2    C312356   2.757   1.325  10.471  0.3990  0.2286 -1.5828
  837MPD2    C412357   2.866   1.242  10.479 -0.4992 -0.3686  0.6988
  837MPD2    C512358   2.850   1.107  10.435 -0.5674  0.9904  0.0718
  837MPD2     H12359   2.545   1.335  10.436  0.3110  0.8394 -0.6308
  837MPD2    H112360   2.966   1.281  10.496  0.2372 -1.1151 -1.8467
  837MPD2    H212361   2.721   0.959  10.362 -0.8688 -0.6412  1.6519
  837MPD2    H312362   2.940   1.046  10.432 -1.0744  0.1851  0.9813
  837MPD2     N12363   2.761   1.461  10.501 -0.4827  0.2495 -0.2804
  837MPD2    H512364   2.670   1.505  10.497 -0.2828  0.7295  0.4291
  837MPD2    N112365   2.487   1.109  10.382  0.9944  0.1109 -0.5945
  837MPD2    H712366   2.427   1.191  10.383  1.2587  0.2735  2.2186
  838MPD2     C12367   1.559   4.616  11.994  0.1305 -0.9286  0.1239
  838MPD2    C112368   1.500   4.491  12.004  0.1481 -0.0468  0.2442
  838MPD2    C212369   1.417   4.470  12.110  0.0351 -0.7193 -0.6190
  838MPD2    C312370   1.393   4.560  12.213 -0.5272 -0.1576  0.3779
  838MPD2    C412371   1.458   4.682  12.202  0.2227 -0.2293 -0.7169
  838MPD2    C512372   1.544   4.707  12.098 -0.1480 -0.3821 -0.1671
  838MPD2     H12373   1.353   4.382  12.102 -3.3345  1.7917 -1.2446
  838MPD2    H112374   1.442   0.017  12.281  1.5584 -2.1957  1.3450
  838MPD2    H212375   1.622   4.643  11.910  1.0855 -1.3810  0.6981
  838MPD2    H312376   1.605   0.059  12.098  0.4006 -0.7563 -0.2867
  838MPD2     N12377   1.306   4.545  12.322  1.3546 -0.1664 -0.2672
  838MPD2    H512378   1.296   4.621  12.388  0.3329 -0.9212  0.4316
  838MPD2    N112379   1.516   4.390  11.907  0.0762  0.3816  0.1833
  838MPD2    H712380   1.442   4.321  11.899 -1.9163  2.8298 -2.4835
  839MPD2     C12381   0.983   3.733  11.784 -0.3245  0.4056  0.3177
  839MPD2    C112382   1.045   3.733  11.655 -0.3888  0.2091 -1.1487
  839MPD2    C212383   1.148   3.828  11.626  0.3862 -0.5265 -0.1927
  839MPD2    C312384   1.188   3.916  11.717  0.7216  0.3016 -0.3433
  839MPD2    C412385   1.116   3.920  11.838 -0.0983  0.0132  0.5758
  839MPD2    C512386   1.017   3.830  11.870 -0.2742 -0.3980  0.0311
  839MPD2     H12387   1.211   3.825  11.537 -1.5229 -0.8350 -1.5263
  839MPD2    H112388   1.143   4.000  11.906 -0.6785 -0.1070  0.9495
  839MPD2    H212389   0.909   3.660  11.816  0.1842 -0.3145 -0.1322
  839MPD2    H312390   0.967   3.851  11.965 -0.7407 -0.4430 -0.2050
  839MPD2     N12391   1.275   4.016  11.681  0.2230 -0.2197 -0.1811
  839MPD2    H512392   1.269   4.089  11.751 -0.0214 -0.9120  0.5252
  839MPD2    N112393   1.024   3.638  11.549 -0.1635 -0.0452  0.2250
  839MPD2    H712394   1.074   3.638  11.461 -0.2324  2.6615  0.1839
  840MPD2     C12395   1.208   2.050  10.050  0.2179 -0.2221 -0.1602
  840MPD2    C112396   1.156   2.033  10.172  0.2510  0.3725  0.0158
  840MPD2    C212397   1.237   2.031  10.283 -0.1218  0.2342 -0.3245
  840MPD2    C312398   1.374   2.056  10.271 -0.1206 -1.2019  0.8090
  840MPD2    C412399   1.430   2.063  10.144  0.7445 -0.7613  0.2309
  840MPD2    C512400   1.343   2.074  10.040 -0.3691  0.2508  0.0678
  840MPD2     H12401   1.189   2.047  10.379 -0.2655  0.0038 -0.3582
  840MPD2    H112402   1.532   2.096  10.127  0.1744  1.1213  0.4370
  840MPD2    H212403   1.144   2.065   9.964  2.1696 -1.5139 -1.8462
  840MPD2    H312404   1.381   2.106   9.944  0.0333  1.5358  0.6601
  840MPD2     N12405   1.459   2.064  10.379  0.0695  0.0730 -0.3415
  840MPD2    H512406   1.554   2.096  10.364 -0.3734  1.9476  0.9220
  840MPD2    N112407   1.017   2.021  10.176  0.2975 -0.5582 -0.4436
  840MPD2    H712408   0.967   2.032  10.088 -0.2743 -2.2112 -0.3290
  841MPD2     C12409   1.316   1.767  14.815  0.2744  0.6009 -0.1095
  841MPD2    C112410   1.339   1.741  14.678  0.3134 -0.7205  0.3933
  841MPD2    C212411   1.423   1.825  14.606 -0.1370  0.3197 -0.6082
  841MPD2    C312412   1.495   1.924  14.667 -0.4327  0.3213 -0.0415
  841MPD2    C412413   1.461   1.959  14.795 -0.1715 -0.9412  0.2066
  841MPD2    C512414   1.375   1.876  14.871  0.0744  0.7599 -0.2346
  841MPD2     H12415   1.424   1.804  14.500  0.9410  0.4105 -0.6164
  841MPD2    H112416   1.505   2.037  14.855  0.1183 -1.8978  1.2463
  841MPD2    H212417   1.248   1.710  14.878  0.8117 -1.9175 -1.7914
  841MPD2    H312418   1.357   1.893  14.977 -1.0747  0.4613 -0.3916
  841MPD2     N12419   1.600   1.979  14.590  0.2775 -0.9082  1.0171
  841MPD2    H512420   1.605   1.936  14.499  0.7335  2.4005 -0.5215
  841MPD2    N112421   1.276   1.638  14.609 -0.0721 -0.4016  0.2121
  841MPD2    H712422   1.276   1.636  14.507 -1.1244 -0.7933  0.2185
  842MPD2     C12423   2.099   3.023  17.063 -0.2405  0.4934 -0.0992
  842MPD2    C112424   1.997   2.940  17.080 -0.5194  0.3853  0.3147
  842MPD2    C212425   1.984   2.855  17.192 -0.2800  0.0852  0.6831
  842MPD2    C312426   2.089   2.843  17.281  0.8526  0.0916 -1.2020
  842MPD2    C412427   2.195   2.925  17.270 -0.0266 -0.0168  0.2752
  842MPD2    C512428   2.192   3.015  17.171  0.7296 -0.4695  0.6175
  842MPD2     H12429   1.894   2.801  17.219  0.8330 -1.1603  1.9125
  842MPD2    H112430   2.283   2.932  17.333  0.3114 -1.3120 -0.0655
  842MPD2    H212431   2.105   3.092  16.980  3.9147  0.6109  0.3012
  842MPD2    H312432   2.277   3.082  17.174  0.2630  0.2178 -1.4086
  842MPD2     N12433   2.084   2.773  17.410 -0.3203 -0.9082 -0.6417
  842MPD2    H512434   2.168   2.784  17.465 -1.3509  3.4692  0.1207
  842MPD2    N112435   1.891   2.953  16.983 -0.3635  0.7976 -0.1017
  842MPD2    H712436   1.892   3.042  16.934  1.2471  0.6329 -0.3936
  843MPD2     C12437   3.466   3.966   0.335 -0.1642  0.1435  0.3929
  843MPD2    C112438   3.552   3.867   0.343  0.4319 -0.2916 -0.7800
  843MPD2    C212439   3.671   3.892   0.396 -0.4183 -0.2086 -0.4831
  843MPD2    C312440   3.709   4.022   0.426  0.0446 -0.2750  0.1069
  843MPD2    C412441   3.617   4.120   0.413 -0.2726 -0.5903 -0.1205
  843MPD2    C512442   3.499   4.092   0.366  0.4760 -0.4275 -0.5387
  843MPD2     H12443   3.751   3.819   0.406 -1.3507 -0.9779  1.3511
  843MPD2    H112444   3.627   4.225   0.437 -0.6893 -0.3865 -0.8213
  843MPD2    H212445   3.373   3.958   0.280 -0.2219 -1.2615  0.6907
  843MPD2    H312446   3.418   4.162   0.350 -1.0101 -1.5434  1.9665
  843MPD2     N12447   3.836   4.061   0.467  0.2415 -0.0146  0.5503
  843MPD2    H512448   3.845   4.161   0.485  1.5165 -0.4813  2.5506
  843MPD2    N112449   3.505   3.732   0.314 -0.2070  0.0979  0.1497
  843MPD2    H712450   3.414   3.723   0.271 -0.2756 -3.7161  1.1336
  844MPD2     C12451   2.443   2.135  16.567 -0.1706 -0.5639 -1.1358
  844MPD2    C112452   2.492   2.241  16.492  0.7193 -0.7477 -0.1176
  844MPD2    C212453   2.583   2.329  16.547  0.0540 -0.0199  0.8234
  844MPD2    C312454   2.630   2.308  16.678  0.3597  0.3191  0.5032
  844MPD2    C412455   2.583   2.194  16.749  0.0961 -0.0336  0.3860
  844MPD2    C512456   2.480   2.116  16.699  0.5514  0.8418  0.0903
  844MPD2     H12457   2.628   2.412  16.494 -0.4322  1.0360  2.0787
  844MPD2    H112458   2.613   2.168  16.850 -0.2131 -1.6569  0.0526
  844MPD2    H212459   2.360   2.075  16.531 -0.7110 -1.7838  2.1407
  844MPD2    H312460   2.436   2.030  16.749  0.9826  1.8209  2.1417
  844MPD2     N12461   2.718   2.405  16.738  0.0843 -0.0998 -0.1782
  844MPD2    H512462   2.730   2.494  16.692  0.4611 -0.7742 -1.4073
  844MPD2    N112463   2.458   2.259  16.355 -0.3623 -0.4066  0.0600
  844MPD2    H712464   2.478   2.351  16.317  1.2320 -1.1440 -0.8502
  845MPD2     C12465   2.713   3.330  17.035 -0.7691 -0.2403  0.6936
  845MPD2    C112466   2.753   3.262  17.148  0.2828 -0.1164  0.7509
  845MPD2    C212467   2.789   3.133  17.130 -0.8101  0.7336  0.1761
  845MPD2    C312468   2.795   3.069  17.006  0.2054 -0.2791 -0.1543
  845MPD2    C412469   2.753   3.140  16.897 -0.4605  0.1718  0.0277
  845MPD2    C512470   2.704   3.268  16.915  0.5152 -0.4897  0.3641
  845MPD2     H12471   2.816   3.072  17.216 -0.2239  2.3887  1.1532
  845MPD2    H112472   2.750   3.105  16.795  1.2583  2.3612 -0.7678
  845MPD2    H212473   2.670   3.429  17.041 -1.6657 -0.8078  3.2576
  845MPD2    H312474   2.673   3.330  16.832  2.9107  0.6824  0.3608
  845MPD2     N12475   2.844   2.939  17.008  0.1847 -0.3195 -0.0297
  845MPD2    H512476   2.877   2.902  17.096  1.4579  1.5583  0.2911
  845MPD2    N112477   2.752   3.321  17.280  0.0934 -0.3394  0.5194
  845MPD2    H712478   2.724   3.419  17.277  0.5392 -0.2807 -1.2561
  846MPD2     C12479   4.382   3.777  14.176 -0.5462 -0.7024  0.1626
  846MPD2    C112480   4.262   3.747  14.120  0.2761 -0.1590 -0.4541
  846MPD2    C212481   4.168   3.681  14.205  0.7506  0.3070 -0.4216
  846MPD2    C312482   4.204   3.661  14.338  0.3649 -0.1507 -0.6024
  846MPD2    C412483   4.328   3.697  14.385 -0.0369 -0.7671  0.1207
  846MPD2    C512484   4.420   3.750  14.301  0.9382  0.0703 -0.2157
  846MPD2     H12485   4.073   3.647  14.165 -0.4472  0.3827  2.3271
  846MPD2    H112486   4.357   3.686  14.489  2.3840  0.3116 -0.4401
  846MPD2    H212487   4.447   3.836  14.112 -2.8826 -1.0236 -2.5413
  846MPD2    H312488   4.510   3.784  14.351 -2.0003  2.7115  3.2674
  846MPD2     N12489   4.109   3.602  14.424  0.3719  0.5046  1.0198
  846MPD2    H512490   4.012   3.602  14.395  0.7490  1.1852 -0.2397
  846MPD2    N112491   4.242   3.793  13.989 -0.1727 -0.0508  0.3781
  846MPD2    H712492   4.301   3.868  13.954 -0.1123 -0.4017 -0.2877
  847MPD2     C12493   4.378   4.064  14.986 -0.2843  0.3667  0.1062
  847MPD2    C112494   4.467   4.158  15.037 -0.1119 -0.2368  0.2279
  847MPD2    C212495   4.518   4.140  15.166  0.3910 -0.0825  0.2373
  847MPD2    C312496   4.492   4.024  15.240 -0.4990 -0.2181 -0.1438
  847MPD2    C412497   4.418   3.922  15.182  0.8820  0.0132 -0.0254
  847MPD2    C512498   4.357   3.944  15.055 -0.1143 -0.3781 -1.2922
  847MPD2     H12499   4.578   4.221  15.205  2.2592 -0.9908 -0.7484
  847MPD2    H112500   4.398   3.825  15.226  2.3342  0.1420  0.9200
  847MPD2    H212501   4.324   4.084  14.894  0.8753 -0.0664 -0.6814
  847MPD2    H312502   4.298   3.863  15.015 -0.6145 -0.0256 -1.2738
  847MPD2     N12503   4.547   4.005  15.372 -0.3406  0.2866 -0.4827
  847MPD2    H512504   4.538   3.915  15.418 -0.2487  0.8014  0.5366
  847MPD2    N112505   4.513   4.276  14.968  0.1084  0.7442 -0.9292
  847MPD2    H712506   4.563   4.348  15.020  1.3554 -0.7511 -0.0563
  848MPD2     C12507   2.028   2.966  16.541 -0.0559 -0.2070  0.0685
  848MPD2    C112508   2.131   2.989  16.634  0.4240  0.5907  0.1164
  848MPD2    C212509   2.191   3.116  16.631  0.3915  0.2094  0.0071
  848MPD2    C312510   2.146   3.220  16.551 -0.3225  0.7500 -0.5167
  848MPD2    C412511   2.046   3.191  16.460  0.3697  0.0667 -0.4088
  848MPD2    C512512   1.980   3.068  16.458 -0.3808 -0.4688  0.1881
  848MPD2     H12513   2.268   3.138  16.704  0.8776 -1.4896  0.0051
  848MPD2    H112514   2.003   3.275  16.405  1.1358 -0.3458 -1.6247
  848MPD2    H212515   1.981   2.868  16.544 -1.2199  0.3189 -0.8507
  848MPD2    H312516   1.894   3.040  16.398  0.5695 -1.5076 -0.6963
  848MPD2     N12517   2.181   3.359  16.557 -0.2837  0.0796 -0.4710
  848MPD2    H512518   2.129   3.424  16.499 -1.8863 -1.8534 -1.2317
  848MPD2    N112519   2.174   2.898  16.731 -0.1874 -0.6443  0.4472
  848MPD2    H712520   2.230   2.926  16.811 -0.0848 -2.1544  0.9049
  849MPD2     C12521   1.119   2.715  14.592  0.3268  0.6360  0.5483
  849MPD2    C112522   1.226   2.779  14.535 -0.3488  0.2827  0.6565
  849MPD2    C212523   1.347   2.782  14.597 -1.1457 -0.0066  0.1556
  849MPD2    C312524   1.378   2.683  14.689  0.3926  0.7496  0.2231
  849MPD2    C412525   1.277   2.596  14.732  0.5551  0.2423 -0.2291
  849MPD2    C512526   1.149   2.620  14.690 -0.4663 -0.2684  0.1616
  849MPD2     H12527   1.426   2.844  14.556 -0.5721  0.2498  1.6376
  849MPD2    H112528   1.298   2.522  14.809 -0.4692  0.8067  0.6021
  849MPD2    H212529   1.019   2.719  14.552  0.5259  1.5897  0.1344
  849MPD2    H312530   1.066   2.567  14.737  1.4720 -2.9593  0.5129
  849MPD2     N12531   1.511   2.651  14.726  0.1269 -0.2959  0.1368
  849MPD2    H512532   1.523   2.551  14.742  1.7767  0.4049  3.2475
  849MPD2    N112533   1.222   2.852  14.412  0.3347  0.5076 -0.6128
  849MPD2    H712534   1.304   2.903  14.381  1.8073 -0.9296  0.9466
  850MPD2     C12535   4.697   0.731  14.778  0.5982  0.4055 -0.4676
  850MPD2    C112536   4.682   0.785  14.903  0.3878 -0.0896 -0.9430
  850MPD2    C212537   0.043   0.858  14.961  0.2403  0.8446 -0.3054
  850MPD2    C312538   0.165   0.882  14.893  0.3818 -0.2975 -0.2230
  850MPD2    C412539   0.175   0.828  14.771 -0.5067 -0.0835  0.0956
  850MPD2    C512540   0.071   0.764  14.708  0.1253 -0.2072 -0.3076
  850MPD2     H12541   0.030   0.899  15.060 -0.1940 -2.6962  1.0958
  850MPD2    H112542   0.264   0.844  14.711 -0.0147  2.1311  1.3900
  850MPD2    H212543   4.625   0.658  14.745 -0.3915  1.0978  0.1304
  850MPD2    H312544   0.092   0.726  14.608  1.9254 -2.1713  0.8229
  850MPD2     N12545   0.277   0.955  14.941 -0.4966 -0.1381 -0.1000
  850MPD2    H512546   0.353   0.989  14.883 -0.8543  0.9160  0.0596
  850MPD2    N112547   4.559   0.763  14.962 -0.6277 -0.0874  0.2315
  850MPD2    H712548   4.499   0.694  14.916 -1.5126  1.0263 -0.2799
  851MPD2     C12549   4.498   0.271  15.287  0.4184 -0.2417  0.6086
  851MPD2    C112550   4.376   0.304  15.226  0.3475 -0.3407 -1.1680
  851MPD2    C212551   4.302   0.206  15.163 -0.1049 -0.2154  0.2616
  851MPD2    C312552   4.357   0.077  15.158 -0.4306  0.2778  0.1631
  851MPD2    C412553   4.480   0.054  15.210  0.1390  0.1312  0.0003
  851MPD2    C512554   4.549   0.146  15.279 -0.0650  0.3600  0.6790
  851MPD2     H12555   4.206   0.222  15.115  0.9569 -0.4055 -1.9404
  851MPD2    H112556   4.516   4.689  15.212  0.4444  0.1960 -2.0816
  851MPD2    H212557   4.542   0.350  15.346  1.5635  1.2828 -2.3316
  851MPD2    H312558   4.638   0.107  15.327 -1.6105  0.0341  3.3300
  851MPD2     N12559   4.282   4.713  15.098 -0.1311 -1.0178 -0.3421
  851MPD2    H512560   4.186   4.735  15.075  0.2258 -0.4487 -1.3266
  851MPD2    N112561   4.333   0.433  15.227  0.2304  0.5007 -0.1143
  851MPD2    H712562   4.393   0.505  15.267 -0.2869  0.2442  1.1114
  852MPD2     C12563   3.902   2.982  10.110 -0.1713  0.2279  0.0696
  852MPD2    C112564   3.887   2.987  10.248  0.0733 -0.0386 -0.7377
  852MPD2    C212565   3.897   3.111  10.312  0.0730  0.0648  0.0272
  852MPD2    C312566   3.920   3.223  10.232 -0.1617  0.0196 -0.3928
  852MPD2    C412567   3.939   3.216  10.096  0.1788  0.4898 -0.3175
  852MPD2    C512568   3.940   3.092  10.040 -0.1302  0.6340 -0.6068
  852MPD2     H12569   3.889   3.122  10.420  0.4674  1.0547 -0.0479
  852MPD2    H112570   3.957   3.301  10.031 -0.6037  0.3984 -0.6556
  852MPD2    H212571   3.882   2.893  10.052  1.4536  1.1077 -1.8707
  852MPD2    H312572   3.952   3.071   9.934  1.2312 -2.2803  0.1102
  852MPD2     N12573   3.899   3.348  10.300 -0.6058 -0.8410  0.9631
  852MPD2    H512574   3.891   3.341  10.401 -1.2137  4.6382  1.3376
  852MPD2    N112575   3.871   2.863  10.320  0.6705 -0.1769  0.7915
  852MPD2    H712576   3.851   2.778  10.269 -2.3652  0.9163  0.1550
  853MPD2     C12577   1.190   2.819  12.460 -0.2703 -0.5258 -0.5794
  853MPD2    C112578   1.070   2.889  12.422 -0.5672  0.0899 -0.0537
  853MPD2    C212579   1.025   2.889  12.290 -0.0271  0.7353  0.6620
  853MPD2    C312580   1.092   2.817  12.190 -0.1441 -0.0171  0.3289
  853MPD2    C412581   1.207   2.740  12.232 -0.8534 -0.3343  0.0693
  853MPD2    C512582   1.246   2.743  12.363  0.5579  0.5926  0.2489
  853MPD2     H12583   0.929   2.930  12.263  0.0824  0.5146 -0.0761
  853MPD2    H112584   1.264   2.690  12.155  1.8682  2.4244  0.3024
  853MPD2    H212585   1.219   2.810  12.564 -2.1439  1.3774  0.1109
  853MPD2    H312586   1.328   2.686  12.406  1.8827  1.4345 -1.1468
  853MPD2     N12587   1.040   2.809  12.055  0.2079  0.8497  0.5553
  853MPD2    H512588   1.101   2.767  11.986  1.6492  2.1162  1.0450
  853MPD2    N112589   0.989   2.948  12.517  0.7930  0.4215  0.1696
  853MPD2    H712590   1.022   2.955  12.613  1.5373 -0.1055 -0.0530
  854MPD2     C12591   2.514   3.401  13.448 -0.0172 -0.4040  0.2551
  854MPD2    C112592   2.530   3.332  13.332  0.2006 -0.1026  0.8771
  854MPD2    C212593   2.627   3.234  13.334  0.7072 -0.5554 -0.3198
  854MPD2    C312594   2.703   3.208  13.440  0.1413  0.3025  0.4205
  854MPD2    C412595   2.680   3.274  13.558 -0.2807  0.0478  0.5613
  854MPD2    C512596   2.592   3.376  13.560 -0.0427 -0.4886  0.9864
  854MPD2     H12597   2.663   3.187  13.243  0.1281  1.4038 -1.5581
  854MPD2    H112598   2.748   3.251  13.639 -0.9346 -0.1806  1.0397
  854MPD2    H212599   2.448   3.486  13.438 -0.4179 -0.5266  1.8525
  854MPD2    H312600   2.586   3.437  13.650  2.2702  0.1538  0.6955
  854MPD2     N12601   2.814   3.117  13.449 -0.5635  0.2331 -0.3832
  854MPD2    H512602   2.867   3.114  13.535 -2.8373 -2.2266  0.9068
  854MPD2    N112603   2.470   3.383  13.213  0.8544 -0.0509 -0.5042
  854MPD2    H712604   2.403   3.459  13.220  0.3373 -0.4743 -0.8570
  855MPD2     C12605   3.284   2.953  14.139  0.7428  0.6289 -0.1563
  855MPD2    C112606   3.284   2.823  14.083 -0.9187  0.5422 -0.0608
  855MPD2    C212607   3.228   2.810  13.959 -0.3582  0.0016  0.8633
  855MPD2    C312608   3.191   2.921  13.883  0.3125 -0.4227  0.2604
  855MPD2    C412609   3.207   3.049  13.936 -0.6348  0.2467  0.4094
  855MPD2    C512610   3.250   3.064  14.066  0.2868  0.2985 -0.1094
  855MPD2     H12611   3.226   2.710  13.917 -0.7628 -0.0300  0.9652
  855MPD2    H112612   3.168   3.139  13.890 -2.1544  0.7702  2.7073
  855MPD2    H212613   3.316   2.964  14.242 -0.4279 -1.0192  0.3914
  855MPD2    H312614   3.248   3.162  14.111 -2.7260 -0.1735  0.8007
  855MPD2     N12615   3.150   2.908  13.749 -0.5973  0.4943  0.2483
  855MPD2    H512616   3.125   2.989  13.693 -1.5209 -1.0361 -1.5899
  855MPD2    N112617   3.325   2.706  14.145 -0.1281 -0.7571  0.1655
  855MPD2    H712618   3.303   2.615  14.105 -0.2367 -0.1073 -1.2645
  856MPD2     C12619   0.171   4.060  13.766  0.3024 -0.1303  0.0820
  856MPD2    C112620   0.251   4.141  13.843 -0.1209  0.5566  0.2156
  856MPD2    C212621   0.215   4.281  13.849  0.3349  0.1515 -0.0368
  856MPD2    C312622   0.106   4.334  13.775 -0.1720  0.4628  0.2638
  856MPD2    C412623   0.035   4.247  13.701  0.3329 -0.5205 -0.1167
  856MPD2    C512624   0.063   4.110  13.704  0.0695 -0.5586  1.1984
  856MPD2     H12625   0.275   4.355  13.901 -0.7225 -0.9690  2.7748
  856MPD2    H112626   4.684   4.278  13.646  0.2576  0.6124  0.6398
  856MPD2    H212627   0.191   3.956  13.743  0.5557  0.2636 -1.4762
  856MPD2    H312628   4.736   4.041  13.651 -0.1790  1.1765 -0.7702
  856MPD2     N12629   0.061   4.468  13.780  0.1828 -0.0406 -0.0893
  856MPD2    H512630   4.717   4.482  13.721 -0.9246 -0.8417  1.2431
  856MPD2    N112631   0.354   4.097  13.931  0.9336  0.0738  0.1464
  856MPD2    H712632   0.418   4.167  13.968 -1.5485  1.3744  1.9090
  857MPD2     C12633   2.090   1.653  12.570  0.1684  0.4815 -0.4175
  857MPD2    C112634   2.153   1.615  12.688 -0.6289 -0.6380  0.0474
  857MPD2    C212635   2.234   1.693  12.763  0.3743 -0.0048  0.0093
  857MPD2    C312636   2.251   1.822  12.715 -0.5437  0.3168  0.6258
  857MPD2    C412637   2.192   1.866  12.600  0.2141 -0.9453 -0.1921
  857MPD2    C512638   2.115   1.782  12.525  1.2164 -0.1020  0.2620
  857MPD2     H12639   2.278   1.668  12.859  1.6503 -0.6494 -0.7485
  857MPD2    H112640   2.205   1.971  12.578 -2.6666  0.0418  2.8071
  857MPD2    H212641   2.025   1.584  12.518 -2.6986  0.7271  2.8749
  857MPD2    H312642   2.072   1.815  12.431  1.5188 -1.1727 -0.2512
  857MPD2     N12643   2.318   1.926  12.795  0.7789  0.0216  0.2403
  857MPD2    H512644   2.313   2.014  12.746 -2.2679  0.2399  0.9847
  857MPD2    N112645   2.118   1.483  12.728  0.3367  0.1194 -0.5738
  857MPD2    H712646   2.047   1.439  12.669  2.7231 -0.3570 -3.0892
  858MPD2     C12647   2.763   0.797  16.856  0.1837  0.4566  0.2666
  858MPD2    C112648   2.771   0.673  16.915  0.3429 -0.0886 -1.2265
  858MPD2    C212649   2.789   0.658  17.052  0.0968  0.1140  0.0618
  858MPD2    C312650   2.790   0.769  17.132  0.1252 -0.2667 -0.4541
  858MPD2    C412651   2.793   0.892  17.068 -0.0635 -0.2147  0.0053
  858MPD2    C512652   2.767   0.904  16.935  0.1055 -0.2052 -0.8695
  858MPD2     H12653   2.789   0.555  17.085  1.5007  0.1886  0.2999
  858MPD2    H112654   2.806   0.984  17.123 -1.6895  0.6909 -1.1059
  858MPD2    H212655   2.767   0.801  16.747  2.2064 -0.4895  0.3063
  858MPD2    H312656   2.772   1.004  16.894 -1.2137 -0.8762 -2.6671
  858MPD2     N12657   2.777   0.758  17.274 -0.0182 -0.3811  0.4689
  858MPD2    H512658   2.740   0.842  17.319  0.1961  0.6180 -1.1935
  858MPD2    N112659   2.761   0.572  16.820 -0.0011 -0.5595 -0.5573
  858MPD2    H712660   2.773   0.607  16.725 -3.7031  1.5992 -0.2346
  859MPD2     C12661   1.346   2.644  15.081  0.1608 -0.2386  0.7498
  859MPD2    C112662   1.483   2.639  15.085 -0.1629 -0.1922  0.7426
  859MPD2    C212663   1.544   2.515  15.112  0.5545 -0.1840  0.3686
  859MPD2    C312664   1.460   2.403  15.123 -0.2800  0.0923 -0.2018
  859MPD2    C412665   1.329   2.406  15.129 -0.5023 -0.8724 -0.3809
  859MPD2    C512666   1.270   2.528  15.102 -0.0354 -0.0723  0.0436
  859MPD2     H12667   1.651   2.502  15.121  0.6431  0.2445 -0.0573
  859MPD2    H112668   1.266   2.318  15.133 -0.7569 -0.6478  0.5411
  859MPD2    H212669   1.288   2.735  15.068  0.2091  0.0364  2.4066
  859MPD2    H312670   1.162   2.536  15.095 -0.0388  1.2902  1.6845
  859MPD2     N12671   1.514   2.276  15.162 -0.3814  0.5229  0.4596
  859MPD2    H512672   1.451   2.204  15.196  0.0799 -0.5530 -0.9815
  859MPD2    N112673   1.551   2.761  15.058  0.7758  0.0531  0.3296
  859MPD2    H712674   1.500   2.844  15.028  2.5357  2.3707  3.6830
  860MPD2     C12675   3.747   2.651  11.840  0.6487 -0.0616 -0.5526
  860MPD2    C112676   3.771   2.706  11.961 -0.1524 -0.0393 -0.0980
  860MPD2    C212677   3.666   2.720  12.050 -0.1871 -0.3836 -0.7990
  860MPD2    C312678   3.537   2.681  12.016  0.0419  0.4004  0.5058
  860MPD2    C412679   3.516   2.611  11.893 -0.1687  0.1258 -0.1265
  860MPD2    C512680   3.627   2.595  11.808 -0.0795 -0.4823  0.1106
  860MPD2     H12681   3.686   2.765  12.147 -1.4839  3.4424 -2.3042
  860MPD2    H112682   3.413   2.587  11.869  0.4109 -0.7148 -1.7547
  860MPD2    H212683   3.829   2.642  11.770  3.0058 -0.7763  2.2972
  860MPD2    H312684   3.622   2.540  11.714  1.3977  0.2335 -0.3911
  860MPD2     N12685   3.438   2.727  12.101  0.0337 -0.3877 -0.6134
  860MPD2    H512686   3.462   2.801  12.167 -1.5422 -1.4368  1.1774
  860MPD2    N112687   3.900   2.754  12.004 -0.3423 -0.7539 -0.1564
  860MPD2    H712688   3.902   2.793  12.098  0.0769 -0.4214 -0.3011
  861MPD2     C12689   2.372   0.860  11.068  0.0964  0.3613 -0.5594
  861MPD2    C112690   2.347   0.991  11.107  0.4708  0.9126  0.0206
  861MPD2    C212691   2.246   1.062  11.041 -0.1033 -0.2833 -0.2308
  861MPD2    C312692   2.162   0.991  10.952 -0.4930  0.1730  0.4410
  861MPD2    C412693   2.186   0.860  10.918 -0.6466 -0.1704  0.2090
  861MPD2    C512694   2.295   0.801  10.970  0.5046  0.5135 -0.2535
  861MPD2     H12695   2.219   1.159  11.080 -1.1656  0.2313 -2.2431
  861MPD2    H112696   2.119   0.814  10.846 -0.7426  0.1711  0.0793
  861MPD2    H212697   2.457   0.804  11.107  0.3501  0.3355 -1.1482
  861MPD2    H312698   2.324   0.703  10.935  1.1705  0.4721  0.4063
  861MPD2     N12699   2.058   1.057  10.885  0.3186 -0.1886 -0.2139
  861MPD2    H512700   2.008   0.996  10.821 -1.6166  2.1211 -0.9236
  861MPD2    N112701   2.418   1.043  11.219  0.4110  0.2792 -0.2016
  861MPD2    H712702   2.383   1.129  11.260  1.3701  0.1026  1.0068
  862MPD2     C12703   1.268   0.994  10.567 -0.0537  0.1914  0.1196
  862MPD2    C112704   1.396   0.985  10.615  0.1225 -0.6390  0.7771
  862MPD2    C212705   1.454   0.861  10.626  0.3419  0.4906  0.5623
  862MPD2    C312706   1.399   0.746  10.583 -0.9388 -0.3704 -0.2672
  862MPD2    C412707   1.271   0.756  10.531  0.4519 -0.5385  0.2598
  862MPD2    C512708   1.207   0.877  10.524  0.4420  0.1988 -0.3499
  862MPD2     H12709   1.557   0.843  10.653 -0.2311 -1.2597  1.5810
  862MPD2    H112710   1.212   0.675  10.490 -0.3406 -0.2471  0.8126
  862MPD2    H212711   1.221   1.092  10.563  1.7721  1.0690  0.3885
  862MPD2    H312712   1.115   0.887  10.467  0.0401  0.8642  0.4087
  862MPD2     N12713   1.460   0.618  10.589  0.1495  0.1988  0.6816
  862MPD2    H512714   1.400   0.540  10.562  1.4675 -1.5072  2.6424
  862MPD2    N112715   1.477   1.099  10.650 -0.1492 -0.2738  0.0328
  862MPD2    H712716   1.453   1.188  10.606 -0.0582 -0.2826 -0.0350
  863MPD2     C12717   1.228   4.363  17.194  0.2606  0.1177 -0.8246
  863MPD2    C112718   1.174   4.241  17.175 -1.1674  0.1511 -0.1910
  863MPD2    C212719   1.253   4.134  17.219 -0.4061 -0.0139 -0.3047
  863MPD2    C312720   1.373   4.148  17.283 -0.1530  0.3054  0.4041
  863MPD2    C412721   1.418   4.280  17.309 -0.0551 -0.1238  0.2028
  863MPD2    C512722   1.338   4.385  17.270  0.4023  0.4919  0.9195
  863MPD2     H12723   1.195   4.043  17.225 -1.8919  1.1031  2.1682
  863MPD2    H112724   1.508   4.313  17.360 -0.1484 -0.4013  0.5513
  863MPD2    H212725   1.184   4.453  17.152 -3.3788 -1.2525  0.0390
  863MPD2    H312726   1.372   4.485  17.294 -1.0549  1.3577 -0.5561
  863MPD2     N12727   1.445   4.046  17.342  0.3262 -0.0977 -0.0588
  863MPD2    H512728   1.521   4.074  17.403  1.8765 -0.0410 -1.9860
  863MPD2    N112729   1.050   4.217  17.123 -0.0022  0.5017 -0.2111
  863MPD2    H712730   1.022   4.120  17.110 -1.8080  1.0742 -0.5596
  864MPD2     C12731   1.722   0.800  17.449  0.0519 -0.3354 -0.7943
  864MPD2    C112732   1.802   0.704  17.402  0.1343  0.0208 -0.2264
  864MPD2    C212733   1.929   0.741  17.369 -0.1011 -0.4748  0.7154
  864MPD2    C312734   1.969   0.877  17.378 -0.2401  0.8133 -0.4461
  864MPD2    C412735   1.879   0.976  17.411 -0.8883 -0.5290 -0.1948
  864MPD2    C512736   1.757   0.934  17.444 -1.3227  0.2254  0.8449
  864MPD2     H12737   1.996   0.664  17.333 -0.6007 -0.6670  0.2049
  864MPD2    H112738   1.890   1.084  17.410  0.5450 -0.6773 -0.5730
  864MPD2    H212739   1.624   0.770  17.483 -0.4056  0.4721 -1.3922
  864MPD2    H312740   1.683   0.997  17.491 -2.7189 -1.1778  0.5580
  864MPD2     N12741   2.092   0.921  17.336  0.1118  0.5355  0.3601
  864MPD2    H512742   2.112   1.018  17.316 -1.3098  1.1411  1.8850
  864MPD2    N112743   1.748   0.576  17.377 -0.1912 -0.0716  0.5736
  864MPD2    H712744   1.654   0.561  17.411 -0.3023  0.8486  0.6875
  865MPD2     C12745   1.880   0.986  16.649  0.0615 -0.2323  0.3609
  865MPD2    C112746   2.010   0.964  16.622  0.1032 -0.2057 -0.5177
  865MPD2    C212747   2.110   1.021  16.696 -0.9600  0.0146 -0.5327
  865MPD2    C312748   2.082   1.093  16.813 -0.3116  0.6744  0.0974
  865MPD2    C412749   1.951   1.116  16.843 -0.5641  0.4663 -0.3373
  865MPD2    C512750   1.852   1.060  16.761  0.1373  0.2767 -0.3046
  865MPD2     H12751   2.211   0.987  16.676 -0.9747  0.3448 -1.1339
  865MPD2    H112752   1.913   1.160  16.934 -0.9595  0.5686 -0.5498
  865MPD2    H212753   1.801   0.958  16.581 -0.0908 -1.2533  0.9515
  865MPD2    H312754   1.747   1.074  16.784  0.1664 -0.8599  0.4993
  865MPD2     N12755   2.197   1.132  16.892 -0.5114  0.0100  0.5503
  865MPD2    H512756   2.288   1.100  16.859 -0.8518 -1.2557  0.8581
  865MPD2    N112757   2.043   0.863  16.526 -0.1369 -0.3311 -0.0027
  865MPD2    H712758   1.958   0.825  16.487  0.2927 -0.2071 -1.0495
  866MPD2     C12759   2.902   1.344  11.485  0.2497  0.0454 -0.3765
  866MPD2    C112760   2.863   1.278  11.380 -0.8528  1.2126  1.3283
  866MPD2    C212761   2.765   1.332  11.291 -0.0666 -0.3784  0.0017
  866MPD2    C312762   2.691   1.450  11.320  1.0244 -0.0774 -0.3346
  866MPD2    C412763   2.736   1.514  11.426  0.4094 -0.5043 -0.2145
  866MPD2    C512764   2.827   1.459  11.515 -0.0936 -0.6887  0.1119
  866MPD2     H12765   2.730   1.269  11.210  1.3602 -2.3349  0.9136
  866MPD2    H112766   2.675   1.596  11.462 -1.0177 -1.4639 -0.4215
  866MPD2    H212767   2.966   1.302  11.562 -0.1733 -0.1543 -0.1348
  866MPD2    H312768   2.846   1.514  11.606 -0.8490 -1.2416  0.6089
  866MPD2     N12769   2.583   1.495  11.247  0.6067  0.0598 -0.3772
  866MPD2    H512770   2.534   1.571  11.293  0.3507 -0.4221  0.1536
  866MPD2    N112771   2.930   1.157  11.360  0.3829  0.4507  1.1089
  866MPD2    H712772   2.989   1.132  11.438  0.7620 -0.2921  0.5845
  867MPD2     C12773   0.047   0.512  16.829  0.1376  0.0325  0.1461
  867MPD2    C112774   0.122   0.541  16.935  0.4348 -0.1816 -0.1224
  867MPD2    C212775   0.107   0.661  16.998 -0.3474 -0.3715  0.5289
  867MPD2    C312776   0.011   0.749  16.956 -0.2140 -0.1495 -0.4170
  867MPD2    C412777   4.669   0.721  16.848 -0.4250  0.1593 -0.5685
  867MPD2    C512778   4.690   0.600  16.782  0.5723  0.1316 -0.9090
  867MPD2     H12779   0.176   0.687  17.077 -0.1078  0.0857  0.1733
  867MPD2    H112780   4.595   0.789  16.806 -0.2569  0.3474 -0.5594
  867MPD2    H212781   0.069   0.422  16.772  1.0650 -0.0951  0.7124
  867MPD2    H312782   4.641   0.567  16.691 -2.3132  1.6838  0.1073
  867MPD2     N12783   4.733   0.874  17.021 -0.0868 -0.0720 -0.3715
  867MPD2    H512784   4.682   0.947  16.973  0.5859  0.9781  0.5025
  867MPD2    N112785   0.216   0.444  16.968 -0.6124  0.8363  0.0391
  867MPD2    H712786   0.228   0.362  16.908 -1.3606  0.0474  0.9599
  868MPD2     C12787   2.136   4.192  13.099 -0.2103 -0.2823 -0.8458
  868MPD2    C112788   2.205   4.203  13.214 -0.6440  0.2400 -0.4895
  868MPD2    C212789   2.144   4.261  13.324  0.0325  0.3810  0.6149
  868MPD2    C312790   2.019   4.324  13.317 -0.4101  0.4674 -0.9514
  868MPD2    C412791   1.949   4.303  13.204  0.0186  0.5437 -0.2178
  868MPD2    C512792   2.010   4.236  13.101 -0.3927 -0.2240  0.0675
  868MPD2     H12793   2.213   4.282  13.405  0.9628  0.9489 -0.3114
  868MPD2    H112794   1.850   4.346  13.188  1.0527  2.4706 -1.5423
  868MPD2    H212795   2.160   4.142  13.005  1.8110  0.3481 -0.6720
  868MPD2    H312796   1.951   4.217  13.012 -0.2701 -0.2967  0.0028
  868MPD2     N12797   1.979   4.398  13.433  0.4146  0.3572  0.3540
  868MPD2    H512798   2.052   4.423  13.498 -1.0225  0.2364  2.0106
  868MPD2    N112799   2.345   4.168  13.211 -0.2910 -0.1665 -0.6000
  868MPD2    H712800   2.379   4.131  13.123  1.6940  1.0492 -0.3516
  869MPD2     C12801   3.966   1.813   0.441 -0.2437  0.4923  0.2385
  869MPD2    C112802   3.838   1.855   0.467 -0.5464 -0.5163  0.0767
  869MPD2    C212803   3.814   1.974   0.530 -0.0131  0.2198 -1.0906
  869MPD2    C312804   3.913   2.065   0.547 -0.0683  0.2165  0.4488
  869MPD2    C412805   4.044   2.018   0.524  0.6440  0.2585  0.4105
  869MPD2    C512806   4.069   1.895   0.468  0.2405 -0.0954 -0.1182
  869MPD2     H12807   3.713   2.013   0.525 -0.5793 -0.7618  3.0730
  869MPD2    H112808   4.133   2.079   0.536  1.5061 -0.4791 -2.2653
  869MPD2    H212809   3.983   1.716   0.396 -0.9646  0.9617 -1.0200
  869MPD2    H312810   4.170   1.859   0.461  0.3479  0.7410 -2.8749
  869MPD2     N12811   3.907   2.198   0.584 -1.0018 -0.7136  0.3803
  869MPD2    H512812   3.995   2.248   0.600  0.6182 -2.6626 -2.5818
  869MPD2    N112813   3.736   1.760   0.447 -0.2553 -0.4156 -0.0623
  869MPD2    H712814   3.773   1.678   0.401  0.8641  1.2606 -2.1606
  870MPD2     C12815   2.408   1.161   1.508 -1.5222  0.0506  0.0690
  870MPD2    C112816   2.468   1.119   1.394 -0.8662 -0.3177  0.4648
  870MPD2    C212817   2.434   1.181   1.275  0.1625 -0.0804 -0.7393
  870MPD2    C312818   2.336   1.280   1.272  0.6216  0.5709 -0.0118
  870MPD2    C412819   2.284   1.323   1.390 -0.9519 -0.4441 -0.0880
  870MPD2    C512820   2.317   1.259   1.504 -0.4659 -0.1640 -0.1994
  870MPD2     H12821   2.486   1.151   1.184 -1.7337 -0.7756 -1.5788
  870MPD2    H112822   2.207   1.398   1.405  0.1027  0.4970  0.5996
  870MPD2    H212823   2.427   1.115   1.605 -2.3580 -1.8176 -0.6585
  870MPD2    H312824   2.264   1.296   1.592 -1.0199 -1.6019  0.0726
  870MPD2     N12825   2.298   1.320   1.145 -0.4018  0.0647 -0.4135
  870MPD2    H512826   2.321   1.261   1.066 -3.0332  1.5575 -2.3253
  870MPD2    N112827   2.565   1.022   1.408  0.2574  0.1561 -0.0232
  870MPD2    H712828   2.569   0.983   1.502  0.7478  1.6749  0.6049
  871MPD2     C12829   3.917   0.663  16.139  0.4394  0.2548  0.2533
  871MPD2    C112830   3.880   0.644  16.272  0.6329 -0.1037  0.1211
  871MPD2    C212831   3.929   0.525  16.320 -0.1074  0.3208  0.5135
  871MPD2    C312832   4.007   0.437  16.249 -0.2094  0.3186 -0.0980
  871MPD2    C412833   4.037   0.460  16.116 -0.0879 -0.3879  0.8010
  871MPD2    C512834   3.988   0.571  16.062  0.6372  0.7163  0.3390
  871MPD2     H12835   3.897   0.496  16.420 -0.8799 -2.0860 -0.4137
  871MPD2    H112836   4.095   0.390  16.057  1.1622  1.6093 -0.3243
  871MPD2    H212837   3.872   0.745  16.084 -2.1570 -0.1290  1.8342
  871MPD2    H312838   3.989   0.588  15.954  0.3905  0.6701  0.3286
  871MPD2     N12839   4.054   0.323  16.317 -0.3669  0.2658  0.0885
  871MPD2    H512840   4.034   0.313  16.416  5.7479  1.1687  1.4214
  871MPD2    N112841   3.811   0.741  16.348  0.2943 -0.2674  0.1107
  871MPD2    H712842   3.788   0.825  16.295 -1.4457 -0.6544  0.2712
  872MPD2     C12843   0.556   3.066  14.315 -0.4303  0.1563 -0.2007
  872MPD2    C112844   0.538   3.183  14.245 -0.3115 -0.3416 -0.4009
  872MPD2    C212845   0.414   3.241  14.243 -0.3225 -0.5134  0.0805
  872MPD2    C312846   0.320   3.201  14.339  0.0561 -0.5776 -0.2620
  872MPD2    C412847   0.346   3.093  14.417  0.6270 -0.4197 -0.3245
  872MPD2    C512848   0.461   3.020  14.402 -0.6806 -0.4361  0.5333
  872MPD2     H12849   0.387   3.321  14.174 -0.3171 -1.8443 -1.4715
  872MPD2    H112850   0.266   3.051  14.477 -0.9514 -0.8000 -2.6778
  872MPD2    H212851   0.650   3.014  14.306 -0.1496  0.9294 -1.7502
  872MPD2    H312852   0.487   2.932  14.458 -1.5387 -0.3485  1.0733
  872MPD2     N12853   0.206   3.274  14.367  0.5034  0.1297  0.0360
  872MPD2    H512854   0.147   3.245  14.445 -0.2394  0.5542 -0.3778
  872MPD2    N112855   0.647   3.242  14.171 -0.1262 -0.1766 -0.8794
  872MPD2    H712856   0.621   3.308  14.098  0.0029  0.2912 -0.5011
  873MPD2     C12857   2.467   3.079   1.100 -0.0054  0.5221 -0.6933
  873MPD2    C112858   2.360   3.067   1.190 -0.5808  0.2567 -0.4364
  873MPD2    C212859   2.295   2.949   1.198  0.1867 -1.0315 -0.2055
  873MPD2    C312860   2.346   2.840   1.123 -0.0584  0.1894 -0.3988
  873MPD2    C412861   2.445   2.858   1.026 -0.4740 -0.0812 -0.7012
  873MPD2    C512862   2.515   2.975   1.026  0.0747 -0.1246 -0.0125
  873MPD2     H12863   2.214   2.935   1.268  0.2899 -0.3737  0.0393
  873MPD2    H112864   2.480   2.778   0.962  1.0204  2.2512 -2.8027
  873MPD2    H212865   2.506   3.180   1.090  0.7020  0.4703  1.3825
  873MPD2    H312866   2.597   2.988   0.956  0.8006 -0.7051  0.7443
  873MPD2     N12867   2.290   2.711   1.117  0.1492 -0.4786 -0.3298
  873MPD2    H512868   2.327   2.643   1.052  1.1446  0.0836 -0.3699
  873MPD2    N112869   2.328   3.178   1.267 -1.1843 -0.3053  0.4309
  873MPD2    H712870   2.391   3.257   1.260  1.6459 -2.5945  0.1915
  874MPD2     C12871   1.658   3.401  16.364 -0.4749  0.3622 -0.4752
  874MPD2    C112872   1.720   3.374  16.486 -0.0566  0.3270  0.1410
  874MPD2    C212873   1.823   3.460  16.532  0.0884  0.1679 -0.1420
  874MPD2    C312874   1.871   3.565  16.455  0.0131 -0.6334 -0.1148
  874MPD2    C412875   1.824   3.578  16.324 -0.4991 -0.8522 -0.9785
  874MPD2    C512876   1.706   3.512  16.291  0.0191 -0.1653 -0.3323
  874MPD2     H12877   1.869   3.437  16.627  0.4494 -0.5715 -0.4938
  874MPD2    H112878   1.850   3.660  16.258  0.1860 -0.3178 -0.0434
  874MPD2    H212879   1.588   3.335  16.315 -0.1769  0.5821 -1.1950
  874MPD2    H312880   1.664   3.522  16.191 -1.8552  1.1826  0.6108
  874MPD2     N12881   1.978   3.642  16.511 -0.0113  0.2582  0.4102
  874MPD2    H512882   1.997   3.625  16.610  0.4553 -0.0192  0.2734
  874MPD2    N112883   1.683   3.262  16.560 -0.0410  0.7520  0.3530
  874MPD2    H712884   1.625   3.196  16.509 -0.8783  0.0676  2.1796
  875MPD2     C12885   2.305   1.400  14.556  0.8107  0.0936 -0.6583
  875MPD2    C112886   2.291   1.533  14.524 -0.2312 -0.1763 -0.3876
  875MPD2    C212887   2.280   1.628  14.628  0.0751 -0.5228  0.2864
  875MPD2    C312888   2.294   1.596  14.757 -0.5942  0.1435  0.3221
  875MPD2    C412889   2.311   1.462  14.788  0.1761 -0.2452  0.3352
  875MPD2    C512890   2.297   1.368  14.688  0.2023 -0.2595 -0.7092
  875MPD2     H12891   2.276   1.733  14.602 -0.2676 -0.3779  0.9411
  875MPD2    H112892   2.298   1.431  14.891 -0.9432 -0.0784  0.2381
  875MPD2    H212893   2.318   1.322  14.482 -1.5549 -0.6356 -0.2961
  875MPD2    H312894   2.286   1.264  14.716 -0.3438 -0.4545 -1.6456
  875MPD2     N12895   2.280   1.680  14.875  0.8769  0.7274  0.5763
  875MPD2    H512896   2.311   1.644  14.964 -1.3754  0.7223  1.3418
  875MPD2    N112897   2.289   1.578  14.392 -0.2065  0.2927 -0.0588
  875MPD2    H712898   2.265   1.675  14.376  1.3172  1.2453  3.4106
  876MPD2     C12899   1.432   3.011  16.308 -0.2251 -0.4447  0.6439
  876MPD2    C112900   1.556   2.990  16.270  0.4701 -0.7691  0.0040
  876MPD2    C212901   1.630   2.888  16.320  0.0994 -0.4023  0.3696
  876MPD2    C312902   1.585   2.815  16.432 -0.5821  0.1856 -0.1168
  876MPD2    C412903   1.449   2.834  16.468  0.5458 -0.5961  0.3171
  876MPD2    C512904   1.375   2.931  16.404 -0.3912  0.0595 -0.2379
  876MPD2     H12905   1.730   2.869  16.282 -0.1271 -0.0685 -0.3842
  876MPD2    H112906   1.404   2.779  16.550  0.9684  0.0522  0.9797
  876MPD2    H212907   1.382   3.089  16.252 -0.4271 -0.7186  0.4357
  876MPD2    H312908   1.272   2.948  16.434 -0.9032 -3.5858  0.0961
  876MPD2     N12909   1.671   2.709  16.474 -0.0680 -0.1144 -0.0181
  876MPD2    H512910   1.754   2.691  16.419  0.2625 -0.2160  0.5078
  876MPD2    N112911   1.611   3.075  16.167 -0.2045 -0.2111  0.2005
  876MPD2    H712912   1.537   3.137  16.135 -0.1628 -0.8692 -1.1772
  877MPD2     C12913   1.529   3.371  15.452 -0.1064 -0.2011  0.7088
  877MPD2    C112914   1.658   3.401  15.494  0.6630  0.3558  0.1503
  877MPD2    C212915   1.752   3.441  15.396 -0.2911 -0.4643  0.3068
  877MPD2    C312916   1.710   3.448  15.266 -0.0342  0.0766  0.1798
  877MPD2    C412917   1.581   3.419  15.229 -0.7294  0.9222  0.6155
  877MPD2    C512918   1.491   3.382  15.321  0.2713  0.4939  0.4901
  877MPD2     H12919   1.851   3.473  15.423 -1.8410  2.2728  2.7201
  877MPD2    H112920   1.555   3.418  15.124 -1.2884 -0.6593  0.7636
  877MPD2    H212921   1.451   3.346  15.523 -0.7692  0.7786  0.3263
  877MPD2    H312922   1.394   3.346  15.289 -1.3479  3.7894  1.6887
  877MPD2     N12923   1.799   3.475  15.161 -0.2814 -0.1968 -0.5358
  877MPD2    H512924   1.766   3.449  15.069 -2.7169  0.0804  0.2340
  877MPD2    N112925   1.692   3.383  15.629  0.1324 -0.1047  0.0324
  877MPD2    H712926   1.791   3.389  15.651 -0.1254  3.7808  0.1623
  878MPD2     C12927   1.618   2.631  13.575  0.1254 -0.4101 -0.4635
  878MPD2    C112928   1.634   2.769  13.576 -0.2913 -0.4999 -0.3610
  878MPD2    C212929   1.550   2.846  13.656 -0.4548 -0.2159  0.3871
  878MPD2    C312930   1.443   2.791  13.718  0.1219  0.3738  0.2684
  878MPD2    C412931   1.424   2.653  13.703  1.0196 -1.0942  1.3689
  878MPD2    C512932   1.521   2.578  13.645  0.1193  0.2318  0.2110
  878MPD2     H12933   1.570   2.951  13.677  0.8114  0.2134 -2.9956
  878MPD2    H112934   1.336   2.603  13.743 -2.3840  2.2096 -1.9485
  878MPD2    H212935   1.700   2.570  13.539  0.9286  0.6316 -0.3866
  878MPD2    H312936   1.498   2.472  13.644 -0.5994  0.3861 -0.2024
  878MPD2     N12937   1.381   2.874  13.806 -0.0831 -0.1285  0.7256
  878MPD2    H512938   1.395   2.975  13.810 -1.8528  0.1101  1.2650
  878MPD2    N112939   1.748   2.816  13.507  0.5102  0.2937  0.1554
  878MPD2    H712940   1.799   2.739  13.465  1.5331  0.8480  0.3848
  879MPD2     C12941   2.018   4.122  17.709  0.4463  0.4886  0.4256
  879MPD2    C112942   1.984   3.985  17.731  0.6180  0.4411  1.2655
  879MPD2    C212943   1.960   3.900  17.630 -0.6358  0.0080 -0.7342
  879MPD2    C312944   1.970   3.942  17.499  1.0654 -0.1853  0.0851
  879MPD2    C412945   2.001   4.073  17.474 -0.3621  0.0654  0.1204
  879MPD2    C512946   2.024   4.161  17.582 -0.5169  0.4470  0.2793
  879MPD2     H12947   1.945   3.794  17.649  1.6591 -0.4009 -1.2121
  879MPD2    H112948   1.999   4.106  17.370  3.6416  1.6458  0.5334
  879MPD2    H212949   2.023   4.195   0.041 -1.5026 -2.4896  3.2681
  879MPD2    H312950   2.050   4.264  17.560 -1.4064  0.7316  0.5993
  879MPD2     N12951   1.937   3.862  17.384 -0.3943 -0.0215  0.0847
  879MPD2    H512952   1.943   3.910  17.295 -0.5761  3.8992  2.1892
  879MPD2    N112953   1.962   3.956   0.117  0.3550 -0.0114 -0.1953
  879MPD2    H712954   1.975   4.037   0.176  1.0811  1.2311 -2.0590
  880MPD2     C12955   3.007   0.722   0.448 -0.4575 -0.7970  0.0271
  880MPD2    C112956   3.080   0.797   0.354 -0.1734 -0.5874  0.2755
  880MPD2    C212957   3.216   0.782   0.330 -0.3480 -0.2865  0.0002
  880MPD2    C312958   3.285   0.683   0.400 -0.3018  0.1911  0.2626
  880MPD2    C412959   3.215   0.613   0.496 -0.0264 -0.8706  0.0039
  880MPD2    C512960   3.088   0.641   0.528 -0.1320  0.2092  0.2282
  880MPD2     H12961   3.264   0.857   0.270  1.6766 -0.5213  1.3402
  880MPD2    H112962   3.269   0.541   0.557  1.3827  0.1647 -0.0226
  880MPD2    H212963   2.899   0.731   0.461 -0.1855  0.0221  1.7088
  880MPD2    H312964   3.041   0.599   0.616  1.2252 -2.8730 -0.5250
  880MPD2     N12965   3.425   0.649   0.385  0.1885  0.3569  0.8097
  880MPD2    H512966   3.461   0.590   0.459  1.0372  0.1417  0.2194
  880MPD2    N112967   3.005   0.903   0.294 -0.8782 -0.2914  0.1843
  880MPD2    H712968   2.914   0.921   0.337 -0.0876  0.8275  1.4046
  881MPD2     C12969   3.064   1.772  17.380  0.1815 -0.4074 -0.8319
  881MPD2    C112970   3.097   1.645  17.345  0.2261 -0.0969 -0.4579
  881MPD2    C212971   3.048   1.539  17.432  0.5104 -0.4469  0.4406
  881MPD2    C312972   2.990   1.562  17.553  0.4390 -0.4866  0.0227
  881MPD2    C412973   2.962   1.693  17.587 -0.9465  0.3357 -0.1324
  881MPD2    C512974   3.008   1.793  17.509 -0.4715 -0.8283  0.5101
  881MPD2     H12975   3.074   1.437  17.408 -0.0509 -0.3894 -0.4015
  881MPD2    H112976   2.907   1.707  17.679 -0.3342 -2.5060  0.6434
  881MPD2    H212977   3.065   1.862  17.319  0.1839  0.6198  0.6815
  881MPD2    H312978   2.967   1.891  17.533 -1.2625 -1.7025  2.6598
  881MPD2     N12979   2.960   1.464  17.652 -0.5427  0.7320 -0.1023
  881MPD2    H512980   2.947   1.493   0.000 -2.5646 -2.0633  0.4559
  881MPD2    N112981   3.143   1.635  17.210 -0.1742  0.8089 -0.2154
  881MPD2    H712982   3.166   1.720  17.159  0.3703  0.4399 -0.5923
  882MPD2     C12983   1.959   3.188  14.523  0.4428 -0.2886  0.4302
  882MPD2    C112984   1.891   3.294  14.578 -0.0148 -0.4161 -0.6071
  882MPD2    C212985   1.756   3.300  14.554 -0.1450 -0.2338 -0.7467
  882MPD2    C312986   1.686   3.187  14.500 -0.3890  0.2925 -0.2152
  882MPD2    C412987   1.756   3.072  14.475 -0.0187 -0.0426  0.2012
  882MPD2    C512988   1.889   3.075  14.481 -0.0815 -0.4363  0.5706
  882MPD2     H12989   1.697   3.383  14.591 -0.6498 -2.1911  2.8142
  882MPD2    H112990   1.706   2.982  14.442  0.0129  0.3862 -0.9978
  882MPD2    H212991   2.065   3.189  14.547  0.4976 -1.2054  0.2135
  882MPD2    H312992   1.943   2.983  14.460  2.4392  1.2916 -0.4708
  882MPD2     N12993   1.542   3.176  14.509 -0.3120  0.0668 -0.1939
  882MPD2    H512994   1.496   3.085  14.511  2.0347 -1.0772  1.6135
  882MPD2    N112995   1.963   3.383  14.657  0.5589  0.4757 -0.5238
  882MPD2    H712996   2.043   3.339  14.702  0.6025  2.8917  1.7380
  883MPD2     C12997   3.291   3.102  16.326 -0.4446 -0.1142  0.2012
  883MPD2    C112998   3.356   3.221  16.299 -1.0356  0.8299 -0.3573
  883MPD2    C212999   3.436   3.284  16.394  0.3768 -0.1921  0.1485
  883MPD2    C313000   3.446   3.230  16.520 -0.3112 -0.6359 -0.2893
  883MPD2    C413001   3.367   3.118  16.556 -0.5290  0.2970 -0.1669
  883MPD2    C513002   3.306   3.052  16.454  0.3979  0.9893 -0.8274
  883MPD2     H13003   3.497   3.369  16.365  0.1909  0.1399  0.7520
  883MPD2    H113004   3.374   3.075  16.655  2.4022  1.9599  0.3548
  883MPD2    H213005   3.222   3.054  16.257  0.3335 -1.0459  0.0753
  883MPD2    H313006   3.243   2.968  16.478  0.9971  0.5722 -0.7181
  883MPD2     N13007   3.538   3.289  16.611 -0.0532  0.1830  0.2181
  883MPD2    H513008   3.574   3.380  16.583  1.4803 -0.2470  0.8005
  883MPD2    N113009   3.345   3.275  16.172  0.1280  0.5561 -0.3408
  883MPD2    H713010   3.385   3.366  16.152 -3.5529  2.1207 -0.5755
  884MPD2     C13011   0.992   3.964  15.303 -0.2365 -0.1105  0.2387
  884MPD2    C113012   1.030   4.089  15.260  0.2501 -0.6510  0.3304
  884MPD2    C213013   0.933   4.194  15.256 -0.5351 -0.2297 -0.3282
  884MPD2    C313014   0.803   4.168  15.276  0.3901  0.3139 -0.2458
  884MPD2    C413015   0.764   4.038  15.308  0.0217 -0.2660 -0.3180
  884MPD2    C513016   0.856   3.936  15.316 -0.0394 -0.5814  0.3442
  884MPD2     H13017   0.965   4.288  15.214 -1.8564  1.7699  3.1350
  884MPD2    H113018   0.661   4.012  15.327 -0.1599 -1.1093 -2.3693
  884MPD2    H213019   1.056   3.877  15.311  1.4728  1.1510  0.1901
  884MPD2    H313020   0.824   3.835  15.343 -2.3368 -0.4647 -1.9968
  884MPD2     N13021   0.695   4.261  15.255  0.1583  0.5166  0.0568
  884MPD2    H513022   0.600   4.232  15.274  0.9092 -0.9393  1.5348
  884MPD2    N113023   1.165   4.119  15.238  0.0866 -0.8795  0.1192
  884MPD2    H713024   1.187   4.216  15.215  1.5630 -1.4916 -1.0593
  885MPD2     C13025   3.497   4.602   0.637  0.0641  0.0595 -0.7599
  885MPD2    C113026   3.611   4.542   0.592  0.0076  0.4468  0.6019
  885MPD2    C213027   3.641   4.544   0.458 -0.1141  0.4800  0.3431
  885MPD2    C313028   3.567   4.619   0.375 -0.3373  0.1333  0.3070
  885MPD2    C413029   3.449   4.674   0.422  0.5251 -0.4100 -0.9093
  885MPD2    C513030   3.415   4.663   0.549 -0.3248  0.1821  0.0776
  885MPD2     H13031   3.729   4.499   0.413 -1.0798  0.4397 -1.5244
  885MPD2    H113032   3.374   4.735   0.373 -0.1837 -0.9146 -0.4539
  885MPD2    H213033   3.475   4.619   0.741  0.2296 -2.8988 -0.2435
  885MPD2    H313034   3.319   4.703   0.579  0.1238  0.6580  0.8859
  885MPD2     N13035   3.612   4.638   0.243 -0.6204  0.9472  0.2981
  885MPD2    H513036   3.709   4.618   0.221 -0.9679  0.1649 -0.5130
  885MPD2    N113037   3.688   4.486   0.691 -0.4744  0.1750  0.5271
  885MPD2    H713038   3.662   4.508   0.786 -1.4958 -1.7172  0.6892
  886MPD2     C13039   0.170   2.913  15.206 -0.2684  0.2140 -0.0763
  886MPD2    C113040   0.301   2.886  15.223  0.0837  0.0598 -0.3995
  886MPD2    C213041   0.391   2.956  15.153 -0.6724  0.2663 -0.0097
  886MPD2    C313042   0.350   3.057  15.064  0.4198  1.0153 -0.2992
  886MPD2    C413043   0.217   3.081  15.049  0.2704  0.4998 -0.3196
  886MPD2    C513044   0.125   3.009  15.120  0.7238  0.9738  0.2650
  886MPD2     H13045   0.495   2.930  15.165 -0.8614 -2.4957 -4.4119
  886MPD2    H113046   0.178   3.157  14.982 -2.1084  0.7006  1.3163
  886MPD2    H213047   0.097   2.845  15.248  1.1151 -0.4159  1.2883
  886MPD2    H313048   0.017   3.018  15.112  1.0227  2.0812 -2.5883
  886MPD2     N13049   0.448   3.142  15.004  0.0963 -0.3071  0.3002
  886MPD2    H513050   0.415   3.209  14.934 -0.2069  0.2094  0.9371
  886MPD2    N113051   0.356   2.780  15.309 -1.1565 -0.4031 -0.1976
  886MPD2    H713052   0.453   2.758  15.290 -0.8805  0.5110  0.1359
  887MPD2     C13053   0.981   2.683  15.552  0.8156  0.0791  0.1245
  887MPD2    C113054   0.866   2.758  15.566  0.1551 -0.1601  0.4626
  887MPD2    C213055   0.889   2.892  15.581  0.3648 -0.2688  0.1500
  887MPD2    C313056   1.005   2.959  15.579 -0.9160  0.3354 -0.0990
  887MPD2    C413057   1.115   2.885  15.548  0.1788 -0.4644 -0.9536
  887MPD2    C513058   1.099   2.748  15.552  0.8330 -0.1590 -0.3690
  887MPD2     H13059   0.798   2.950  15.595  2.0391  2.3120  0.2411
  887MPD2    H113060   1.217   2.922  15.544 -0.1554  0.4294 -1.0546
  887MPD2    H213061   0.981   2.575  15.555 -0.2108  0.0126 -2.2177
  887MPD2    H313062   1.183   2.680  15.545 -1.6681 -3.4170  1.4116
  887MPD2     N13063   1.007   3.093  15.628  0.1985 -0.0243  0.6507
  887MPD2    H513064   0.927   3.136  15.675 -1.7227 -2.4668 -0.3769
  887MPD2    N113065   0.738   2.710  15.560 -0.1406 -0.5153  0.0220
  887MPD2    H713066   0.660   2.775  15.552 -0.0516 -0.2578  1.2428
  888MPD2     C13067   2.856   2.884  15.061  0.3841  0.6366 -0.6963
  888MPD2    C113068   2.798   2.919  15.183  0.4687  0.7944  0.5137
  888MPD2    C213069   2.821   3.042  15.239  0.2106  0.4849  0.3538
  888MPD2    C313070   2.885   3.133  15.168 -0.4036 -1.0183  0.5392
  888MPD2    C413071   2.921   3.103  15.035 -0.7457  0.5774 -0.0493
  888MPD2    C513072   2.908   2.978  14.984  0.0754 -0.4180 -0.1464
  888MPD2     H13073   2.786   3.066  15.339  0.7388  1.7034  0.2379
  888MPD2    H113074   2.959   3.180  14.969 -0.6205 -1.8275 -2.7906
  888MPD2    H213075   2.851   2.787  15.012 -0.7099  0.5385 -0.3764
  888MPD2    H313076   2.951   2.957  14.886  0.7035  0.2642 -0.0163
  888MPD2     N13077   2.904   3.254  15.232  0.8676 -0.1256  0.0816
  888MPD2    H513078   2.887   3.267  15.331  0.1351 -0.8305  0.0456
  888MPD2    N113079   2.746   2.814  15.266 -0.0145  0.7516  0.8859
  888MPD2    H713080   2.746   2.825  15.367 -0.0735  1.2173  0.8389
  889MPD2     C13081   2.283   2.691  12.921 -0.7092 -0.5599 -0.2628
  889MPD2    C113082   2.306   2.635  13.050  0.1682  0.1619 -0.6529
  889MPD2    C213083   2.321   2.724  13.159 -0.2312  0.1116  0.0696
  889MPD2    C313084   2.282   2.854  13.145 -0.0857 -0.7724  0.1260
  889MPD2    C413085   2.255   2.905  13.022  0.3076  0.7093  0.1412
  889MPD2    C513086   2.254   2.825  12.910 -0.8377 -0.0954  0.1490
  889MPD2     H13087   2.333   2.679  13.256  0.9630  1.4173  0.5283
  889MPD2    H113088   2.234   3.011  13.008  0.9793  0.8660  0.3587
  889MPD2    H213089   2.272   2.626  12.834 -2.6081 -0.8229  0.1685
  889MPD2    H313090   2.236   2.868  12.812 -0.1332 -1.4063 -0.5639
  889MPD2     N13091   2.279   2.930  13.263  0.4688 -0.4952 -0.5888
  889MPD2    H513092   2.308   2.883  13.349 -3.0517  0.8618  1.3580
  889MPD2    N113093   2.338   2.499  13.068 -0.1847 -0.7470  0.0668
  889MPD2    H713094   2.395   2.482  13.151  1.3465 -2.4064 -1.3335
  890MPD2     C13095   1.639   4.113  14.638  0.8782  0.4615  0.9300
  890MPD2    C113096   1.748   4.191  14.684  0.4533  0.3001  0.3273
  890MPD2    C213097   1.818   4.144  14.791 -0.1920  0.3187 -0.1109
  890MPD2    C313098   1.779   4.027  14.858 -0.7164 -0.0084  0.7923
  890MPD2    C413099   1.677   3.948  14.807  0.2528  0.1322  0.1515
  890MPD2    C513100   1.608   3.992  14.694  0.0957 -0.0668  0.6419
  890MPD2     H13101   1.901   4.194  14.840 -0.1207  0.7772 -0.7022
  890MPD2    H113102   1.651   3.851  14.847  1.1024  0.6938  2.0759
  890MPD2    H213103   1.575   4.147  14.558  0.6112  0.9837  1.3650
  890MPD2    H313104   1.515   3.944  14.664  1.0470 -2.0682  0.9049
  890MPD2     N13105   1.845   3.993  14.976 -0.3294  0.6215 -0.5408
  890MPD2    H513106   1.927   4.048  15.000  0.5051  0.3053 -2.7114
  890MPD2    N113107   1.770   4.318  14.621  0.4576 -0.1923 -0.0964
  890MPD2    H713108   1.696   4.353  14.560 -0.0148 -1.8617 -0.4740
  891MPD2     C13109   4.294   3.032  16.513 -1.0019  0.0885  0.5972
  891MPD2    C113110   4.217   3.009  16.621 -0.5219 -0.0036 -0.6078
  891MPD2    C213111   4.266   2.972  16.740  0.3014  1.4169 -0.0007
  891MPD2    C313112   4.409   2.946  16.743  0.5260  0.3006  0.2361
  891MPD2    C413113   4.488   2.964  16.632 -0.4960  0.2411  0.1715
  891MPD2    C513114   4.428   3.008  16.519  0.7137 -0.0196 -0.0669
  891MPD2     H13115   4.205   2.979  16.829 -2.1336 -0.0582 -1.5683
  891MPD2    H113116   4.596   2.952  16.624 -0.4638 -1.3920  2.7609
  891MPD2    H213117   4.257   3.066  16.417 -0.5854 -2.9268 -0.6434
  891MPD2    H313118   4.492   3.018  16.433 -0.6143  0.6813 -0.9828
  891MPD2     N13119   4.462   2.925  16.870 -0.4113  0.1315  0.4000
  891MPD2    H513120   4.395   2.924  16.947 -1.1736  0.0322 -0.2588
  891MPD2    N113121   4.078   3.018  16.596  0.2628 -0.3885 -0.1407
  891MPD2    H713122   4.047   3.026  16.500 -0.5347  0.8546  0.2122
  892MPD2     C13123   0.901   3.917  14.259  0.3443 -0.6945  0.1196
  892MPD2    C113124   0.848   3.861  14.379 -0.1621 -0.3527  0.0986
  892MPD2    C213125   0.896   3.736  14.423 -0.2494 -1.0094  0.5639
  892MPD2    C313126   0.991   3.662  14.348  0.1042  0.7729 -0.0533
  892MPD2    C413127   1.044   3.724  14.234 -0.1109  0.0291 -0.7427
  892MPD2    C513128   1.001   3.852  14.190 -0.7300  0.0506 -0.7446
  892MPD2     H13129   0.855   3.702  14.517 -0.7740 -0.8179  0.3996
  892MPD2    H113130   1.125   3.680  14.177  0.2716 -0.1394 -0.0663
  892MPD2    H213131   0.858   4.009  14.219  0.6468  0.8981  3.5077
  892MPD2    H313132   1.033   3.889  14.093 -0.2957 -0.7727 -0.9158
  892MPD2     N13133   1.054   3.545  14.387 -0.8661 -0.7947 -1.0119
  892MPD2    H513134   1.132   3.506  14.336  1.3182 -1.3525  2.7871
  892MPD2    N113135   0.752   3.929  14.467  0.1879 -0.5123  0.1016
  892MPD2    H713136   0.731   3.885  14.556  0.2020 -0.8789 -0.0748
  893MPD2     C13137   2.337   2.259   1.198  0.2560 -0.2791  0.2587
  893MPD2    C113138   2.317   2.177   1.090 -0.2291 -1.6079 -0.0286
  893MPD2    C213139   2.206   2.095   1.087 -0.5621  0.5137  0.3536
  893MPD2    C313140   2.118   2.078   1.198 -0.3084  0.2398 -0.5041
  893MPD2    C413141   2.155   2.153   1.310  0.3552  0.6863 -0.4935
  893MPD2    C513142   2.259   2.241   1.308 -0.1795 -0.0425 -0.6455
  893MPD2     H13143   2.189   2.032   1.000 -1.6079  0.7587  0.3810
  893MPD2    H113144   2.103   2.132   1.403  1.0360 -1.7087 -0.6397
  893MPD2    H213145   2.425   2.322   1.199  0.4084 -0.3768 -5.2557
  893MPD2    H313146   2.287   2.299   1.395 -0.7001 -0.1201 -0.4272
  893MPD2     N13147   2.002   1.999   1.203  0.1886  0.3312  0.2196
  893MPD2    H513148   1.946   2.012   1.287  0.9437  2.7827  0.3230
  893MPD2    N113149   2.411   2.183   0.986 -1.2001 -0.5744  0.6180
  893MPD2    H713150   2.496   2.235   1.005  0.2656 -2.9260  0.4817
  894MPD2     C13151   0.498   4.012   1.296  0.4970  0.1192  0.0345
  894MPD2    C113152   0.449   4.126   1.361  0.5729 -0.2880 -0.4032
  894MPD2    C213153   0.480   4.254   1.312  1.1115  0.1474 -0.5197
  894MPD2    C313154   0.548   4.266   1.195  0.5356 -0.0173  0.0486
  894MPD2    C413155   0.597   4.155   1.130  0.2547  0.3239  0.0043
  894MPD2    C513156   0.571   4.028   1.185  0.0723 -0.8362 -0.1914
  894MPD2     H13157   0.456   4.342   1.370  0.5904 -0.8044  0.7136
  894MPD2    H113158   0.666   4.164   1.047  0.0007  1.8847 -0.0379
  894MPD2    H213159   0.514   3.913   1.339 -0.0020  0.1956  0.3924
  894MPD2    H313160   0.621   3.944   1.137  1.4155 -0.0653 -0.1506
  894MPD2     N13161   0.564   4.392   1.150  0.4011 -0.4459 -0.1391
  894MPD2    H513162   0.514   4.462   1.205  1.0834  1.7782 -2.3167
  894MPD2    N113163   0.372   4.128   1.476  0.6231  0.3867  0.9975
  894MPD2    H713164   0.336   4.215   1.512  0.5419  1.1864 -0.9861
  895MPD2     C13165   0.032   2.828  13.399  0.1552 -0.6577 -0.0856
  895MPD2    C113166   0.009   2.743  13.507 -0.6378 -0.5317  0.0271
  895MPD2    C213167   0.062   2.620  13.511  0.1869 -0.5011  1.0949
  895MPD2    C313168   0.131   2.568  13.399  0.7084 -0.3799 -0.7960
  895MPD2    C413169   0.156   2.646  13.286  0.0631 -0.2150  0.2457
  895MPD2    C513170   0.104   2.777  13.291 -0.0864  0.0289 -0.0780
  895MPD2     H13171   0.026   2.550  13.586  0.0284 -1.9942 -0.3561
  895MPD2    H113172   0.205   2.606  13.197 -0.3391  0.5857 -0.3420
  895MPD2    H213173   0.003   2.931  13.383  1.9704 -0.5111 -2.5875
  895MPD2    H313174   0.123   2.848  13.211 -0.2162 -1.4469 -1.4079
  895MPD2     N13175   0.187   2.439  13.396 -0.1051 -0.4424  0.7720
  895MPD2    H513176   0.225   2.410  13.306  1.2274  0.1839  1.1454
  895MPD2    N113177   4.668   2.777  13.617  0.6054  0.3686  0.5949
  895MPD2    H713178   4.664   2.707  13.690 -3.3369  0.4076  0.3740
  896MPD2     C13179   1.279   1.190   1.350  0.0883  0.2689  0.1775
  896MPD2    C113180   1.338   1.061   1.355 -0.3176 -0.1022  0.1680
  896MPD2    C213181   1.265   0.948   1.356 -0.5798 -0.4897  0.6168
  896MPD2    C313182   1.124   0.958   1.341 -0.7880 -0.1407  1.3765
  896MPD2    C413183   1.066   1.082   1.323 -0.3668 -0.0862 -0.0381
  896MPD2    C513184   1.141   1.197   1.325 -0.3657  0.4764  0.2197
  896MPD2     H13185   1.315   0.853   1.372  0.9632  0.0421 -1.1514
  896MPD2    H113186   0.961   1.097   1.305 -0.7509 -1.2898  1.1623
  896MPD2    H213187   1.336   1.282   1.350 -0.9991  0.9384 -1.0725
  896MPD2    H313188   1.089   1.293   1.324  0.2121  0.7799 -0.4630
  896MPD2     N13189   1.051   0.836   1.333 -0.3891 -0.0331 -0.4992
  896MPD2    H513190   1.098   0.748   1.356 -0.2808  0.4701  1.2295
  896MPD2    N113191   1.479   1.069   1.363 -0.0372  0.0653  0.0677
  896MPD2    H713192   1.514   1.164   1.369  0.9041 -0.0670 -3.0036
  897MPD2     C13193   2.922   1.837  11.057  0.1191 -0.6876 -0.7688
  897MPD2    C113194   2.940   1.972  11.053 -0.2909  1.0353  0.1676
  897MPD2    C213195   2.859   2.057  11.121 -0.5295  0.3564 -0.3564
  897MPD2    C313196   2.750   1.999  11.174  0.0666 -0.4148 -0.2346
  897MPD2    C413197   2.739   1.859  11.196  0.3710  0.0235  0.3992
  897MPD2    C513198   2.828   1.775  11.139 -0.2187  0.0766  0.7357
  897MPD2     H13199   2.863   2.164  11.104 -3.4623  0.5843  0.4540
  897MPD2    H113200   2.659   1.809  11.249 -0.7106  1.8947  0.5646
  897MPD2    H213201   2.992   1.777  11.000 -1.8514 -3.6309 -0.0357
  897MPD2    H313202   2.809   1.669  11.138 -0.0187  0.0459  0.1820
  897MPD2     N13203   2.651   2.089  11.218  0.2175 -0.1992  0.1642
  897MPD2    H513204   2.686   2.183  11.204 -0.7967  0.0744 -0.5255
  897MPD2    N113205   3.050   2.013  10.975  0.0135  0.2997 -0.3303
  897MPD2    H713206   3.089   1.948  10.907  0.2369 -2.4602  2.3930
  898MPD2     C13207   0.276   2.946   0.854 -0.4154 -0.4116  0.5364
  898MPD2    C113208   0.389   2.999   0.791  0.0965  0.1964  0.1929
  898MPD2    C213209   0.382   3.075   0.675  1.3630  0.7535  0.3609
  898MPD2    C313210   0.255   3.113   0.629  0.3570 -0.2337  0.7667
  898MPD2    C413211   0.143   3.064   0.694 -0.8406 -0.7507 -0.5589
  898MPD2    C513212   0.151   2.969   0.794  0.4550  1.6774  0.2292
  898MPD2     H13213   0.474   3.102   0.623  1.2440  1.6847  0.6482
  898MPD2    H113214   0.045   3.094   0.657 -0.7105 -1.1056 -1.1874
  898MPD2    H213215   0.265   2.884   0.943 -2.6925 -0.6665  0.0986
  898MPD2    H313216   0.057   2.926   0.826  1.6770 -0.5807  0.7383
  898MPD2     N13217   0.248   3.201   0.517  0.5949 -0.3675  0.0298
  898MPD2    H513218   0.337   3.227   0.476  0.6291 -0.9695 -0.2861
  898MPD2    N113219   0.518   2.993   0.851 -0.1909 -0.8235 -0.0996
  898MPD2    H713220   0.601   3.019   0.798  0.3413 -0.5108  0.8636
  899MPD2     C13221   1.323   3.279  17.505  0.6144  0.0310  0.1337
  899MPD2    C113222   1.341   3.371  17.601  0.4210 -0.0137  0.2625
  899MPD2    C213223   1.278   3.352  17.724 -0.3382 -0.2042  0.0218
  899MPD2    C313224   1.195   3.246  17.742  0.3931 -0.6357 -0.5780
  899MPD2    C413225   1.186   3.146  17.644 -0.1930 -0.4051  0.1106
  899MPD2    C513226   1.256   3.167  17.527  0.0230 -0.2609  0.3201
  899MPD2     H13227   1.279   3.435   0.045  2.1420  1.5424 -2.1197
  899MPD2    H113228   1.123   3.058  17.654 -4.2390  2.3776 -0.9351
  899MPD2    H213229   1.375   3.284  17.409  0.1374  0.2995 -0.1121
  899MPD2    H313230   1.259   3.091  17.449 -0.4139 -0.1016  0.1473
  899MPD2     N13231   1.107   3.240   0.103 -0.4211 -0.1394 -0.0218
  899MPD2    H513232   1.054   3.154   0.109 -0.3977  0.0981  3.4369
  899MPD2    N113233   1.408   3.494  17.569  0.0984 -0.5302  0.5304
  899MPD2    H713234   1.444   3.498  17.474  1.0196 -0.8956  0.8597
  900MPD2     C13235   0.987   0.255  12.434 -1.1164  0.1070  0.8922
  900MPD2    C113236   0.882   0.168  12.460  0.2263  0.5323 -0.3657
  900MPD2    C213237   0.793   0.146  12.360 -0.8484  0.5803 -0.6105
  900MPD2    C313238   0.789   0.229  12.252 -0.1173  0.6577  0.6015
  900MPD2    C413239   0.878   0.332  12.237  0.3674 -0.5508 -0.5559
  900MPD2    C513240   0.984   0.337  12.323  0.1714  0.5466  0.1089
  900MPD2     H13241   0.709   0.079  12.374  1.9091 -2.4360  1.8148
  900MPD2    H113242   0.875   0.405  12.157  0.9217  1.9544  1.7172
  900MPD2    H213243   1.068   0.268  12.505 -0.8392 -0.9268  0.7656
  900MPD2    H313244   1.051   0.422  12.314 -0.5069  1.0248 -0.4553
  900MPD2     N13245   0.674   0.218  12.173  0.0294 -0.0295  0.0711
  900MPD2    H513246   0.610   0.143  12.196  0.3797  0.7975  3.7859
  900MPD2    N113247   0.881   0.100  12.591  0.0216  0.9209  0.2649
  900MPD2    H713248   0.961   0.121  12.650  0.0607  2.5147 -0.3669
  901MPD2     C13249   0.559   3.860  12.892  0.2305  0.2958 -0.3736
  901MPD2    C113250   0.692   3.865  12.883 -0.6084  1.3900 -0.8596
  901MPD2    C213251   0.750   3.989  12.859  0.5908 -0.0593  0.1447
  901MPD2    C313252   0.673   4.105  12.853  0.2327  0.9362 -0.8053
  901MPD2    C413253   0.536   4.100  12.861 -0.5282  0.5434 -0.3439
  901MPD2    C513254   0.481   3.977  12.875  0.5989 -0.0584  0.3815
  901MPD2     H13255   0.857   4.001  12.848  0.2922  2.3470 -0.2428
  901MPD2    H113256   0.470   4.186  12.870  2.4601  2.6268  1.7880
  901MPD2    H213257   0.511   3.764  12.909  0.9978  0.2114  1.3092
  901MPD2    H313258   0.373   3.969  12.880  0.7635 -0.9638  2.7395
  901MPD2     N13259   0.745   4.224  12.848 -0.5523  0.0548 -0.0400
  901MPD2    H513260   0.844   4.205  12.833 -0.2324 -0.8153  3.2310
  901MPD2    N113261   0.763   3.745  12.883 -0.0011  0.6970 -0.4350
  901MPD2    H713262   0.706   3.662  12.888  1.8175 -0.5275  0.1735
  902MPD2     C13263   4.663   3.206  13.144 -0.7733  0.5474  0.1255
  902MPD2    C113264   4.651   3.312  13.055  0.3035  0.2765 -0.1722
  902MPD2    C213265   4.721   3.307  12.934 -0.1550 -0.1117  0.0204
  902MPD2    C313266   0.062   3.203  12.904 -0.1656  0.0362 -0.9239
  902MPD2    C413267   0.060   3.093  12.985 -0.2052 -0.1601 -0.2255
  902MPD2    C513268   0.003   3.098  13.104 -0.7370 -0.1369  0.0487
  902MPD2     H13269   4.718   3.394  12.869 -0.2536  1.0971  1.6340
  902MPD2    H113270   0.107   3.002  12.950 -0.1872  0.2015 -1.1459
  902MPD2    H213271   4.612   3.207  13.240  0.9693  1.4735  1.0358
  902MPD2    H313272   0.008   3.005  13.161  0.8279 -0.4222 -0.5719
  902MPD2     N13273   0.141   3.196  12.785  0.1754  0.0099 -0.7618
  902MPD2    H513274   0.165   3.102  12.755 -0.4641 -0.1116 -0.8868
  902MPD2    N113275   4.564   3.419  13.089  0.2673  0.3409  0.0305
  902MPD2    H713276   4.548   3.445  13.186  0.2858  0.8084 -0.0901
  903MPD2     C13277   4.631   3.478  12.165 -0.1276  0.0368 -0.2373
  903MPD2    C113278   4.703   3.357  12.170  0.0414  0.2034  0.0844
  903MPD2    C213279   4.644   3.242  12.124 -0.3177 -0.0829  0.3356
  903MPD2    C313280   4.516   3.249  12.071 -0.1800  0.0138  0.3674
  903MPD2    C413281   4.445   3.366  12.059 -0.4311  0.5183 -0.5173
  903MPD2    C513282   4.506   3.479  12.109  0.9987  0.7972  0.4996
  903MPD2     H13283   4.682   3.141  12.139 -1.7142 -0.4921  1.0425
  903MPD2    H113284   4.341   3.366  12.027 -0.5419 -0.0569 -0.1670
  903MPD2    H213285   4.659   3.573  12.209 -1.2912 -0.1475  0.8901
  903MPD2    H313286   4.457   3.573  12.130  1.1404  0.6921  1.3176
  903MPD2     N13287   4.471   3.118  12.032  0.1730 -0.5634 -0.1041
  903MPD2    H513288   4.529   3.038  12.055 -1.7061 -1.5433  1.1862
  903MPD2    N113289   0.088   3.358  12.237 -0.1677  0.3177 -0.5651
  903MPD2    H713290   0.114   3.445  12.282 -1.8054  0.6802 -0.3081
  904MPD2     C13291   4.675   1.913  14.312 -0.1579 -0.0202 -0.8479
  904MPD2    C113292   0.029   1.982  14.231 -0.0352  0.1173 -0.0257
  904MPD2    C213293   0.160   1.988  14.261  0.7162 -0.3714  0.5920
  904MPD2    C313294   0.208   1.938  14.381 -0.4130  0.8114 -0.1669
  904MPD2    C413295   0.122   1.867  14.461  0.7165  0.4290  0.5541
  904MPD2    C513296   4.727   1.858  14.432 -0.1911 -0.6245 -0.1580
  904MPD2     H13297   0.225   2.047  14.198  0.9635 -0.1100  1.0944
  904MPD2    H113298   0.157   1.826  14.556  1.5187 -0.2962 -0.0546
  904MPD2    H213299   4.569   1.931  14.298 -0.2236  0.1171 -0.2057
  904MPD2    H313300   4.654   1.807  14.494 -0.9497 -2.0222 -2.1927
  904MPD2     N13301   0.342   1.967  14.421 -0.2852 -0.9143  0.4557
  904MPD2    H513302   0.407   2.002  14.352  0.0458 -0.1424  1.1512
  904MPD2    N113303   4.718   2.068  14.129  0.3371 -0.5184 -0.3699
  904MPD2    H713304   0.037   2.138  14.082 -2.1875  1.3739 -0.6027
  905MPD2     C13305   4.426   1.862  13.478 -0.4720 -0.8546  0.2058
  905MPD2    C113306   4.504   1.978  13.489 -0.1180 -0.2115  0.3930
  905MPD2    C213307   4.596   2.003  13.388 -0.0744 -0.3836 -0.3739
  905MPD2    C313308   4.630   1.909  13.296  0.2562 -0.2195 -0.9329
  905MPD2    C413309   4.559   1.793  13.293  0.6992  0.3691  0.4099
  905MPD2    C513310   4.457   1.769  13.379  0.0675 -0.0689 -0.2691
  905MPD2     H13311   4.640   2.102  13.392 -1.0648  0.2146 -3.9578
  905MPD2    H113312   4.579   1.726  13.210  0.5391  0.3974  0.3475
  905MPD2    H213313   4.353   1.843  13.556 -0.3042 -0.6712  0.4079
  905MPD2    H313314   4.393   1.682  13.371 -0.1275  0.3796 -3.5552
  905MPD2     N13315   4.734   1.931  13.202  0.5343  0.5275  0.4924
  905MPD2    H513316   4.727   1.871  13.120  0.1862 -1.8696  2.2543
  905MPD2    N113317   4.477   2.072  13.595  0.1908 -0.2076  0.0073
  905MPD2    H713318   4.432   2.035  13.679  1.3181  1.8271  1.5125
  906MPD2     C13319   1.472   2.075  11.249 -0.3557  0.1531  0.2564
  906MPD2    C113320   1.453   1.979  11.155 -0.0172 -0.1561 -0.3204
  906MPD2    C213321   1.397   1.859  11.190 -0.5963 -0.4468 -0.4960
  906MPD2    C313322   1.334   1.844  11.315 -0.1408 -0.2911 -0.0491
  906MPD2    C413323   1.355   1.947  11.412 -0.0518  0.2476 -0.0813
  906MPD2    C513324   1.427   2.054  11.376 -0.6848 -0.9802  0.0006
  906MPD2     H13325   1.385   1.791  11.107 -0.0724 -1.2972  0.1261
  906MPD2    H113326   1.316   1.949  11.513 -1.3111 -1.9131 -0.5263
  906MPD2    H213327   1.524   2.168  11.228 -0.6896  0.6403  1.5535
  906MPD2    H313328   1.444   2.132  11.448 -1.5718  0.8373 -1.7588
  906MPD2     N13329   1.238   1.737  11.344 -0.2206 -0.0079 -0.2778
  906MPD2    H513330   1.173   1.757  11.419 -0.5069 -2.0909  0.0402
  906MPD2    N113331   1.495   1.993  11.028  0.1925  0.4741  0.8970
  906MPD2    H713332   1.484   1.910  10.970 -1.4527  3.7107 -3.4716
  907MPD2     C13333   0.383   1.550  16.025  0.8566 -1.0205  0.3432
  907MPD2    C113334   0.517   1.542  16.017 -0.5280 -0.4047 -0.1181
  907MPD2    C213335   0.588   1.509  16.134  0.1582 -0.4165 -0.3912
  907MPD2    C313336   0.530   1.490  16.256 -0.2454 -0.0802 -0.0297
  907MPD2    C413337   0.391   1.494  16.260  0.0186  0.3423 -0.4038
  907MPD2    C513338   0.323   1.514  16.142  0.0116 -0.4564  0.0954
  907MPD2     H13339   0.695   1.521  16.120 -0.0987  0.9528 -1.1201
  907MPD2    H113340   0.327   1.459  16.340 -0.4377 -0.0221 -0.9211
  907MPD2    H213341   0.317   1.557  15.939 -1.6479 -0.1972  2.3558
  907MPD2    H313342   0.218   1.490  16.146 -0.4339  1.5280  0.6397
  907MPD2     N13343   0.615   1.449  16.357 -0.2410 -0.7132 -0.3107
  907MPD2    H513344   0.715   1.463  16.353 -0.1124 -1.5593 -0.0015
  907MPD2    N113345   0.587   1.559  15.897  0.4121 -0.0655  0.0713
  907MPD2    H713346   0.688   1.552  15.903  0.4904  0.3404 -0.8145
  908MPD2     C13347   3.153   2.291  10.144  0.6097 -0.2517  0.4179
  908MPD2    C113348   3.119   2.167  10.188  0.0698  0.0251  0.1303
  908MPD2    C213349   3.163   2.121  10.316 -0.2886 -0.1464 -0.6108
  908MPD2    C313350   3.235   2.212  10.392 -0.1015  0.4000  0.4688
  908MPD2    C413351   3.254   2.342  10.345 -0.1477 -0.3413  0.2348
  908MPD2    C513352   3.225   2.377  10.218  0.1487 -0.3247  0.4277
  908MPD2     H13353   3.133   2.027  10.361 -1.8184  0.5444 -0.1844
  908MPD2    H113354   3.320   2.411  10.396 -3.2860  1.6377  1.6011
  908MPD2    H213355   3.125   2.319  10.043 -1.4835 -1.1266  0.7625
  908MPD2    H313356   3.244   2.478  10.182 -2.7251 -0.3865 -1.2855
  908MPD2     N13357   3.284   2.170  10.519  0.7479 -0.3531  0.4904
  908MPD2    H513358   3.254   2.079  10.553 -1.2174 -0.5233 -1.7095
  908MPD2    N113359   3.041   2.084  10.109  0.2809 -0.1396 -0.0648
  908MPD2    H713360   2.998   2.113  10.021 -0.6795 -0.1778  0.3968
  909MPD2     C13361   3.387   4.655  12.087  0.1890 -0.0792  0.3787
  909MPD2    C113362   3.367   0.031  12.006 -0.7786  0.2690  0.1232
  909MPD2    C213363   3.264   0.114  12.041  0.5855  0.4796 -0.2427
  909MPD2    C313364   3.186   0.092  12.159 -0.8728 -0.1597 -0.0743
  909MPD2    C413365   3.215   4.716  12.235 -0.0691  0.2136  0.5691
  909MPD2    C513366   3.317   4.633  12.197 -0.1601 -0.0188  0.3576
  909MPD2     H13367   3.245   0.204  11.984  2.5520  0.8281 -0.3443
  909MPD2    H113368   3.162   4.685  12.324  1.1683  0.2649  1.3207
  909MPD2    H213369   3.453   4.577  12.051 -1.9498 -0.7171 -2.1930
  909MPD2    H313370   3.342   4.547  12.258  2.8964  0.5865 -0.0732
  909MPD2     N13371   3.076   0.172  12.190 -0.5094 -0.0198  0.8937
  909MPD2    H513372   3.059   0.242  12.118  1.7566  1.7560  2.0852
  909MPD2    N113373   3.456   0.066  11.899  0.5047  0.3634 -0.7682
  909MPD2    H713374   3.436   0.154  11.852  0.9902  0.4179 -0.8672
  910MPD2     C13375   0.158   1.820  16.087  0.1384  0.2344 -0.5486
  910MPD2    C113376   0.028   1.844  16.120 -0.1836  0.3441 -0.0547
  910MPD2    C213377   4.690   1.945  16.054 -0.2831 -0.3312 -0.4407
  910MPD2    C313378   0.016   2.014  15.952  0.5988  0.2240 -0.2415
  910MPD2    C413379   0.142   1.984  15.908  0.3664  0.0799  0.2795
  910MPD2    C513380   0.214   1.892  15.979  0.4022  0.1517  0.4207
  910MPD2     H13381   4.590   1.975  16.080 -0.2769 -1.5292  1.0028
  910MPD2    H113382   0.186   2.031  15.821 -2.6157  3.6064  0.6841
  910MPD2    H213383   0.221   1.742  16.125  1.1724  0.3963 -1.9253
  910MPD2    H313384   0.316   1.872  15.947  0.2935  0.5810 -0.1949
  910MPD2     N13385   4.676   2.100  15.866  0.2135 -0.3436 -0.5545
  910MPD2    H513386   4.727   2.147  15.793 -1.2138  0.6524 -0.8918
  910MPD2    N113387   4.710   1.762  16.216 -0.0019  0.1472 -0.0322
  910MPD2    H713388   4.609   1.764  16.225  0.0541 -2.1032  1.3965
  911MPD2     C13389   2.758   2.524  15.992 -0.3694  0.5688  0.6444
  911MPD2    C113390   2.765   2.531  16.130 -0.2005  0.1997  0.3136
  911MPD2    C213391   2.699   2.633  16.199 -0.4369  0.1417 -0.1938
  911MPD2    C313392   2.635   2.732  16.119  0.3542  0.5239 -0.2501
  911MPD2    C413393   2.618   2.721  15.989  0.4405  0.4457  0.0116
  911MPD2    C513394   2.683   2.615  15.927 -0.4597  0.1434 -0.4250
  911MPD2     H13395   2.713   2.643  16.306  2.5200  0.7856 -0.6227
  911MPD2    H113396   2.566   2.794  15.928  1.5210  1.1435 -0.0735
  911MPD2    H213397   2.805   2.442  15.938  0.5147  1.7102 -0.3074
  911MPD2    H313398   2.659   2.598  15.823  1.1652  4.8623 -1.5819
  911MPD2     N13399   2.587   2.854  16.182  0.3137  0.0015  0.3022
  911MPD2    H513400   2.545   2.928  16.127 -0.7846 -0.5134  0.4448
  911MPD2    N113401   2.843   2.429  16.186  0.4564  0.0942  0.0900
  911MPD2    H713402   2.885   2.360  16.124 -0.0447  1.2162 -1.5066
  912MPD2     C13403   2.223   2.890  15.826 -0.6138  0.5639 -0.0101
  912MPD2    C113404   2.233   2.852  15.960  0.3102 -0.4282 -0.9549
  912MPD2    C213405   2.280   2.728  15.990 -0.6803  0.0419 -0.4613
  912MPD2    C313406   2.320   2.642  15.901 -0.6713 -0.2729 -0.3203
  912MPD2    C413407   2.309   2.673  15.769  0.0626 -0.3298  0.2552
  912MPD2    C513408   2.269   2.804  15.735 -0.5962  0.0246 -0.1786
  912MPD2     H13409   2.272   2.697  16.093 -0.8884 -0.9914 -0.7895
  912MPD2    H113410   2.332   2.605  15.688 -0.3494  0.1841 -0.2906
  912MPD2    H213411   2.164   2.969  15.781 -0.2034  0.8679 -0.0130
  912MPD2    H313412   2.279   2.827  15.629 -1.1540  1.1712  0.0231
  912MPD2     N13413   2.366   2.516  15.934  0.1408 -0.1962  0.5240
  912MPD2    H513414   2.377   2.500  16.033  3.1353  3.4018  0.8079
  912MPD2    N113415   2.203   2.952  16.056 -0.5441 -0.0589  0.1972
  912MPD2    H713416   2.202   3.050  16.028  0.5566 -1.2669 -4.1305
  913MPD2     C13417   2.017   3.044  11.498  0.5080  0.2513 -0.4036
  913MPD2    C113418   2.155   3.060  11.477 -0.3547 -0.4904  0.5343
  913MPD2    C213419   2.208   3.087  11.349 -0.5095  0.8524 -0.1486
  913MPD2    C313420   2.121   3.080  11.241 -0.0360  0.0979 -1.1551
  913MPD2    C413421   1.984   3.059  11.264 -0.3409 -0.6345  0.1167
  913MPD2    C513422   1.932   3.041  11.392  0.4102 -0.1998  0.6746
  913MPD2     H13423   2.313   3.106  11.333 -1.3652  3.2480 -2.9343
  913MPD2    H113424   1.916   3.045  11.181  0.7614  1.8646 -1.2140
  913MPD2    H213425   1.982   3.023  11.598  0.0898 -0.3217 -0.6723
  913MPD2    H313426   1.826   3.022  11.406  0.6772 -1.0541  1.5900
  913MPD2     N13427   2.164   3.102  11.111  0.1469 -0.9323 -0.7269
  913MPD2    H513428   2.093   3.100  11.038 -1.1814 -1.7399  0.5990
  913MPD2    N113429   2.248   3.053  11.589  0.0817  0.0114  0.0942
  913MPD2    H713430   2.205   3.028  11.678 -1.9437 -1.6055 -1.3427
  914MPD2     C13431   0.875   3.886  12.251  0.4387 -0.6690 -0.9497
  914MPD2    C113432   0.889   3.943  12.379 -0.6664 -0.4362 -0.6830
  914MPD2    C213433   0.906   3.848  12.471  0.6830 -0.0942  0.5076
  914MPD2    C313434   0.892   3.716  12.448  0.0856  0.7847  0.2038
  914MPD2    C413435   0.857   3.669  12.324 -0.3135 -0.0961 -0.4079
  914MPD2    C513436   0.850   3.757  12.227  0.8024  0.8588 -0.0956
  914MPD2     H13437   0.948   3.873  12.568  0.4193 -0.9986  0.8563
  914MPD2    H113438   0.841   3.565  12.300 -0.8285 -0.2058  0.4082
  914MPD2    H213439   0.882   3.953  12.166 -0.8311 -0.0095 -0.5389
  914MPD2    H313440   0.835   3.726  12.124 -2.6983  0.4044  0.5424
  914MPD2     N13441   0.923   3.633  12.552 -0.5358 -0.0524 -1.5271
  914MPD2    H513442   0.954   3.677  12.638  1.2382 -1.9001 -1.2230
  914MPD2    N113443   0.901   4.079  12.403 -0.7947  0.3373 -0.0338
  914MPD2    H713444   0.898   4.133  12.317 -2.5653  0.1240 -0.1118
  915MPD2     C13445   4.000   3.973  16.167 -0.7255  0.4391  0.9486
  915MPD2    C113446   3.913   4.037  16.082  0.7537  0.9725 -0.1688
  915MPD2    C213447   3.805   4.102  16.140 -0.5003  0.8233 -0.2841
  915MPD2    C313448   3.778   4.096  16.276 -0.1422 -0.2291 -0.0487
  915MPD2    C413449   3.862   4.027  16.358 -0.2566  0.3543 -0.4124
  915MPD2    C513450   3.974   3.971  16.299 -0.2234 -0.5377  0.1182
  915MPD2     H13451   3.727   4.143  16.077 -1.0847 -1.7600 -1.2791
  915MPD2    H113452   3.852   4.008  16.465 -3.3886 -0.4067 -0.8279
  915MPD2    H213453   4.085   3.916  16.130 -2.9920 -1.3736 -1.4408
  915MPD2    H313454   4.053   3.929  16.361  0.7412  0.1677 -0.6291
  915MPD2     N13455   3.677   4.190  16.322 -0.0419 -0.2338  0.1688
  915MPD2    H513456   3.631   4.251  16.256 -0.4032  0.2182  0.8460
  915MPD2    N113457   3.938   4.026  15.944  0.9165  0.2655  0.0185
  915MPD2    H713458   4.016   3.964  15.922 -0.4672 -0.9122 -1.5877
  916MPD2     C13459   2.039   2.436  16.124  0.1188  0.4193 -0.3911
  916MPD2    C113460   2.031   2.340  16.213 -0.2208  0.3352 -0.6050
  916MPD2    C213461   2.051   2.208  16.175 -0.0946 -0.0627  0.2876
  916MPD2    C313462   2.067   2.173  16.037 -0.4977 -0.9402  0.1916
  916MPD2    C413463   2.087   2.277  15.956  0.5554  0.3542 -0.6765
  916MPD2    C513464   2.065   2.406  15.996  0.1123 -0.2525 -0.3915
  916MPD2     H13465   2.049   2.121  16.239  0.3930 -0.7845 -0.6735
  916MPD2    H113466   2.099   2.267  15.849 -1.3689  3.8324 -1.2325
  916MPD2    H213467   2.017   2.539  16.150  2.5404  1.1341 -1.1296
  916MPD2    H313468   2.069   2.491  15.929  0.5077 -0.8589 -1.1286
  916MPD2     N13469   2.085   2.041  15.990 -0.1556 -0.3996 -0.0149
  916MPD2    H513470   2.087   1.974  16.066  0.8566 -0.1100  0.2109
  916MPD2    N113471   1.986   2.377  16.335 -0.3425 -0.1505 -0.2908
  916MPD2    H713472   1.981   2.477  16.353 -0.3166  0.1733 -2.1299
  917MPD2     C13473   2.104   4.299  10.984  0.3839  0.4769 -0.1766
  917MPD2    C113474   2.183   4.316  11.100  0.7148  0.2275  0.9726
  917MPD2    C213475   2.310   4.368  11.074  0.6679  0.4123 -0.7890
  917MPD2    C313476   2.351   4.408  10.947  0.2998 -0.6092  0.0515
  917MPD2    C413477   2.272   4.397  10.841 -0.7176  0.1417  0.4244
  917MPD2    C513478   2.150   4.335  10.861  0.4200 -0.7973  0.2678
  917MPD2     H13479   2.389   4.368  11.149  0.0895  1.0605 -0.1868
  917MPD2    H113480   2.313   4.410  10.741  0.8935 -1.1210  0.9346
  917MPD2    H213481   2.009   4.248  10.996  1.7140 -2.0672 -0.3702
  917MPD2    H313482   2.091   4.303  10.775 -1.7423 -0.2362  1.5608
  917MPD2     N13483   2.485   4.440  10.917 -0.5895 -0.1360 -0.1587
  917MPD2    H513484   2.493   4.467  10.819  1.6795 -0.9061 -0.1802
  917MPD2    N113485   2.142   4.262  11.220 -0.2658  0.0177  0.4872
  917MPD2    H713486   2.048   4.223  11.227 -1.8717  3.8034 -0.1198
  918MPD2     C13487   2.031   4.684  12.216 -0.0426 -0.3774 -0.5916
  918MPD2    C113488   2.146   4.647  12.148 -0.0718  0.6126  0.1726
  918MPD2    C213489   2.131   4.563  12.037 -0.1046 -0.0655 -0.4413
  918MPD2    C313490   2.007   4.534  11.983 -0.5157 -0.7336  0.4222
  918MPD2    C413491   1.899   4.575  12.058  0.0395 -0.0392  0.5960
  918MPD2    C513492   1.907   4.647  12.171 -0.1713 -0.0826  0.2332
  918MPD2     H13493   2.220   4.546  11.978 -0.2257  1.3088 -1.0328
  918MPD2    H113494   1.802   4.547  12.017  0.7871 -0.7209 -0.6848
  918MPD2    H213495   2.032   0.004  12.307 -0.9132 -0.3101 -0.6208
  918MPD2    H313496   1.821   4.677  12.229  0.1191  2.5899 -0.7551
  918MPD2     N13497   1.994   4.452  11.868  0.0150  0.5097 -0.3998
  918MPD2    H513498   1.898   4.453  11.834  1.0029  1.4662 -3.2088
  918MPD2    N113499   2.276   4.686  12.193 -0.2774  0.3943 -0.1887
  918MPD2    H713500   2.352   4.661  12.131  0.0623  1.7422 -0.3283
  919MPD2     C13501   2.625   3.760  11.818 -0.1637  0.4477 -0.2186
  919MPD2    C113502   2.555   3.647  11.863  0.1264  0.0130 -0.9898
  919MPD2    C213503   2.468   3.582  11.779  0.1754  0.2140  0.0686
  919MPD2    C313504   2.461   3.606  11.646 -0.0026  0.5333 -0.4296
  919MPD2    C413505   2.524   3.720  11.602 -0.4619  0.1883  0.4670
  919MPD2    C513506   2.610   3.796  11.687  0.4184 -0.3983  0.1045
  919MPD2     H13507   2.398   3.512  11.824 -1.0470  0.8538 -0.8265
  919MPD2    H113508   2.504   3.753  11.501 -0.1809 -1.2143 -0.0499
  919MPD2    H213509   2.687   3.831  11.872 -2.5360  1.6471  0.9042
  919MPD2    H313510   2.646   3.894  11.658  0.3541 -0.2275  0.6037
  919MPD2     N13511   2.379   3.535  11.555 -0.5204 -0.1375  0.2250
  919MPD2    H513512   2.383   3.569  11.459 -2.8767  1.9132  0.8569
  919MPD2    N113513   2.564   3.600  11.997 -0.2877 -0.4757 -0.3361
  919MPD2    H713514   2.497   3.537  12.041  0.8639 -0.4978  1.3955
  920MPD2     C13515   2.288   3.584  10.599  0.0163  0.3429 -0.8452
  920MPD2    C113516   2.173   3.506  10.617  1.2616 -0.2609 -0.1752
  920MPD2    C213517   2.126   3.464  10.742  0.2207 -0.5372  0.2368
  920MPD2    C313518   2.198   3.517  10.850  0.4946  0.4073 -0.5573
  920MPD2    C413519   2.298   3.605  10.833 -0.2055  0.2774 -0.3454
  920MPD2    C513520   2.340   3.639  10.708 -0.2451 -0.0360  0.2284
  920MPD2     H13521   2.043   3.395  10.746 -0.7541  0.5855 -0.6076
  920MPD2    H113522   2.340   3.668  10.911 -1.9330  1.2279 -0.1731
  920MPD2    H213523   2.328   3.619  10.504  1.7797 -2.5323 -1.1557
  920MPD2    H313524   2.421   3.710  10.696 -0.7583  0.2800 -1.4102
  920MPD2     N13525   2.157   3.471  10.979  0.0127  0.0888  0.1305
  920MPD2    H513526   2.074   3.412  10.981  1.0600 -1.4160  0.0477
  920MPD2    N113527   2.118   3.434  10.509 -0.4493  0.5493  0.6057
  920MPD2    H713528   2.043   3.371  10.537  0.4887 -1.0177 -0.3874
  921MPD2     C13529   3.502   2.521  16.901 -0.0297 -0.2852  0.4141
  921MPD2    C113530   3.500   2.569  16.767 -0.0156  1.1792  0.1555
  921MPD2    C213531   3.430   2.494  16.680 -0.5406 -0.4894  0.1203
  921MPD2    C313532   3.359   2.378  16.714 -0.4482  0.1981 -0.3234
  921MPD2    C413533   3.368   2.325  16.841  0.0865  0.1771 -0.1002
  921MPD2    C513534   3.437   2.402  16.932 -0.8923  0.0108  0.3526
  921MPD2     H13535   3.405   2.522  16.578  1.0189  0.7380  0.0773
  921MPD2    H113536   3.338   2.225  16.872 -0.4056  1.0091  2.1336
  921MPD2    H213537   3.554   2.573  16.981  0.8557  2.2686 -1.7937
  921MPD2    H313538   3.463   2.361  17.029 -3.0311 -1.2283  0.4052
  921MPD2     N13539   3.295   2.310  16.608 -0.2843 -0.3869  0.2501
  921MPD2    H513540   3.325   2.338  16.515  0.0013 -0.4153  0.3311
  921MPD2    N113541   3.570   2.690  16.733  0.4139 -0.2445 -0.2667
  921MPD2    H713542   3.619   2.738  16.809  1.6870 -2.2910  0.1908
  922MPD2     C13543   4.388   0.337  17.164 -0.1739 -0.1673  0.4829
  922MPD2    C113544   4.277   0.405  17.217  0.5935  0.1920  0.0237
  922MPD2    C213545   4.157   0.333  17.221  0.1982  0.1912 -0.6728
  922MPD2    C313546   4.137   0.207  17.176 -0.0336 -0.0752  0.0446
  922MPD2    C413547   4.254   0.142  17.133 -0.5543  0.4118 -0.0722
  922MPD2    C513548   4.376   0.207  17.123  0.0602  0.2184 -0.9914
  922MPD2     H13549   4.074   0.392  17.259  1.2855  3.4557 -3.3864
  922MPD2    H113550   4.263   0.036  17.114  1.7175  0.3537  1.3637
  922MPD2    H213551   4.480   0.386  17.136 -1.1347  1.1807 -0.3305
  922MPD2    H313552   4.459   0.160  17.073  0.7261  1.0964 -0.7068
  922MPD2     N13553   4.010   0.149  17.206  0.0729 -0.0906  0.4756
  922MPD2    H513554   3.943   0.203  17.259  1.3019 -0.0334  1.9951
  922MPD2    N113555   4.285   0.540  17.255 -0.0330 -1.2135 -0.2229
  922MPD2    H713556   4.212   0.568  17.319  0.6870 -0.0318  0.0978
  923MPD2     C13557   4.684   1.578   9.838  0.4498 -0.5450 -0.3094
  923MPD2    C113558   4.726   1.634   9.716 -0.1973 -0.3509 -0.3418
  923MPD2    C213559   0.109   1.704   9.722 -0.3429 -0.5972  0.2946
  923MPD2    C313560   0.172   1.736   9.844 -1.0632  0.1997 -0.2646
  923MPD2    C413561   0.136   1.669   9.955 -0.3541 -0.5723 -0.1232
  923MPD2    C513562   0.024   1.584   9.953  0.5509  0.5408  0.2873
  923MPD2     H13563   0.137   1.752   9.629 -2.7198  1.0204  0.4438
  923MPD2    H113564   0.187   1.689  10.049  0.7750 -0.8237 -0.6850
  923MPD2    H213565   4.595   1.518   9.847  1.4911 -2.1683 -0.7466
  923MPD2    H313566   4.733   1.528  10.041 -2.8272 -0.5709 -1.5250
  923MPD2     N13567   0.273   1.829   9.853  0.1753 -0.1645  0.5270
  923MPD2    H513568   0.317   1.833   9.944 -1.8332 -0.0755  1.4938
  923MPD2    N113569   4.647   1.612   9.602  0.1704 -0.5552 -0.6006
  923MPD2    H713570   4.554   1.573   9.610  0.4024 -0.8000  0.7314
  924MPD2     C13571   0.850   0.799  16.182  0.1253 -0.5401  0.5743
  924MPD2    C113572   0.814   0.801  16.312 -0.4609  0.4571 -0.3608
  924MPD2    C213573   0.853   0.904  16.395 -0.2722  0.6625  0.1709
  924MPD2    C313574   0.915   1.019  16.344 -0.2210  0.5609  0.4737
  924MPD2    C413575   0.943   1.010  16.209  0.4193 -0.0638  0.3578
  924MPD2    C513576   0.913   0.904  16.132 -0.1904  0.2504  0.3173
  924MPD2     H13577   0.812   0.902  16.495 -2.9561  0.2346 -0.9288
  924MPD2    H113578   0.993   1.088  16.153 -0.3516  0.0541 -0.1676
  924MPD2    H213579   0.827   0.714  16.118 -0.8318  0.4362 -0.3832
  924MPD2    H313580   0.942   0.904  16.028  0.1030  0.2084  0.3964
  924MPD2     N13581   0.945   1.134  16.421  0.0740 -0.0831  0.0681
  924MPD2    H513582   0.971   1.220  16.373  0.1287  0.9486  1.9359
  924MPD2    N113583   0.735   0.696  16.360  0.4385  0.2045  0.8050
  924MPD2    H713584   0.706   0.641  16.280  2.5492 -1.0756  0.9183
  925MPD2     C13585   0.006   3.534  15.021  0.7943  0.3835  0.4647
  925MPD2    C113586   4.665   3.431  14.962 -0.0472  0.0656  0.0048
  925MPD2    C213587   4.558   3.376  15.036  0.4435 -0.1043 -0.4814
  925MPD2    C313588   4.539   3.413  15.169 -0.2514 -0.2375 -0.2532
  925MPD2    C413589   4.624   3.506  15.225 -0.0575  0.0046 -0.5134
  925MPD2    C513590   4.722   3.570  15.150  0.3029  0.2231  0.0804
  925MPD2     H13591   4.503   3.292  14.996 -0.7358  1.0274 -1.2302
  925MPD2    H113592   4.636   3.517  15.332 -1.8684  0.7649 -0.4030
  925MPD2    H213593   0.088   3.589  14.976  2.9814 -2.1396  1.3287
  925MPD2    H313594   0.047   3.645  15.198  0.4150 -0.3147  0.7773
  925MPD2     N13595   4.436   3.350  15.241 -0.4648 -0.4033 -0.1041
  925MPD2    H513596   4.373   3.289  15.190  0.2757 -1.1145 -0.1682
  925MPD2    N113597   4.662   3.408  14.826  0.8804 -0.2344 -0.7089
  925MPD2    H713598   4.598   3.340  14.785 -0.3920  0.3556  0.2993
  926MPD2     C13599   2.874   1.333  14.012  0.0162  0.4789 -0.7597
  926MPD2    C113600   2.846   1.468  13.990  0.1376 -0.6033 -0.0686
  926MPD2    C213601   2.873   1.536  13.872 -0.9032 -0.1295 -0.0271
  926MPD2    C313602   2.959   1.471  13.781  0.0754 -0.3667 -0.9775
  926MPD2    C413603   2.982   1.334  13.795  0.2558  0.6045 -0.9962
  926MPD2    C513604   2.936   1.269  13.910  0.2699  0.0279  0.4681
  926MPD2     H13605   2.844   1.639  13.854 -0.5956  0.0117  0.2829
  926MPD2    H113606   3.044   1.287  13.719 -0.3675  1.4904 -2.0525
  926MPD2    H213607   2.844   1.272  14.097  2.0781  2.7261  1.5877
  926MPD2    H313608   2.962   1.164  13.916  2.6502  0.7686  2.8447
  926MPD2     N13609   3.020   1.537  13.665 -0.1944  0.1063 -0.5266
  926MPD2    H513610   3.106   1.500  13.627  0.7286  2.6579 -0.9772
  926MPD2    N113611   2.764   1.537  14.081 -0.1549  0.9039 -0.2572
  926MPD2    H713612   2.740   1.634  14.065 -0.4376  1.0206  0.9034
  927MPD2     C13613   2.361   4.220  17.712 -0.3992  0.4270  0.1084
  927MPD2    C113614   2.429   4.097  17.720 -0.7185 -0.1973  1.2970
  927MPD2    C213615   2.539   4.074  17.640  0.3426 -0.2430 -0.7878
  927MPD2    C313616   2.572   4.160  17.535 -0.1265 -0.7345  0.7329
  927MPD2    C413617   2.513   4.284  17.539 -0.3697  0.1240 -0.5125
  927MPD2    C513618   2.399   4.312  17.619 -0.5433  0.7678  0.5881
  927MPD2     H13619   2.596   3.982  17.634 -2.2394 -1.8736 -0.2680
  927MPD2    H113620   2.542   4.369  17.477 -2.0300 -1.0387 -2.8796
  927MPD2    H213621   2.271   4.235   0.024 -3.8793 -2.6499 -4.3272
  927MPD2    H313622   2.351   4.409  17.629 -0.8389  0.7749 -0.9131
  927MPD2     N13623   2.689   4.128  17.460 -0.5536 -0.5947  0.8592
  927MPD2    H513624   2.727   4.035  17.472 -0.3160 -0.5736  0.2429
  927MPD2    N113625   2.372   4.000   0.065 -0.3515 -0.1333  0.3354
  927MPD2    H713626   2.321   4.043   0.141 -1.4016  1.0984 -1.0386
  928MPD2     C13627   0.642   2.679   1.253  0.5286 -0.3155  0.3933
  928MPD2    C113628   0.757   2.663   1.327  0.1331  0.6179  0.1755
  928MPD2    C213629   0.875   2.635   1.267  0.1660  0.0177 -0.0758
  928MPD2    C313630   0.883   2.631   1.129 -0.1647 -0.1273  0.4304
  928MPD2    C413631   0.761   2.631   1.053  0.7828  0.2011 -0.8731
  928MPD2    C513632   0.644   2.645   1.117  0.1047 -0.1610 -0.1181
  928MPD2     H13633   0.961   2.630   1.333 -1.9232 -1.1878  2.5769
  928MPD2    H113634   0.764   2.627   0.945 -0.8364 -0.2032 -0.8908
  928MPD2    H213635   0.555   2.697   1.315 -0.1381 -0.1388 -0.5941
  928MPD2    H313636   0.551   2.649   1.060 -0.4044  1.4941  0.8369
  928MPD2     N13637   0.998   2.603   1.052  0.5541 -0.6295  0.3252
  928MPD2    H513638   0.994   2.626   0.954 -1.0639  0.1989  0.5931
  928MPD2    N113639   0.742   2.668   1.469  0.3244  0.2459  0.6206
  928MPD2    H713640   0.650   2.687   1.507  0.1377 -4.0281  2.2239
  929MPD2     C13641   0.162   2.361   9.691  0.2779 -0.2797  0.0575
  929MPD2    C113642   0.096   2.269   9.773  0.5390 -0.4838 -0.6021
  929MPD2    C213643   0.024   2.163   9.718  0.2046  0.2629  0.0916
  929MPD2    C313644   0.000   2.166   9.582  0.0247 -0.4821  0.1135
  929MPD2    C413645   0.080   2.250   9.499 -0.3390 -0.2655 -0.2193
  929MPD2    C513646   0.155   2.349   9.556 -0.3143  0.5634  0.5348
  929MPD2     H13647   4.696   2.099   9.777  0.6309 -0.3889 -0.1373
  929MPD2    H113648   0.069   2.256   9.391  1.6938  0.7451 -0.3644
  929MPD2    H213649   0.203   2.447   9.741  2.9282 -0.2115 -2.2750
  929MPD2    H313650   0.213   2.414   9.490  0.7067 -0.6018  0.2860
  929MPD2     N13651   4.642   2.086   9.508  0.1430  0.0292  0.3127
  929MPD2    H513652   4.660   2.097   9.409  1.0113  0.7427  0.5565
  929MPD2    N113653   0.093   2.297   9.914  0.3704  0.0605  0.4889
  929MPD2    H713654   0.129   2.390   9.934 -0.3752  0.6814 -1.0251
  930MPD2     C13655   2.881   4.515  14.487 -0.1436  0.2805  0.5764
  930MPD2    C113656   2.924   4.545  14.360  0.0893 -0.5436  1.0661
  930MPD2    C213657   2.871   4.489  14.254 -0.1597  0.5997  0.4634
  930MPD2    C313658   2.769   4.397  14.266  0.4555  1.0717 -0.3388
  930MPD2    C413659   2.732   4.349  14.389 -0.5501 -0.3061 -0.2064
  930MPD2    C513660   2.782   4.415  14.494  0.8012  0.4065 -0.4181
  930MPD2     H13661   2.916   4.509  14.157  0.3891 -1.9098  0.1926
  930MPD2    H113662   2.652   4.279  14.408 -0.1226 -0.3751  1.3778
  930MPD2    H213663   2.890   4.582  14.572 -4.6064 -2.4941  3.2157
  930MPD2    H313664   2.734   4.396  14.589  0.7034  0.7094 -0.4074
  930MPD2     N13665   2.702   4.344  14.152  0.6282  0.9278 -0.1810
  930MPD2    H513666   2.646   4.265  14.180  1.9980  0.6421  1.7518
  930MPD2    N113667   3.024   4.648  14.354  0.1700  0.1236 -0.1094
  930MPD2    H713668   3.033   4.708  14.436  0.6472  0.9236 -0.7451
  931MPD2     C13669   2.702   3.262   0.279  0.4400 -0.1206  0.3180
  931MPD2    C113670   2.684   3.368   0.359 -0.0478  0.1437  0.6407
  931MPD2    C213671   2.758   3.371   0.480  0.1506  0.9165 -0.4252
  931MPD2    C313672   2.844   3.263   0.512 -0.1854 -0.6189  0.1410
  931MPD2    C413673   2.856   3.154   0.426  0.1665  0.4170  0.0131
  931MPD2    C513674   2.786   3.158   0.312 -0.0110  0.4703  0.1617
  931MPD2     H13675   2.778   3.460   0.538 -4.3547  3.2247 -2.4395
  931MPD2    H113676   2.923   3.072   0.451  0.6103  1.2616  1.5963
  931MPD2    H213677   2.650   3.252   0.185 -1.3039  2.5171  1.0029
  931MPD2    H313678   2.780   3.071   0.248  0.9986  0.2408  0.3843
  931MPD2     N13679   2.925   3.253   0.625  0.7129  0.4537 -0.0994
  931MPD2    H513680   2.974   3.165   0.634  0.9329  0.5750 -0.1109
  931MPD2    N113681   2.598   3.480   0.317 -0.0725 -0.6043  0.2238
  931MPD2    H713682   2.549   3.470   0.228 -0.3945  0.0946  0.3221
  932MPD2     C13683   4.181   3.126  11.146 -0.1330 -0.6602 -1.1929
  932MPD2    C113684   4.255   3.186  11.244 -0.6609  0.4366 -0.0423
  932MPD2    C213685   4.294   3.116  11.361 -0.3846  0.9413  0.3634
  932MPD2    C313686   4.261   2.978  11.367  0.0584  1.1543 -1.1202
  932MPD2    C413687   4.205   2.919  11.257 -0.2250 -0.4295 -0.4566
  932MPD2    C513688   4.172   2.994  11.148 -0.5792  0.2758 -0.2672
  932MPD2     H13689   4.354   3.159  11.440 -2.0954  0.0525  2.1541
  932MPD2    H113690   4.193   2.811  11.252 -1.4565 -0.3503  0.6489
  932MPD2    H213691   4.140   3.186  11.066 -0.0867  2.1062  0.8197
  932MPD2    H313692   4.116   2.936  11.076  0.8302 -0.0906 -1.0792
  932MPD2     N13693   4.301   2.892  11.471  0.0433 -0.0194 -0.0085
  932MPD2    H513694   4.287   2.792  11.470  0.3947 -0.0684 -0.2759
  932MPD2    N113695   4.299   3.318  11.228 -0.7638 -0.1471  0.5166
  932MPD2    H713696   4.338   3.368  11.307 -0.5778 -0.3450  0.5487
  933MPD2     C13697   0.381   3.130   1.680  0.3325 -0.1083 -0.2475
  933MPD2    C113698   0.465   3.103   1.778 -0.4777 -0.3755 -0.2907
  933MPD2    C213699   0.495   3.195   1.877 -0.2398  0.0601 -0.4109
  933MPD2    C313700   0.438   3.320   1.874 -0.4046  0.1231 -0.0326
  933MPD2    C413701   0.349   3.345   1.772  0.0246  0.6487 -0.5076
  933MPD2    C513702   0.319   3.250   1.676  0.4380 -0.6043  0.2980
  933MPD2     H13703   0.564   3.176   1.958 -0.0814  0.6245 -0.4132
  933MPD2    H113704   0.294   3.438   1.768  1.2864  1.2055 -5.1636
  933MPD2    H213705   0.354   3.057   1.604  1.0892  1.6189 -2.1661
  933MPD2    H313706   0.253   3.278   1.595  2.4441 -0.3299 -1.2643
  933MPD2     N13707   0.475   3.416   1.969  0.0754 -0.2472  0.3368
  933MPD2    H513708   0.556   3.392   2.026  1.3737  1.9901 -0.5599
  933MPD2    N113709   0.527   2.982   1.778  0.1631 -0.7100  0.7969
  933MPD2    H713710   0.517   2.920   1.699 -1.0128  0.8693 -0.2727
  934MPD2     C13711   1.714   0.622   1.651 -0.4059 -0.2138  0.3201
  934MPD2    C113712   1.783   0.502   1.639  0.9629  0.2848 -0.7311
  934MPD2    C213713   1.726   0.388   1.594 -0.2058  1.0697 -0.1704
  934MPD2    C313714   1.591   0.376   1.558  0.1484  0.5937 -1.0188
  934MPD2    C413715   1.523   0.495   1.559 -0.0693  0.8858 -0.1889
  934MPD2    C513716   1.578   0.612   1.609  0.2514  0.0453 -0.1100
  934MPD2     H13717   1.791   0.302   1.588 -1.4681  0.1468 -0.8365
  934MPD2    H113718   1.416   0.495   1.541  0.0985 -0.3508 -1.2285
  934MPD2    H213719   1.759   0.716   1.681  1.0879 -1.3918  1.7536
  934MPD2    H313720   1.507   0.690   1.633 -0.2852 -1.1838  2.3327
  934MPD2     N13721   1.524   0.257   1.526  0.0992  0.0554 -0.2326
  934MPD2    H513722   1.425   0.269   1.507 -0.2456  1.9883  2.8944
  934MPD2    N113723   1.911   0.492   1.692  0.0483 -0.3222  0.3728
  934MPD2    H713724   1.959   0.402   1.688  1.7113  0.5616  0.1838
  935MPD2     C13725   1.846   4.047   1.307  0.1187  0.3391 -0.3082
  935MPD2    C113726   1.709   4.048   1.297 -0.3097 -0.5324  0.5431
  935MPD2    C213727   1.639   4.162   1.324  0.6499 -0.2805  0.4565
  935MPD2    C313728   1.698   4.272   1.362 -0.2981  0.4585  0.5731
  935MPD2    C413729   1.836   4.277   1.360  1.0824 -0.3454 -0.1041
  935MPD2    C513730   1.907   4.164   1.341  0.0891 -0.4613 -0.5195
  935MPD2     H13731   1.532   4.172   1.325  0.8417  1.5318  2.7558
  935MPD2    H113732   1.899   4.357   1.397 -2.5627  2.8887 -0.9225
  935MPD2    H213733   1.901   3.953   1.307  1.8749  1.3663  0.3114
  935MPD2    H313734   2.013   4.155   1.359  0.0810  0.2347 -0.1614
  935MPD2     N13735   1.627   4.383   1.405  1.0945 -0.5825  0.3979
  935MPD2    H513736   1.685   4.467   1.412 -0.0346  0.2243  0.1167
  935MPD2    N113737   1.633   3.930   1.260  0.2198  0.2618  0.2666
  935MPD2    H713738   1.534   3.949   1.245  0.2262 -0.8253 -1.1213
  936MPD2     C13739   4.556   1.494  12.572  0.7229  0.2366 -0.3176
  936MPD2    C113740   4.669   1.454  12.643 -0.2432  0.0016  0.0742
  936MPD2    C213741   0.052   1.497  12.597  0.0755 -0.4973 -0.0624
  936MPD2    C313742   0.066   1.573  12.476 -0.2696 -0.8861  0.1334
  936MPD2    C413743   4.692   1.611  12.412  0.9892  0.1809 -0.0541
  936MPD2    C513744   4.568   1.576  12.456  0.0490  0.0080  0.3938
  936MPD2     H13745   0.144   1.474  12.650 -0.2808  1.7041  1.5394
  936MPD2    H113746   4.698   1.675  12.325 -0.7031 -0.3668 -0.5609
  936MPD2    H213747   4.456   1.471  12.607  0.6956  2.7151  1.2884
  936MPD2    H313748   4.479   1.606  12.403  0.7688 -0.0259 -0.8407
  936MPD2     N13749   0.199   1.595  12.426 -0.3507 -0.5522  0.3174
  936MPD2    H513750   0.275   1.553  12.478 -0.6128  0.6584  1.6895
  936MPD2    N113751   4.662   1.391  12.763 -0.4522  0.0350  0.8872
  936MPD2    H713752   0.010   1.397  12.817  0.9046 -2.5768 -0.9675
  937MPD2     C13753   2.854   2.988  12.124 -0.2540 -0.7083  0.6295
  937MPD2    C113754   2.937   3.099  12.136  0.5660  0.4337 -0.2867
  937MPD2    C213755   3.052   3.108  12.051  0.1298  0.6734  0.3842
  937MPD2    C313756   3.092   2.999  11.971 -0.5085 -1.1962  0.4807
  937MPD2    C413757   3.014   2.890  11.972  0.3258  0.2075  0.2831
  937MPD2    C513758   2.897   2.885  12.044 -0.0607 -0.3299  0.6831
  937MPD2     H13759   3.113   3.196  12.040  0.9659 -0.1606 -1.6162
  937MPD2    H113760   3.023   2.796  11.919  1.5985 -1.2725  3.1070
  937MPD2    H213761   2.756   2.973  12.170 -1.2648  1.7880 -0.6761
  937MPD2    H313762   2.838   2.796  12.024 -1.0265  0.6474 -0.8433
  937MPD2     N13763   3.215   3.010  11.902  0.3483  0.4517  0.0615
  937MPD2    H513764   3.272   3.087  11.935  0.2235  1.0163 -1.0388
  937MPD2    N113765   2.879   3.221  12.189  0.0143  0.1880  0.1569
  937MPD2    H713766   2.919   3.311  12.165 -1.9627  0.9428 -0.2830
  938MPD2     C13767   0.691   3.818   0.683 -0.4227 -0.3449  0.2954
  938MPD2    C113768   0.742   3.893   0.790 -0.2381  0.6440  0.1835
  938MPD2    C213769   0.750   3.838   0.919  0.9561 -0.3753 -0.3084
  938MPD2    C313770   0.730   3.706   0.946 -0.8278 -0.7204 -0.0025
  938MPD2    C413771   0.686   3.630   0.839  1.0379  0.1585 -0.8060
  938MPD2    C513772   0.677   3.685   0.717  0.1715 -0.4806 -0.3824
  938MPD2     H13773   0.779   3.914   0.991 -1.1925 -1.2761  1.5255
  938MPD2    H113774   0.648   3.529   0.850  0.5096  0.5026  0.5961
  938MPD2    H213775   0.667   3.863   0.588  1.1772 -0.4793 -0.1694
  938MPD2    H313776   0.635   3.635   0.630  1.4448 -0.2992 -1.0905
  938MPD2     N13777   0.729   3.649   1.075 -0.7338 -0.1177  0.2284
  938MPD2    H513778   0.703   3.550   1.080 -0.4476 -0.1808  0.4433
  938MPD2    N113779   0.768   4.027   0.767  0.8759 -0.2457  0.2300
  938MPD2    H713780   0.791   4.078   0.852 -0.3290  0.5626  0.0854
  939MPD2     C13781   1.458   0.247   1.165  0.9286  0.2403 -0.1611
  939MPD2    C113782   1.490   0.378   1.115 -0.4595  0.4147  0.2395
  939MPD2    C213783   1.623   0.396   1.081  0.0964  0.0515 -0.5243
  939MPD2    C313784   1.712   0.292   1.078 -0.2126  0.5771 -0.4323
  939MPD2    C413785   1.678   0.167   1.119  0.1720  0.3060 -0.2846
  939MPD2    C513786   1.552   0.142   1.162 -0.2558  0.4506 -0.4393
  939MPD2     H13787   1.654   0.495   1.049  2.6359 -0.4070  0.5583
  939MPD2    H113788   1.746   0.084   1.106 -1.0023 -0.8828  1.1808
  939MPD2    H213789   1.353   0.225   1.174  1.1651 -0.1444  1.7808
  939MPD2    H313790   1.525   0.040   1.186  0.2753  0.2494 -0.6900
  939MPD2     N13791   1.840   0.323   1.026 -0.1462 -0.7866 -0.5718
  939MPD2    H513792   1.846   0.418   0.990 -0.9313 -1.0586 -1.4021
  939MPD2    N113793   1.388   0.467   1.091  0.3000 -0.7087  0.1990
  939MPD2    H713794   1.293   0.435   1.106  0.5400 -0.9301  1.2514
  940MPD2     C13795   1.257   1.922  12.922 -0.8275 -0.6054  1.0956
  940MPD2    C113796   1.211   1.809  12.988  0.2711 -0.1493 -0.0774
  940MPD2    C213797   1.167   1.713  12.904 -0.1671  0.1297  0.1153
  940MPD2    C313798   1.170   1.721  12.764  0.4467 -0.2647  0.4835
  940MPD2    C413799   1.241   1.827  12.706  0.8957 -0.0997 -0.1117
  940MPD2    C513800   1.275   1.925  12.786  0.0022  0.0213 -0.7558
  940MPD2     H13801   1.104   1.634  12.943 -1.3990  0.1301 -1.8465
  940MPD2    H113802   1.259   1.840  12.599  0.5105  0.5283 -0.1063
  940MPD2    H213803   1.296   2.012  12.967  0.5589 -0.0029 -1.3207
  940MPD2    H313804   1.318   2.014  12.743 -1.6025  0.6816 -1.0103
  940MPD2     N13805   1.121   1.624  12.670 -0.2764  0.2815  0.3444
  940MPD2    H513806   1.139   1.632  12.571 -2.2884 -0.0731 -0.0581
  940MPD2    N113807   1.206   1.796  13.128  0.3948  0.3577  0.3224
  940MPD2    H713808   1.148   1.724  13.169 -1.2440  1.7196  0.3943
  941MPD2     C13809   4.498   0.720   9.828  0.1671  0.1043  0.3239
  941MPD2    C113810   4.523   0.653   9.949 -0.5100  0.4124  0.2273
  941MPD2    C213811   4.438   0.561  10.002 -0.4954 -0.0047  0.6099
  941MPD2    C313812   4.328   0.521   9.926  0.2264  0.1159  0.5116
  941MPD2    C413813   4.303   0.580   9.806 -0.2574  0.4619 -0.4098
  941MPD2    C513814   4.391   0.678   9.752 -0.1611  0.4569  0.2106
  941MPD2     H13815   4.461   0.511  10.096 -0.3480  1.0345  1.1212
  941MPD2    H113816   4.212   0.559   9.751 -1.0390  0.7250  0.7788
  941MPD2    H213817   4.549   0.809   9.791  0.4675 -0.8623 -1.6056
  941MPD2    H313818   4.366   0.721   9.656 -2.6674 -0.7970  0.2882
  941MPD2     N13819   4.231   0.431   9.966 -0.5738 -0.2208 -0.8102
  941MPD2    H513820   4.160   0.410   9.897 -1.4059 -1.2561  0.3508
  941MPD2    N113821   4.629   0.685  10.034  0.1074  0.1763 -0.9584
  941MPD2    H713822   4.624   0.653  10.130  2.0173  2.2361 -0.1718
  942MPD2     C13823   4.507   0.433   9.542 -0.0322  0.6408 -0.2428
  942MPD2    C113824   4.631   0.472   9.581  0.1993 -0.2403  0.1079
  942MPD2    C213825   4.687   0.575   9.512  0.2015  0.3689 -0.2008
  942MPD2    C313826   4.624   0.633   9.401  0.4425 -0.1138  0.4862
  942MPD2    C413827   4.498   0.594   9.365 -0.1037 -0.2950 -0.1483
  942MPD2    C513828   4.444   0.491   9.435 -0.7010 -0.3999  1.3435
  942MPD2     H13829   0.046   0.613   9.542  0.2689  1.1648 -1.3990
  942MPD2    H113830   4.445   0.640   9.283  0.6146 -0.2449 -0.5906
  942MPD2    H213831   4.449   0.358   9.596  0.8467 -0.1876 -0.4383
  942MPD2    H313832   4.343   0.457   9.412  0.1392 -1.1986 -1.2402
  942MPD2     N13833   4.674   0.733   9.319  0.0971 -0.1827  0.2756
  942MPD2    H513834   4.614   0.764   9.244 -0.0443 -1.6129 -0.2028
  942MPD2    N113835   4.692   0.422   9.705 -0.0570  0.0362  0.5904
  942MPD2    H713836   0.037   0.475   9.734  1.8875 -2.1064 -0.9765
  943MPD2     C13837   3.185   3.694   9.671  0.4352  0.7317  0.7415
  943MPD2    C113838   3.205   3.728   9.801  0.0401 -0.5193  0.5279
  943MPD2    C213839   3.262   3.854   9.831 -0.9053 -0.2156  0.0621
  943MPD2    C313840   3.288   3.949   9.732  0.3466  0.0709  0.0048
  943MPD2    C413841   3.268   3.916   9.597  0.0128  0.6170 -1.1022
  943MPD2    C513842   3.214   3.787   9.573 -0.1806  0.6416 -0.0009
  943MPD2     H13843   3.258   3.887   9.935 -2.0855 -2.2587  0.6515
  943MPD2    H113844   3.287   3.986   9.517  1.1196 -0.2887 -1.6185
  943MPD2    H213845   3.156   3.599   9.627 -0.8566  1.2512  0.4898
  943MPD2    H313846   3.210   3.744   9.474  1.0398 -1.3284  0.8239
  943MPD2     N13847   3.345   4.082   9.765 -0.6366 -0.2434 -0.0198
  943MPD2    H513848   3.364   4.145   9.688 -1.3530 -1.4769 -1.1916
  943MPD2    N113849   3.166   3.627   9.898  0.0976 -0.4298 -0.0767
  943MPD2    H713850   3.126   3.542   9.859  1.2875 -3.1599  4.6551
  944MPD2     C13851   3.058   4.428  10.867  0.9796  0.5556  0.5212
  944MPD2    C113852   3.041   4.380  10.994 -0.5037  0.0594  1.4866
  944MPD2    C213853   3.018   4.478  11.098  0.2536  0.8913  0.4248
  944MPD2    C313854   3.037   4.612  11.069 -1.0833 -0.0675 -0.3220
  944MPD2    C413855   3.069   4.648  10.937 -0.0770  0.3032 -0.5166
  944MPD2    C513856   3.073   4.558  10.840 -0.0968 -0.3108  0.5511
  944MPD2     H13857   2.994   4.456  11.202 -0.1817 -3.0576 -0.5141
  944MPD2    H113858   3.077   0.015  10.909  1.4854  0.9609  2.3982
  944MPD2    H213859   3.069   4.353  10.789 -2.6770  1.1767 -0.6024
  944MPD2    H313860   3.087   4.598  10.740 -1.2736  0.4551  0.6937
  944MPD2     N13861   3.021   4.704  11.176 -0.4501  0.0516 -0.1813
  944MPD2    H513862   2.999   4.665  11.267  0.6382 -0.5425 -0.1624
  944MPD2    N113863   3.046   4.246  11.012 -0.3309  0.2033 -0.0276
  944MPD2    H713864   3.076   4.196  10.929  1.2656 -1.8316  1.7830
    1TMC1    C113865   1.261   0.543  14.365 -1.0790  0.3409  0.1947
    1TMC1    C213866   1.292   0.411  14.374  0.4751 -0.2933 -0.2796
    1TMC1    C313867   1.199   0.323  14.355  0.0799 -0.2712 -0.2223
    1TMC1    C413868   1.135   0.586  14.345 -0.1737 -0.2823 -0.0269
    1TMC1    C513869   1.042   0.490  14.345  0.2801 -0.5096 -0.0940
    1TMC1    C613870   1.069   0.355  14.349 -0.7281 -0.1022 -0.3797
    1TMC1     C13871   1.365   0.631  14.414 -0.0006  0.0154  0.0500
    1TMC1     O13872   1.458   0.581  14.472  0.1462 -0.0711  0.7381
    1TMC1     H13873   1.394   0.385  14.402  0.6875  1.8725  0.9125
    1TMC1    H113874   1.103   0.688  14.362  0.7653  0.2660 -1.5447
    1TMC1    H213875   0.993   0.278  14.340 -1.5843  0.6822  0.1064
    1TMC1    C713876   0.913   0.514  14.284  0.0808  0.7477 -0.2041
    1TMC1    C813877   1.229   0.184  14.338 -0.8435 -0.0419  0.1802
    1TMC1    O113878   0.815   0.443  14.265  0.0063  0.2477 -1.0343
    1TMC1    O213879   1.139   0.103  14.361 -0.4395 -0.6544  0.1556
    1TMC1    O313880   0.945   0.609  14.192  0.1328  0.1156  0.1814
    1TMC1    H313881   1.035   0.646  14.192  0.3985 -0.5320  2.0826
    1TMC1    O513882   1.304   0.191  14.222 -0.5305  0.7152 -0.3532
    1TMC1    H513883   1.341   0.279  14.201  2.1704 -0.4224 -0.3860
    2MPD2     C13884   1.591   1.088  14.439 -0.1366  0.2794 -0.4898
    2MPD2    C113885   1.510   1.081  14.323  0.2806 -0.7785 -0.2733
    2MPD2    C213886   1.435   0.964  14.309 -0.6414 -0.2737  0.2805
    2MPD2    C313887   1.440   0.857  14.401 -0.0743  0.3365 -0.3333
    2MPD2    C413888   1.521   0.861  14.505  0.2494 -0.4627  0.3175
    2MPD2    C513889   1.588   0.979  14.522  0.0153 -0.6196  0.2140
    2MPD2     H13890   1.369   0.947  14.224  0.2602 -1.9795 -0.0874
    2MPD2    H113891   1.525   0.789  14.586 -1.2881  0.6315  1.3677
    2MPD2    H213892   1.650   1.175  14.463 -1.0619  0.4933  1.0265
    2MPD2    H313893   1.641   0.993  14.616  0.0221 -2.5268  0.4958
    2MPD2     N13894   1.356   0.749  14.361 -0.6792  1.0443  0.0869
    2MPD2    H513895   1.287   0.772  14.290 -0.6784  0.9967  0.0708
    2MPD2    N113896   1.518   1.180  14.229 -0.1591 -0.5102 -0.3440
    2MPD2    H713897   1.594   1.247  14.230 -2.9261  2.6037  0.1639
    3TMC2    C113898   1.468   1.300  14.033  0.5651 -0.2057  0.2228
    3TMC2    C213899   1.515   1.415  14.082  0.1070 -0.2222  0.2736
    3TMC2    C313900   1.537   1.515  13.997 -0.5015  0.2987 -0.2577
    3TMC2    C413901   1.433   1.297  13.907 -0.5026 -0.5751  0.0011
    3TMC2    C513902   1.451   1.398  13.818 -0.1614 -0.0787  0.8732
    3TMC2    C613903   1.505   1.516  13.867 -0.5579 -0.3002 -0.1135
    3TMC2     C13904   1.445   1.179  14.118  0.3443  0.1284  0.9071
    3TMC2     O13905   1.358   1.101  14.084 -0.1578  0.1165  0.1804
    3TMC2     H13906   1.538   1.434  14.186  2.1238  0.1906 -0.2598
    3TMC2    H113907   1.402   1.199  13.871  2.6778 -1.6100  0.0984
    3TMC2    H213908   1.519   1.606  13.808 -0.1844 -0.1036  0.2800
    3TMC2    C713909   1.436   1.368  13.677 -0.5758  0.0476 -1.0672
    3TMC2    C813910   1.593   1.640  14.048  0.9479 -0.1557  0.0942
    3TMC2    O113911   1.373   1.269  13.643 -0.9172  0.3788  0.2206
    3TMC2    O213912   1.612   1.648  14.169  0.1974  0.2199 -0.4545
    3TMC2    O513913   1.686   1.671  13.958  0.1270  0.1483 -0.1919
    3TMC2    H513914   1.680   1.629  13.869 -1.5940 -0.5885  0.2804
    4TMC2    C113915   1.719   2.075  13.038  0.5666 -0.5407 -0.1375
    4TMC2    C213916   1.840   2.114  13.070  0.1404 -0.6899  0.1612
    4TMC2    C313917   1.918   2.029  13.147 -0.1873 -0.8895  0.3387
    4TMC2    C413918   1.664   1.965  13.091  0.1164  0.6798 -0.0192
    4TMC2    C513919   1.741   1.890  13.183 -0.5639  0.2742 -0.2988
    4TMC2    C613920   1.872   1.925  13.212 -0.1501  0.2125  0.5899
    4TMC2     C13921   1.639   2.186  12.977  0.7098 -0.3745 -0.0448
    4TMC2     O13922   1.703   2.270  12.908 -0.2490 -0.4687  0.4275
    4TMC2     H13923   1.871   2.211  13.031 -0.2887 -1.2413 -1.5112
    4TMC2    H113924   1.558   1.946  13.079 -0.0650  1.2409  0.6674
    4TMC2    H213925   1.934   1.875  13.287 -1.3399  0.3636  1.6744
    4TMC2    C713926   1.677   1.800  13.269 -0.9427 -0.3521  0.2263
    4TMC2    C813927   2.044   2.067  13.198  0.2496  0.1762 -0.1512
    4TMC2    O113928   1.729   1.780  13.380  0.2022  0.3402  0.1490
    4TMC2    O213929   2.081   2.046  13.312 -0.1456  0.1982  0.0006
    4TMC2    O513930   2.112   2.134  13.105 -0.1443 -0.1207  0.4591
    4TMC2    H513931   2.059   2.154  13.025  1.2602  0.8474 -0.2416
    5MPD2     C13932   1.186   2.419  12.861 -0.7839 -0.3297 -0.6849
    5MPD2    C113933   1.159   2.342  12.970  0.3133  0.5247 -1.1669
    5MPD2    C213934   1.271   2.270  13.021  1.2080 -0.5502 -0.8411
    5MPD2    C313935   1.397   2.269  12.964 -0.4141 -0.0685 -0.1514
    5MPD2    C413936   1.415   2.350  12.854  0.6930 -0.6595  0.6004
    5MPD2    C513937   1.316   2.432  12.809  0.1847 -0.2090 -0.1225
    5MPD2     H13938   1.264   2.194  13.097  1.1730  0.6170  0.3272
    5MPD2    H113939   1.511   2.351  12.802 -0.7524 -0.2589 -2.0909
    5MPD2    H213940   1.114   2.476  12.804  1.0585  0.3558 -2.3423
    5MPD2    H313941   1.340   2.497  12.726 -0.8089 -0.1451 -0.3521
    5MPD2     N13942   1.503   2.184  13.015 -0.3720 -0.1218  0.0461
    5MPD2    H513943   1.477   2.113  13.084 -1.1879 -1.2958 -1.4802
    5MPD2    N113944   1.024   2.345  13.023 -0.5433  0.3081  0.3344
    5MPD2    H713945   0.963   2.416  12.984 -0.2768  1.1627  1.4790
    6MPD1     C13946   4.526   3.530  13.870 -0.0765  0.2190 -0.2871
    6MPD1    C113947   4.624   3.569  13.781 -0.0431 -0.0791 -0.6263
    6MPD1    C213948   4.700   3.471  13.721 -0.3022  0.1431  0.1450
    6MPD1    C313949   4.688   3.334  13.751 -0.1680  0.3424  0.3957
    6MPD1    C413950   4.589   3.298  13.841  0.5666  0.2991  0.3911
    6MPD1    C513951   4.500   3.393  13.893 -0.8834  0.0656  0.8811
    6MPD1     H13952   0.047   3.504  13.660  0.6011 -0.1821  1.2153
    6MPD1    H113953   4.572   3.195  13.871 -0.4148  0.7075  1.2306
    6MPD1    H213954   4.455   3.604  13.906 -0.2625 -0.3965  0.6335
    6MPD1    H313955   4.422   3.367  13.963 -1.5779 -3.3216 -1.1658
    6MPD1     N13956   0.038   3.236  13.693  0.3826  0.7319 -0.6325
    6MPD1    H513957   0.027   3.146  13.739 -0.2069  0.7222 -0.7922
    6MPD1    N113958   4.627   3.704  13.746  0.0834  0.3168 -0.0163
    6MPD1    H613959   4.600   3.751  13.832  0.7737 -2.2648  1.6481
    6MPD1    H713960   4.715   3.743  13.713 -0.0507  1.7577  1.3362
    7MPD2     C13961   0.489   2.619  13.783 -0.1379  0.0140  1.0268
    7MPD2    C113962   0.445   2.644  13.659  0.2808  0.1205  0.0726
    7MPD2    C213963   0.484   2.556  13.565  0.1241 -0.8460 -0.3068
    7MPD2    C313964   0.561   2.438  13.590 -0.4590 -0.4725  0.2407
    7MPD2    C413965   0.601   2.413  13.722  0.1660 -0.1143  0.3565
    7MPD2    C513966   0.570   2.509  13.820  0.2528  0.9161  0.2821
    7MPD2     H13967   0.443   2.562  13.464 -2.1466  1.1489  0.7467
    7MPD2    H113968   0.669   2.335  13.753 -1.6927 -1.6312  0.5868
    7MPD2    H213969   0.463   2.688  13.862 -1.5215  0.1083  0.4964
    7MPD2    H313970   0.587   2.492  13.925  0.2208 -1.6413 -0.1298
    7MPD2     N13971   0.601   2.352  13.486  0.1913 -0.5545 -0.5685
    7MPD2    H513972   0.545   2.367  13.402  0.1874  0.5405 -0.3790
    7MPD2    N113973   0.382   2.759  13.610  0.4027 -0.3353 -0.4203
    7MPD2    H713974   0.359   2.750  13.511  0.2964 -0.8412 -0.3522
    8TMC3    C113975   0.703   2.204  13.349  0.0353 -0.1703  0.0965
    8TMC3    C213976   0.838   2.211  13.305  0.4644  0.0697  0.3318
    8TMC3    C313977   0.851   2.273  13.180 -0.1603 -0.3063 -0.1703
    8TMC3    C413978   0.602   2.243  13.265  0.4222 -0.1601  0.6490
    8TMC3    C513979   0.612   2.305  13.148  0.3513  0.0758  0.3355
    8TMC3    C613980   0.740   2.327  13.110 -0.0801  0.3263 -0.5161
    8TMC3     C13981   0.678   2.244  13.486 -0.2979 -0.0804  0.5221
    8TMC3     O13982   0.764   2.211  13.567  0.8090 -0.5598  0.4595
    8TMC3     H13983   0.920   2.174  13.366  1.9751 -0.2521 -1.9032
    8TMC3    H113984   0.501   2.226  13.302  0.4677 -0.9458  0.4152
    8TMC3    H213985   0.759   2.398  13.030  0.0979 -0.5244 -1.2350
    8TMC3    C713986   0.531   2.428  13.145  0.2178  0.2553  0.5020
    8TMC3    C813987   0.983   2.255  13.123  0.2417  0.4463  0.0283
    8TMC3    O113988   0.483   2.462  13.253  0.0373 -0.9353 -0.6677
    8TMC3    O213989   1.052   2.165  13.168  0.3382 -0.0361  0.0935
    9TMC3    C113990   0.185   3.140  13.536  0.0911  0.3239  0.3575
    9TMC3    C213991   0.229   3.146  13.412  0.5160 -0.0633  0.6029
    9TMC3    C313992   0.332   3.058  13.377  0.2595  0.2750 -0.3143
    9TMC3    C413993   0.232   3.057  13.631 -0.1062 -0.8925 -0.2590
    9TMC3    C513994   0.331   2.974  13.590  0.2236  0.2287 -0.5712
    9TMC3    C613995   0.391   2.972  13.462  0.0813  0.1241 -1.0575
    9TMC3     C13996   0.122   3.260  13.586 -0.9759  0.3357  0.3252
    9TMC3     O13997   0.122   3.360  13.513 -0.4231  0.2112  0.1863
    9TMC3     H13998   0.202   3.218  13.336 -0.6285 -0.5958  0.5090
    9TMC3    H113999   0.205   3.065  13.735  0.9742 -0.6097 -0.0039
    9TMC3    H214000   0.481   2.916  13.438  0.6022 -0.0985  1.4737
    9TMC3    C714001   0.371   2.873  13.680  0.6397  1.1106  0.1366
    9TMC3    C814002   0.360   3.035  13.235 -0.1383  0.0916  0.4696
    9TMC3    O114003   0.402   2.900  13.796  0.0318  0.4637  0.2660
    9TMC3    O214004   0.317   3.108  13.147  0.3901 -0.4608  0.7348
   10MPD2     C14005   0.484   2.679  12.888  0.2534 -0.4280  0.4038
   10MPD2    C114006   0.494   2.632  13.012  0.0724  0.7355 -0.0012
   10MPD2    C214007   0.490   2.720  13.116  0.2102 -0.5879  0.1249
   10MPD2    C314008   0.442   2.849  13.105  0.0549 -0.8410  0.0450
   10MPD2    C414009   0.411   2.891  12.976 -0.2148 -0.0247  0.2171
   10MPD2    C514010   0.433   2.808  12.865 -0.0736 -0.0809  0.5451
   10MPD2     H14011   0.518   2.693  13.217 -0.5759 -0.9115  0.2537
   10MPD2    H114012   0.375   2.992  12.960 -0.0572  0.2996  1.9145
   10MPD2    H214013   0.505   2.627  12.796 -0.5484 -0.8954  0.4846
   10MPD2    H314014   0.425   2.848  12.765 -1.7545 -4.4462 -1.0424
   10MPD2     N14015   0.423   2.918  13.223 -0.2729 -0.3368 -0.3324
   10MPD2    H514016   0.470   2.878  13.303  1.1681 -0.8613 -1.4319
   10MPD2    N114017   0.537   2.494  13.027 -0.4622 -0.2169  0.3696
   10MPD2    H714018   0.560   2.442  12.944 -2.7138  0.2115 -0.5358
   11MPD2     C14019   1.367   1.425  13.393 -0.2228  0.0236  0.1520
   11MPD2    C114020   1.454   1.498  13.466 -0.3325  0.7010  0.2938
   11MPD2    C214021   1.516   1.607  13.407  0.0886  0.1929 -0.7016
   11MPD2    C314022   1.506   1.630  13.275  0.4445  0.2842 -0.6680
   11MPD2    C414023   1.407   1.568  13.199  0.0445 -0.3496  0.2814
   11MPD2    C514024   1.339   1.459  13.262 -0.1074 -0.0586 -0.6005
   11MPD2     H14025   1.579   1.659  13.478  1.3608 -2.6749  0.2525
   11MPD2    H114026   1.380   1.602  13.099 -0.6973  0.1143  0.6409
   11MPD2    H214027   1.313   1.340  13.433 -0.2261 -0.8507 -1.7421
   11MPD2    H314028   1.259   1.410  13.208 -0.4724  0.2311 -0.3232
   11MPD2     N14029   1.580   1.728  13.213  0.2381  0.0829 -0.0753
   11MPD2    H514030   1.564   1.753  13.116 -3.9703 -1.9395  0.0830
   11MPD2    N114031   1.487   1.467  13.601 -0.1174 -0.1653  0.3995
   11MPD2    H714032   1.554   1.531  13.642 -0.7107  0.5035  0.3199
    1MPD1     C14033   0.113   3.480  16.277 -0.4454 -0.1853  0.3512
    1MPD1    C114034   0.162   3.587  16.360 -0.0664  0.6615  0.0689
    1MPD1    C214035   0.300   3.583  16.379 -0.4831 -0.2943  0.0282
    1MPD1    C314036   0.382   3.474  16.336  0.2266 -0.6822 -0.3550
    1MPD1    C414037   0.329   3.374  16.255 -0.4663 -0.0430  0.7425
    1MPD1    C514038   0.192   3.386  16.226  1.0134 -0.7255 -0.1089
    1MPD1     H14039   0.359   3.665  16.418 -0.9050  0.4576 -0.9075
    1MPD1    H114040   0.389   3.294  16.213 -0.5451 -0.2336  0.9887
    1MPD1    H214041   0.005   3.468  16.274 -0.1683 -2.5416 -0.1282
    1MPD1    H314042   0.137   3.308  16.176 -0.1487 -0.0285  0.0653
    1MPD1     N14043   0.520   3.454  16.370  0.1960 -0.1825 -0.6222
    1MPD1    H514044   0.573   3.380  16.325  1.4047 -0.7595  1.7332
    1MPD1    N114045   0.083   3.702  16.394 -0.2169  0.3088  0.1078
    1MPD1    H614046   0.114   3.756  16.475 -0.3398 -0.4107  0.6444
    1MPD1    H714047   4.721   3.686  16.407 -0.6064  2.0251 -0.7580
    2MPD1     C14048   1.004   3.866  17.136 -0.1523  0.2667  0.7553
    2MPD1    C114049   0.873   3.845  17.104  0.1620  0.1891  0.4355
    2MPD1    C214050   0.843   3.786  16.978  0.7928 -0.4164 -0.6851
    2MPD1    C314051   0.941   3.755  16.886  1.1037 -0.2159 -0.6500
    2MPD1    C414052   1.069   3.800  16.917  0.1343 -0.5699 -0.1297
    2MPD1    C514053   1.094   3.855  17.033  0.2446 -0.0554 -0.6272
    2MPD1     H14054   0.745   3.745  16.956  0.3027  0.3772  0.0441
    2MPD1    H114055   1.156   3.785  16.854  0.6598 -0.6416  0.6106
    2MPD1    H214056   1.034   3.905  17.232  1.1925 -0.2634  0.5622
    2MPD1    H314057   1.199   3.868  17.053  0.0156  0.9379 -0.1048
    2MPD1     N14058   0.911   3.675  16.771 -0.3983 -0.1235 -0.0304
    2MPD1    H514059   0.818   3.636  16.776 -0.3969  0.0136  1.2039
    2MPD1    N114060   0.778   3.860  17.200 -0.2452  0.1587  0.3460
    2MPD1    H614061   0.682   3.870  17.165 -1.2096  0.5673  3.0969
    2MPD1    H714062   0.795   3.936  17.265  0.6268 -0.2803  0.6204
    3TMC3    C114063   0.934   3.566  16.568 -0.7977  0.3500 -0.0037
    3TMC3    C214064   1.000   3.492  16.473 -0.0625  0.7934 -0.3749
    3TMC3    C314065   0.934   3.438  16.367 -0.2608  0.6087  0.0810
    3TMC3    C414066   0.797   3.583  16.565  0.1102  0.2777 -0.3891
    3TMC3    C514067   0.729   3.513  16.467  0.2764  0.1168 -0.4657
    3TMC3    C614068   0.795   3.447  16.365  0.4474 -0.2562 -0.4935
    3TMC3     C14069   1.000   3.642  16.672 -0.3596 -0.1914 -0.1069
    3TMC3     O14070   1.122   3.674  16.652  0.2182  0.3362  0.6548
    3TMC3     H14071   1.108   3.480  16.479 -0.1493 -0.1502 -0.7511
    3TMC3    H114072   0.744   3.657  16.624 -0.8314 -0.1356 -0.7129
    3TMC3    H214073   0.741   3.397  16.285  1.4571  0.7259 -1.7915
    3TMC3    C714074   0.585   3.532  16.464 -0.4701  0.0071  0.4033
    3TMC3    C814075   1.010   3.347  16.283 -0.1368  0.6719 -0.1435
    3TMC3    O114076   0.545   3.600  16.554 -0.6964 -0.1485  0.3094
    3TMC3    O214077   1.131   3.362  16.284 -0.1686 -0.2967  0.3216
    4MPD1     C14078   1.095   2.969  15.936 -0.0114 -0.1547  0.1778
    4MPD1    C114079   0.960   2.969  15.963  0.1476 -0.6678  0.2305
    4MPD1    C214080   0.907   3.056  16.064 -0.0173 -1.0347 -0.5934
    4MPD1    C314081   0.994   3.159  16.120  0.3437 -0.2132  0.3400
    4MPD1    C414082   1.124   3.155  16.081 -0.0222  0.3529  0.5120
    4MPD1    C514083   1.172   3.067  15.988  0.6217 -0.1347  0.1349
    4MPD1     H14084   0.799   3.060  16.077 -0.2591 -0.8148 -2.6652
    4MPD1    H114085   1.197   3.224  16.122 -0.5696  0.5477  1.1475
    4MPD1    H214086   1.132   2.896  15.865  0.2484  0.8885 -0.7588
    4MPD1    H314087   1.277   3.068  15.961  0.6063  1.0769  0.1310
    4MPD1     N14088   0.938   3.261  16.209 -0.3221 -0.1025  0.0133
    4MPD1    H514089   0.837   3.255  16.211 -0.2629 -0.9312  0.5565
    4MPD1    N114090   0.882   2.871  15.907  0.0300  0.5388 -0.0203
    4MPD1    H614091   0.900   2.854  15.808  0.4624  0.2142  0.1188
    4MPD1    H714092   0.787   2.906  15.923 -0.0299  0.9967 -1.3675
    1TCq1    O114093   4.669   3.291  11.138 -0.4696  0.1743  0.0073
    1TCq1    C114094   4.649   3.296  11.001  0.3824 -0.0115 -0.3618
    1TCq1    O214095   4.623   3.396  10.937  0.6352 -0.2815 -0.0233
    1TCq1    C214096   4.628   3.158  10.970 -0.6720 -0.6449  0.5487
    1TCq1    C314097   4.691   3.053  11.039 -0.6762 -0.1462 -0.0028
    1TCq1    C414098   4.670   2.925  11.002 -0.0630  0.4420  0.3024
    1TCq1    C514099   4.563   2.896  10.922 -0.5694 -0.1229  0.4283
    1TCq1    C614100   4.493   2.997  10.861 -0.4626  0.4471 -0.4079
    1TCq1    C714101   4.529   3.132  10.882  0.0423  0.3328 -0.1536
    1TCq1    C814102   4.413   2.978  10.743  0.8955 -0.3365  0.6422
    1TCq1    O414103   4.373   3.080  10.684  0.6005 -0.5141  0.1667
    1TCq1    C914104   4.730   2.814  11.074  0.0533 -0.2936 -0.5432
    1TCq1    O514105   0.088   2.835  11.150  0.3777  0.6150  0.6139
    1TCq1    O614106   4.646   2.723  11.106  0.2363  0.0477  0.8024
    1TCq1    H114107   4.662   3.206  11.187 -2.6648 -0.0770 -0.7635
    1TCq1    H214108   0.029   3.064  11.117 -0.3814  1.5318 -0.5091
    1TCq1    H314109   4.548   2.789  10.908 -1.5732 -0.0465  0.8971
    1TCq1    H414110   4.480   3.219  10.839 -2.8481 -0.7937  0.8300
    2MPD1     C14111   4.230   2.658  10.367 -0.0087 -0.3764  0.2593
    2MPD1    C114112   4.311   2.596  10.448  0.4119 -0.0105 -0.0140
    2MPD1    C214113   4.384   2.660  10.545  0.7173 -0.3714  0.1998
    2MPD1    C314114   4.364   2.793  10.580  0.5901  0.5413  0.1755
    2MPD1    C414115   4.285   2.868  10.490 -0.3732 -0.2363 -0.0808
    2MPD1    C514116   4.233   2.803  10.377  0.8454  0.1326 -0.2159
    2MPD1     H14117   4.455   2.605  10.604 -1.2941 -2.0623  1.0433
    2MPD1    H114118   4.281   2.976  10.488 -2.2355 -0.3305 -1.6109
    2MPD1    H214119   4.187   2.614  10.278  1.3326  2.7966 -1.9723
    2MPD1    H314120   4.173   2.856  10.303 -0.4970 -0.1983  0.6290
    2MPD1     N14121   4.420   2.847  10.700  0.4510 -0.0161 -0.2433
    2MPD1    H514122   4.475   2.782  10.755 -1.0847  0.4070  1.7933
    2MPD1    N114123   4.347   2.462  10.420 -0.0470 -0.4367 -0.2060
    2MPD1    H614124   4.400   2.414  10.493 -1.3335  0.4838  1.3303
    2MPD1    H714125   4.263   2.406  10.411  0.0067 -0.8090  1.5523
    1TMC1    C114126   2.823   3.932   0.214  0.6884  0.4601  0.2609
    1TMC1    C214127   2.785   3.885   0.087  0.5770  0.8686 -0.8213
    1TMC1    C314128   2.884   3.814   0.022 -0.0375  0.3568 -0.0475
    1TMC1    C414129   2.931   3.892   0.278  0.2162 -0.3489 -0.2610
    1TMC1    C514130   3.021   3.818   0.207 -0.2365 -0.5196 -0.4168
    1TMC1    C614131   3.008   3.787   0.073  0.4150 -0.7937 -0.5278
    1TMC1     C14132   2.711   3.996   0.289 -0.3260 -0.3161 -0.2623
    1TMC1     O14133   2.628   4.059   0.233 -0.3660 -0.0111 -0.2585
    1TMC1     H14134   2.694   3.911   0.033 -1.5012  0.2141  2.3168
    1TMC1    H114135   2.953   3.917   0.382  0.5883 -0.5328 -0.2940
    1TMC1    H214136   3.100   3.758   0.023  0.5086  0.5428 -1.1266
    1TMC1    C714137   3.148   3.792   0.273 -0.4320 -0.4453 -0.0582
    1TMC1    C814138   2.867   3.794  17.627  0.2369  0.2301  0.1302
    1TMC1    O114139   3.249   3.772   0.209  0.4715  0.2761  0.2047
    1TMC1    O214140   2.803   3.872  17.564 -0.5225  0.0946  0.8332
    1TMC1    O314141   3.126   3.734   0.398 -0.0820  0.6633 -0.4217
    1TMC1    H314142   3.036   3.749   0.432 -0.3217  1.4423 -1.4000
    1TMC1    O514143   2.956   3.699  17.583  0.1990 -0.7250 -0.2729
    1TMC1    H514144   2.979   3.637  17.655  1.9013  2.3085  1.7903
    2MPD1     C14145   2.449   4.041   0.733 -0.3351 -0.8335 -0.7454
    2MPD1    C114146   2.545   3.947   0.745 -0.6085 -0.3534  0.6990
    2MPD1    C214147   2.633   3.927   0.645 -0.1952 -0.1142  0.4301
    2MPD1    C314148   2.618   3.985   0.522  0.3034  0.2827  0.0563
    2MPD1    C414149   2.527   4.087   0.505  0.9879  0.0835  0.1487
    2MPD1    C514150   2.447   4.114   0.615 -0.7204  1.3067  0.5920
    2MPD1     H14151   2.718   3.861   0.657 -1.4483 -1.6493  0.9481
    2MPD1    H114152   2.511   4.152   0.419 -4.4556  3.1809  3.4865
    2MPD1    H214153   2.375   4.061   0.811 -0.7083 -0.2415 -1.2572
    2MPD1    H314154   2.368   4.186   0.600  0.4622  2.8773  1.8688
    2MPD1     N14155   2.715   3.952   0.420 -0.3590 -0.1801  0.2155
    2MPD1    H514156   2.780   3.878   0.444 -0.1608 -0.2630 -0.5672
    2MPD1    N114157   2.580   3.899   0.866  0.1952 -0.2295 -0.3141
    2MPD1    H614158   2.637   3.815   0.858  1.4218  0.6868 -1.1290
    2MPD1    H714159   2.502   3.873   0.926 -0.6733 -0.3151 -1.4678
    1MPD1     C14160   1.373   2.849  12.873  0.2263 -0.4715 -0.0875
    1MPD1    C114161   1.429   2.733  12.924  0.2518 -0.2062 -0.4732
    1MPD1    C214162   1.561   2.706  12.886 -0.1995 -0.0520 -0.3608
    1MPD1    C314163   1.629   2.780  12.789  0.0524  0.1632 -0.2450
    1MPD1    C414164   1.570   2.895  12.740 -0.1163  0.6393  0.6972
    1MPD1    C514165   1.446   2.930  12.784 -0.2742  0.5764  0.4814
    1MPD1     H14166   1.623   2.631  12.935 -0.9667  0.0341  0.7167
    1MPD1    H114167   1.614   2.962  12.667 -1.7364 -0.8307 -1.6310
    1MPD1    H214168   1.271   2.876  12.896  0.4704  2.3507 -2.2703
    1MPD1    H314169   1.390   3.015  12.746 -0.5071 -0.7299 -2.0919
    1MPD1     N14170   1.760   2.742  12.749  0.4590  0.3911 -0.5248
    1MPD1    H514171   1.793   2.650  12.775 -1.4187  0.2742  1.4582
    1MPD1    N114172   1.367   2.668  13.031 -0.0319 -0.8080 -0.4602
    1MPD1    H614173   1.267   2.691  13.031 -0.0167 -0.6847 -3.0518
    1MPD1    H714174   1.375   2.567  13.015  1.1453 -0.7732 -0.0890
    2MPD1     C14175   0.935   2.923  11.438 -0.1749 -0.4517  0.2703
    2MPD1    C114176   0.905   2.842  11.328 -0.3404  0.0290  0.0609
    2MPD1    C214177   1.015   2.801  11.246  0.1904 -0.2789 -0.2115
    2MPD1    C314178   1.140   2.813  11.297  0.4426 -0.6540 -0.6189
    2MPD1    C414179   1.169   2.873  11.419 -0.5735 -0.5204  0.1895
    2MPD1    C514180   1.064   2.931  11.481 -0.2032  0.4021 -0.8022
    2MPD1     H14181   1.000   2.768  11.144 -0.4729 -0.0528 -0.1864
    2MPD1    H114182   1.266   2.881  11.466 -0.2929 -0.3324 -0.4131
    2MPD1    H214183   0.853   2.973  11.489  0.2147  0.6836 -0.2224
    2MPD1    H314184   1.091   2.989  11.569 -0.8469 -1.1128  0.4079
    2MPD1     N14185   1.252   2.767  11.225 -0.4500 -0.6948  0.1470
    2MPD1    H514186   1.341   2.795  11.265 -0.8535  0.2549  0.3592
    2MPD1    N114187   0.774   2.834  11.275 -0.6290  0.4457  0.2682
    2MPD1    H614188   0.703   2.836  11.349 -0.4639  0.3597  0.4283
    2MPD1    H714189   0.752   2.741  11.240 -0.6592 -0.3398  2.3844
    3MPD1     C14190   1.151   2.266  10.505 -0.0504  0.8153  0.6927
    3MPD1    C114191   1.154   2.193  10.622 -0.2025 -0.3627  0.0651
    3MPD1    C214192   1.245   2.226  10.721 -0.0259 -0.2025 -0.2286
    3MPD1    C314193   1.349   2.323  10.696  0.4384  0.6944  0.5169
    3MPD1    C414194   1.357   2.370  10.560  0.2047 -0.1773  0.3253
    3MPD1    C514195   1.259   2.340  10.471  0.7016  0.2995 -0.2879
    3MPD1     H14196   1.233   2.182  10.819 -0.8910  0.2408 -0.1416
    3MPD1    H114197   1.429   2.442  10.522  1.9514 -0.8568  2.2939
    3MPD1    H214198   1.078   2.239  10.429  1.2713  1.2848 -0.7388
    3MPD1    H314199   1.256   2.398  10.380  0.9887  1.8209  0.6603
    3MPD1     N14200   1.424   2.368  10.803 -0.0960 -0.3649 -0.0133
    3MPD1    H514201   1.390   2.342  10.895 -0.4888  3.1701  0.8208
    3MPD1    N114202   1.045   2.101  10.654 -0.6357  0.1139  0.8112
    3MPD1    H614203   1.026   2.042  10.574  0.5920 -0.2411  0.7722
    3MPD1    H714204   1.082   2.041  10.728 -1.5875 -1.2855  0.1362
    4MPD2     C14205   2.437   2.943  12.258 -0.0707  0.0759 -0.3335
    4MPD2    C114206   2.379   2.816  12.263  1.0609  0.0176  0.1568
    4MPD2    C214207   2.380   2.733  12.152  0.0761  0.5230 -0.5776
    4MPD2    C314208   2.445   2.771  12.038 -0.1139 -0.1765 -0.6013
    4MPD2    C414209   2.508   2.898  12.032 -0.0331 -0.1879  0.5904
    4MPD2    C514210   2.495   2.977  12.144  0.5817 -0.2717  0.3367
    4MPD2     H14211   2.328   2.638  12.162 -0.1700  0.8053  0.9320
    4MPD2    H114212   2.553   2.939  11.942  0.5212 -0.7507  0.6172
    4MPD2    H214213   2.421   3.012  12.341 -0.5809 -0.7934  0.2869
    4MPD2    H314214   2.532   3.078  12.129  0.9557 -0.6843 -1.4923
    4MPD2     N14215   2.432   2.689  11.926  0.5589 -0.0051  0.0306
    4MPD2    H514216   2.395   2.596  11.942 -2.3526  0.8330 -1.7085
    4MPD2    N114217   2.301   2.778  12.377 -0.2037 -0.8133 -0.0973
    4MPD2    H714218   2.256   2.687  12.379  1.3333 -1.5564  0.5589
    5TMC3    C114219   2.198   2.753  12.579  0.4366  0.1101  1.0874
    5TMC3    C214220   2.090   2.823  12.622  0.6848 -0.6328  0.5871
    5TMC3    C314221   1.977   2.748  12.648  0.5364 -0.3123 -0.2047
    5TMC3    C414222   2.193   2.616  12.560  0.1804 -0.0148  0.5188
    5TMC3    C514223   2.073   2.551  12.560 -0.2318  0.3776 -0.2390
    5TMC3    C614224   1.960   2.622  12.598  1.2900 -0.1420  0.0331
    5TMC3     C14225   2.289   2.839  12.497 -0.1181 -0.5106 -0.4318
    5TMC3     O14226   2.326   2.948  12.533  0.0674 -0.5283 -0.0742
    5TMC3     H14227   2.097   2.928  12.650 -0.6194 -0.6824  1.0856
    5TMC3    H114228   2.284   2.571  12.523 -0.2060 -0.1899 -0.2216
    5TMC3    H214229   1.866   2.571  12.614  1.5351 -0.5721  0.1057
    5TMC3    C714230   2.065   2.513  12.416  0.0687 -0.0574  0.0112
    5TMC3    C814231   1.856   2.819  12.685  0.4561  0.3312 -0.1696
    5TMC3    O114232   2.172   2.527  12.355 -0.4160  0.1634  0.3692
    5TMC3    O214233   1.867   2.940  12.669 -0.2741  0.1490 -0.5752
    6TMC3    C114234   1.385   2.674  11.070  0.5165  0.1710  0.0942
    6TMC3    C214235   1.394   2.574  10.975 -0.0511  0.4388  0.7222
    6TMC3    C314236   1.513   2.556  10.912 -0.2341 -0.0186 -0.2575
    6TMC3    C414237   1.491   2.749  11.110  0.3764 -0.1946  0.7829
    6TMC3    C514238   1.611   2.724  11.044  0.6209  0.4405 -0.3008
    6TMC3    C614239   1.619   2.637  10.938  0.1878  0.2693  1.0241
    6TMC3     C14240   1.254   2.713  11.103  0.4976 -0.0199  0.5394
    6TMC3     O14241   1.164   2.660  11.045 -0.0461 -0.2245 -0.4266
    6TMC3     H14242   1.307   2.511  10.955  1.0622 -0.8895  0.0593
    6TMC3    H114243   1.489   2.822  11.191  1.6040  1.3889 -0.6316
    6TMC3    H214244   1.707   2.603  10.885  0.3334  2.2087  0.0119
    6TMC3    C714245   1.742   2.757  11.106  0.1396  0.2641  0.1201
    6TMC3    C814246   1.521   2.463  10.799 -0.0184 -0.0801  0.0050
    6TMC3    O114247   1.725   2.793  11.221  0.0176  0.2351  0.2450
    6TMC3    O214248   1.583   2.489  10.695  0.0158  0.2904  0.0873
    7MPD2     C14249   1.809   2.367  11.983  0.1891  0.3026 -0.0704
    7MPD2    C114250   1.940   2.418  11.996 -0.2043 -0.1686 -0.2462
    7MPD2    C214251   1.987   2.455  12.124  0.1043 -0.2766 -0.0316
    7MPD2    C314252   1.901   2.446  12.236 -0.3158 -0.2148 -0.7264
    7MPD2    C414253   1.769   2.401  12.212 -0.4561  0.2651  0.4913
    7MPD2    C514254   1.729   2.362  12.088  0.0299  0.4431  0.2222
    7MPD2     H14255   2.081   2.507  12.138  1.0974 -1.7090 -1.3789
    7MPD2    H114256   1.700   2.386  12.294  2.1036 -1.9797  2.2216
    7MPD2    H214257   1.767   2.343  11.886  1.0967 -1.0137 -0.1391
    7MPD2    H314258   1.627   2.325  12.086 -0.5347  2.1293 -3.0402
    7MPD2     N14259   1.942   2.482  12.369 -0.3439 -0.2686 -0.2515
    7MPD2    H514260   1.863   2.481  12.434  1.5212 -0.0667  1.9965
    7MPD2    N114261   2.023   2.415  11.883  1.1012  0.3185 -0.0317
    7MPD2    H714262   1.992   2.387  11.791 -0.0485 -0.2970  0.5415
    8TMC3    C114263   2.218   2.484  11.760 -0.2622 -0.0569 -0.7469
    8TMC3    C214264   2.144   2.545  11.671  0.6512  0.4238 -0.0968
    8TMC3    C314265   2.194   2.652  11.601 -0.5108  0.6037 -0.2447
    8TMC3    C414266   2.348   2.519  11.778  0.2258  0.3020 -0.8798
    8TMC3    C514267   2.393   2.623  11.712 -0.0626  0.5770  0.0552
    8TMC3    C614268   2.324   2.688  11.616  0.5579 -0.3189 -0.5495
    8TMC3     C14269   2.158   2.447  11.886  0.3897 -0.0742  0.2637
    8TMC3     O14270   2.243   2.461  11.972  0.2056  0.1435 -0.7442
    8TMC3     H14271   2.037   2.533  11.655  0.8226 -1.5298  0.2709
    8TMC3    H114272   2.425   2.471  11.836  0.3520  1.5761  0.0132
    8TMC3    H214273   2.367   2.768  11.557  1.2362  1.7057  2.7034
    8TMC3    C714274   2.451   2.727  11.796 -0.0769 -0.9987 -0.0637
    8TMC3    C814275   2.119   2.676  11.477  0.4883  0.0833  0.1073
    8TMC3    O114276   2.482   2.835  11.752 -0.2849 -0.2874 -0.5159
    8TMC3    O214277   2.003   2.636  11.473  0.0047  0.3640 -0.2381
    9MPD2     C14278   2.245   2.761  11.137 -0.7563 -0.2551  0.2000
    9MPD2    C114279   2.143   2.734  11.235 -0.1915  0.3908  0.9703
    9MPD2    C214280   2.015   2.732  11.201 -0.4458 -0.2598 -0.6464
    9MPD2    C314281   1.983   2.759  11.067 -0.2431  0.6918 -0.4311
    9MPD2    C414282   2.082   2.773  10.973  0.5907  0.0962 -0.2817
    9MPD2    C514283   2.211   2.782  11.006  0.1159  0.0815  0.7905
    9MPD2     H14284   1.944   2.690  11.271 -0.5680 -1.1415 -1.2980
    9MPD2    H114285   2.053   2.799  10.872  0.8581 -0.3230 -0.4646
    9MPD2    H214286   2.346   2.765  11.176 -0.4848 -2.1805 -0.2879
    9MPD2    H314287   2.284   2.821  10.936  1.7726 -0.7792  2.0391
    9MPD2     N14288   1.849   2.755  11.020 -0.2246 -0.6267 -0.8925
    9MPD2    H514289   1.825   2.734  10.924 -0.9600  1.0493 -1.0833
    9MPD2    N114290   2.192   2.711  11.367  0.2690  0.1420 -0.0577
    9MPD2    H714291   2.293   2.723  11.375  0.1830  1.2344 -0.6042
    1MPD1     C14292   0.301   0.230  16.165  0.6960  0.0311  0.9332
    1MPD1    C114293   0.429   0.222  16.119 -0.0551  0.4745 -0.4138
    1MPD1    C214294   0.534   0.212  16.209 -0.6943 -0.0777 -0.1427
    1MPD1    C314295   0.515   0.218  16.343  0.0714 -0.1035  0.1102
    1MPD1    C414296   0.386   0.230  16.391  0.8720 -0.6098  0.0719
    1MPD1    C514297   0.281   0.232  16.298  0.2220 -0.2048  0.1267
    1MPD1     H14298   0.633   0.209  16.163 -1.7818 -1.0847 -2.4420
    1MPD1    H114299   0.358   0.237  16.495  1.0636  0.4589  0.0586
    1MPD1    H214300   0.222   0.215  16.092  1.8270  0.1876 -0.3142
    1MPD1    H314301   0.180   0.254  16.331  0.5283  3.6262 -1.5244
    1MPD1     N14302   0.619   0.212  16.441  0.0045  0.2232  0.1328
    1MPD1    H514303   0.591   0.230  16.537 -1.0456  1.6766 -0.4236
    1MPD1    N114304   0.445   0.202  15.980 -0.0241  0.4731 -0.1261
    1MPD1    H614305   0.367   0.239  15.926 -0.1089 -1.3158 -1.2127
    1MPD1    H714306   0.531   0.233  15.935 -0.1738 -1.0447 -1.4383
    2TMC2    C114307   0.883   0.246  16.745  0.4996  0.0315  0.0913
    2TMC2    C214308   1.001   0.173  16.740  0.2951  0.3538 -0.3594
    2TMC2    C314309   1.033   0.104  16.622  0.2535  0.3296  0.6488
    2TMC2    C414310   0.798   0.247  16.642  0.1853 -0.1835 -0.0078
    2TMC2    C514311   0.830   0.167  16.534 -0.2225  1.3482 -0.2796
    2TMC2    C614312   0.942   0.091  16.522  0.2822  0.0166 -0.0017
    2TMC2     C14313   0.829   0.296  16.871  0.0997  0.2321  0.7310
    2TMC2     O14314   0.740   0.375  16.862 -0.0683  0.2052  0.2240
    2TMC2     H14315   1.068   0.162  16.825  0.2440 -1.8675 -0.5842
    2TMC2    H114316   0.698   0.287  16.659  0.9939  1.3663  1.1255
    2TMC2    H214317   0.940   0.023  16.437  0.5806 -0.5580  0.4555
    2TMC2    C714318   0.755   0.180  16.410  0.0560  0.2239  0.0885
    2TMC2    C814319   1.134   0.011  16.630  0.0183  0.2413 -0.3397
    2TMC2    O114320   0.811   0.145  16.304  0.2866  0.0936  0.1484
    2TMC2    O214321   1.192   4.716  16.731  0.2129 -0.4670 -0.0235
    2TMC2    O514322   1.186   4.721  16.506 -0.2614 -0.0718  0.2878
    2TMC2    H514323   1.126   0.025  16.440  1.5169  0.5154 -0.9695
    3MPD1     C14324   0.851   0.328  17.385  0.3657 -0.2164 -0.4437
    3MPD1    C114325   0.920   0.218  17.342 -0.3820 -0.1716  0.2434
    3MPD1    C214326   0.946   0.200  17.207 -0.1298 -0.4967  0.8211
    3MPD1    C314327   0.866   0.268  17.114 -0.0150  0.2927  0.1900
    3MPD1    C414328   0.778   0.356  17.160  0.1993 -0.3891  0.7824
    3MPD1    C514329   0.766   0.382  17.294  0.6480  0.9555 -0.0507
    3MPD1     H14330   1.023   0.132  17.172 -1.4529 -0.9906 -1.1168
    3MPD1    H114331   0.711   0.401  17.088  1.5979  2.3515  1.1759
    3MPD1    H214332   0.833   0.343  17.490  0.8465  1.8023 -0.6486
    3MPD1    H314333   0.700   0.459  17.332  1.9645  1.6171  0.9303
    3MPD1     N14334   0.892   0.244  16.979  0.3806  0.2132 -0.6317
    3MPD1    H514335   0.965   0.175  16.964  1.3829  1.2629 -0.5425
    3MPD1    N114336   0.994   0.144  17.445  0.1417 -0.1582  0.2102
    3MPD1    H614337   1.030   0.058  17.403  1.4426  0.8128 -0.6721
    3MPD1    H714338   0.948   0.126  17.534  1.2787  0.6656  0.9653
    1TMC1    C114339   4.662   0.627  12.703 -0.4149 -0.3349 -0.2525
    1TMC1    C214340   4.580   0.629  12.814  0.6339 -0.9188 -0.3889
    1TMC1    C314341   4.449   0.632  12.796  0.1733 -0.6429  0.3589
    1TMC1    C414342   4.608   0.614  12.584  0.2252  0.2407 -0.5062
    1TMC1    C514343   4.474   0.607  12.565  0.0606  0.3933 -0.4771
    1TMC1    C614344   4.389   0.617  12.671  0.0121  0.0543 -0.5909
    1TMC1     C14345   0.056   0.688  12.725 -0.0612 -0.1027 -0.4681
    1TMC1     O14346   0.108   0.715  12.620 -0.0219  0.6498 -0.1438
    1TMC1     H14347   4.610   0.659  12.914 -0.2538 -0.2942 -0.3091
    1TMC1    H114348   4.669   0.582  12.501  2.9710  1.2831  1.0935
    1TMC1    H214349   4.283   0.632  12.652 -0.0205  0.6023  0.0340
    1TMC1    C714350   4.418   0.604  12.430 -0.3036 -0.5818 -0.7116
    1TMC1    C814351   4.368   0.588  12.911  0.2127 -0.0738  0.6026
    1TMC1    O114352   4.300   0.578  12.409 -0.6177 -0.0397 -0.1381
    1TMC1    O214353   4.404   0.592  13.029 -0.8437 -0.6153  0.1498
    1TMC1    O314354   4.488   0.678  12.343 -0.0142  0.1670  0.4629
    1TMC1    H314355   4.577   0.714  12.367  0.3000  2.3118 -3.9293
    1TMC1    O514356   4.293   0.488  12.859  0.5421 -0.2124 -0.1230
    1TMC1    H514357   4.303   0.480  12.762 -0.4771  1.7468 -0.3912
    2MPD2     C14358   0.343   0.755  12.787  0.1414  0.1033  0.2080
    2MPD2    C114359   0.250   0.719  12.881 -0.1925  0.0264 -0.7442
    2MPD2    C214360   0.298   0.711  13.008 -0.2218  0.1753  0.7377
    2MPD2    C314361   0.436   0.712  13.038  0.3676 -0.2002  0.4684
    2MPD2    C414362   0.522   0.713  12.936  0.4308 -0.1427 -0.0756
    2MPD2    C514363   0.471   0.746  12.817  0.1630  0.5468  0.2558
    2MPD2     H14364   0.227   0.704  13.089 -2.1125 -1.1792 -1.0267
    2MPD2    H114365   0.629   0.728  12.947  0.1362  2.5961 -0.8400
    2MPD2    H214366   0.314   0.799  12.692  2.9809  1.4446 -0.0303
    2MPD2    H314367   0.537   0.781  12.738  0.9607 -2.4717 -0.4102
    2MPD2     N14368   0.481   0.676  13.172  0.1329  0.9957 -0.6932
    2MPD2    H514369   0.420   0.702  13.249  1.5755  0.4978  0.6358
    2MPD2    N114370   0.113   0.690  12.854  0.0549  0.6240  0.0798
    2MPD2    H714371   0.058   0.668  12.937 -0.9166  0.6263 -0.5712
    3TCq1    O114372   0.431   0.671  13.760 -0.0654 -0.2012  0.3627
    3TCq1    C114373   0.467   0.745  13.648 -0.0911 -0.2940 -0.3496
    3TCq1    O214374   0.472   0.866  13.648  0.0085 -0.0965  0.1084
    3TCq1    C214375   0.553   0.666  13.560  0.2559 -0.0111  0.4337
    3TCq1    C314376   0.632   0.568  13.610 -0.4140 -0.2358 -0.1699
    3TCq1    C414377   0.711   0.490  13.523  0.1615 -0.1169  0.4414
    3TCq1    C514378   0.701   0.516  13.391  0.2913 -0.1124  0.3472
    3TCq1    C614379   0.628   0.623  13.344  0.4576  0.1832  1.0928
    3TCq1    C714380   0.558   0.700  13.428  0.1963  0.4970  0.2100
    3TCq1    C814381   0.602   0.620  13.202 -0.2963 -1.0108 -0.5660
    3TCq1    O414382   0.675   0.556  13.133 -0.0279 -0.3427  0.1249
    3TCq1    C914383   0.763   0.360  13.571  0.0041 -0.3485  0.0261
    3TCq1    O514384   0.832   0.292  13.494 -0.1421  0.2627 -0.2776
    3TCq1    O614385   0.742   0.335  13.690 -0.6031  0.3763  0.3711
    3TCq1    H114386   0.437   0.573  13.753 -0.1284 -0.2327  0.7958
    3TCq1    H214387   0.621   0.540  13.714  2.9092 -2.1696 -0.3380
    3TCq1    H314388   0.761   0.454  13.325  1.8334  1.2487  0.4635
    3TCq1    H414389   0.489   0.775  13.390 -0.5291 -1.0897 -1.6025
    1MPD2     C14390   0.012   2.092  15.068  0.9359  0.2170 -0.6202
    1MPD2    C114391   4.646   2.012  15.040 -0.1198 -1.0287  0.4101
    1MPD2    C214392   4.653   1.874  15.068 -0.0214 -0.0337 -0.3326
    1MPD2    C314393   0.029   1.819  15.116  0.1345  0.6290 -0.3734
    1MPD2    C414394   0.131   1.899  15.155  0.7317  0.8085 -0.5512
    1MPD2    C514395   0.123   2.038  15.133 -0.0558  0.2043 -0.5053
    1MPD2     H14396   4.566   1.814  15.045 -0.1007 -0.3474  0.7775
    1MPD2    H114397   0.227   1.860  15.187  0.5252  1.5563  1.0069
    1MPD2    H214398   0.012   2.198  15.046  1.5954  0.5311  0.9070
    1MPD2    H314399   0.196   2.108  15.173  0.0855 -0.8618  1.1120
    1MPD2     N14400   0.047   1.686  15.124 -0.3130  0.4345 -0.3004
    1MPD2    H514401   0.133   1.658  15.169 -1.1021 -1.9077 -0.2625
    1MPD2    N114402   4.528   2.070  14.985  0.2440 -0.3682  0.3838
    1MPD2    H714403   4.539   2.169  14.964  1.3957 -0.6346 -0.2624
    2TMC3    C114404   4.304   2.108  14.919  0.5053  0.3039  0.1745
    2TMC3    C214405   4.185   2.052  14.961  0.1182 -0.7433  1.0638
    2TMC3    C314406   4.085   2.021  14.870  0.6352 -0.5342  0.2642
    2TMC3    C414407   4.310   2.158  14.788 -0.1695 -0.1384 -0.6128
    2TMC3    C514408   4.207   2.137  14.702 -0.4372  0.1731  0.9064
    2TMC3    C614409   4.093   2.068  14.742  0.7612 -0.2042  0.2951
    2TMC3     C14410   4.409   2.014  14.958 -0.5959 -0.3433  0.4175
    2TMC3     O14411   4.372   1.901  14.989 -0.4046  0.3602 -0.2456
    2TMC3     H14412   4.174   2.023  15.065 -0.3504 -0.3899  1.1155
    2TMC3    H114413   4.400   2.209  14.757 -1.3444  2.8711  0.8607
    2TMC3    H214414   4.004   2.046  14.685  1.0950 -0.3830 -0.1579
    2TMC3    C714415   4.204   2.178  14.565  0.2189  0.5342 -0.4078
    2TMC3    C814416   4.034   1.886  14.879 -0.4344  0.2509 -0.1113
    2TMC3    O114417   4.118   2.124  14.503  0.1184  0.1377 -0.6211
    2TMC3    O214418   3.926   1.848  14.834  0.5962  0.5639 -0.3404
    3TCq1    O114419   0.171   3.112  14.058 -0.1596  0.5076 -0.2303
    3TCq1    C114420   0.063   3.051  14.007  0.9751  0.2166  0.0187
    3TCq1    O214421   0.047   3.024  13.889 -0.0256 -0.5576  0.4562
    3TCq1    C214422   4.728   2.982  14.118 -0.2723 -0.9536  0.2893
    3TCq1    C314423   4.737   3.031  14.248  0.1923  0.0956  0.9297
    3TCq1    C414424   4.658   2.968  14.340 -0.5196  0.6712  0.2040
    3TCq1    C514425   4.571   2.869  14.305 -0.4666  0.5588 -0.0763
    3TCq1    C614426   4.567   2.816  14.182 -1.1575 -0.0938 -0.6687
    3TCq1    C714427   4.637   2.878  14.086  0.6836  0.2901 -0.7971
    3TCq1    C814428   4.496   2.696  14.144 -0.2114 -0.1173  0.1074
    3TCq1    O414429   4.431   2.708  14.044  0.8459  0.4939 -0.3635
    3TCq1    C914430   4.665   3.016  14.474 -0.8376  0.0479 -0.1018
    3TCq1    O514431   0.011   3.109  14.497 -0.2147 -0.1249 -0.9142
    3TCq1    O614432   4.600   2.956  14.561  0.1455 -0.6057  0.0798
    3TCq1    H114433   0.173   3.107  14.156  1.3775 -0.9308 -0.3181
    3TCq1    H214434   0.064   3.112  14.280  1.7933 -0.2268 -1.5258
    3TCq1    H314435   4.509   2.832  14.385 -1.2168 -0.5450 -1.1581
    3TCq1    H414436   4.638   2.836  13.986 -1.0880 -1.1800 -0.1865
    4MPD2     C14437   4.345   2.436  14.155  0.4631 -0.1501 -0.0400
    4MPD2    C114438   4.403   2.503  14.264  0.8332  0.5669  0.1223
    4MPD2    C214439   4.390   2.441  14.392  0.0695 -0.0916  0.6372
    4MPD2    C314440   4.316   2.328  14.406  0.0765  0.9565  0.1014
    4MPD2    C414441   4.269   2.263  14.296  0.6654 -0.3361  0.1428
    4MPD2    C514442   4.283   2.317  14.174  0.4075  0.2253 -0.3018
    4MPD2     H14443   4.416   2.487  14.487  1.0737 -0.7885  0.7035
    4MPD2    H114444   4.225   2.165  14.308 -2.5846  0.7802 -2.7115
    4MPD2    H214445   4.362   2.469  14.053  0.2899 -2.4282 -0.8068
    4MPD2    H314446   4.247   2.255  14.092 -1.4873  1.7042 -0.5986
    4MPD2     N14447   4.291   2.277  14.534  0.0017  0.3486 -0.5163
    4MPD2    H514448   4.350   2.308  14.610  0.6805 -0.6481 -0.6374
    4MPD2    N114449   4.482   2.625  14.255 -0.6202 -0.4071  0.3911
    4MPD2    H714450   4.535   2.651  14.338 -0.5131 -0.5676  0.3732
    5TMC2    C114451   4.537   1.291  15.145  0.2669  0.1882  0.1140
    5TMC2    C214452   4.555   1.288  15.282  0.7534  0.3970 -0.0082
    5TMC2    C314453   4.648   1.370  15.331  0.0337 -0.9906  0.4901
    5TMC2    C414454   4.607   1.376  15.063  0.4103 -0.0858  0.3228
    5TMC2    C514455   4.708   1.456  15.122 -0.2278  0.6162  0.8884
    5TMC2    C614456   4.726   1.450  15.258 -0.0542 -0.2045 -0.2935
    5TMC2     C14457   4.397   1.293  15.103 -0.2155  0.0585  0.0364
    5TMC2     O14458   4.327   1.200  15.145 -0.6858 -0.4135 -0.1107
    5TMC2     H14459   4.481   1.237  15.343 -0.2389 -0.8360 -2.2548
    5TMC2    H114460   4.605   1.369  14.955  2.2127  1.4695  0.1770
    5TMC2    H214461   0.059   1.513  15.312 -0.0788 -0.6239  0.2298
    5TMC2    C714462   4.696   1.592  15.076  0.6910 -0.5178 -0.4334
    5TMC2    C814463   4.670   1.387  15.470  0.1788 -0.2892 -0.7063
    5TMC2    O114464   4.595   1.598  15.011 -0.3011  0.4944 -0.0500
    5TMC2    O214465   4.706   1.495  15.512  0.3069  0.6877 -0.4667
    5TMC2    O514466   4.709   1.265  15.517 -0.3172  0.3507 -0.2146
    5TMC2    H514467   4.696   1.190  15.455  0.7220 -1.6983  2.0249
    6MPD2     C14468   4.010   1.589  14.948  0.2386 -0.8775 -0.4426
    6MPD2    C114469   4.126   1.667  14.954  0.1789  0.2578 -0.1582
    6MPD2    C214470   4.238   1.604  14.999 -0.4567  0.3312 -0.3368
    6MPD2    C314471   4.242   1.473  15.039  0.7426  0.4382  0.3528
    6MPD2    C414472   4.129   1.399  15.033 -0.3596  0.3936  0.2854
    6MPD2    C514473   4.014   1.458  14.988 -0.5084 -0.6081 -0.1436
    6MPD2     H14474   4.328   1.663  15.007 -0.3434 -0.0148  0.9442
    6MPD2    H114475   4.130   1.293  15.053 -0.4377  0.2657 -0.3726
    6MPD2    H214476   3.919   1.639  14.916  1.2370  0.2711 -1.4798
    6MPD2    H314477   3.923   1.403  14.964  0.9801 -2.0665 -2.4560
    6MPD2     N14478   4.371   1.421  15.065 -0.0987 -0.0669 -0.3484
    6MPD2    H514479   4.450   1.485  15.055  0.0205 -0.2357 -0.5010
    6MPD2    N114480   4.138   1.807  14.923  0.6569  0.3174  0.2627
    6MPD2    H714481   4.227   1.855  14.938 -0.2312  1.9235  0.4263
  945NH3     N114482   2.158   3.161  12.413 -0.1350 -0.4387  0.4124
  945NH3     H214483   2.161   3.094  12.489  2.1011  1.4645  2.0315
  945NH3     H314484   2.102   3.240  12.444  0.5217  0.0734  0.2997
  945NH3     H414485   2.256   3.188  12.412  0.5438 -2.9254  1.0627
  946SOD     NA14486   1.524   1.806   7.237 -0.4136  0.5935  0.0952
  947SOD     NA14487   2.432   4.525  11.723 -0.7078  0.0550 -0.0782
  948SOD     NA14488   4.450   0.557   6.949 -0.0222  0.0795 -0.1732
  949SOD     NA14489   4.012   3.728   8.424  0.0531  0.2983 -0.0782
  950SOD     NA14490   3.805   2.679  13.685  0.0087  0.1729  0.0454
  951SOD     NA14491   0.250   2.444  11.375 -0.5855 -0.3881  0.7038
  952SOD     NA14492   1.530   2.475  15.648  0.2938 -0.0992 -0.2305
  953SOD     NA14493   2.494   0.937   6.720  0.3753  0.0687 -0.2613
  954SOL     OW14494   2.776   1.227   3.913  0.4893  0.4827 -0.2399
  954SOL    HW114495   2.714   1.284   3.959 -0.1863 -0.1912 -0.3062
  954SOL    HW214496   2.843   1.286   3.880  1.7869 -0.8081  0.0953
  955SOL     OW14497   1.276   4.663   3.405 -0.3180  0.2227 -0.0727
  955SOL    HW114498   1.231   4.724   3.464  1.5527  1.8871 -0.3625
  955SOL    HW214499   1.283   4.593   3.469 -0.4524 -0.3621 -0.6947
  956SOL     OW14500   3.243   0.543   6.664 -0.2176 -0.4334 -0.8750
  956SOL    HW114501   3.170   0.513   6.610  0.8622  0.0228 -2.5699
  956SOL    HW214502   3.259   0.459   6.708  0.5307  1.1370  1.8684
  957SOL     OW14503   4.325   0.682   5.850 -0.5561  0.2448  0.0625
  957SOL    HW114504   4.240   0.641   5.862  0.0296 -0.6434  1.1885
  957SOL    HW214505   4.298   0.774   5.844 -1.7320  0.0068  1.8387
  958SOL     OW14506   0.416   1.572   0.430 -0.1494 -0.3607  0.2967
  958SOL    HW114507   0.410   1.481   0.458 -0.2237 -0.6426 -0.6470
  958SOL    HW214508   0.510   1.580   0.412  0.0979  1.2792  2.3281
  959SOL     OW14509   3.176   0.660   5.774 -0.0804 -0.0587  0.2278
  959SOL    HW114510   3.252   0.628   5.725 -1.9544 -0.9825 -2.1000
  959SOL    HW214511   3.215   0.698   5.852 -1.3773  0.7494  0.4854
  960SOL     OW14512   3.500   3.854  10.131 -0.4567 -0.1974  0.3387
  960SOL    HW114513   3.439   3.902  10.075  1.0769  1.5817  0.2012
  960SOL    HW214514   3.570   3.918  10.144 -0.3481 -0.2538  0.0226
  961SOL     OW14515   1.279   0.552  15.796  0.2241  0.0714  0.2973
  961SOL    HW114516   1.339   0.478  15.786 -1.5082 -1.3163  0.0509
  961SOL    HW214517   1.310   0.607  15.724 -1.5136  0.2718 -0.2874
  962SOL     OW14518   3.018   3.396  10.865  0.3313 -0.0684  0.0904
  962SOL    HW114519   3.068   3.477  10.854  1.6301 -0.7901  0.6514
  962SOL    HW214520   2.983   3.406  10.954 -1.0360 -1.8868 -0.2414
  963SOL     OW14521   3.647   4.691   3.190  0.0150  0.2930  0.4689
  963SOL    HW114522   3.562   4.714   3.226  0.0661  2.0302 -0.5541
  963SOL    HW214523   3.621   4.601   3.168 -1.4189  1.0028 -0.6987
  964SOL     OW14524   3.017   1.456   0.971 -0.1590 -0.0464 -0.8344
  964SOL    HW114525   3.075   1.529   0.988 -0.3172 -0.2728  0.6465
  964SOL    HW214526   2.932   1.495   0.950  0.7731  2.7095  0.6679
  965SOL     OW14527   2.776   2.569   1.045  0.3312  0.1091  0.1674
  965SOL    HW114528   2.805   2.659   1.058  1.8951 -0.3232 -0.3520
  965SOL    HW214529   2.784   2.557   0.951 -0.2434 -1.2093  0.2878
  966SOL     OW14530   3.596   0.562   4.410  0.0613  0.0784 -0.6844
  966SOL    HW114531   3.581   0.600   4.496 -0.3243 -2.4325  0.3529
  966SOL    HW214532   3.540   0.485   4.407 -2.3232  1.7985 -0.3839
  967SOL     OW14533   2.918   3.350   8.304  0.2100  0.0971 -0.8761
  967SOL    HW114534   2.838   3.352   8.357  2.1100 -1.2296  1.9884
  967SOL    HW214535   2.983   3.352   8.373  1.6124 -2.8242 -2.1186
  968SOL     OW14536   0.198   0.759   1.571  0.6829  0.6019 -0.4233
  968SOL    HW114537   0.135   0.798   1.631  1.2730  1.8061 -0.6017
  968SOL    HW214538   0.141   0.741   1.496  0.7541  0.4729 -0.4467
  969SOL     OW14539   3.304   3.739   8.074 -0.0365 -0.2047 -0.6261
  969SOL    HW114540   3.264   3.798   8.011  0.8643 -0.3044 -1.2886
  969SOL    HW214541   3.362   3.702   8.008 -0.6567  0.5049 -1.5778
  970SOL     OW14542   3.222   3.775   2.944  0.3181 -0.4531 -0.2844
  970SOL    HW114543   3.189   3.864   2.949  1.9432  0.2317 -1.8271
  970SOL    HW214544   3.162   3.719   2.994 -0.8968  0.9412 -0.2049
  971SOL     OW14545   3.657   2.762  13.885  0.4061  0.4588 -0.4236
  971SOL    HW114546   3.653   2.846  13.931  1.1116  0.0999  0.2876
  971SOL    HW214547   3.667   2.704  13.960 -1.4292  1.5352  0.6748
  972SOL     OW14548   2.682   3.528  14.600  0.2901 -0.0758 -0.0631
  972SOL    HW114549   2.671   3.492  14.512  0.5283  1.3865 -0.6932
  972SOL    HW214550   2.761   3.581  14.597  1.3081 -1.4284  3.0488
  973SOL     OW14551   0.268   2.407  13.873  0.1631 -0.4247 -1.0745
  973SOL    HW114552   0.346   2.463  13.875  0.7502 -1.2271 -1.3039
  973SOL    HW214553   0.223   2.434  13.792 -0.3142  4.5748  0.8660
  974SOL     OW14554   2.908   1.097   2.519 -0.4954 -0.0051 -0.3258
  974SOL    HW114555   2.943   1.083   2.431 -1.2018  0.0286 -0.6066
  974SOL    HW214556   2.941   1.012   2.548 -2.0548 -1.3097 -2.3843
  975SOL     OW14557   2.910   4.649   8.231  0.6738 -0.3003 -0.5867
  975SOL    HW114558   2.843   4.689   8.286  1.2903 -0.5552  0.3465
  975SOL    HW214559   2.963   4.608   8.300  1.1496  1.1801 -0.0677
  976SOL     OW14560   4.666   1.103  15.976 -0.2592 -0.2499 -0.3706
  976SOL    HW114561   0.007   1.057  16.003  1.7422  2.4649 -1.5596
  976SOL    HW214562   4.701   1.192  15.988 -1.0882  0.2869 -1.9144
  977SOL     OW14563   1.694   4.401   8.740 -0.3644  0.1043  0.3480
  977SOL    HW114564   1.648   4.482   8.761 -2.2075 -0.3453 -1.9092
  977SOL    HW214565   1.627   4.333   8.752  1.0744 -1.3298  0.2986
  978SOL     OW14566   4.694   3.053   5.521 -0.2091  0.1649 -0.0254
  978SOL    HW114567   4.736   3.121   5.573  2.2283 -2.2995  1.2358
  978SOL    HW214568   4.618   3.028   5.573 -0.4049  0.3544 -0.2205
  979SOL     OW14569   4.167   3.355  12.793  0.1989 -0.5394 -0.4351
  979SOL    HW114570   4.206   3.429  12.748  0.6422 -2.0278 -2.5208
  979SOL    HW214571   4.247   3.318  12.830  1.2272  1.7715 -0.3615
  980SOL     OW14572   2.773   4.323   8.186 -0.0596  0.0683  0.1836
  980SOL    HW114573   2.699   4.379   8.163 -0.3450 -0.6885 -0.7485
  980SOL    HW214574   2.801   4.346   8.275  0.2575  0.3333  0.0116
  981SOL     OW14575   1.560   2.143   4.061  0.0346  0.2026 -0.1536
  981SOL    HW114576   1.560   2.081   4.134 -0.9562  1.9934  1.3645
  981SOL    HW214577   1.496   2.203   4.100  0.1574  0.7687 -0.8159
  982SOL     OW14578   3.794   2.898   1.064  0.1764 -0.0740 -0.6595
  982SOL    HW114579   3.749   2.962   1.008 -2.5062 -0.9220  0.5139
  982SOL    HW214580   3.847   2.862   0.994  2.0980  1.6149 -0.0466
  983SOL     OW14581   2.611   0.514   0.400  0.6455 -0.3139  0.6462
  983SOL    HW114582   2.640   0.474   0.318 -0.9703 -1.5365  0.6680
  983SOL    HW214583   2.682   0.498   0.461  1.4511  2.7249  0.4810
  984SOL     OW14584   2.212   3.524  16.082 -0.3476 -0.1892 -0.4556
  984SOL    HW114585   2.194   3.497  15.992  1.8601 -0.2395 -0.8658
  984SOL    HW214586   2.166   3.608  16.078  1.0666  0.5857 -0.5408
  985SOL     OW14587   0.973   1.824  16.944  0.0915  0.1813  1.0382
  985SOL    HW114588   1.020   1.834  16.861 -1.3765  0.9067  0.2914
  985SOL    HW214589   0.928   1.905  16.967 -0.5582 -0.0403  0.5538
  986SOL     OW14590   1.663   1.529  16.266  0.2912 -0.2817  0.0238
  986SOL    HW114591   1.736   1.588  16.285 -0.7557  0.4054  1.8753
  986SOL    HW214592   1.716   1.453  16.241 -0.4639 -0.0574 -2.2441
  987SOL     OW14593   0.907   1.854  17.283  0.2905 -0.5189 -0.0815
  987SOL    HW114594   0.814   1.863  17.261  0.4189 -0.3228 -0.5351
  987SOL    HW214595   0.930   1.782  17.225  2.1732  2.2146 -2.6917
  988SOL     OW14596   0.015   3.420   6.749  0.2572 -0.1925  0.3865
  988SOL    HW114597   4.728   3.331   6.776 -1.7725  0.2611  0.0144
  988SOL    HW214598   0.023   3.461   6.835  0.4158 -0.4062  0.4737
  989SOL     OW14599   3.204   1.365   9.366  0.2368  0.1034 -0.3041
  989SOL    HW114600   3.230   1.375   9.274 -0.3971  1.2485 -0.3690
  989SOL    HW214601   3.118   1.323   9.359  0.9027 -1.3393  0.3150
  990SOL     OW14602   0.112   3.663   7.986 -0.2814  0.7477 -0.6960
  990SOL    HW114603   0.171   3.722   8.031  0.4244  1.2484 -2.2980
  990SOL    HW214604   0.121   3.704   7.900  1.4703  2.2599  0.2234
  991SOL     OW14605   1.901   3.573   9.616 -0.5041  0.3191  0.2499
  991SOL    HW114606   1.815   3.552   9.652 -0.6889 -0.1545 -0.4716
  991SOL    HW214607   1.950   3.611   9.689 -1.1696 -1.7619  1.7443
  992SOL     OW14608   3.439   2.966   7.665  0.2130  0.2027 -0.2794
  992SOL    HW114609   3.452   2.871   7.676  1.1214  0.2893 -0.6375
  992SOL    HW214610   3.395   2.998   7.744 -2.3449  0.0313 -1.6278
  993SOL     OW14611   0.009   3.494   9.807 -0.0857  0.6478 -0.2991
  993SOL    HW114612   4.709   3.495   9.719  1.0489 -1.4268 -0.7912
  993SOL    HW214613   4.667   3.498   9.861  0.6927  1.0861  0.7917
  994SOL     OW14614   4.174   2.283   8.085  0.3027 -0.2422  0.5811
  994SOL    HW114615   4.266   2.299   8.064  0.1899 -2.0301 -1.2148
  994SOL    HW214616   4.148   2.374   8.073 -0.7522 -0.5718  0.3192
  995SOL     OW14617   3.472   2.704   7.690  0.0509 -0.2114 -0.1017
  995SOL    HW114618   3.538   2.695   7.621  0.7600 -0.0786  0.5497
  995SOL    HW214619   3.517   2.761   7.753 -0.2190 -0.0819 -0.0283
  996SOL     OW14620   1.665   2.687   8.986 -0.1087 -0.0574 -0.4648
  996SOL    HW114621   1.707   2.602   8.971  1.6069  0.8570 -0.8149
  996SOL    HW214622   1.696   2.723   9.069  0.0863  2.3349 -1.5732
  997SOL     OW14623   3.419   4.578   5.940 -0.3534 -0.6203  0.2800
  997SOL    HW114624   3.506   4.545   5.961 -0.3488  0.9630  2.7528
  997SOL    HW214625   3.364   4.502   5.959 -0.7754  0.0126  1.5657
  998SOL     OW14626   0.828   2.998  11.053  0.1658 -0.3636 -0.1325
  998SOL    HW114627   0.749   3.050  11.067  0.9776  0.0668  2.6550
  998SOL    HW214628   0.820   2.945  11.132 -1.1736 -2.5499 -1.7429
  999SOL     OW14629   2.931   2.174   8.197  0.2282  0.5249 -0.6037
  999SOL    HW114630   2.900   2.170   8.287 -1.4288 -0.3774 -1.2032
  999SOL    HW214631   2.938   2.079   8.187 -1.4231  0.2590  0.7434
 1000SOL     OW14632   0.038   2.854   1.422  0.1222 -0.1200 -0.6130
 1000SOL    HW114633   0.010   2.838   1.332  1.5273 -1.9566 -0.7152
 1000SOL    HW214634   0.133   2.858   1.426  0.1355 -1.3119  0.5780
 1001SOL     OW14635   3.873   3.651   0.169 -0.1117  0.6462 -0.3777
 1001SOL    HW114636   3.906   3.567   0.200 -1.1970  0.5611  0.5012
 1001SOL    HW214637   3.800   3.655   0.229  1.8869  1.0167  2.0232
 1002SOL     OW14638   3.158   3.074   7.267  0.0782  0.1384  0.0520
 1002SOL    HW114639   3.225   3.069   7.336  0.5861 -0.7248 -0.4961
 1002SOL    HW214640   3.092   3.109   7.327 -0.5286 -0.1337 -0.4556
 1003SOL     OW14641   4.008   2.179   6.398  0.5278  0.4865  0.5339
 1003SOL    HW114642   4.024   2.213   6.486  1.1708  0.5384  0.3985
 1003SOL    HW214643   4.014   2.264   6.352  1.7867  0.1718  0.1195
 1004SOL     OW14644   2.299   0.767   7.634 -0.6395 -0.4546  0.5113
 1004SOL    HW114645   2.302   0.765   7.539 -0.4841  1.0452  0.4726
 1004SOL    HW214646   2.212   0.804   7.650  1.1992  2.8367  3.0591
 1005SOL     OW14647   1.412   3.934  10.622  0.1990 -0.1929  0.1949
 1005SOL    HW114648   1.430   3.870  10.691  2.2008  0.0402 -0.1225
 1005SOL    HW214649   1.478   4.002  10.636 -0.6657  0.8765 -0.9434
 1006SOL     OW14650   3.358   2.538  16.115  0.1264 -0.0321  0.2226
 1006SOL    HW114651   3.264   2.554  16.103 -0.1231 -1.8364 -0.2464
 1006SOL    HW214652   3.364   2.459  16.061  2.1306  0.3342 -0.1063
 1007SOL     OW14653   0.083   3.927   5.869  0.2102 -0.2292  0.4494
 1007SOL    HW114654   0.106   3.911   5.960 -0.2161 -1.1303  0.4032
 1007SOL    HW214655   0.034   3.850   5.840 -1.1117  0.7310  0.1793
 1008SOL     OW14656   2.633   4.181   1.181  0.6982 -0.4654  0.4352
 1008SOL    HW114657   2.710   4.155   1.231  1.5457  0.7294 -0.2304
 1008SOL    HW214658   2.654   4.274   1.190 -0.3294 -0.2385  0.5298
 1009SOL     OW14659   0.887   4.331   8.456  0.1499  0.1725  0.0574
 1009SOL    HW114660   0.944   4.376   8.519  0.3325 -0.8353  0.6136
 1009SOL    HW214661   0.941   4.265   8.413 -0.9964  0.1010 -1.2777
 1010SOL     OW14662   4.154   3.213   7.157 -0.2143 -0.6935 -0.0112
 1010SOL    HW114663   4.169   3.239   7.248  1.1416  0.5342 -0.5911
 1010SOL    HW214664   4.198   3.128   7.151  0.1894 -0.4894  0.0893
 1011SOL     OW14665   1.297   4.184   2.663 -0.4673  0.0499 -0.5538
 1011SOL    HW114666   1.222   4.230   2.625 -1.7204  0.1366  2.0532
 1011SOL    HW214667   1.350   4.174   2.584 -0.7765  1.3012 -0.9239
 1012SOL     OW14668   2.863   2.363  10.039 -0.4454  0.6658  0.8823
 1012SOL    HW114669   2.822   2.420   9.974  2.2949 -0.2268 -1.6836
 1012SOL    HW214670   2.933   2.426  10.057 -1.1700  2.2078 -1.7148
 1013SOL     OW14671   4.703   0.574  11.128 -0.5333 -0.1908 -0.0011
 1013SOL    HW114672   0.025   0.619  11.068  0.8667 -2.2474 -0.1823
 1013SOL    HW214673   4.636   0.541  11.068 -1.1478  0.9067  0.1007
 1014SOL     OW14674   2.619   4.101   5.000  0.0021 -0.2374 -0.0299
 1014SOL    HW114675   2.566   4.160   5.053  0.1227  0.8729 -1.1579
 1014SOL    HW214676   2.663   4.052   5.070  0.6326  2.4243  1.4545
 1015SOL     OW14677   4.652   0.038   3.039 -0.8110 -0.2764  0.2479
 1015SOL    HW114678   4.608   4.693   3.020  2.3154 -1.8862  0.0257
 1015SOL    HW214679   0.001   0.010   3.069 -1.4458 -0.6852  1.7178
 1016SOL     OW14680   0.339   1.287   6.752 -0.1805 -0.6296 -0.9937
 1016SOL    HW114681   0.424   1.298   6.709  0.8760  0.4208  1.3471
 1016SOL    HW214682   0.366   1.274   6.843 -2.5255 -1.5109 -0.4276
 1017SOL     OW14683   3.306   4.157   1.027 -0.0388  0.2264 -0.8868
 1017SOL    HW114684   3.211   4.148   1.020  0.0308 -0.5805 -0.7731
 1017SOL    HW214685   3.325   4.237   0.978 -1.1539  0.0088 -1.6525
 1018SOL     OW14686   0.538   3.859   4.291 -0.9204 -0.5016  0.8164
 1018SOL    HW114687   0.448   3.885   4.306 -0.8936  0.7327 -1.1748
 1018SOL    HW214688   0.527   3.780   4.238  0.2367 -0.7056  0.8650
 1019SOL     OW14689   1.202   2.752   9.865  0.2440  0.3453 -0.0777
 1019SOL    HW114690   1.279   2.696   9.857 -1.2967 -1.7613 -0.1972
 1019SOL    HW214691   1.241   2.839   9.869 -0.3658  0.7693 -3.3095
 1020SOL     OW14692   2.098   0.064  11.706  0.1755  0.0012  0.0418
 1020SOL    HW114693   2.157   0.110  11.766  1.5498  0.2281 -1.5009
 1020SOL    HW214694   2.170   0.022  11.660 -1.1664  0.0454 -2.0857
 1021SOL     OW14695   3.345   4.725   1.557 -0.2148  0.0735 -0.2438
 1021SOL    HW114696   3.333   4.737   1.463 -1.1281 -2.6719 -0.4710
 1021SOL    HW214697   3.398   4.646   1.556 -2.9413 -1.7732  1.7193
 1022SOL     OW14698   3.663   3.596   4.783 -0.2598 -0.8361 -0.0573
 1022SOL    HW114699   3.591   3.538   4.757 -1.6410  1.3260 -1.0965
 1022SOL    HW214700   3.743   3.545   4.771  0.1458 -0.1834 -0.0711
 1023SOL     OW14701   1.635   0.858  16.899  0.8478  0.5395  0.1374
 1023SOL    HW114702   1.540   0.857  16.892  0.8521 -0.6159  0.1889
 1023SOL    HW214703   1.650   0.912  16.976 -1.3346  1.1522  0.1374
 1024SOL     OW14704   3.800   2.800   8.049 -0.7183 -0.3402 -0.1377
 1024SOL    HW114705   3.845   2.860   8.109 -0.3431 -2.1116  1.3249
 1024SOL    HW214706   3.812   2.718   8.096  1.8472 -0.0551 -0.2624
 1025SOL     OW14707   2.743   0.460   6.739 -0.1671 -0.4431 -0.2169
 1025SOL    HW114708   2.744   0.530   6.675 -0.3960  0.7623  1.0947
 1025SOL    HW214709   2.788   0.500   6.813  1.7162 -1.0931 -1.0228
 1026SOL     OW14710   2.123   0.231   3.353 -0.2132 -0.2463  0.0091
 1026SOL    HW114711   2.198   0.223   3.294  0.5846 -0.2468  1.0281
 1026SOL    HW214712   2.057   0.280   3.303 -0.0949  1.2460  1.2982
 1027SOL     OW14713   2.419   2.528   7.121  0.1645 -0.7627  0.2141
 1027SOL    HW114714   2.462   2.502   7.202  1.2336  1.4676  0.3356
 1027SOL    HW214715   2.403   2.446   7.073 -0.5950 -1.2014  1.2255
 1028SOL     OW14716   3.857   1.228   6.263 -0.1059 -0.1716 -0.9386
 1028SOL    HW114717   3.896   1.182   6.337 -1.1862  0.2173 -0.1180
 1028SOL    HW214718   3.820   1.300   6.315 -0.2173 -0.5196 -0.5350
 1029SOL     OW14719   3.389   2.678   4.264 -0.2643  0.0043 -0.3554
 1029SOL    HW114720   3.402   2.603   4.322 -0.8656  0.5201  0.4466
 1029SOL    HW214721   3.355   2.741   4.327  0.6238 -0.4856  0.6117
 1030SOL     OW14722   3.161   2.471   3.758 -0.0371 -0.2192  0.3688
 1030SOL    HW114723   3.068   2.492   3.746 -0.1204 -0.5324  0.4788
 1030SOL    HW214724   3.161   2.407   3.829  0.8255 -1.5963 -0.8774
 1031SOL     OW14725   0.718   1.406   1.500  0.2097  0.0506  0.1326
 1031SOL    HW114726   0.775   1.455   1.442 -0.0667 -1.0802 -1.1043
 1031SOL    HW214727   0.787   1.352   1.540  2.0082  0.2545 -2.7013
 1032SOL     OW14728   2.692   3.625   7.036  0.5652  0.1102  0.1580
 1032SOL    HW114729   2.759   3.691   7.018  3.3633 -2.2550  1.8615
 1032SOL    HW214730   2.612   3.659   6.998 -0.2027 -2.0986 -0.2025
 1033SOL     OW14731   1.306   0.166  13.200  0.3991 -0.2062 -0.3205
 1033SOL    HW114732   1.282   0.115  13.278 -1.8839  1.7193  0.2546
 1033SOL    HW214733   1.366   0.229  13.241 -0.8910  0.4551  0.5712
 1034SOL     OW14734   1.744   4.105   9.561 -0.0995  0.1218 -0.4607
 1034SOL    HW114735   1.838   4.085   9.562 -0.4926 -1.7665 -0.3349
 1034SOL    HW214736   1.708   4.021   9.590 -0.4596 -0.0126 -1.3060
 1035SOL     OW14737   1.598   4.226  12.763 -0.3331  0.4848 -0.0142
 1035SOL    HW114738   1.621   4.299  12.820 -2.7019  0.5075  0.9290
 1035SOL    HW214739   1.517   4.206  12.810  1.1336 -0.6199  2.0468
 1036SOL     OW14740   0.094   2.966  10.208 -0.1393 -0.2011 -0.0467
 1036SOL    HW114741   0.018   2.945  10.264 -0.9444  1.0850 -0.6391
 1036SOL    HW214742   0.152   2.937  10.279  0.9957 -2.6225 -1.9973
 1037SOL     OW14743   3.237   4.372   5.927 -0.3763 -0.4178  0.1643
 1037SOL    HW114744   3.217   4.377   6.020 -1.4090 -0.7557 -0.0348
 1037SOL    HW214745   3.172   4.305   5.907 -0.6701 -0.3492  0.8804
 1038SOL     OW14746   3.397   0.759   5.956 -0.0248  0.2743  0.0359
 1038SOL    HW114747   3.436   0.838   5.919  1.0221  0.0234  0.6078
 1038SOL    HW214748   3.453   0.739   6.031  0.3491 -0.7349 -0.4978
 1039SOL     OW14749   0.593   2.261   0.664  0.1059 -0.3631 -0.4670
 1039SOL    HW114750   0.580   2.247   0.571  1.4494  0.9068 -0.8348
 1039SOL    HW214751   0.608   2.168   0.681 -0.6441 -0.6566 -1.4150
 1040SOL     OW14752   0.385   0.723   1.744 -0.2580 -0.0302 -0.2347
 1040SOL    HW114753   0.315   0.740   1.680  0.2743  2.5818 -0.0947
 1040SOL    HW214754   0.333   0.685   1.815  2.6752 -3.0677  0.2690
 1041SOL     OW14755   3.989   1.071   5.484  0.1289  0.2146  0.0349
 1041SOL    HW114756   4.030   1.073   5.571  0.7880 -0.2147 -0.2682
 1041SOL    HW214757   4.012   0.982   5.457 -2.7332 -0.1079 -1.3246
 1042SOL     OW14758   2.798   2.640   1.770  0.2434 -0.2943 -0.0847
 1042SOL    HW114759   2.872   2.628   1.829 -0.1066 -1.5252  0.0935
 1042SOL    HW214760   2.814   2.723   1.725 -1.0138  0.5055  0.9271
 1043SOL     OW14761   1.409   3.064  13.120  0.3036  0.0613  0.1024
 1043SOL    HW114762   1.477   3.066  13.052 -1.1752 -0.2848 -1.3726
 1043SOL    HW214763   1.397   3.152  13.154 -1.5418 -1.1578  2.5862
 1044SOL     OW14764   4.082   3.408   1.983  0.4048 -0.3628 -0.2402
 1044SOL    HW114765   4.156   3.459   1.950 -1.2658  1.7445 -0.6696
 1044SOL    HW214766   4.101   3.329   1.932  2.0210 -0.3055  0.2707
 1045SOL     OW14767   3.282   4.703  13.263 -0.2457  0.1487  0.2273
 1045SOL    HW114768   3.213   4.710  13.329 -1.1611 -3.1122 -0.3391
 1045SOL    HW214769   3.313   0.055  13.272 -0.1144  0.1269 -0.0044
 1046SOL     OW14770   1.231   1.903   2.877  0.0921  0.3968  0.3759
 1046SOL    HW114771   1.209   1.811   2.860  1.2216  0.2856 -0.5106
 1046SOL    HW214772   1.265   1.900   2.966 -0.9482 -0.0357  0.7682
 1047SOL     OW14773   4.161   1.497   2.586  0.1182 -0.4334  0.1871
 1047SOL    HW114774   4.151   1.579   2.633  1.2127  0.0481 -0.4225
 1047SOL    HW214775   4.153   1.523   2.494 -1.6924 -0.0259  0.4660
 1048SOL     OW14776   4.227   2.200   2.365  0.3445  0.2607  0.2397
 1048SOL    HW114777   4.256   2.134   2.302  0.5909  0.8790 -0.2981
 1048SOL    HW214778   4.201   2.145   2.439  4.0196 -0.1712  1.2052
 1049SOL     OW14779   3.100   3.190   6.208 -0.0600  0.0971  0.2045
 1049SOL    HW114780   3.104   3.149   6.121 -0.6047 -0.0872  0.2661
 1049SOL    HW214781   3.193   3.202   6.228  0.1686 -0.8542 -0.3146
 1050SOL     OW14782   4.153   3.332   4.907 -0.0165  0.2483  0.0049
 1050SOL    HW114783   4.090   3.295   4.844 -0.1950  0.9380 -0.2222
 1050SOL    HW214784   4.226   3.345   4.846  0.4645 -0.0996  0.5062
 1051SOL     OW14785   2.097   0.147   2.724 -0.2523  0.0192 -0.4262
 1051SOL    HW114786   2.123   0.238   2.712 -0.7974 -0.1332 -2.8291
 1051SOL    HW214787   2.178   0.103   2.750 -1.0943  0.9802  3.8499
 1052SOL     OW14788   2.854   2.019   5.726 -0.6123 -0.2490  0.0406
 1052SOL    HW114789   2.782   2.071   5.762 -2.2109 -0.0394 -3.4731
 1052SOL    HW214790   2.926   2.072   5.761 -0.3897 -1.9169  2.1345
 1053SOL     OW14791   4.065   2.754   5.497  0.1220  0.0079 -0.2071
 1053SOL    HW114792   4.129   2.722   5.560  1.5401 -0.2477 -1.7782
 1053SOL    HW214793   4.119   2.776   5.421 -0.1356  0.1712 -0.3463
 1054SOL     OW14794   2.455   0.545   5.314  0.5262  0.1280  0.6459
 1054SOL    HW114795   2.502   0.507   5.389  2.3127 -1.3567 -1.2242
 1054SOL    HW214796   2.370   0.523   5.353 -0.3294 -0.1478 -1.3828
 1055SOL     OW14797   1.108   0.360  10.722 -0.2159 -0.8248 -0.4980
 1055SOL    HW114798   1.038   0.370  10.787  1.2740  2.0880  0.6356
 1055SOL    HW214799   1.078   0.274  10.690  0.6270 -1.7590  1.2165
 1056SOL     OW14800   2.732   1.270   6.915 -1.1355 -0.5545  0.0331
 1056SOL    HW114801   2.729   1.365   6.922  0.6647 -0.5880  1.2509
 1056SOL    HW214802   2.761   1.238   7.001 -0.3124 -2.9438 -1.1425
 1057SOL     OW14803   2.491   2.659  10.510  0.1497 -0.5510 -0.0290
 1057SOL    HW114804   2.576   2.662  10.554 -0.1418 -2.2267  0.6532
 1057SOL    HW214805   2.514   2.614  10.429  0.7860 -0.9159  0.3529
 1058SOL     OW14806   0.626   1.731   1.016  0.0319 -0.1335 -0.3219
 1058SOL    HW114807   0.562   1.802   1.015  1.3513  1.0708  0.2364
 1058SOL    HW214808   0.681   1.759   1.089  0.6099  1.4352 -1.3582
 1059SOL     OW14809   0.275   2.942  10.401  0.2304 -0.4330 -0.1818
 1059SOL    HW114810   0.318   2.903  10.477 -0.7901  0.7037  0.9798
 1059SOL    HW214811   0.341   3.006  10.375  0.7507 -1.3875 -1.1798
 1060SOL     OW14812   0.967   2.237  17.706 -0.8514  0.2508  0.1492
 1060SOL    HW114813   0.958   2.151  17.747  1.6889 -0.3362 -0.4729
 1060SOL    HW214814   0.938   2.292   0.031  0.7815  0.3612  0.7313
 1061SOL     OW14815   1.111   0.368   6.698 -0.0468  0.1571  0.5588
 1061SOL    HW114816   1.120   0.456   6.661 -1.7354 -0.1525 -0.5737
 1061SOL    HW214817   1.161   0.308   6.644 -0.6874 -1.5621  1.8793
 1062SOL     OW14818   4.022   4.296   8.878  0.1118 -0.0633  0.1084
 1062SOL    HW114819   3.937   4.254   8.871 -0.3772  1.0543 -0.6664
 1062SOL    HW214820   4.043   4.309   8.785  1.9207  1.8492  0.7766
 1063SOL     OW14821   4.409   3.361   6.680 -0.8749 -0.0836  0.9622
 1063SOL    HW114822   4.478   3.336   6.741 -0.0988 -1.4730 -0.4848
 1063SOL    HW214823   4.420   3.286   6.622  0.9340 -0.6580  2.0534
 1064SOL     OW14824   0.175   4.466   2.736 -0.6455  0.2765  0.6051
 1064SOL    HW114825   0.226   4.547   2.743 -1.9240  1.4436 -3.1002
 1064SOL    HW214826   0.129   4.486   2.654  2.9313 -0.5797 -1.6291
 1065SOL     OW14827   1.070   2.079   7.769 -0.6157  0.6121 -0.0857
 1065SOL    HW114828   1.044   2.077   7.861  0.7275 -2.1264  0.2327
 1065SOL    HW214829   0.986   2.062   7.726 -0.2632 -0.4271 -0.3585
 1066SOL     OW14830   1.317   0.796   4.867  0.2773  0.1701 -0.0445
 1066SOL    HW114831   1.310   0.872   4.809 -0.2506  0.5028  0.4488
 1066SOL    HW214832   1.301   0.723   4.808 -1.0513  0.1236  0.3689
 1067SOL     OW14833   1.659   2.384   7.880 -0.1027 -0.3382 -0.1060
 1067SOL    HW114834   1.691   2.415   7.795 -2.8614  0.6813 -0.7675
 1067SOL    HW214835   1.665   2.289   7.866  1.1632 -0.2830  0.0255
 1068SOL     OW14836   1.894   1.499   0.475 -0.0347 -0.2278 -0.1910
 1068SOL    HW114837   1.838   1.434   0.434  0.2820  0.0095 -1.0106
 1068SOL    HW214838   1.868   1.570   0.416 -1.1571 -0.8874 -0.4776
 1069SOL     OW14839   1.819   4.624   5.147 -0.6164  0.1437 -0.0172
 1069SOL    HW114840   1.773   4.545   5.121 -2.3473  1.7039 -1.6258
 1069SOL    HW214841   1.850   4.660   5.064 -0.9483  1.0406  0.2423
 1070SOL     OW14842   0.257   2.436   0.113  0.5531 -0.3449  0.3395
 1070SOL    HW114843   0.187   2.450   0.049  0.6496  1.1983  0.5855
 1070SOL    HW214844   0.329   2.423   0.053 -0.5775 -0.0452 -1.0725
 1071SOL     OW14845   0.418   3.773   2.760 -0.1322  0.2255  0.3490
 1071SOL    HW114846   0.447   3.797   2.673  0.1430 -4.4811 -0.8419
 1071SOL    HW214847   0.487   3.708   2.768 -0.8563 -0.6802 -0.7630
 1072SOL     OW14848   3.959   2.765   4.411 -0.5623  0.3712 -0.1042
 1072SOL    HW114849   3.872   2.765   4.370 -0.2908  1.3197 -0.6673
 1072SOL    HW214850   3.946   2.850   4.452  0.2753 -0.4030  1.7867
 1073SOL     OW14851   3.644   1.957   5.131  0.0484  0.0698  0.3799
 1073SOL    HW114852   3.555   1.925   5.147  0.4692 -2.7975 -2.9595
 1073SOL    HW214853   3.681   1.870   5.147 -1.1382 -0.5402 -0.1540
 1074SOL     OW14854   4.492   2.483   5.668 -0.6914 -0.0383 -0.0751
 1074SOL    HW114855   4.506   2.392   5.643  0.4070 -0.4897  2.1442
 1074SOL    HW214856   4.425   2.512   5.606  0.8706  1.6490 -0.9904
 1075SOL     OW14857   1.319   3.189  13.711  0.0802  0.0212 -0.5740
 1075SOL    HW114858   1.309   3.134  13.633 -2.0026 -1.5466  0.7942
 1075SOL    HW214859   1.395   3.242  13.688  0.3843  0.2378  0.9291
 1076SOL     OW14860   4.320   2.006   8.224  0.8141 -0.4067  0.3374
 1076SOL    HW114861   4.241   1.985   8.175  1.7201 -3.9989  0.3989
 1076SOL    HW214862   4.379   1.947   8.177 -0.2174 -0.4484 -0.9023
 1077SOL     OW14863   1.547   1.636   3.517 -0.5255 -0.5509 -0.2287
 1077SOL    HW114864   1.635   1.601   3.507  0.2391  0.4422  2.8761
 1077SOL    HW214865   1.563   1.704   3.452 -0.6457 -1.7253 -1.4890
 1078SOL     OW14866   2.927   2.096   6.410  0.6044  0.5192  0.5703
 1078SOL    HW114867   2.909   2.184   6.443 -0.1032  0.2432  0.9240
 1078SOL    HW214868   2.913   2.051   6.494  1.9322 -1.9264 -0.5267
 1079SOL     OW14869   1.259   0.272  16.150 -0.1353 -1.0976  0.4958
 1079SOL    HW114870   1.295   0.360  16.165 -1.8912 -0.7332  2.5048
 1079SOL    HW214871   1.199   0.272  16.075 -0.4728  1.7476  0.7664
 1080SOL     OW14872   1.932   0.496   9.351 -0.4531  0.0120 -0.2383
 1080SOL    HW114873   2.003   0.533   9.403 -0.1577 -0.6730 -0.1587
 1080SOL    HW214874   1.915   0.408   9.385  1.9984 -0.3184  0.0933
 1081SOL     OW14875   1.768   1.716  11.765 -0.3487  0.3928  0.2454
 1081SOL    HW114876   1.689   1.713  11.711 -0.5938 -1.7909  0.7040
 1081SOL    HW214877   1.770   1.624  11.792 -0.0691  0.6798  1.1823
 1082SOL     OW14878   1.555   2.248  15.647  0.6504  0.0095 -0.2485
 1082SOL    HW114879   1.520   2.216  15.730 -1.1231 -0.6679 -1.2444
 1082SOL    HW214880   1.636   2.197  15.648  1.4934  1.3217 -1.3981
 1083SOL     OW14881   2.045   0.341  15.400  0.4291 -0.1055  0.4012
 1083SOL    HW114882   1.971   0.380  15.446  0.0857 -0.8372  0.4733
 1083SOL    HW214883   2.015   0.304  15.316  1.2598  0.8368 -0.3148
 1084SOL     OW14884   2.538   2.677  10.007 -0.0343 -0.2779 -0.2371
 1084SOL    HW114885   2.486   2.705   9.932 -2.3475  0.4174  1.6372
 1084SOL    HW214886   2.562   2.763  10.042 -0.2708 -0.6524  0.8666
 1085SOL     OW14887   2.339   3.310   6.609  0.4085 -0.0556  0.5293
 1085SOL    HW114888   2.278   3.342   6.542  2.1378 -0.4587 -1.2712
 1085SOL    HW214889   2.321   3.353   6.692  0.3106  0.9786 -0.0312
 1086SOL     OW14890   0.093   2.585   0.975  0.0127 -0.0875  0.4410
 1086SOL    HW114891   0.174   2.582   0.925  0.6413 -0.1136  1.4487
 1086SOL    HW214892   0.051   2.508   0.938 -0.4319 -0.2883  1.3576
 1087SOL     OW14893   2.056   0.615   2.449 -0.1601  0.6572  0.6551
 1087SOL    HW114894   2.089   0.603   2.360 -1.0989 -5.0343  1.1075
 1087SOL    HW214895   2.013   0.700   2.444  1.2880  1.4394  1.4118
 1088SOL     OW14896   4.072   0.634   1.241 -0.2430  0.1803  0.5379
 1088SOL    HW114897   4.007   0.565   1.255 -1.0047  1.0762  1.4517
 1088SOL    HW214898   4.101   0.656   1.330  1.6486 -0.2075  0.0156
 1089SOL     OW14899   2.687   2.879   7.189  1.0174  0.1816  0.5703
 1089SOL    HW114900   2.722   2.795   7.160 -1.7001 -1.2622  1.5931
 1089SOL    HW214901   2.772   2.920   7.206  1.8080 -1.8778  1.5364
 1090SOL     OW14902   0.398   2.028  17.291 -0.4046 -0.2100 -0.5829
 1090SOL    HW114903   0.415   1.991  17.205  0.3594 -0.0863 -0.4864
 1090SOL    HW214904   0.399   2.120  17.263 -2.6933 -0.6761 -2.1561
 1091SOL     OW14905   2.628   0.854   6.894 -0.3020  0.0069  0.0289
 1091SOL    HW114906   2.681   0.775   6.889  1.7971  1.2163  2.5701
 1091SOL    HW214907   2.689   0.899   6.953 -0.6081  0.1917  0.2093
 1092SOL     OW14908   2.178   1.205   3.468 -0.3261 -0.6056  0.2768
 1092SOL    HW114909   2.188   1.297   3.492 -1.0025 -0.2174 -0.9512
 1092SOL    HW214910   2.144   1.167   3.549 -0.2456 -1.0972  0.0811
 1093SOL     OW14911   4.071   2.358   7.100 -0.3230  0.1925 -0.1619
 1093SOL    HW114912   4.154   2.346   7.054 -0.4955  1.1086 -0.7040
 1093SOL    HW214913   4.103   2.334   7.188 -0.3722  0.9140  0.0534
 1094SOL     OW14914   1.342   2.628   1.913 -0.1083 -0.4772  0.3663
 1094SOL    HW114915   1.290   2.549   1.924  0.8753 -1.1109  0.4650
 1094SOL    HW214916   1.322   2.652   1.822  1.9500  1.3132  0.3839
 1095SOL     OW14917   2.803   0.969  14.003  0.4971 -0.2128 -0.0522
 1095SOL    HW114918   2.739   0.922  14.056 -1.0827 -0.1676 -1.9476
 1095SOL    HW214919   2.874   0.958  14.067 -0.1827 -2.0041  0.3923
 1096SOL     OW14920   4.005   0.549   0.992 -0.2099  0.4054  0.6644
 1096SOL    HW114921   4.092   0.531   0.955 -0.8950 -1.4231 -0.0170
 1096SOL    HW214922   4.032   0.583   1.078  0.7432 -0.6874  0.7929
 1097SOL     OW14923   0.527   0.954  16.336 -0.3623  0.1962  0.2145
 1097SOL    HW114924   0.491   0.955  16.424 -0.5288  2.1714  0.1352
 1097SOL    HW214925   0.602   0.896  16.348  0.6989  1.1581 -1.6926
 1098SOL     OW14926   2.102   2.290   4.870  0.6463  0.3253 -0.4436
 1098SOL    HW114927   2.165   2.333   4.812  0.2855  0.0630 -1.0298
 1098SOL    HW214928   2.029   2.324   4.819  0.9312  2.1778  0.3938
 1099SOL     OW14929   4.480   2.747   8.459  0.0505 -0.0621 -0.2604
 1099SOL    HW114930   4.432   2.675   8.501 -2.1545  0.7987 -1.2952
 1099SOL    HW214931   4.413   2.814   8.470 -0.0902  0.2310 -3.1100
 1100SOL     OW14932   1.278   2.177   7.340  0.8450 -0.3460  0.2742
 1100SOL    HW114933   1.250   2.098   7.294 -1.4204  1.3374 -1.2443
 1100SOL    HW214934   1.350   2.203   7.281 -1.4310  0.5247 -2.1113
 1101SOL     OW14935   4.019   0.013   2.043 -0.4545  0.2118  0.4598
 1101SOL    HW114936   4.106   0.011   2.084  0.0385 -2.3545 -0.7424
 1101SOL    HW214937   3.980   4.673   2.083 -0.9029 -0.0185 -0.4319
 1102SOL     OW14938   2.308   4.142  11.795  0.2670 -0.0025  0.5195
 1102SOL    HW114939   2.287   4.235  11.798  0.4316  0.0156  1.1930
 1102SOL    HW214940   2.357   4.131  11.877  0.8267  3.8974  0.6882
 1103SOL     OW14941   3.736   2.340   3.970  0.0250  0.1135  0.1915
 1103SOL    HW114942   3.733   2.399   3.895  0.2335 -1.0045 -0.6915
 1103SOL    HW214943   3.827   2.340   3.999  0.9697  1.4777 -2.8102
 1104SOL     OW14944   4.498   0.643  15.374  0.0052 -0.7310  0.0574
 1104SOL    HW114945   4.514   0.699  15.450  2.9874 -0.6819 -0.6102
 1104SOL    HW214946   4.583   0.644  15.330 -0.3973  0.9972 -0.6883
 1105SOL     OW14947   0.471   0.769   2.055  0.1574  0.1028  0.1833
 1105SOL    HW114948   0.376   0.775   2.055  0.0230 -1.7445 -2.5461
 1105SOL    HW214949   0.487   0.716   1.977 -3.8504 -0.0311 -0.5256
 1106SOL     OW14950   0.953   4.009  10.488  0.2076  0.0246 -0.4970
 1106SOL    HW114951   0.928   3.942  10.551  0.2572  0.0761 -0.4226
 1106SOL    HW214952   0.899   4.079  10.525 -0.3471 -0.5496 -0.2248
 1107SOL     OW14953   3.311   4.515   4.308 -0.1410  0.0797 -0.7265
 1107SOL    HW114954   3.245   4.453   4.278  0.4959 -1.8465  1.8735
 1107SOL    HW214955   3.307   4.499   4.402  1.8533 -0.5040 -0.7440
 1108SOL     OW14956   0.348   0.840   6.342 -0.0037  0.0783  0.2194
 1108SOL    HW114957   0.403   0.912   6.373  1.7498 -2.1322  2.2301
 1108SOL    HW214958   0.321   0.805   6.427  0.6251 -0.7657  0.0730
 1109SOL     OW14959   4.285   3.857   8.113 -0.5365 -0.6368 -0.4759
 1109SOL    HW114960   4.371   3.832   8.081  1.1052  0.8280  2.7130
 1109SOL    HW214961   4.255   3.913   8.042 -0.6276 -0.3907 -0.2473
 1110SOL     OW14962   1.226   2.012  16.512  0.2755 -0.2239 -0.0689
 1110SOL    HW114963   1.206   2.092  16.462 -0.6081  0.1360  0.8608
 1110SOL    HW214964   1.317   2.018  16.541  0.4920 -2.4082 -0.3182
 1111SOL     OW14965   2.052   1.569   3.650  0.0189  0.2831  0.5284
 1111SOL    HW114966   2.051   1.647   3.705  1.8968  0.4522  0.3025
 1111SOL    HW214967   1.963   1.564   3.616  0.1581  0.1192  0.1833
 1112SOL     OW14968   1.968   0.397   0.152 -0.3228 -1.1624 -0.4842
 1112SOL    HW114969   1.976   0.413   0.058  0.8448 -0.1191 -0.1930
 1112SOL    HW214970   1.932   0.480   0.181 -0.8932 -0.7743 -2.3084
 1113SOL     OW14971   4.175   4.647   2.537  0.2830  0.2183  0.1925
 1113SOL    HW114972   4.123   4.639   2.617 -1.1132  0.4084 -0.6776
 1113SOL    HW214973   4.103   4.656   2.474 -0.3348  0.1898  0.8886
 1114SOL     OW14974   0.640   2.773  12.542  0.7752  0.0282  0.2598
 1114SOL    HW114975   0.572   2.837  12.521 -0.5078 -0.3691  3.1899
 1114SOL    HW214976   0.596   2.689  12.537 -1.8629  1.4608 -0.5995
 1115SOL     OW14977   2.413   1.843   0.504  0.6503  0.1908  0.5247
 1115SOL    HW114978   2.416   1.803   0.418  0.2278  0.7653  0.2408
 1115SOL    HW214979   2.342   1.903   0.482  0.0306 -0.0506  1.8370
 1116SOL     OW14980   4.412   4.419   4.789  0.0771 -0.6997 -0.1575
 1116SOL    HW114981   4.377   4.458   4.709 -0.0512  1.1061  0.7833
 1116SOL    HW214982   4.394   4.490   4.851  2.7874 -0.1294  0.0007
 1117SOL     OW14983   1.725   2.343   2.749 -0.6559 -0.1982  0.3309
 1117SOL    HW114984   1.762   2.275   2.694 -0.7928  0.5060 -0.6325
 1117SOL    HW214985   1.722   2.302   2.835 -3.4932 -0.7115 -0.0381
 1118SOL     OW14986   0.139   2.326  11.899  0.2610  0.1936 -0.2764
 1118SOL    HW114987   0.191   2.406  11.888  1.4032 -0.3722  0.9051
 1118SOL    HW214988   0.180   2.268  11.836 -3.0024 -0.8627 -1.4035
 1119SOL     OW14989   4.280   3.433  17.226 -0.0148  0.3639  0.1474
 1119SOL    HW114990   4.233   3.511  17.256  0.0328  0.1212  0.8464
 1119SOL    HW214991   4.367   3.465  17.249 -0.3529  0.7380  0.9183
 1120SOL     OW14992   2.925   1.601   8.099 -0.2454 -0.1558  0.2748
 1120SOL    HW114993   2.928   1.536   8.028 -0.8557 -0.2068  0.2914
 1120SOL    HW214994   3.015   1.590   8.127  0.4553  1.2935 -1.3684
 1121SOL     OW14995   2.422   0.114   6.614  0.0718  0.3125  0.1819
 1121SOL    HW114996   2.332   0.135   6.636 -0.6462 -2.0342 -0.5511
 1121SOL    HW214997   2.465   0.199   6.625 -0.5643  0.5793  0.5419
 1122SOL     OW14998   3.595   3.560  16.525  0.1554  0.3666  0.6587
 1122SOL    HW114999   3.579   3.607  16.443 -1.5873 -0.0100  0.7693
 1122SOL    HW215000   3.642   3.630  16.569  0.5283  0.2322  0.4759
 1123SOL     OW15001   2.149   1.556   2.976 -0.1463 -0.2741 -0.1615
 1123SOL    HW115002   2.068   1.547   2.927  0.0253 -0.9713 -0.3247
 1123SOL    HW215003   2.157   1.651   2.969  2.0887 -0.4474  0.0915
 1124SOL     OW15004   1.018   1.592   6.179 -0.3054 -0.3759 -0.6084
 1124SOL    HW115005   0.985   1.502   6.191  1.2143 -0.8045  0.2265
 1124SOL    HW215006   1.025   1.630   6.266  3.0104 -0.6587 -0.7502
 1125SOL     OW15007   0.280   2.387   5.645  0.4303 -0.2098  0.3329
 1125SOL    HW115008   0.299   2.477   5.618  0.0164 -0.1057  0.3734
 1125SOL    HW215009   0.334   2.334   5.587  0.7492  0.5426 -0.0642
 1126SOL     OW15010   3.684   0.558   5.677  0.5545  0.0661  0.1649
 1126SOL    HW115011   3.719   0.606   5.752  0.9826 -1.0039  0.6536
 1126SOL    HW215012   3.762   0.528   5.631  0.3656 -1.1259  0.6224
 1127SOL     OW15013   4.098   1.695   3.255 -0.4419 -0.2796 -0.1167
 1127SOL    HW115014   4.110   1.769   3.315  0.4002  0.3926 -1.1192
 1127SOL    HW215015   4.099   1.623   3.319  0.7667  0.4878  0.7380
 1128SOL     OW15016   0.777   2.988   7.648 -0.4318 -0.1780 -0.3131
 1128SOL    HW115017   0.711   2.932   7.689 -1.0677 -0.1667 -1.3068
 1128SOL    HW215018   0.843   2.920   7.637  0.0525 -0.1282  2.4199
 1129SOL     OW15019   1.631   0.401  14.442 -0.1945 -0.1133 -0.0283
 1129SOL    HW115020   1.564   0.470  14.442  1.0160  1.0519 -0.6108
 1129SOL    HW215021   1.583   0.329  14.483 -0.0396 -0.6452 -0.7908
 1130SOL     OW15022   2.564   2.932  10.682 -0.4331 -0.2184  0.0664
 1130SOL    HW115023   2.632   2.980  10.730  0.5564 -0.8330 -0.7305
 1130SOL    HW215024   2.545   2.864  10.747 -0.1993 -2.1978 -1.9246
 1131SOL     OW15025   0.339   1.080  13.636  0.8357  0.1169 -0.3226
 1131SOL    HW115026   0.375   1.121  13.715  2.4507 -2.0300  0.0479
 1131SOL    HW215027   0.386   0.997  13.633 -1.3608 -1.0789 -1.6450
 1132SOL     OW15028   4.638   2.278   4.033 -0.5674 -1.0047 -0.6393
 1132SOL    HW115029   4.634   2.209   4.100 -5.0473  1.2066  1.3699
 1132SOL    HW215030   4.569   2.336   4.065 -0.7128 -2.3505  1.5190
 1133SOL     OW15031   2.337   1.851   8.519  0.0526  0.1687 -0.5359
 1133SOL    HW115032   2.302   1.793   8.587  0.0883 -1.9231 -2.2790
 1133SOL    HW215033   2.324   1.805   8.436 -0.7739 -0.5792  0.0001
 1134SOL     OW15034   0.987   0.196   4.897 -0.5389  0.2845 -0.1573
 1134SOL    HW115035   1.043   0.266   4.932 -0.4483 -0.2254  0.6967
 1134SOL    HW215036   0.946   0.159   4.975  0.5140 -0.8069 -0.1294
 1135SOL     OW15037   1.273   0.238   1.783 -0.0058 -0.3069  0.1467
 1135SOL    HW115038   1.200   0.225   1.844 -2.0632  0.4285 -2.1969
 1135SOL    HW215039   1.346   0.181   1.809  1.8381  1.4058 -1.2822
 1136SOL     OW15040   2.933   0.267   6.412 -0.2899 -0.3033 -0.1109
 1136SOL    HW115041   3.011   0.214   6.395  0.1246  0.4278 -0.4924
 1136SOL    HW215042   2.959   0.340   6.469 -2.4614  1.0471 -0.8279
 1137SOL     OW15043   3.313   2.077   3.021 -0.6144  0.0366 -0.0795
 1137SOL    HW115044   3.265   2.024   2.957  0.7198  0.4722 -1.4333
 1137SOL    HW215045   3.269   2.052   3.102  1.0000  0.0291  0.7786
 1138SOL     OW15046   2.789   0.549  13.927  0.8291  0.1806  0.2221
 1138SOL    HW115047   2.874   0.587  13.948  0.9258  1.4624 -2.5599
 1138SOL    HW215048   2.734   0.624  13.948  1.1212 -0.0051  1.6501
 1139SOL     OW15049   1.428   2.564  15.468 -0.4213 -0.2547  0.2360
 1139SOL    HW115050   1.415   2.543  15.376 -0.1187  0.8738 -0.0611
 1139SOL    HW215051   1.431   2.660  15.468 -0.7162 -0.2464  0.7953
 1140SOL     OW15052   2.492   1.577  13.949  0.5208 -0.1543 -0.1802
 1140SOL    HW115053   2.564   1.555  13.889  1.2508  1.9546 -0.0721
 1140SOL    HW215054   2.482   1.489  13.985  0.5223 -0.1594 -0.1923
 1141SOL     OW15055   2.342   1.142   3.252  0.2916 -0.8612  0.4812
 1141SOL    HW115056   2.375   1.052   3.256  1.6807 -0.4902 -2.4406
 1141SOL    HW215057   2.284   1.142   3.328 -1.5125 -1.6766 -0.8862
 1142SOL     OW15058   3.823   4.276   9.117  0.0864  0.0948 -0.1238
 1142SOL    HW115059   3.819   4.241   9.028  0.0670  0.3126 -0.2083
 1142SOL    HW215060   3.917   4.285   9.131 -0.0792  0.4235  0.7241
 1143SOL     OW15061   2.699   3.710   8.333 -0.3169  0.3161  1.0398
 1143SOL    HW115062   2.732   3.659   8.259 -2.7570 -0.7416  0.6915
 1143SOL    HW215063   2.667   3.786   8.284 -2.1140  0.3726  2.3145
 1144SOL     OW15064   1.388   3.703   7.622  0.0388 -0.2218 -0.1200
 1144SOL    HW115065   1.429   3.769   7.678 -1.2506 -0.7030  1.3772
 1144SOL    HW215066   1.318   3.757   7.585 -1.1762 -0.7975  1.3348
 1145SOL     OW15067   1.462   1.968   3.324  0.1186 -0.1260  0.5267
 1145SOL    HW115068   1.548   1.934   3.350  0.4616  0.0066 -0.4242
 1145SOL    HW215069   1.444   2.035   3.390 -0.8081  0.5403 -0.4068
 1146SOL     OW15070   1.029   3.028   6.054  0.1894 -0.0366 -0.2122
 1146SOL    HW115071   0.980   3.087   6.111 -1.4544 -0.7952 -0.8360
 1146SOL    HW215072   1.094   2.984   6.109  0.8527 -0.0214 -0.9807
 1147SOL     OW15073   4.165   0.097  12.705  0.3681  0.2693  0.3364
 1147SOL    HW115074   4.118   0.014  12.721  1.6511 -0.7078 -0.9368
 1147SOL    HW215075   4.146   0.121  12.795 -0.3511  1.7720 -0.2188
 1148SOL     OW15076   1.352   3.710  14.411 -0.2347  0.4841 -0.4766
 1148SOL    HW115077   1.390   3.795  14.389 -1.9233  1.3387 -0.0801
 1148SOL    HW215078   1.419   3.651  14.376 -2.6123 -1.2522 -2.1360
 1149SOL     OW15079   1.372   2.091  12.193  0.0306 -0.4437 -0.5096
 1149SOL    HW115080   1.347   2.127  12.278 -0.0770 -1.6111 -0.0395
 1149SOL    HW215081   1.289   2.083  12.148  0.1394 -1.2457 -0.5719
 1150SOL     OW15082   2.641   3.501  16.624 -0.5144 -0.3116 -0.0757
 1150SOL    HW115083   2.632   3.596  16.610  0.4190 -0.4889 -1.7714
 1150SOL    HW215084   2.735   3.499  16.638 -0.6005 -1.4619  0.3301
 1151SOL     OW15085   4.562   1.683   5.068 -0.2847  0.4009 -0.0106
 1151SOL    HW115086   4.548   1.652   4.978 -0.8594  0.0394  0.2035
 1151SOL    HW215087   4.545   1.606   5.122 -0.9468  0.2442 -0.4401
 1152SOL     OW15088   1.388   0.708   8.465 -0.2633  0.0312  0.1039
 1152SOL    HW115089   1.482   0.712   8.451 -0.2079 -1.0209  0.1581
 1152SOL    HW215090   1.387   0.767   8.541  1.1257  1.0964 -0.7136
 1153SOL     OW15091   1.661   0.449   7.145 -0.3531  0.7752  0.0987
 1153SOL    HW115092   1.584   0.476   7.195 -0.1698 -0.5520  1.0951
 1153SOL    HW215093   1.663   0.528   7.090 -1.6093  0.1919 -0.7905
 1154SOL     OW15094   1.067   1.633   6.921 -0.7294  0.0874 -0.0870
 1154SOL    HW115095   1.126   1.687   6.974 -1.2240  1.9321 -1.3965
 1154SOL    HW215096   1.062   1.695   6.848  1.3671 -2.1753 -2.1545
 1155SOL     OW15097   1.699   0.677   8.468 -0.3600  0.7475  0.3332
 1155SOL    HW115098   1.733   0.727   8.542  1.5931 -0.0649 -0.0273
 1155SOL    HW215099   1.713   0.736   8.394  1.2349 -0.0552 -0.0028
 1156SOL     OW15100   4.052   4.586  13.016  0.1154 -0.1802 -0.5121
 1156SOL    HW115101   4.010   4.514  12.969  0.6611 -1.1092  0.4097
 1156SOL    HW215102   3.997   4.588  13.094  0.3229 -1.5524 -0.3154
 1157SOL     OW15103   3.098   1.886   9.186  0.1472  0.1489 -0.9207
 1157SOL    HW115104   3.192   1.901   9.178  0.2092  1.4146  2.1767
 1157SOL    HW215105   3.085   1.804   9.138  2.9373 -1.2590  0.6835
 1158SOL     OW15106   1.739   0.564  16.629 -0.2552  0.0386  0.5821
 1158SOL    HW115107   1.786   0.575  16.712  0.1197 -1.4575  0.5677
 1158SOL    HW215108   1.690   0.487  16.656  0.5494 -0.9999 -0.9534
 1159SOL     OW15109   1.864   4.697   2.369 -0.8495 -0.1919  0.3246
 1159SOL    HW115110   1.853   4.687   2.463  0.2860 -1.9008  0.2791
 1159SOL    HW215111   1.948   0.006   2.373 -0.5808 -0.5770 -0.7881
 1160SOL     OW15112   2.910   1.871   4.626 -0.8563  0.1957 -0.0558
 1160SOL    HW115113   2.959   1.927   4.566  1.5431 -2.1433 -0.3030
 1160SOL    HW215114   2.905   1.923   4.707  0.0020 -0.8801  0.6927
 1161SOL     OW15115   3.407   0.469  12.933  0.0867 -0.1655 -0.0178
 1161SOL    HW115116   3.456   0.475  13.015 -1.0689 -2.9962  0.8980
 1161SOL    HW215117   3.419   0.559  12.904  0.3519  0.0600  0.7849
 1162SOL     OW15118   3.536   0.387   9.393  0.5614  0.1671  0.0745
 1162SOL    HW115119   3.463   0.444   9.418  2.1393  1.6447  1.2615
 1162SOL    HW215120   3.534   0.316   9.458  0.9906  0.2040  0.1259
 1163SOL     OW15121   0.127   4.280   9.675  0.1591 -0.3360  0.1077
 1163SOL    HW115122   0.146   4.225   9.598 -1.0559  0.4726 -0.7631
 1163SOL    HW215123   0.042   4.243   9.698 -0.9284  0.9420 -1.8776
 1164SOL     OW15124   2.870   2.784   3.302 -0.1288  0.0162 -0.7803
 1164SOL    HW115125   2.913   2.870   3.300 -0.5016  0.2179 -0.1341
 1164SOL    HW215126   2.945   2.732   3.272 -0.3279 -0.4653 -0.4593
 1165SOL     OW15127   2.203   0.914   1.067  0.7756 -0.0588 -0.7470
 1165SOL    HW115128   2.145   0.962   1.125  2.0874  1.6972 -0.8779
 1165SOL    HW215129   2.145   0.842   1.041  0.5740 -0.5198  0.9676
 1166SOL     OW15130   0.904   0.137  12.948  0.1525  0.1475  0.3453
 1166SOL    HW115131   0.897   0.232  12.964 -1.3164  0.0429  0.3456
 1166SOL    HW215132   0.812   0.113  12.951 -0.0235  0.7080 -0.5990
 1167SOL     OW15133   3.947   2.282  10.933 -0.5138 -0.5090  0.1930
 1167SOL    HW115134   3.933   2.188  10.949 -0.9289 -0.7375 -1.4424
 1167SOL    HW215135   3.855   2.309  10.934  0.6248  2.9110  5.8923
 1168SOL     OW15136   0.358   0.831   3.162  0.0532 -0.2838  0.8970
 1168SOL    HW115137   0.422   0.852   3.231 -1.0636  2.5228  1.0984
 1168SOL    HW215138   0.300   0.771   3.209  0.7016 -0.9905  0.7870
 1169SOL     OW15139   3.178   4.318   7.048 -0.4141  0.3866 -0.1436
 1169SOL    HW115140   3.130   4.396   7.076  1.2378  1.2217  0.4044
 1169SOL    HW215141   3.181   4.271   7.131  3.1856  0.5203 -0.1894
 1170SOL     OW15142   3.375   0.964   0.589 -0.2075  0.3730 -0.1722
 1170SOL    HW115143   3.302   0.948   0.648  0.3803 -0.2314  0.3952
 1170SOL    HW215144   3.324   0.986   0.512 -0.5770  2.1131  0.5669
 1171SOL     OW15145   3.776   1.195  15.040 -0.3825 -0.3933  0.2733
 1171SOL    HW115146   3.748   1.105  15.020  0.0517 -1.0017  2.3335
 1171SOL    HW215147   3.760   1.184  15.134 -0.4846  1.8881  0.5161
 1172SOL     OW15148   1.711   3.620   2.058 -0.0041  0.1344  0.1795
 1172SOL    HW115149   1.701   3.581   1.971 -1.3862  0.3868  0.2263
 1172SOL    HW215150   1.803   3.644   2.049  0.7425 -2.1167  1.7834
 1173SOL     OW15151   3.823   1.417   8.332 -0.3793  0.1620 -0.0687
 1173SOL    HW115152   3.859   1.329   8.322  2.3499  1.0391  2.1814
 1173SOL    HW215153   3.734   1.394   8.357 -1.1293 -0.1439 -3.0008
 1174SOL     OW15154   1.879   3.415   0.164  0.3331  0.4346 -0.5771
 1174SOL    HW115155   1.839   3.452   0.086 -0.0048  1.0433 -0.1176
 1174SOL    HW215156   1.966   3.454   0.163  0.9259 -0.8043  1.9198
 1175SOL     OW15157   1.192   4.285   4.345 -0.0744  0.0391  0.1776
 1175SOL    HW115158   1.097   4.276   4.337  0.2344 -0.2568 -3.1162
 1175SOL    HW215159   1.223   4.206   4.389  1.8354  0.8909  0.3544
 1176SOL     OW15160   0.638   1.815   2.848  0.0555  0.2670 -0.4270
 1176SOL    HW115161   0.634   1.886   2.912 -2.3120 -0.3534  0.0898
 1176SOL    HW215162   0.728   1.833   2.818 -0.3644  1.8582 -0.6943
 1177SOL     OW15163   0.382   0.276   3.401 -0.3080  0.4298  0.2846
 1177SOL    HW115164   0.331   0.305   3.325 -0.5115  1.3498  0.7666
 1177SOL    HW215165   0.413   0.189   3.376 -0.6554  0.5095 -0.4303
 1178SOL     OW15166   3.150   0.829   9.713  0.1246  0.0205 -0.3437
 1178SOL    HW115167   3.146   0.917   9.676  1.3099  0.6965  1.1261
 1178SOL    HW215168   3.238   0.796   9.695  0.8521  1.4149  0.5828
 1179SOL     OW15169   2.521   1.206   8.403 -0.0742  0.0858  0.2442
 1179SOL    HW115170   2.580   1.231   8.475 -1.0506  0.1713  1.0091
 1179SOL    HW215171   2.519   1.284   8.349 -0.5207 -0.5330 -0.6329
 1180SOL     OW15172   4.048   3.139   3.690  0.2661  0.5632 -0.6395
 1180SOL    HW115173   4.093   3.056   3.706 -0.2946  0.0804 -1.5672
 1180SOL    HW215174   3.993   3.150   3.767 -1.4091 -1.0714 -1.5976
 1181SOL     OW15175   0.857   2.647   2.774 -0.5311 -0.0781 -0.0292
 1181SOL    HW115176   0.791   2.663   2.841  1.3481  0.0698  1.7862
 1181SOL    HW215177   0.801   2.596   2.716  0.0268  1.3347 -1.7963
 1182SOL     OW15178   1.191   1.383  16.915  0.0236  0.1446  0.3428
 1182SOL    HW115179   1.254   1.423  16.856  1.6872 -0.1047  1.9578
 1182SOL    HW215180   1.187   1.452  16.982 -0.1208 -0.7848  1.2785
 1183SOL     OW15181   2.985   4.364   8.002 -0.1650 -0.1035  0.1469
 1183SOL    HW115182   2.923   4.359   7.930  3.5510  1.5967 -3.1964
 1183SOL    HW215183   2.931   4.347   8.079  0.6437 -2.3161  0.2511
 1184SOL     OW15184   2.993   0.034   4.754 -0.3134 -0.1637  0.6402
 1184SOL    HW115185   3.063   0.098   4.748  0.5290 -1.1121  0.3382
 1184SOL    HW215186   3.037   4.688   4.738 -1.0852 -0.0656 -1.9319
 1185SOL     OW15187   0.801   2.901   0.188 -0.1984 -0.1538 -0.8370
 1185SOL    HW115188   0.795   2.938   0.100 -0.4326  2.0501  0.1179
 1185SOL    HW215189   0.831   2.812   0.170 -1.0831 -0.5634 -0.3186
 1186SOL     OW15190   3.646   4.418   1.715 -0.2031  0.1664  0.1421
 1186SOL    HW115191   3.668   4.499   1.762  1.5267 -1.0368  1.4081
 1186SOL    HW215192   3.708   4.355   1.750 -0.4344 -0.0983  0.0714
 1187SOL     OW15193   4.694   4.698   2.760 -0.2564  0.1349  0.3760
 1187SOL    HW115194   4.612   4.700   2.711  0.6807  2.2982 -1.1287
 1187SOL    HW215195   4.679   4.646   2.839  1.7098 -2.1867 -0.7650
 1188SOL     OW15196   4.195   2.013   6.531 -0.1382 -0.1860  0.0589
 1188SOL    HW115197   4.173   2.097   6.570  2.7442  0.7976 -0.4607
 1188SOL    HW215198   4.146   2.023   6.449 -0.1432 -0.1737  0.0634
 1189SOL     OW15199   0.404   3.890   3.019 -0.1231  0.1785  0.4233
 1189SOL    HW115200   0.320   3.845   3.013 -0.5378  0.6701  2.3513
 1189SOL    HW215201   0.438   3.874   2.931 -1.6416 -0.6308 -0.0043
 1190SOL     OW15202   4.193   2.795   5.983  0.2722  0.1872  0.0599
 1190SOL    HW115203   4.230   2.816   5.897 -0.1237 -2.4013 -0.7612
 1190SOL    HW215204   4.114   2.757   5.946  0.5026  1.9597 -2.2640
 1191SOL     OW15205   0.162   4.285   6.196 -0.7807  0.3851 -0.1492
 1191SOL    HW115206   0.088   4.331   6.237 -1.1226 -1.9175  1.7667
 1191SOL    HW215207   0.234   4.346   6.214 -1.1055  1.2823 -1.8122
 1192SOL     OW15208   3.809   1.867   2.172  0.1402  0.2115 -0.2970
 1192SOL    HW115209   3.744   1.797   2.161  0.9567 -0.2607 -2.0477
 1192SOL    HW215210   3.758   1.938   2.133 -0.6256 -0.1310  0.0860
 1193SOL     OW15211   2.159   4.716   9.240  0.4796  0.0439  0.6081
 1193SOL    HW115212   2.081   4.664   9.224 -1.1445  2.1762  1.6274
 1193SOL    HW215213   2.217   4.646   9.269  2.2694  1.4477  0.4142
 1194SOL     OW15214   0.467   4.712   8.122 -0.1058 -0.0584 -0.5204
 1194SOL    HW115215   0.500   0.057   8.088  2.0442 -1.2798 -1.4198
 1194SOL    HW215216   0.485   4.714   8.216 -0.2504 -1.5998 -0.4508
 1195SOL     OW15217   3.328   0.067  10.525  0.6009 -0.3935  0.2719
 1195SOL    HW115218   3.355   0.053  10.616 -0.4726  1.2101  0.8282
 1195SOL    HW215219   3.406   0.038  10.478  0.6677  2.2265 -1.2307
 1196SOL     OW15220   3.462   2.546   2.251  0.1660 -0.0714  0.2162
 1196SOL    HW115221   3.540   2.599   2.231  2.2360 -3.1620  0.0408
 1196SOL    HW215222   3.469   2.530   2.345 -0.3242 -2.1114 -0.1152
 1197SOL     OW15223   0.254   0.134   6.780  0.8840  0.2348  0.2335
 1197SOL    HW115224   0.259   0.042   6.754 -1.7616  0.1813 -0.1126
 1197SOL    HW215225   0.302   0.135   6.862  0.6324 -0.9076  0.4055
 1198SOL     OW15226   1.568   1.381   1.364 -0.4533 -0.0100 -0.5940
 1198SOL    HW115227   1.637   1.414   1.306  0.0595 -1.5763 -0.8586
 1198SOL    HW215228   1.621   1.341   1.433 -0.7761  0.0433 -0.3178
 1199SOL     OW15229   1.885   0.533  12.114 -0.5613 -0.4186  0.0040
 1199SOL    HW115230   1.822   0.586  12.162  1.0192  1.3767  0.0704
 1199SOL    HW215231   1.869   0.449  12.158 -1.1648 -0.0356  0.5112
 1200SOL     OW15232   1.619   3.136  10.603  0.1585  0.5551 -0.4718
 1200SOL    HW115233   1.632   3.042  10.598 -1.5793  0.3018 -0.0709
 1200SOL    HW215234   1.642   3.167  10.516  1.5736 -0.0842 -0.3234
 1201SOL     OW15235   0.262   3.086   8.868 -0.5769 -0.3312  0.2908
 1201SOL    HW115236   0.285   3.020   8.802 -2.7127 -1.8274  1.0575
 1201SOL    HW215237   0.344   3.088   8.917  0.7794 -2.1174 -1.8886
 1202SOL     OW15238   1.245   0.391   6.314  0.3284  0.7751 -0.8586
 1202SOL    HW115239   1.286   0.440   6.242  1.1584 -0.8010 -1.4530
 1202SOL    HW215240   1.233   0.302   6.281  2.0902  1.2555 -2.7910
 1203SOL     OW15241   4.598   2.816   1.635  0.7434  0.0745  0.1544
 1203SOL    HW115242   4.655   2.844   1.564  1.4306 -3.6329 -0.7694
 1203SOL    HW215243   4.665   2.826   1.703  0.1707  2.1125  0.3990
 1204SOL     OW15244   0.667   0.195   8.260  0.0163  0.0235 -0.0050
 1204SOL    HW115245   0.617   0.122   8.297  1.8282 -0.6934  1.0533
 1204SOL    HW215246   0.647   0.260   8.328  0.7698  2.5332 -2.2353
 1205SOL     OW15247   0.040   2.817   5.819 -0.3601  0.3020 -0.3588
 1205SOL    HW115248   0.039   2.784   5.730 -0.3501  1.1327 -0.6694
 1205SOL    HW215249   0.054   2.732   5.860  0.3162  0.9429  0.7461
 1206SOL     OW15250   1.785   4.170   3.895 -0.2694 -0.0121  0.0113
 1206SOL    HW115251   1.799   4.081   3.863  1.7226  0.4473 -0.3663
 1206SOL    HW215252   1.874   4.203   3.889 -0.7782  0.7141 -3.7200
 1207SOL     OW15253   4.688   4.031  17.473 -0.8462 -0.9913 -0.2537
 1207SOL    HW115254   4.699   3.958  17.534  0.1418  0.4333  1.2916
 1207SOL    HW215255   4.648   4.097  17.529  1.9496  0.1490  0.4302
 1208SOL     OW15256   4.205   1.259   2.956  0.7934 -0.5468  0.1459
 1208SOL    HW115257   4.282   1.266   3.013 -0.9102 -0.6448  2.4614
 1208SOL    HW215258   4.173   1.347   2.978  1.2921 -0.9000  2.3182
 1209SOL     OW15259   4.114   4.255   6.302 -0.3447  0.2124 -0.0634
 1209SOL    HW115260   4.149   4.214   6.381  0.9118  2.0497  0.3287
 1209SOL    HW215261   4.091   4.168   6.271  0.8353 -0.8354  1.9340
 1210SOL     OW15262   1.621   2.583  17.337  0.3441  0.5117 -0.0418
 1210SOL    HW115263   1.644   2.506  17.285 -0.7530  1.2353 -1.5767
 1210SOL    HW215264   1.708   2.616  17.359  0.1856  1.3885 -0.7573
 1211SOL     OW15265   0.622   2.242   6.317 -0.0345  0.1347  0.6721
 1211SOL    HW115266   0.692   2.226   6.254  0.1979 -2.0542  1.4824
 1211SOL    HW215267   0.675   2.233   6.396  1.3118 -0.8357 -0.3430
 1212SOL     OW15268   4.267   1.876   6.267  0.4737  0.3793 -0.1732
 1212SOL    HW115269   4.324   1.804   6.242  0.4112  0.5294 -0.7402
 1212SOL    HW215270   4.332   1.944   6.288 -1.3822  2.5892 -1.4835
 1213SOL     OW15271   3.586   3.789   6.046  0.1249  0.3879  0.1326
 1213SOL    HW115272   3.593   3.811   5.953  1.7822 -2.5409 -0.4373
 1213SOL    HW215273   3.676   3.817   6.066  0.2709  1.9920 -2.7970
 1214SOL     OW15274   0.424   0.205   3.015  0.1541  0.1598  0.3948
 1214SOL    HW115275   0.422   0.187   2.921  1.1702 -0.5031  0.4924
 1214SOL    HW215276   0.356   0.270   3.029 -0.0257 -0.1121  0.7659
 1215SOL     OW15277   2.773   2.165   2.480 -0.3501  0.8142 -0.4263
 1215SOL    HW115278   2.819   2.081   2.492 -0.1559  0.2939 -4.5941
 1215SOL    HW215279   2.847   2.218   2.449 -0.5867  2.1200  1.2617
 1216SOL     OW15280   4.058   4.037   4.035 -0.1486  0.3518 -0.0407
 1216SOL    HW115281   4.008   4.068   3.959  0.1868 -0.0571 -0.4275
 1216SOL    HW215282   4.092   3.952   4.006 -0.1530 -0.0041  0.9788
 1217SOL     OW15283   3.290   3.517  11.313 -0.0992 -0.1979 -0.2212
 1217SOL    HW115284   3.202   3.556  11.307  0.5139  1.4293  1.5949
 1217SOL    HW215285   3.322   3.561  11.392  0.7137 -1.8031  0.3270
 1218SOL     OW15286   3.200   0.542   9.060 -0.1423  0.2576  0.6112
 1218SOL    HW115287   3.279   0.525   9.008 -0.3519 -0.7179  0.6096
 1218SOL    HW215288   3.241   0.584   9.136  0.8301  0.3312  0.0443
 1219SOL     OW15289   1.773   0.156   0.728  0.2449  0.1285 -0.4048
 1219SOL    HW115290   1.691   0.120   0.760  0.1742  0.2909 -0.4043
 1219SOL    HW215291   1.840   0.132   0.792  0.5347 -1.5629 -1.3305
 1220SOL     OW15292   2.885   4.386   8.454 -0.0144 -0.1112  0.0732
 1220SOL    HW115293   2.794   4.391   8.484  0.2081  2.1102  0.3889
 1220SOL    HW215294   2.911   4.365   8.544 -0.1339  0.8268  0.3316
 1221SOL     OW15295   4.031   2.575  12.700 -0.0013  0.0115  0.4299
 1221SOL    HW115296   4.030   2.480  12.710 -1.2771 -0.1866 -1.4755
 1221SOL    HW215297   3.970   2.580  12.626 -0.8343  1.2223  1.2055
 1222SOL     OW15298   2.043   3.136   8.404 -0.4480 -0.4741  0.5053
 1222SOL    HW115299   2.119   3.194   8.399 -0.2224 -0.9470 -1.5505
 1222SOL    HW215300   2.013   3.150   8.314  2.2356  2.6688  0.0809
 1223SOL     OW15301   2.303   4.688   2.843  0.3457 -0.1012  0.1451
 1223SOL    HW115302   2.314   4.641   2.760  0.1266 -1.0991  0.6848
 1223SOL    HW215303   2.377   0.012   2.843  0.0170  0.3031 -1.3976
 1224SOL     OW15304   3.166   0.915  10.707 -0.3230 -0.1663 -0.0618
 1224SOL    HW115305   3.244   0.862  10.722 -1.6545 -2.4305 -1.3163
 1224SOL    HW215306   3.189   1.004  10.735 -1.9321  0.1576  0.2049
 1225SOL     OW15307   0.868   0.625   8.430 -0.5941  0.0265 -0.3790
 1225SOL    HW115308   0.807   0.695   8.456 -0.4993 -0.7509  1.8803
 1225SOL    HW215309   0.855   0.638   8.336 -0.5593  2.3204 -0.0730
 1226SOL     OW15310   2.814   2.605  10.911  0.3005  0.0157 -0.3150
 1226SOL    HW115311   2.886   2.542  10.899  0.4607 -0.1155  1.3675
 1226SOL    HW215312   2.862   2.684  10.935  1.9341 -0.0252 -3.4252
 1227SOL     OW15313   2.467   2.882   8.517 -0.6815 -0.0930 -0.4930
 1227SOL    HW115314   2.373   2.867   8.511 -1.0185  1.3035  1.2510
 1227SOL    HW215315   2.498   2.793   8.531 -0.5864  0.0505  0.1903
 1228SOL     OW15316   3.224   2.046   6.262  0.4041 -0.3321  0.5476
 1228SOL    HW115317   3.199   2.071   6.351 -1.5011 -0.8183  0.1539
 1228SOL    HW215318   3.159   2.097   6.213  1.9717  2.8820  1.8441
 1229SOL     OW15319   1.017   1.900   4.473 -0.3652  0.5647 -0.2062
 1229SOL    HW115320   1.061   1.893   4.388  0.3375  2.0534  0.0318
 1229SOL    HW215321   0.925   1.899   4.445 -0.2253 -1.9857 -0.5395
 1230SOL     OW15322   3.930   2.371   5.626  0.1784  0.2117 -0.5528
 1230SOL    HW115323   3.995   2.365   5.696 -1.5142 -0.4662  0.9489
 1230SOL    HW215324   3.911   2.464   5.633 -1.0957 -0.0424 -0.6336
 1231SOL     OW15325   3.267   2.290   4.275  0.1629 -1.0252 -0.2766
 1231SOL    HW115326   3.225   2.282   4.190  0.8148 -1.1318 -0.5901
 1231SOL    HW215327   3.350   2.244   4.261  0.4042 -1.1592  1.6417
 1232SOL     OW15328   3.903   4.531   6.781  0.3639 -0.2152  0.5292
 1232SOL    HW115329   3.855   4.590   6.724  0.7663 -1.1181 -0.7594
 1232SOL    HW215330   3.977   4.503   6.727 -0.0927 -0.0459 -0.1769
 1233SOL     OW15331   2.757   3.857   5.643  0.0355 -0.0133  0.7924
 1233SOL    HW115332   2.717   3.881   5.726  1.6111  0.5573  1.3873
 1233SOL    HW215333   2.814   3.931   5.622 -0.6463  0.9864  2.4431
 1234SOL     OW15334   1.186   3.517   4.373 -0.6171  0.1201  0.7051
 1234SOL    HW115335   1.122   3.484   4.436  0.1252  0.0622  1.4268
 1234SOL    HW215336   1.132   3.531   4.295 -0.5774 -1.9514  0.3121
 1235SOL     OW15337   4.640   2.829  11.389  0.2025  0.1253 -0.5548
 1235SOL    HW115338   4.680   2.834  11.302  0.9333 -0.0179 -0.2256
 1235SOL    HW215339   4.618   2.736  11.386 -1.9272  0.6079  0.1582
 1236SOL     OW15340   0.396   0.987   4.863 -0.0730  0.5496  0.5265
 1236SOL    HW115341   0.468   0.932   4.896  0.0866  0.6638  0.3724
 1236SOL    HW215342   0.337   0.919   4.832  1.2309 -0.3882  0.0970
 1237SOL     OW15343   1.156   0.877   4.304  0.8655 -0.0853  0.0963
 1237SOL    HW115344   1.240   0.921   4.318  1.8418 -1.4822 -1.4229
 1237SOL    HW215345   1.095   0.950   4.289  0.3771 -0.7447 -1.0795
 1238SOL     OW15346   1.142   2.432  17.012 -0.1454  0.3084 -0.4686
 1238SOL    HW115347   1.219   2.483  16.985 -0.6552  1.3877  0.1011
 1238SOL    HW215348   1.182   2.347  17.031  1.2740  1.3520  1.2527
 1239SOL     OW15349   1.103   0.833  16.926 -0.5058 -0.1649  0.5162
 1239SOL    HW115350   1.184   0.830  16.876 -1.2777 -0.9994 -0.6763
 1239SOL    HW215351   1.042   0.810  16.856 -1.0877 -0.2320  1.0357
 1240SOL     OW15352   2.834   3.257   3.579  0.2953 -0.0646 -0.5612
 1240SOL    HW115353   2.786   3.213   3.649 -0.2125  0.9601 -0.2548
 1240SOL    HW215354   2.847   3.340   3.624 -2.3315 -0.1623  0.3953
 1241SOL     OW15355   1.065   3.428   9.132 -0.0473 -0.1048 -0.4907
 1241SOL    HW115356   0.979   3.435   9.090 -1.3379 -3.3008  1.6381
 1241SOL    HW215357   1.044   3.360   9.197 -1.4965  0.4067 -0.4244
 1242SOL     OW15358   3.313   2.259  13.645  0.2732 -0.0058  0.3821
 1242SOL    HW115359   3.327   2.350  13.619  2.5076 -1.2625 -2.8160
 1242SOL    HW215360   3.403   2.227  13.639 -0.5433 -2.1085 -0.6117
 1243SOL     OW15361   4.716   0.471  17.221 -0.7020  0.3330  0.8132
 1243SOL    HW115362   0.054   0.531  17.217 -0.2577 -0.3048 -0.3346
 1243SOL    HW215363   4.649   0.531  17.188  0.6680 -0.3049 -3.1249
 1244SOL     OW15364   3.893   0.335  16.957  0.7695 -0.1116 -0.0536
 1244SOL    HW115365   3.866   0.411  16.906 -1.5997 -1.9368 -1.4906
 1244SOL    HW215366   3.880   0.266  16.892 -0.2082 -0.0142  0.0473
 1245SOL     OW15367   2.637   0.525   4.647 -0.0728 -0.0096 -0.5367
 1245SOL    HW115368   2.647   0.431   4.631  0.5894  0.0047 -0.2483
 1245SOL    HW215369   2.634   0.554   4.556  2.7185  0.8847 -0.3451
 1246SOL     OW15370   1.146   0.640   1.527 -0.1109  0.0538  0.1036
 1246SOL    HW115371   1.184   0.612   1.610  0.6268  0.6451 -0.0348
 1246SOL    HW215372   1.055   0.633   1.556  0.0859  2.2432  1.2801
 1247SOL     OW15373   2.197   0.612   0.432 -0.7768 -0.5556  0.3743
 1247SOL    HW115374   2.200   0.600   0.337  0.6211 -3.7698  0.8409
 1247SOL    HW215375   2.135   0.684   0.420 -0.7693 -0.8964 -1.7574
 1248SOL     OW15376   4.202   0.439   4.813 -0.5670  0.1467  0.1812
 1248SOL    HW115377   4.120   0.404   4.781  0.1132 -1.7015  0.4745
 1248SOL    HW215378   4.246   0.475   4.736  0.0523  0.2576  0.5844
 1249SOL     OW15379   0.290   1.756   6.913  0.4993  0.2650 -0.3300
 1249SOL    HW115380   0.255   1.687   6.968  0.1517 -0.0989 -1.0175
 1249SOL    HW215381   0.294   1.705   6.833 -2.7505  1.7372 -1.4178
 1250SOL     OW15382   0.585   2.985   0.405 -0.3726 -0.3784 -0.5603
 1250SOL    HW115383   0.515   2.920   0.410 -0.6887 -0.0992 -1.3474
 1250SOL    HW215384   0.632   2.960   0.325  0.4788 -2.4696  0.5795
 1251SOL     OW15385   0.301   4.031   3.725  0.0681 -0.2476  0.0615
 1251SOL    HW115386   0.228   3.969   3.729 -0.6812  0.6874  0.8594
 1251SOL    HW215387   0.301   4.062   3.815 -1.7450 -2.1714  0.7313
 1252SOL     OW15388   1.290   0.320   4.403  0.1635 -0.0945  0.8727
 1252SOL    HW115389   1.277   0.382   4.331 -1.8261 -0.5693  0.8112
 1252SOL    HW215390   1.353   0.257   4.368  1.4848  1.9371 -0.3930
 1253SOL     OW15391   2.689   3.231   4.853 -0.2181  0.4434 -0.2165
 1253SOL    HW115392   2.707   3.301   4.916 -0.3149 -0.0257  0.3316
 1253SOL    HW215393   2.771   3.182   4.865 -1.0789 -0.8668  0.3590
 1254SOL     OW15394   1.508   3.173  12.493 -0.1322  0.4996 -0.2504
 1254SOL    HW115395   1.520   3.246  12.432  2.2706 -0.7886 -1.3134
 1254SOL    HW215396   1.587   3.185  12.546  0.8613 -1.0681 -1.3805
 1255SOL     OW15397   0.877   2.286  16.062 -0.1917 -0.3472  0.0395
 1255SOL    HW115398   0.813   2.283  16.133 -1.4436 -0.9347 -1.1133
 1255SOL    HW215399   0.841   2.360  16.013  2.4064  0.3554 -0.8077
 1256SOL     OW15400   1.014   3.461  10.064  0.3388 -0.5482 -0.6505
 1256SOL    HW115401   1.057   3.519  10.127 -0.6282 -1.7822  1.1476
 1256SOL    HW215402   0.936   3.514  10.048  0.6285  0.1683  0.2790
 1257SOL     OW15403   1.784   0.005  15.012  0.2861  0.5928 -0.1863
 1257SOL    HW115404   1.738   4.664  15.043  0.0633  0.8178  0.0393
 1257SOL    HW215405   1.869   4.699  15.008 -0.3082 -0.5557 -0.5528
 1258SOL     OW15406   1.899   0.653  12.459 -0.3901 -0.1765 -0.0615
 1258SOL    HW115407   1.851   0.574  12.435  0.3282 -0.8545  0.7387
 1258SOL    HW215408   1.950   0.627  12.536 -0.6050 -2.0139 -0.5364
 1259SOL     OW15409   2.850   2.828   6.773 -0.1978  0.5672 -0.1940
 1259SOL    HW115410   2.862   2.922   6.762 -0.9845  0.7734  0.6594
 1259SOL    HW215411   2.943   2.807   6.769  0.2833  2.9477 -1.3509
 1260SOL     OW15412   4.647   4.548   4.169  0.9618 -0.1314  0.1903
 1260SOL    HW115413   4.567   4.508   4.202  1.5812 -2.5841 -1.2885
 1260SOL    HW215414   4.627   4.599   4.090  2.1902  2.3172  1.4833
 1261SOL     OW15415   3.012   1.318   5.846 -0.5572 -0.2196  0.2406
 1261SOL    HW115416   3.023   1.412   5.837 -1.7323 -0.0900  0.1597
 1261SOL    HW215417   2.936   1.302   5.789 -2.1149 -2.0248  2.8093
 1262SOL     OW15418   3.558   1.450   7.599 -0.1713 -0.0949  0.5199
 1262SOL    HW115419   3.471   1.487   7.586  0.5078  1.5108  0.4824
 1262SOL    HW215420   3.589   1.513   7.665  2.6958 -1.7068  0.7434
 1263SOL     OW15421   0.483   0.141   9.818  0.2419 -1.0011  0.7641
 1263SOL    HW115422   0.388   0.140   9.824  0.3326 -1.6750  2.1516
 1263SOL    HW215423   0.511   0.083   9.890 -0.0342 -1.5222  0.4461
 1264SOL     OW15424   1.611   0.007  11.098  0.1557 -0.1033 -0.0165
 1264SOL    HW115425   1.669   4.682  11.141  2.9562  2.0266 -0.7087
 1264SOL    HW215426   1.578   4.688  11.028  1.4749 -1.3890  0.4090
 1265SOL     OW15427   0.177   3.669   6.718  0.3043  0.0377  0.5527
 1265SOL    HW115428   0.110   3.601   6.730  1.7867 -1.8898 -2.0429
 1265SOL    HW215429   0.126   3.736   6.673 -0.7971 -0.2897  1.3167
 1266SOL     OW15430   2.838   4.262   3.011 -0.6687  0.7964  0.0960
 1266SOL    HW115431   2.857   4.347   2.973  0.4092  0.9105  0.8933
 1266SOL    HW215432   2.865   4.205   2.938  3.4417 -0.1568  2.3684
 1267SOL     OW15433   4.492   2.304   9.012 -0.0434  0.2705 -0.3848
 1267SOL    HW115434   4.566   2.362   9.026  0.9799 -0.7990 -1.3880
 1267SOL    HW215435   4.510   2.227   9.066 -0.6930 -0.3252 -1.0182
 1268SOL     OW15436   1.674   4.216   6.977 -0.4452 -0.0786  0.0988
 1268SOL    HW115437   1.684   4.255   7.064 -2.7453 -1.6877  1.0768
 1268SOL    HW215438   1.638   4.131   7.000  0.9817 -0.3253  1.4285
 1269SOL     OW15439   2.843   0.391   7.653  0.2340 -0.3098 -0.1432
 1269SOL    HW115440   2.759   0.382   7.699  1.3123 -0.9294  1.7397
 1269SOL    HW215441   2.896   0.432   7.721 -1.1517 -0.1283  0.8314
 1270SOL     OW15442   1.193   1.875  12.333 -0.0991 -0.2019 -0.0894
 1270SOL    HW115443   1.205   1.963  12.368  1.3946 -0.9959  1.3905
 1270SOL    HW215444   1.271   1.834  12.370  0.3895  1.0510  0.2764
 1271SOL     OW15445   1.376   1.568   8.397 -0.4647 -1.0729  0.5963
 1271SOL    HW115446   1.335   1.517   8.327  1.3380 -0.6377 -0.7453
 1271SOL    HW215447   1.311   1.624   8.441 -0.4580 -0.8987  0.3835
 1272SOL     OW15448   4.216   2.258   2.761  0.5479 -0.6404  0.1227
 1272SOL    HW115449   4.244   2.309   2.837  3.1309 -1.3366 -0.3674
 1272SOL    HW215450   4.181   2.325   2.702  0.8775  0.5606  1.2720
 1273SOL     OW15451   3.374   1.912   9.164  0.0354  0.1353  0.7801
 1273SOL    HW115452   3.438   1.902   9.093 -0.2552 -0.9054  0.6679
 1273SOL    HW215453   3.430   1.952   9.231  0.1780  0.3314  0.5450
 1274SOL     OW15454   3.311   2.585  10.896  0.3301 -0.1529  0.1154
 1274SOL    HW115455   3.292   2.676  10.917  0.3435 -0.2122  0.3834
 1274SOL    HW215456   3.363   2.601  10.817  0.2637  0.0679  0.1167
 1275SOL     OW15457   2.992   0.749   9.250  0.0567 -0.1766  0.3762
 1275SOL    HW115458   3.046   0.718   9.322 -2.5759 -2.5643  1.3319
 1275SOL    HW215459   2.924   0.794   9.300 -1.4607  0.8167 -2.5659
 1276SOL     OW15460   4.731   1.199   0.955  0.8571  0.3539  0.7429
 1276SOL    HW115461   0.087   1.202   0.974  1.0350  2.2430 -0.4775
 1276SOL    HW215462   4.695   1.264   1.016 -1.4988  0.8422 -1.1628
 1277SOL     OW15463   3.934   2.943   2.062  0.4254 -0.3214 -0.0111
 1277SOL    HW115464   3.976   2.936   1.976  2.0972  0.2642  0.7579
 1277SOL    HW215465   3.844   2.972   2.044  0.3112 -1.2646 -0.9516
 1278SOL     OW15466   2.015   1.723  10.354  0.1248 -0.3090  0.0401
 1278SOL    HW115467   1.930   1.711  10.397  0.1146 -0.5281 -0.0410
 1278SOL    HW215468   2.000   1.708  10.261  1.4642  1.3224 -0.4494
 1279SOL     OW15469   4.422   2.428   4.663  0.2503 -0.5183 -0.3703
 1279SOL    HW115470   4.443   2.370   4.736 -1.5076 -1.6031 -0.7502
 1279SOL    HW215471   4.502   2.481   4.665  0.2098 -0.4217 -1.1686
 1280SOL     OW15472   3.753   4.456   3.347  0.0376  0.2849  0.1198
 1280SOL    HW115473   3.698   4.468   3.270 -1.7756 -2.6402  0.9493
 1280SOL    HW215474   3.788   4.367   3.336 -0.0227  0.2696  0.0542
 1281SOL     OW15475   3.652   1.223   1.438  0.0982  0.1188  0.5706
 1281SOL    HW115476   3.735   1.195   1.398 -0.6351  0.8800 -1.5060
 1281SOL    HW215477   3.609   1.141   1.463 -1.6593  0.4863 -1.2050
 1282SOL     OW15478   0.912   2.870  17.107  0.4730  0.7431  0.0807
 1282SOL    HW115479   0.911   2.779  17.079  0.1760  1.0381 -0.8931
 1282SOL    HW215480   0.980   2.868  17.174  1.1392 -0.9888 -0.6424
 1283SOL     OW15481   4.501   2.801  15.223 -0.0710 -0.8947 -0.5406
 1283SOL    HW115482   4.544   2.757  15.296  2.3558  2.4480  0.0466
 1283SOL    HW215483   4.427   2.848  15.264 -0.3115  0.1866 -2.2068
 1284SOL     OW15484   0.064   0.427   8.749  0.2461  0.3066 -0.3467
 1284SOL    HW115485   0.033   0.497   8.806 -1.4333  0.5524 -1.5565
 1284SOL    HW215486   4.719   0.386   8.720  1.0457 -1.1274 -0.6109
 1285SOL     OW15487   4.347   2.605   7.836 -0.2592 -0.3281 -0.1574
 1285SOL    HW115488   4.280   2.604   7.768 -1.0583  0.7509  0.6195
 1285SOL    HW215489   4.305   2.656   7.905 -1.0253 -0.4954 -0.4984
 1286SOL     OW15490   4.315   1.082  14.365 -0.3007 -0.2865  0.6012
 1286SOL    HW115491   4.239   1.035  14.400 -1.1718  1.6472  1.2998
 1286SOL    HW215492   4.364   1.070  14.446 -1.3349 -0.5640  1.1724
 1287SOL     OW15493   1.316   3.050  11.947 -0.1723  0.7632 -0.0926
 1287SOL    HW115494   1.308   3.090  12.034 -2.0652 -2.2543  1.1298
 1287SOL    HW215495   1.373   2.979  11.977  0.4639  1.7534  1.0799
 1288SOL     OW15496   3.133   1.037   0.799 -0.3797  0.6031 -0.2756
 1288SOL    HW115497   3.189   1.023   0.875 -1.8148  0.3984  0.7521
 1288SOL    HW215498   3.076   0.960   0.802 -0.3772  0.6587  0.9000
 1289SOL     OW15499   0.469   4.037   8.358  0.3201 -0.1519  0.1745
 1289SOL    HW115500   0.394   4.073   8.312 -1.6763 -0.6246  3.0364
 1289SOL    HW215501   0.531   4.111   8.361  0.0130  0.0796  0.9269
 1290SOL     OW15502   1.446   0.172   9.233 -0.0720 -0.1457  0.4015
 1290SOL    HW115503   1.470   0.226   9.158 -2.1739  0.7511  0.3541
 1290SOL    HW215504   1.360   0.141   9.202 -0.0194  0.4582 -0.3584
 1291SOL     OW15505   2.357   0.408   2.530 -0.3581  0.0168  0.4628
 1291SOL    HW115506   2.430   0.455   2.489 -0.6533  0.6681  0.6848
 1291SOL    HW215507   2.385   0.390   2.620 -0.1895  2.1825  0.8576
 1292SOL     OW15508   2.970   1.765  15.626 -0.4816 -0.1214 -0.5379
 1292SOL    HW115509   2.927   1.807  15.551  0.4583  0.7821 -0.5726
 1292SOL    HW215510   2.960   1.670  15.623  0.2655 -0.2762  1.7746
 1293SOL     OW15511   2.590   3.865   3.218 -0.1761  0.3698 -0.5063
 1293SOL    HW115512   2.503   3.825   3.222 -0.2476  0.4615 -1.1567
 1293SOL    HW215513   2.572   3.914   3.138 -1.7199  0.4971 -0.0946
 1294SOL     OW15514   3.372   1.675  14.604 -0.2115  0.0098  0.0249
 1294SOL    HW115515   3.448   1.642  14.652  0.5079 -1.3899 -2.0809
 1294SOL    HW215516   3.365   1.762  14.643  2.8457 -0.6075  1.9925
 1295SOL     OW15517   3.489   1.217   6.694 -0.1417  0.1549 -0.0217
 1295SOL    HW115518   3.561   1.242   6.751  3.3768 -0.8577 -4.0623
 1295SOL    HW215519   3.429   1.277   6.739  1.2143  0.9385  0.7553
 1296SOL     OW15520   0.553   4.232   6.385 -0.4374 -0.6585 -0.1442
 1296SOL    HW115521   0.474   4.179   6.396 -2.1044  2.0540  0.6354
 1296SOL    HW215522   0.618   4.163   6.402 -0.4447 -0.9219 -1.1434
 1297SOL     OW15523   0.040   3.113   1.691  0.1716  0.3863  0.6226
 1297SOL    HW115524   0.071   3.136   1.604  1.5659  0.8274  1.2328
 1297SOL    HW215525   0.095   3.037   1.712  1.2411  1.1639  0.6632
 1298SOL     OW15526   4.657   3.071   0.355 -0.0141  0.1566 -0.5206
 1298SOL    HW115527   4.661   3.153   0.404  0.0574  1.0613 -2.0347
 1298SOL    HW215528   4.565   3.075   0.329 -0.2508  1.6627  0.5196
 1299SOL     OW15529   3.083   0.525   2.699  0.0918 -0.2070  0.0693
 1299SOL    HW115530   3.159   0.514   2.755  1.3224  0.0201 -1.5302
 1299SOL    HW215531   3.113   0.592   2.637 -0.5458  0.7097  0.7649
 1300SOL     OW15532   0.492   1.512   1.137  0.1921  0.1894 -0.3365
 1300SOL    HW115533   0.571   1.467   1.169 -1.3447  0.2963  3.5837
 1300SOL    HW215534   0.537   1.562   1.069 -1.5961  2.4889  0.1926
 1301SOL     OW15535   0.328   3.938   8.687  0.2178  0.0107 -0.5881
 1301SOL    HW115536   0.388   4.008   8.715 -2.2079  1.3495  1.2411
 1301SOL    HW215537   0.250   3.993   8.686 -0.4961 -1.0072 -0.2229
 1302SOL     OW15538   0.881   4.162  14.898 -0.0327  0.8324 -0.6126
 1302SOL    HW115539   0.856   4.253  14.881  1.0442  1.3152  0.3330
 1302SOL    HW215540   0.806   4.127  14.946  0.1523  0.7895 -0.3574
 1303SOL     OW15541   4.075   0.414   7.065  0.1114  0.4816  0.6540
 1303SOL    HW115542   4.009   0.348   7.087 -0.7441  1.3143  0.6034
 1303SOL    HW215543   4.146   0.354   7.045  1.0288  1.1842  1.8394
 1304SOL     OW15544   3.895   0.154   6.462  0.4951 -0.3612  0.1749
 1304SOL    HW115545   3.903   0.182   6.371  0.1063  1.0521  0.5674
 1304SOL    HW215546   3.926   0.064   6.465 -3.2383 -1.6063  1.2847
 1305SOL     OW15547   1.505   3.670  15.076 -0.0760 -0.6980  0.6063
 1305SOL    HW115548   1.493   3.647  14.984  1.8700 -1.4996  0.5524
 1305SOL    HW215549   1.591   3.709  15.062 -1.3478  1.1586 -2.0044
 1306SOL     OW15550   2.892   3.205  15.501  0.3492  0.4543  0.1822
 1306SOL    HW115551   2.966   3.202  15.563  1.5960 -0.7356 -1.3582
 1306SOL    HW215552   2.851   3.120  15.521 -0.5008  0.5948 -0.9977
 1307SOL     OW15553   2.866   1.510   4.097 -0.2110  0.5578 -0.2696
 1307SOL    HW115554   2.775   1.496   4.072 -0.5909  0.6946  1.0498
 1307SOL    HW215555   2.902   1.533   4.011 -0.3638 -0.8367 -0.6985
 1308SOL     OW15556   2.216   4.540   6.857 -0.3167 -0.0108  0.5873
 1308SOL    HW115557   2.222   4.635   6.851 -2.2481  0.0983  0.3179
 1308SOL    HW215558   2.186   4.510   6.771 -0.9421 -2.8792  1.8085
 1309SOL     OW15559   4.445   2.462   4.191  0.3488 -0.2628  0.4465
 1309SOL    HW115560   4.366   2.414   4.217  0.3407 -0.0289  0.8492
 1309SOL    HW215561   4.508   2.448   4.262  2.0241  1.2339 -0.7490
 1310SOL     OW15562   3.100   1.032   3.726  0.3617 -0.7332 -0.2640
 1310SOL    HW115563   3.189   1.064   3.734  0.4801 -1.2140  0.2845
 1310SOL    HW215564   3.055   1.114   3.747  0.9402 -1.1069  2.3706
 1311SOL     OW15565   0.248   2.032   0.520 -0.5408  0.7909 -0.2372
 1311SOL    HW115566   0.155   2.045   0.497 -1.2515 -0.4944  1.9247
 1311SOL    HW215567   0.240   2.044   0.614 -2.7920 -2.6416  0.0594
 1312SOL     OW15568   3.088   1.164   8.085  0.3000  0.4548  0.4152
 1312SOL    HW115569   3.091   1.098   8.016  1.2785  1.4014 -0.4282
 1312SOL    HW215570   3.048   1.109   8.153 -0.0884  0.6852  0.3712
 1313SOL     OW15571   1.860   0.811  11.292  0.3308  0.6952 -0.0145
 1313SOL    HW115572   1.851   0.905  11.282  0.2524  0.9258  2.2747
 1313SOL    HW215573   1.954   0.798  11.306  0.1319  0.9185  1.4761
 1314SOL     OW15574   0.211   0.909  11.942 -0.3749  0.0128  0.2485
 1314SOL    HW115575   0.303   0.922  11.965 -0.4465  0.6265  0.1988
 1314SOL    HW215576   0.211   0.902  11.847 -0.7570 -0.3725  0.2778
 1315SOL     OW15577   4.119   1.727  10.503 -0.5002  0.0357 -0.1083
 1315SOL    HW115578   4.058   1.776  10.448  0.1509 -0.3657 -1.2073
 1315SOL    HW215579   4.140   1.793  10.568 -2.8993  2.9163 -2.2646
 1316SOL     OW15580   2.209   3.602   7.665 -0.9581 -0.8865 -0.5264
 1316SOL    HW115581   2.298   3.612   7.631  0.1455 -1.0929  2.2912
 1316SOL    HW215582   2.197   3.688   7.705  0.6495 -1.2477  0.7552
 1317SOL     OW15583   2.670   4.394   3.999 -0.1699  0.1427 -0.2304
 1317SOL    HW115584   2.760   4.423   4.010  0.3863 -1.9143  0.4299
 1317SOL    HW215585   2.636   4.396   4.088 -1.7661 -0.2415 -0.8265
 1318SOL     OW15586   1.352   1.449  15.341  0.0631 -0.2227 -0.8298
 1318SOL    HW115587   1.354   1.545  15.339  1.9434 -0.2841 -2.3076
 1318SOL    HW215588   1.414   1.437  15.269  1.5163  1.4575  0.1301
 1319SOL     OW15589   1.810   1.992   3.747  0.0746 -0.0752 -0.4240
 1319SOL    HW115590   1.778   2.082   3.755  0.5698  0.0192  0.5836
 1319SOL    HW215591   1.736   1.949   3.790 -2.0395  1.5792 -2.4333
 1320SOL     OW15592   2.880   1.013   4.919 -0.0210 -0.5958 -0.5046
 1320SOL    HW115593   2.917   1.101   4.907 -0.5657 -0.0993  1.4030
 1320SOL    HW215594   2.790   1.035   4.943 -0.1742 -2.5043  0.6856
 1321SOL     OW15595   1.295   0.443  10.420 -0.4803  0.5546 -0.1958
 1321SOL    HW115596   1.223   0.408  10.367  0.5502 -1.3850 -0.2815
 1321SOL    HW215597   1.327   0.503  10.353 -2.4625  1.5449 -0.2738
 1322SOL     OW15598   2.077   0.069   5.624 -0.1585 -0.1411  0.2052
 1322SOL    HW115599   2.130   0.145   5.602 -2.4103  0.9761 -1.4066
 1322SOL    HW215600   2.001   0.115   5.661  0.5180  0.9741  0.2025
 1323SOL     OW15601   2.888   1.308   8.354  0.1542 -0.1349 -0.4033
 1323SOL    HW115602   2.824   1.360   8.306 -0.1388  0.3021  0.4683
 1323SOL    HW215603   2.868   1.215   8.339 -0.0154 -0.2682  0.6621
 1324SOL     OW15604   4.333   2.876   6.797 -0.3333 -0.9217  0.1574
 1324SOL    HW115605   4.327   2.955   6.851 -1.4397  0.8748 -2.5702
 1324SOL    HW215606   4.307   2.913   6.713  2.0187  1.7392  0.6183
 1325SOL     OW15607   1.245   4.550   6.746 -1.0510  0.3342 -0.1342
 1325SOL    HW115608   1.265   4.516   6.658  0.0625  0.8554 -0.0909
 1325SOL    HW215609   1.228   4.467   6.791  0.2225 -0.1977 -0.6107
 1326SOL     OW15610   3.344   4.501  10.417 -0.0354  0.0191  0.6536
 1326SOL    HW115611   3.406   4.541  10.477 -0.0436  2.3304 -0.8714
 1326SOL    HW215612   3.376   4.534  10.333 -0.9436 -1.3198 -0.2294
 1327SOL     OW15613   3.415   2.902  13.260  0.2477 -0.4362  0.1239
 1327SOL    HW115614   3.502   2.884  13.225  0.1674  0.3649 -0.5004
 1327SOL    HW215615   3.391   2.958  13.186 -1.0539 -0.4145  0.5535
 1328SOL     OW15616   1.361   0.892  15.388 -0.3534  0.0231 -0.1440
 1328SOL    HW115617   1.285   0.882  15.330 -1.4715  0.1056  1.3285
 1328SOL    HW215618   1.405   0.974  15.365  0.9453 -0.0636  2.0641
 1329SOL     OW15619   1.292   2.435  15.703  0.5666 -0.6558  0.5546
 1329SOL    HW115620   1.269   2.519  15.743  2.2482 -0.4945  1.1580
 1329SOL    HW215621   1.205   2.395  15.713 -0.2960  0.7220 -1.3573
 1330SOL     OW15622   0.863   0.239  10.826 -0.3030 -0.0887  0.0067
 1330SOL    HW115623   0.937   0.215  10.881 -0.4774 -0.0469  0.2587
 1330SOL    HW215624   0.818   0.154  10.821 -1.3589  0.3175  2.9596
 1331SOL     OW15625   0.426   4.078   0.529 -0.2508  0.1966  0.3529
 1331SOL    HW115626   0.458   4.109   0.444  0.2659  1.9148  1.1530
 1331SOL    HW215627   0.411   4.163   0.571 -1.3911  0.4387 -0.5545
 1332SOL     OW15628   2.441   0.803  11.732  0.4523 -0.2291  0.1955
 1332SOL    HW115629   2.422   0.745  11.805  0.6668 -0.6377 -0.0764
 1332SOL    HW215630   2.537   0.797  11.730  0.4569  0.0739 -0.8616
 1333SOL     OW15631   1.922   1.845   2.139 -0.0342 -0.5067  0.4821
 1333SOL    HW115632   1.928   1.753   2.166  1.0397 -0.8731 -1.0115
 1333SOL    HW215633   1.867   1.839   2.061 -0.8073 -2.0643  1.1407
 1334SOL     OW15634   4.602   3.554   2.623  0.2008 -0.1693 -0.1192
 1334SOL    HW115635   4.672   3.523   2.565  1.6181  0.7633  1.1092
 1334SOL    HW215636   4.641   3.522   2.704  3.1064  0.4328 -1.2482
 1335SOL     OW15637   0.452   1.538   1.912  0.4492  0.1105  0.4452
 1335SOL    HW115638   0.499   1.460   1.883  1.8731  0.6498  1.2598
 1335SOL    HW215639   0.401   1.562   1.835 -1.8504  0.1942  2.0128
 1336SOL     OW15640   2.711   1.844  11.554 -0.1047  0.3694 -0.0428
 1336SOL    HW115641   2.646   1.796  11.605  0.3741  0.3505  0.5452
 1336SOL    HW215642   2.673   1.875  11.472 -3.3441  1.1069  1.7088
 1337SOL     OW15643   1.236   4.677   5.561  0.3115  0.3686 -0.0060
 1337SOL    HW115644   1.225   4.669   5.656 -0.9403 -1.0711 -0.2765
 1337SOL    HW215645   1.273   4.596   5.525  1.2325  0.8216 -0.0814
 1338SOL     OW15646   1.008   0.117  16.002  0.4662 -0.3820 -0.5184
 1338SOL    HW115647   0.925   0.113  15.953  0.0246 -0.2199  0.2247
 1338SOL    HW215648   1.031   0.209  15.995 -1.6428  0.2153  0.3904
 1339SOL     OW15649   0.158   1.096   8.064  0.7562 -0.2918  0.0970
 1339SOL    HW115650   0.157   1.166   7.998  3.0208  1.6098  2.0471
 1339SOL    HW215651   0.246   1.059   8.051  1.2201  0.8653 -0.0872
 1340SOL     OW15652   0.063   0.342   1.361  0.0053 -0.0253 -0.2569
 1340SOL    HW115653   0.136   0.385   1.316  0.5151 -1.7726 -1.1182
 1340SOL    HW215654   0.055   0.393   1.441  1.4647 -1.7413  0.9766
 1341SOL     OW15655   2.916   2.845  10.972  0.4166  0.0396  0.1371
 1341SOL    HW115656   2.886   2.902  10.903  3.1270  1.4075  0.0767
 1341SOL    HW215657   2.928   2.902  11.048 -0.0490  0.8681 -0.4161
 1342SOL     OW15658   4.185   1.003   4.041 -0.4749 -0.0482  0.2414
 1342SOL    HW115659   4.137   1.081   4.013 -2.6399 -2.5440 -3.0102
 1342SOL    HW215660   4.171   0.949   3.964  1.0964 -0.6836  0.4014
 1343SOL     OW15661   0.439   3.684   5.027  0.0279 -0.6055 -0.0467
 1343SOL    HW115662   0.518   3.680   4.972 -0.0833 -0.5537 -0.2121
 1343SOL    HW215663   0.400   3.605   4.990 -1.2075 -0.3209  0.6585
 1344SOL     OW15664   0.130   1.301   1.910  0.0555  0.8859  0.0794
 1344SOL    HW115665   0.146   1.260   1.995  0.9584 -0.7591 -0.9037
 1344SOL    HW215666   0.049   1.345   1.938  0.5744  1.1276  1.2303
 1345SOL     OW15667   3.044   4.106  16.834  0.0616 -0.0048 -0.0534
 1345SOL    HW115668   2.963   4.156  16.823 -0.4450 -0.9760 -0.8436
 1345SOL    HW215669   3.109   4.167  16.800 -0.0117  0.3713  0.4868
 1346SOL     OW15670   0.639   3.332   7.062 -0.1004  0.0214  0.3970
 1346SOL    HW115671   0.551   3.370   7.068 -0.4954 -0.6037 -1.6462
 1346SOL    HW215672   0.641   3.293   6.975  3.1791  0.6093  0.2318
 1347SOL     OW15673   2.636   4.123   2.254 -0.1029 -0.0282  0.5763
 1347SOL    HW115674   2.707   4.067   2.223 -0.2686  0.3523 -0.4902
 1347SOL    HW215675   2.573   4.051   2.255  1.5960 -1.5165  0.4993
 1348SOL     OW15676   0.787   0.810   7.048  0.1725  0.2777 -0.0283
 1348SOL    HW115677   0.693   0.816   7.069  0.5958 -0.2395  1.9941
 1348SOL    HW215678   0.797   0.859   6.966 -0.5148  0.1092 -0.2117
 1349SOL     OW15679   0.565   2.213   2.901 -0.1464 -0.0789  0.1120
 1349SOL    HW115680   0.615   2.143   2.944 -0.8381  0.1276  1.2560
 1349SOL    HW215681   0.590   2.205   2.809 -2.3226  0.2040 -0.4940
 1350SOL     OW15682   3.046   1.274   6.451 -0.0574 -0.5989  0.6915
 1350SOL    HW115683   2.964   1.249   6.407 -0.6945 -2.3120  2.8618
 1350SOL    HW215684   3.074   1.346   6.394 -0.4472 -1.6460 -0.8383
 1351SOL     OW15685   3.928   0.840   0.610 -0.1967 -0.4061 -0.6222
 1351SOL    HW115686   3.959   0.905   0.673 -1.1728 -0.7111  0.1880
 1351SOL    HW215687   3.841   0.874   0.590 -0.8798 -1.9843 -0.3059
 1352SOL     OW15688   3.008   0.155   1.984  0.2998 -0.3624 -0.0800
 1352SOL    HW115689   3.012   0.207   2.064  0.6697  0.4957 -0.6532
 1352SOL    HW215690   2.943   0.086   1.999 -2.3042  2.2318  0.7531
 1353SOL     OW15691   4.056   2.449   5.227 -0.6081 -0.3318 -0.4135
 1353SOL    HW115692   4.105   2.514   5.277 -1.0283 -0.8557  0.6903
 1353SOL    HW215693   4.054   2.481   5.137  0.9229  1.8702  0.3550
 1354SOL     OW15694   4.495   1.921   1.427 -0.1847 -0.0994 -0.4135
 1354SOL    HW115695   4.451   1.843   1.460 -3.2561  0.7525 -2.4114
 1354SOL    HW215696   4.560   1.887   1.365 -1.3248 -2.4113 -0.3354
 1355SOL     OW15697   2.889   1.958   6.650  0.4597 -0.0952 -0.1978
 1355SOL    HW115698   2.964   1.947   6.709 -1.0175  1.5037  2.0003
 1355SOL    HW215699   2.845   1.874   6.655 -0.7867  0.5641  0.0014
 1356SOL     OW15700   3.765   2.137   5.329  0.3893  0.1111  0.5969
 1356SOL    HW115701   3.703   2.069   5.305  0.9454 -0.2751  0.2553
 1356SOL    HW215702   3.759   2.184   5.246  1.9687  0.0710  0.4518
 1357SOL     OW15703   3.058   3.692   8.821  0.3880 -0.3019 -0.1962
 1357SOL    HW115704   3.012   3.663   8.742 -0.6073  1.4275 -0.2393
 1357SOL    HW215705   2.987   3.689   8.885  4.3064  0.5750  4.1464
 1358SOL     OW15706   4.646   3.613   2.957 -0.5017  0.1937  0.0898
 1358SOL    HW115707   4.697   3.538   2.988  0.0823 -0.4894 -2.5544
 1358SOL    HW215708   4.560   3.592   2.995  0.6320 -2.8381  0.9665
 1359SOL     OW15709   3.162   3.227   5.728 -0.1638 -0.1089 -0.1238
 1359SOL    HW115710   3.130   3.183   5.649  1.1750  1.3762 -1.5017
 1359SOL    HW215711   3.257   3.218   5.719 -0.1805  0.4375 -0.8626
 1360SOL     OW15712   1.572   0.516   9.454  0.0949 -0.2972 -0.3623
 1360SOL    HW115713   1.545   0.425   9.466  1.5051 -0.5353  0.9669
 1360SOL    HW215714   1.622   0.551   9.527 -1.0464  2.7831 -1.0396
 1361SOL     OW15715   0.407   2.419  14.413  0.1373  0.3088 -0.5804
 1361SOL    HW115716   0.368   2.505  14.395  1.3647  0.9365 -0.2238
 1361SOL    HW215717   0.392   2.376  14.329 -0.6004  0.3843 -0.4836
 1362SOL     OW15718   0.581   3.432  13.969  0.4616 -0.1672  0.3973
 1362SOL    HW115719   0.651   3.489  13.937 -0.0051 -0.2686 -0.8005
 1362SOL    HW215720   0.508   3.491  13.954  0.7277  0.2863  0.8484
 1363SOL     OW15721   0.875   1.356   9.139  0.3188 -0.0527 -0.3297
 1363SOL    HW115722   0.934   1.385   9.069  2.3039 -1.9727  0.5158
 1363SOL    HW215723   0.803   1.418   9.149 -1.1308 -1.7708 -0.1834
 1364SOL     OW15724   4.715   1.869   6.529 -0.1109 -0.2300 -0.1816
 1364SOL    HW115725   0.043   1.869   6.459 -0.9060  1.4185 -0.9095
 1364SOL    HW215726   4.649   1.809   6.495  0.2331  1.2523 -3.4434
 1365SOL     OW15727   2.933   4.495   7.684 -0.0492  0.2370 -0.1440
 1365SOL    HW115728   2.866   4.460   7.743  0.0642  0.1528 -0.0678
 1365SOL    HW215729   2.874   4.547   7.628 -0.6299 -2.6914 -2.2629
 1366SOL     OW15730   3.688   3.220   5.393  0.2783  0.4725 -0.0164
 1366SOL    HW115731   3.604   3.265   5.392 -1.8132 -3.3474  4.1832
 1366SOL    HW215732   3.716   3.234   5.302  0.6609 -2.5973 -0.3732
 1367SOL     OW15733   2.001   4.233   4.320  0.0942  0.4453 -0.0520
 1367SOL    HW115734   1.931   4.167   4.321 -0.1356  0.6859 -0.2732
 1367SOL    HW215735   1.956   4.317   4.311 -0.1963  0.2650 -0.2693
 1368SOL     OW15736   3.595   1.484   6.141 -0.2133 -0.6559 -0.1061
 1368SOL    HW115737   3.508   1.445   6.150 -0.8005  0.4890 -0.7752
 1368SOL    HW215738   3.655   1.429   6.190  1.1081 -0.6788 -1.7485
 1369SOL     OW15739   1.721   0.008   2.865  0.3514 -0.3569  0.0802
 1369SOL    HW115740   1.755   4.722   2.951 -2.5424  1.4992  1.7470
 1369SOL    HW215741   1.678   0.092   2.881  0.8777 -0.0269 -0.2433
 1370SOL     OW15742   3.930   3.353  16.167  0.3460  0.1791 -0.0190
 1370SOL    HW115743   3.899   3.295  16.237  1.6548  0.9434  1.1769
 1370SOL    HW215744   3.995   3.300  16.120  1.4388  1.6947 -0.1906
 1371SOL     OW15745   1.099   0.626   2.021  0.6067 -0.3139 -0.1253
 1371SOL    HW115746   1.180   0.576   2.023 -1.0697 -3.0194 -0.1657
 1371SOL    HW215747   1.142   0.711   2.008  2.2224 -1.3219 -1.3454
 1372SOL     OW15748   2.304   0.375   8.978  0.2503  0.3970 -0.3051
 1372SOL    HW115749   2.342   0.334   9.056 -0.7724 -0.7422 -0.3966
 1372SOL    HW215750   2.268   0.458   9.010  0.7883  0.8330 -0.8342
 1373SOL     OW15751   0.600   0.705   1.568 -0.4115  0.0761  0.4148
 1373SOL    HW115752   0.543   0.699   1.645  0.1750 -4.7745  0.4643
 1373SOL    HW215753   0.550   0.769   1.517 -1.8583  1.4367  3.5451
 1374SOL     OW15754   2.304   3.550   7.035  0.2418  0.2819  0.5607
 1374SOL    HW115755   2.286   3.458   7.020  0.9779  0.9011 -3.8812
 1374SOL    HW215756   2.373   3.574   6.973  0.5154 -1.3210  0.2586
 1375SOL     OW15757   3.565   2.353   1.996 -0.8669 -0.0202  0.2140
 1375SOL    HW115758   3.521   2.423   1.947  1.3285 -0.8896 -3.0533
 1375SOL    HW215759   3.491   2.292   2.000 -0.5467 -0.5573 -1.9716
 1376SOL     OW15760   2.427   4.292  15.062 -0.7153 -0.4251 -0.7602
 1376SOL    HW115761   2.393   4.202  15.065  0.0502 -0.6494  1.0838
 1376SOL    HW215762   2.486   4.302  15.136 -0.4206 -1.4777 -0.8475
 1377SOL     OW15763   4.164   1.956   9.530  0.4336  0.0705 -0.5194
 1377SOL    HW115764   4.198   1.873   9.496  1.9408  0.2926  0.4016
 1377SOL    HW215765   4.102   1.918   9.592  0.6016 -0.2976 -0.5797
 1378SOL     OW15766   1.429   2.083   5.966  0.2856  0.6007  0.4456
 1378SOL    HW115767   1.343   2.086   6.006 -0.5578  0.3352 -1.3440
 1378SOL    HW215768   1.398   2.071   5.877 -0.2184  1.0317  0.5673
 1379SOL     OW15769   1.265   0.422   5.194  0.3071  0.3380 -0.1377
 1379SOL    HW115770   1.325   0.496   5.188 -0.7135  1.3348  1.9604
 1379SOL    HW215771   1.306   0.356   5.137 -0.8638 -0.2704 -0.2716
 1380SOL     OW15772   3.521   2.436   7.110 -0.3373 -0.4230  0.1660
 1380SOL    HW115773   3.466   2.358   7.114 -1.4559  0.4645  2.1639
 1380SOL    HW215774   3.520   2.460   7.018 -0.7029  0.6032  0.4385
 1381SOL     OW15775   0.695   1.552   9.160  0.1948  0.0703  0.2171
 1381SOL    HW115776   0.745   1.613   9.215 -1.7914  0.5952  1.4402
 1381SOL    HW215777   0.641   1.607   9.104 -0.3612 -1.9325 -1.2014
 1382SOL     OW15778   0.360   0.358   5.257  0.6355  0.0208  0.1827
 1382SOL    HW115779   0.423   0.424   5.229  1.7939 -1.6177 -1.1120
 1382SOL    HW215780   0.360   0.383   5.349  0.8545 -3.0553  1.0166
 1383SOL     OW15781   1.681   4.271   2.484  0.0837  0.4017  0.1382
 1383SOL    HW115782   1.771   4.255   2.512  0.4476  2.0713 -0.0656
 1383SOL    HW215783   1.636   4.209   2.541  1.3607 -1.8279 -1.2562
 1384SOL     OW15784   4.312   3.017  12.897  0.2004  0.3714  0.1069
 1384SOL    HW115785   4.334   3.096  12.847 -3.5728  0.2609 -1.7289
 1384SOL    HW215786   4.396   2.971  12.895  0.8753  1.6145 -0.2853
 1385SOL     OW15787   1.157   0.074  12.976  0.0768 -0.2568  0.1339
 1385SOL    HW115788   1.064   0.073  12.998 -0.0561 -2.3296 -0.5118
 1385SOL    HW215789   1.194   0.110  13.057  1.8668  1.6089 -1.5260
 1386SOL     OW15790   1.094   2.701  13.062 -0.3284 -0.7428 -0.2556
 1386SOL    HW115791   1.026   2.744  13.011  2.3075  3.3162 -0.3780
 1386SOL    HW215792   1.036   2.649  13.118  0.3894 -2.2164 -0.8698
 1387SOL     OW15793   1.446   0.646  16.628 -0.0343  0.5151 -0.4063
 1387SOL    HW115794   1.508   0.702  16.579  0.3994 -0.0190 -0.4608
 1387SOL    HW215795   1.496   0.566  16.640 -0.3134  0.3964 -0.0487
 1388SOL     OW15796   2.349   2.016   5.472 -0.3837  0.1048  0.1589
 1388SOL    HW115797   2.382   1.927   5.456 -3.0685 -0.2596 -3.5882
 1388SOL    HW215798   2.289   2.000   5.545  1.7348 -3.4071  1.1360
 1389SOL     OW15799   1.750   1.021  17.131 -0.4581 -0.1559  0.2515
 1389SOL    HW115800   1.765   0.975  17.214  0.9275 -0.1916 -0.0147
 1389SOL    HW215801   1.781   1.108  17.156 -2.5552  1.0379 -1.2862
 1390SOL     OW15802   1.520   4.078  12.547 -0.0493 -0.0327  0.4551
 1390SOL    HW115803   1.481   3.998  12.582 -1.3863  0.0292 -0.8842
 1390SOL    HW215804   1.556   4.119  12.625  1.0816  0.7566 -0.4733
 1391SOL     OW15805   0.989   4.164   8.262 -0.1651 -0.4712 -0.3235
 1391SOL    HW115806   1.017   4.075   8.280 -1.1717 -0.5791  0.7395
 1391SOL    HW215807   1.059   4.202   8.210  0.3158  0.5601  1.0616
 1392SOL     OW15808   4.106   3.679   4.555  0.0753 -0.6099  0.3710
 1392SOL    HW115809   4.194   3.683   4.519 -0.2237 -3.2089 -0.6190
 1392SOL    HW215810   4.092   3.766   4.593  0.4608 -0.0367 -0.8127
 1393SOL     OW15811   4.181   1.092   6.845  0.1305 -0.2393 -0.0197
 1393SOL    HW115812   4.201   1.025   6.910 -2.0494 -0.3320  0.5536
 1393SOL    HW215813   4.119   1.047   6.788  0.8593  0.0685 -1.0564
 1394SOL     OW15814   2.286   1.132  13.889  0.4233 -0.0330  0.4889
 1394SOL    HW115815   2.294   1.063  13.823 -0.8415 -0.6858  1.0212
 1394SOL    HW215816   2.283   1.214  13.839  3.0237  0.4146  1.0499
 1395SOL     OW15817   1.957   3.281  11.792  0.1388 -0.6479  0.3919
 1395SOL    HW115818   2.044   3.304  11.759  1.8402 -1.9825  3.9761
 1395SOL    HW215819   1.905   3.360  11.778  0.8466 -0.1512  0.5617
 1396SOL     OW15820   2.374   0.643  11.938  0.2361 -0.2281 -0.6698
 1396SOL    HW115821   2.392   0.638  12.032  2.7860  0.0422 -1.1361
 1396SOL    HW215822   2.298   0.586  11.924 -0.8153  0.8083  0.7805
 1397SOL     OW15823   2.738   1.769  17.183  0.4178 -0.0019  0.1882
 1397SOL    HW115824   2.774   1.706  17.120  1.1827  0.1474  0.4737
 1397SOL    HW215825   2.660   1.792  17.133 -0.0620  1.2904  1.5478
 1398SOL     OW15826   0.993   0.187   5.900  0.0374  0.6926  0.9693
 1398SOL    HW115827   0.904   0.214   5.877  0.8199  2.7193  0.3427
 1398SOL    HW215828   0.992   0.197   5.995 -1.2799 -3.0025  1.3407
 1399SOL     OW15829   3.112   2.617   1.440  0.0001 -0.5922 -0.9368
 1399SOL    HW115830   3.034   2.650   1.397 -1.0769  2.2138  3.1802
 1399SOL    HW215831   3.138   2.544   1.383 -1.7557 -1.7558 -0.2234
 1400SOL     OW15832   3.420   0.562   7.647  0.6165  0.1196  0.1070
 1400SOL    HW115833   3.461   0.565   7.560 -1.5721  2.6659 -0.8177
 1400SOL    HW215834   3.469   0.488   7.684  1.9532  0.3648 -1.1642
 1401SOL     OW15835   1.601   1.676   2.471 -0.1087 -0.1126  0.2508
 1401SOL    HW115836   1.564   1.712   2.552  0.8809 -1.4214  1.3051
 1401SOL    HW215837   1.656   1.605   2.505 -2.1878 -1.3360  1.1372
 1402SOL     OW15838   1.748   4.081   4.398 -0.3699  0.0374 -0.0756
 1402SOL    HW115839   1.665   4.085   4.350 -1.3488 -2.0640  1.4743
 1402SOL    HW215840   1.734   4.001   4.447 -1.7517  0.4739  0.2404
 1403SOL     OW15841   1.688   3.833   9.650 -0.0858  0.2412  0.2653
 1403SOL    HW115842   1.623   3.763   9.649  0.3772 -0.1839 -0.8204
 1403SOL    HW215843   1.762   3.774   9.639 -0.0448  0.4459 -0.6020
 1404SOL     OW15844   3.563   2.495  13.781 -0.2119  0.1108 -0.0909
 1404SOL    HW115845   3.508   2.497  13.859 -0.8306 -0.0001 -0.5193
 1404SOL    HW215846   3.500   2.485  13.710  1.0794 -0.9883 -1.0837
 1405SOL     OW15847   1.794   3.790   8.130  0.3241  0.0501 -0.5006
 1405SOL    HW115848   1.705   3.825   8.128 -0.0732 -0.7454  4.6174
 1405SOL    HW215849   1.781   3.727   8.201  1.5664  0.4938  0.1011
 1406SOL     OW15850   0.314   1.158   0.733 -0.0541 -0.5836  0.1190
 1406SOL    HW115851   0.310   1.230   0.796 -1.9088 -1.5024  1.0573
 1406SOL    HW215852   0.228   1.157   0.691  0.5349 -1.7702 -1.0623
 1407SOL     OW15853   0.638   4.493   6.298  0.2815 -0.5772  0.4732
 1407SOL    HW115854   0.727   4.509   6.329  0.7439  1.1096 -1.7393
 1407SOL    HW215855   0.636   4.399   6.314 -0.4940 -0.7168 -0.4356
 1408SOL     OW15856   4.606   0.623   0.835 -0.4490 -0.9073  0.0639
 1408SOL    HW115857   4.639   0.699   0.883 -1.0035 -0.8130  0.2941
 1408SOL    HW215858   4.519   0.646   0.802  0.1562  3.0296  1.1807
 1409SOL     OW15859   4.346   3.026   4.595  0.3675 -0.2360 -0.2614
 1409SOL    HW115860   4.295   3.058   4.670 -0.2954 -0.4138 -0.6353
 1409SOL    HW215861   4.290   3.046   4.520 -0.4868 -0.6497  0.2640
 1410SOL     OW15862   0.545   4.528   2.422 -0.4162  0.0679 -0.2990
 1410SOL    HW115863   0.457   4.490   2.415  0.4969 -2.1857  0.3823
 1410SOL    HW215864   0.505   4.615   2.424 -0.5467  0.0028  0.0461
 1411SOL     OW15865   3.562   4.598   1.257 -0.1761  0.3159  0.5491
 1411SOL    HW115866   3.525   4.549   1.330 -0.5422  1.3083  1.0288
 1411SOL    HW215867   3.559   4.686   1.296  0.2557  0.8491 -0.6011
 1412SOL     OW15868   4.201   1.276   8.398 -0.4219  0.2637 -0.1609
 1412SOL    HW115869   4.155   1.311   8.475  0.5026 -1.2787  1.1078
 1412SOL    HW215870   4.218   1.185   8.423  0.6911  0.2129 -1.1484
 1413SOL     OW15871   2.143   2.525   7.638 -0.2624  0.4565 -0.1492
 1413SOL    HW115872   2.184   2.605   7.606  0.0000  0.4505  0.1647
 1413SOL    HW215873   2.218   2.482   7.680  0.1426  0.4167 -0.9074
 1414SOL     OW15874   1.033   2.601  17.205 -0.4098  0.3643  0.4377
 1414SOL    HW115875   1.086   2.546  17.148 -0.1122  1.6468 -0.5216
 1414SOL    HW215876   1.089   2.671  17.241  0.7990 -0.9574  1.1391
 1415SOL     OW15877   3.244   1.334  14.002  0.8118  0.4299  0.3109
 1415SOL    HW115878   3.195   1.385  13.938  0.2173 -1.1101 -0.4671
 1415SOL    HW215879   3.204   1.355  14.087  2.3066  0.0680  1.1011
 1416SOL     OW15880   4.541   0.967  14.516  0.2911  0.2371 -0.1777
 1416SOL    HW115881   4.592   0.919  14.451  1.3436  2.2834 -0.8553
 1416SOL    HW215882   4.602   1.026  14.561  0.5374 -0.9230  1.0354
 1417SOL     OW15883   1.482   0.413  12.299  0.1542  0.1620 -0.6550
 1417SOL    HW115884   1.441   0.366  12.226  0.2364 -2.3363  0.8791
 1417SOL    HW215885   1.503   0.494  12.253 -0.2428  2.0663  2.5703
 1418SOL     OW15886   2.078   3.456   8.433  0.0764  0.2273  0.4057
 1418SOL    HW115887   2.103   3.515   8.505  0.7096  1.1402 -0.5733
 1418SOL    HW215888   2.072   3.514   8.357 -0.5706 -0.7048 -0.2378
 1419SOL     OW15889   1.902   2.048  12.308 -0.0325 -0.1608  0.5217
 1419SOL    HW115890   1.817   2.061  12.266  0.4606  0.4957 -0.2554
 1419SOL    HW215891   1.899   1.953  12.291  1.2333  0.2463 -1.9013
 1420SOL     OW15892   0.945   1.601  10.297  0.1552 -0.6721 -0.1145
 1420SOL    HW115893   0.973   1.654  10.371  0.1719  1.1987 -1.4629
 1420SOL    HW215894   0.988   1.515  10.298  0.8921 -0.2849  0.7285
 1421SOL     OW15895   1.617   0.347   8.577  0.6982  0.3766 -0.2193
 1421SOL    HW115896   1.603   0.435   8.542 -2.7806 -0.5221 -1.0548
 1421SOL    HW215897   1.621   0.291   8.499 -0.0678  1.7939 -1.2562
 1422SOL     OW15898   1.719   2.770   4.754  0.4770 -0.3450  0.1645
 1422SOL    HW115899   1.681   2.739   4.672  0.4475 -0.9606  0.4070
 1422SOL    HW215900   1.681   2.854   4.775  0.2115 -0.2367 -0.7620
 1423SOL     OW15901   2.694   2.647  16.563 -0.2692  0.1886  0.0130
 1423SOL    HW115902   2.653   2.708  16.502 -0.6809 -0.4792 -0.3837
 1423SOL    HW215903   2.768   2.624  16.507 -0.4835  0.5183 -0.4084
 1424SOL     OW15904   2.089   0.718   6.005 -0.1451  0.1051  0.4201
 1424SOL    HW115905   2.025   0.776   5.963  0.5555 -0.5646 -1.5637
 1424SOL    HW215906   2.051   0.630   6.008 -0.3438  0.1640 -0.3004
 1425SOL     OW15907   0.277   2.560  12.726 -0.2558  0.3026 -0.4367
 1425SOL    HW115908   0.274   2.598  12.814 -1.3543 -0.8158  0.0067
 1425SOL    HW215909   0.236   2.474  12.737 -0.0329  0.2981  0.3137
 1426SOL     OW15910   0.616   4.728   2.115 -0.5069  0.0335  0.3558
 1426SOL    HW115911   0.684   0.044   2.157 -0.2144  0.7900 -1.0817
 1426SOL    HW215912   0.627   4.646   2.163 -0.7342 -0.8878 -1.1623
 1427SOL     OW15913   1.125   1.775  10.464 -0.4024  0.4714 -0.7642
 1427SOL    HW115914   1.216   1.802  10.477 -0.8009  2.2253 -1.6023
 1427SOL    HW215915   1.076   1.856  10.477 -0.4259  0.1560  1.1718
 1428SOL     OW15916   3.137   2.345   4.000  0.3574  0.9051  0.0974
 1428SOL    HW115917   3.059   2.396   4.018  0.1489  1.2084 -1.6816
 1428SOL    HW215918   3.193   2.422   4.005  0.3127  0.7432  2.8033
 1429SOL     OW15919   1.310   1.056   9.527 -0.3749 -0.1205 -0.6306
 1429SOL    HW115920   1.225   1.015   9.537 -0.5296  0.6203  1.1647
 1429SOL    HW215921   1.276   1.145   9.536 -1.6579 -0.6787  0.0053
 1430SOL     OW15922   1.434   1.122   0.720  0.1923  0.2870  0.4491
 1430SOL    HW115923   1.437   1.196   0.780 -1.4579 -1.2530  2.4510
 1430SOL    HW215924   1.482   1.157   0.645  1.1561 -0.9105  0.5032
 1431SOL     OW15925   1.212   1.804   2.577  0.3770 -0.0992 -0.3128
 1431SOL    HW115926   1.170   1.885   2.546  0.3988 -0.1284 -0.4177
 1431SOL    HW215927   1.135   1.748   2.582 -1.0550  2.1167  2.1896
 1432SOL     OW15928   3.314   0.008   7.297  0.0600 -0.2224 -0.2665
 1432SOL    HW115929   3.365   0.027   7.218  0.0177  1.9156  0.2058
 1432SOL    HW215930   3.237   0.056   7.268  0.4138  0.4256 -0.1419
 1433SOL     OW15931   1.620   4.355   6.083 -0.2638 -0.1087 -0.1459
 1433SOL    HW115932   1.596   4.436   6.129 -0.6036  1.9258 -3.9031
 1433SOL    HW215933   1.565   4.365   6.005  1.9449  1.7273 -1.4613
 1434SOL     OW15934   0.699   2.074   7.383  0.5075  0.2014  0.2508
 1434SOL    HW115935   0.604   2.078   7.369  0.5960 -0.1196 -0.4443
 1434SOL    HW215936   0.733   2.156   7.349  0.6959  0.2032  0.4476
 1435SOL     OW15937   4.063   3.810   5.993 -0.4216 -0.2165  0.4084
 1435SOL    HW115938   3.977   3.841   6.022  0.0567  2.4739 -1.0503
 1435SOL    HW215939   4.043   3.782   5.904  1.0259 -1.8313  0.5918
 1436SOL     OW15940   3.977   3.383   0.247  0.6545 -0.0972  0.1770
 1436SOL    HW115941   3.957   3.300   0.290  0.0375  0.5749  1.1807
 1436SOL    HW215942   4.058   3.352   0.207  1.0991  0.6052  0.5353
 1437SOL     OW15943   2.221   3.489   5.821 -0.5319  0.2207  0.3477
 1437SOL    HW115944   2.281   3.503   5.748 -0.7090  0.8535  0.3260
 1437SOL    HW215945   2.280   3.514   5.892 -1.9431 -0.5844  1.8058
 1438SOL     OW15946   0.757   0.211   4.630 -0.4672  0.9546 -0.4444
 1438SOL    HW115947   0.801   0.258   4.700 -1.6266 -1.2455  1.7457
 1438SOL    HW215948   0.772   0.250   4.544  0.5287  1.3007 -0.1139
 1439SOL     OW15949   2.712   2.325   1.560  0.6477 -0.0678 -0.1209
 1439SOL    HW115950   2.648   2.263   1.596 -2.2011  2.4353 -0.8428
 1439SOL    HW215951   2.762   2.272   1.498 -0.3090 -1.3424  0.1812
 1440SOL     OW15952   3.083   0.318  13.476  0.7836 -0.5190 -0.2945
 1440SOL    HW115953   3.035   0.397  13.500 -0.7980 -1.8091  0.8365
 1440SOL    HW215954   3.105   0.276  13.559 -0.2284 -0.2597  0.1119
 1441SOL     OW15955   0.546   1.290   8.763  0.2667  0.0045  0.5873
 1441SOL    HW115956   0.624   1.294   8.818  0.7343 -1.6702  0.0477
 1441SOL    HW215957   0.517   1.377   8.789  0.3883 -0.2941  1.7348
 1442SOL     OW15958   0.072   3.092  14.739 -0.1709 -0.3045 -0.1952
 1442SOL    HW115959   0.051   3.112  14.648 -0.3321 -2.1420 -0.5678
 1442SOL    HW215960   4.734   3.036  14.758 -0.1045 -0.4255 -0.2860
 1443SOL     OW15961   2.077   4.224  10.487 -0.3894  0.6185 -0.5709
 1443SOL    HW115962   2.089   4.318  10.499  1.6449  0.3033 -0.0335
 1443SOL    HW215963   1.987   4.226  10.519 -0.1470  2.6068 -0.0264
 1444SOL     OW15964   2.196   1.677   6.361 -0.2524  0.4249 -0.6990
 1444SOL    HW115965   2.232   1.596   6.398 -0.1188  1.2240  0.8923
 1444SOL    HW215966   2.222   1.743   6.425  0.1914 -0.6556  0.2525
 1445SOL     OW15967   1.208   1.984   7.179 -0.4590 -0.0597  0.2029
 1445SOL    HW115968   1.237   1.997   7.089 -0.3425  0.1671  0.2737
 1445SOL    HW215969   1.123   1.942   7.162 -0.9946  0.5409  1.3582
 1446SOL     OW15970   4.221   4.234  13.116  0.3030 -0.0569  0.1198
 1446SOL    HW115971   4.219   4.277  13.030  1.0282  1.6620  0.9557
 1446SOL    HW215972   4.182   4.149  13.099 -2.2293  0.7993  1.7525
 1447SOL     OW15973   0.157   2.493  16.477  0.0143 -0.5061  0.1344
 1447SOL    HW115974   0.120   2.546  16.406  1.9565  0.3686 -0.2034
 1447SOL    HW215975   0.219   2.442  16.424  0.8165  0.3373  0.2696
 1448SOL     OW15976   1.982   2.521   5.467  0.4737 -0.0301 -0.1973
 1448SOL    HW115977   1.953   2.553   5.382  0.4191 -0.6913 -0.4254
 1448SOL    HW215978   2.017   2.435   5.443  0.6375 -0.0624  0.1569
 1449SOL     OW15979   1.105   3.289   3.016  0.3373  0.2174  0.1263
 1449SOL    HW115980   1.185   3.334   3.045 -2.1163  2.9255  2.6570
 1449SOL    HW215981   1.038   3.345   3.055 -0.7815  0.4751 -2.2032
 1450SOL     OW15982   2.863   1.681   5.520  0.1421  0.2297  0.6354
 1450SOL    HW115983   2.794   1.714   5.463  2.3402  2.1638 -0.9004
 1450SOL    HW215984   2.824   1.713   5.601  1.0906 -0.0691  1.2094
 1451SOL     OW15985   3.104   0.734   4.190 -0.5931 -0.1508 -0.0274
 1451SOL    HW115986   3.146   0.650   4.170 -1.2596 -0.4703 -0.0850
 1451SOL    HW215987   3.159   0.757   4.265  1.2149  0.0326 -1.4132
 1452SOL     OW15988   1.168   1.934   5.245 -0.2082  0.3254  0.1169
 1452SOL    HW115989   1.151   1.933   5.151  1.7630  2.1122 -0.2637
 1452SOL    HW215990   1.230   2.007   5.252 -0.9086  0.6965  2.4302
 1453SOL     OW15991   4.360   3.706  13.643 -0.2484 -0.2133  0.0264
 1453SOL    HW115992   4.381   3.799  13.644  1.3638 -0.5795  1.0348
 1453SOL    HW215993   4.443   3.666  13.668 -1.4467 -1.1881  2.4716
 1454SOL     OW15994   3.171   2.256   5.163 -0.2143 -0.3123 -0.1817
 1454SOL    HW115995   3.215   2.187   5.213 -1.2489 -0.6373  0.2783
 1454SOL    HW215996   3.134   2.308   5.234  2.5139  0.1785  0.8665
 1455SOL     OW15997   3.473   3.826   3.249 -0.1686 -0.3078 -0.0431
 1455SOL    HW115998   3.461   3.747   3.302  0.0313 -1.7156 -2.1060
 1455SOL    HW215999   3.519   3.784   3.176 -0.3427  1.1218 -0.9756
 1456SOL     OW16000   4.697   3.304   5.243  0.3610  0.4399 -0.4753
 1456SOL    HW116001   4.658   3.217   5.231 -1.9390  1.4033  0.0172
 1456SOL    HW216002   0.054   3.292   5.239  0.5320  2.6280 -2.8523
 1457SOL     OW16003   2.374   1.686   5.998  0.2385  0.0624  0.3415
 1457SOL    HW116004   2.348   1.757   5.940 -1.6595  0.1459  1.2868
 1457SOL    HW216005   2.309   1.691   6.069  0.6937 -1.1815  0.8488
 1458SOL     OW16006   4.534   1.427   6.366  0.2346 -0.0671  0.3781
 1458SOL    HW116007   4.470   1.420   6.295  0.3126 -1.3526  0.4214
 1458SOL    HW216008   4.583   1.346   6.348 -0.1658 -0.1049 -0.5294
 1459SOL     OW16009   1.351   1.069  15.144  0.6024 -0.1516  0.0603
 1459SOL    HW116010   1.348   1.058  15.049 -0.7596  0.0480  0.0753
 1459SOL    HW216011   1.269   1.029  15.172  0.3130  0.1769 -0.3129
 1460SOL     OW16012   3.109   1.846  16.279 -0.7568  0.4518 -0.3855
 1460SOL    HW116013   3.040   1.860  16.344 -0.3610  1.8158 -0.2666
 1460SOL    HW216014   3.162   1.783  16.329 -1.6930  1.8063  2.3206
 1461SOL     OW16015   1.606   3.567   9.372 -1.5352  0.2509 -0.0737
 1461SOL    HW116016   1.543   3.544   9.440 -0.5519  0.6696  0.9860
 1461SOL    HW216017   1.682   3.517   9.399  1.1466  4.1806 -0.3415
 1462SOL     OW16018   3.650   4.431   9.436  0.0964  0.1558 -0.3082
 1462SOL    HW116019   3.592   4.419   9.360  0.4579 -1.7587 -0.2972
 1462SOL    HW216020   3.661   4.525   9.430 -0.7805  0.0724 -3.2578
 1463SOL     OW16021   3.164   0.079  15.630  0.5188 -0.0676 -0.2499
 1463SOL    HW116022   3.240   0.097  15.685  1.2915  1.5206 -1.8564
 1463SOL    HW216023   3.093   0.065  15.692  0.3405 -2.5437 -1.0091
 1464SOL     OW16024   0.987   1.919   3.895 -0.2897 -0.0553 -0.3763
 1464SOL    HW116025   1.044   1.935   3.819  1.5673 -2.4974  0.4909
 1464SOL    HW216026   0.964   1.829   3.871 -3.7848  0.4361  1.1279
 1465SOL     OW16027   0.100   0.039  17.430 -0.1291 -0.0128  0.0339
 1465SOL    HW116028   0.161   0.111  17.450  0.5500 -0.5532 -0.0838
 1465SOL    HW216029   0.046   0.082  17.363  0.2348  0.5434  0.0926
 1466SOL     OW16030   0.181   0.684   6.811  0.2725 -0.4394  0.1925
 1466SOL    HW116031   0.166   0.707   6.902  0.7372 -1.0223  0.4145
 1466SOL    HW216032   0.170   0.589   6.820  0.1143 -0.3814  0.6264
 1467SOL     OW16033   2.297   4.214   2.415 -0.4478 -0.2443  0.1832
 1467SOL    HW116034   2.385   4.247   2.434 -1.2841  0.9847  1.8960
 1467SOL    HW216035   2.244   4.292   2.429 -2.3819 -1.4811 -0.1465
 1468SOL     OW16036   4.572   2.693   0.758 -0.0137  0.2452  0.1751
 1468SOL    HW116037   4.575   2.681   0.853  0.8222 -1.0694 -0.0187
 1468SOL    HW216038   4.526   2.777   0.747  0.9438  0.5417 -1.4754
 1469SOL     OW16039   0.054   0.984   2.838 -0.1316  0.7283 -0.2829
 1469SOL    HW116040   0.021   1.013   2.753  0.5567  1.6873 -0.2266
 1469SOL    HW216041   4.721   1.026   2.887  1.5802  2.0936  0.9944
 1470SOL     OW16042   1.789   1.294  16.168  0.2442 -0.3338  0.3180
 1470SOL    HW116043   1.884   1.288  16.179  0.3164 -0.1766 -0.1965
 1470SOL    HW216044   1.758   1.229  16.105  1.2846 -0.9226  0.4224
 1471SOL     OW16045   0.297   0.672  11.486  0.2775  0.2025 -0.3117
 1471SOL    HW116046   0.343   0.590  11.500 -0.1925 -0.1380 -0.7481
 1471SOL    HW216047   0.210   0.643  11.512  0.2947 -0.5373 -1.0558
 1472SOL     OW16048   0.795   4.510   8.011 -0.1739 -0.6528  0.3309
 1472SOL    HW116049   0.788   4.591   8.062 -0.6713  0.0469 -0.8615
 1472SOL    HW216050   0.805   4.546   7.923 -1.4296 -0.0937  0.4202
 1473SOL     OW16051   3.143   4.241   9.341  0.2612  0.0691  0.8491
 1473SOL    HW116052   3.092   4.161   9.325 -1.2275  1.1886 -0.0125
 1473SOL    HW216053   3.230   4.203   9.327  0.8410  1.4368  0.7151
 1474SOL     OW16054   0.047   1.554   6.217  0.1181  0.1621  0.4647
 1474SOL    HW116055   0.078   1.464   6.212 -1.3548 -0.3228 -0.1899
 1474SOL    HW216056   4.715   1.556   6.283 -2.1005 -1.5993 -1.8323
 1475SOL     OW16057   1.626   2.649   7.935  0.0571  0.0616 -1.1603
 1475SOL    HW116058   1.641   2.697   7.854  0.9159 -0.8278 -1.5286
 1475SOL    HW216059   1.640   2.556   7.917 -1.3379 -0.1450 -1.2345
 1476SOL     OW16060   3.862   3.574  14.252 -0.2607 -0.6648  0.0747
 1476SOL    HW116061   3.837   3.498  14.200  2.0276 -1.9172  0.7914
 1476SOL    HW216062   3.866   3.645  14.188  2.2227 -1.2617 -0.4350
 1477SOL     OW16063   4.379   3.778   4.845  0.4639  0.5132 -0.4636
 1477SOL    HW116064   4.418   3.693   4.824 -2.7261 -0.8289 -0.8377
 1477SOL    HW216065   4.395   3.790   4.939  0.5734 -0.6221 -0.3398
 1478SOL     OW16066   0.189   3.152   3.486  0.3492  0.3424  0.1461
 1478SOL    HW116067   0.219   3.136   3.397  3.1903  0.4186  1.1057
 1478SOL    HW216068   0.123   3.221   3.480 -2.7941 -2.7274 -0.3884
 1479SOL     OW16069   2.246   3.988   7.430 -0.0580 -0.1146  0.0807
 1479SOL    HW116070   2.227   3.971   7.338  0.4785 -1.1147  0.1639
 1479SOL    HW216071   2.314   4.055   7.426 -0.3346  0.1082 -0.9350
 1480SOL     OW16072   0.154   1.638   0.514  0.0108  0.2759  0.5715
 1480SOL    HW116073   0.086   1.696   0.480  1.4776  1.5173 -0.2404
 1480SOL    HW216074   0.225   1.633   0.449 -0.3024 -0.5104  0.2875
 1481SOL     OW16075   0.044   0.294   7.077  0.1409  0.4225 -0.1599
 1481SOL    HW116076   4.705   0.285   7.134  0.9030  3.2505  1.3198
 1481SOL    HW216077   0.079   0.205   7.080 -1.1163 -0.0800 -0.1263
 1482SOL     OW16078   2.036   4.333  12.534  0.7051 -0.1141  0.2319
 1482SOL    HW116079   2.122   4.365  12.559  0.2784  1.2101 -0.0022
 1482SOL    HW216080   1.981   4.387  12.590  1.7367 -0.1340  1.2640
 1483SOL     OW16081   1.311   1.920  15.801  0.2324 -0.8420 -0.4943
 1483SOL    HW116082   1.275   1.951  15.718 -0.4807  0.7306  0.4155
 1483SOL    HW216083   1.387   1.864  15.781 -0.3094 -1.5092 -0.6833
 1484SOL     OW16084   1.297   0.276   8.583 -0.0859 -0.4178 -0.4288
 1484SOL    HW116085   1.341   0.302   8.502  0.1874  0.4019 -0.0218
 1484SOL    HW216086   1.343   0.341   8.637 -0.5131 -0.5129  0.0463
 1485SOL     OW16087   1.479   3.409   9.562  0.3574  0.3069 -0.0028
 1485SOL    HW116088   1.514   3.324   9.535  1.4491  0.1797  1.7784
 1485SOL    HW216089   1.387   3.383   9.570  0.0516  1.1614 -0.7711
 1486SOL     OW16090   2.445   1.313   9.296  0.0009  0.1223  0.6789
 1486SOL    HW116091   2.483   1.249   9.356  1.6273  0.0294 -0.4358
 1486SOL    HW216092   2.404   1.268   9.223 -2.3791  1.7888  0.9981
 1487SOL     OW16093   2.932   3.295   5.904 -0.1508 -0.1573 -0.2793
 1487SOL    HW116094   2.998   3.248   5.854  0.1421 -0.7338  0.6561
 1487SOL    HW216095   2.970   3.383   5.906 -0.7445  0.1462 -1.8415
 1488SOL     OW16096   2.610   1.273   1.906  0.4106  0.2036  0.0537
 1488SOL    HW116097   2.638   1.300   1.819 -1.0724  0.0167 -0.4825
 1488SOL    HW216098   2.586   1.184   1.880 -1.4309  0.1360  1.9537
 1489SOL     OW16099   2.351   3.470  13.833  0.0443 -0.1398 -0.0380
 1489SOL    HW116100   2.352   3.542  13.769  0.1450 -0.3338 -0.2553
 1489SOL    HW216101   2.269   3.426  13.815  0.1310 -0.7299  1.0234
 1490SOL     OW16102   2.159   2.752  13.486 -0.3134  0.1967  0.3738
 1490SOL    HW116103   2.112   2.673  13.513  2.0776 -1.2729  0.2875
 1490SOL    HW216104   2.173   2.798  13.569  0.5782  0.5663  0.0243
 1491SOL     OW16105   4.446   2.435   1.230  0.6015 -0.0621  0.5375
 1491SOL    HW116106   4.528   2.403   1.268  2.5744  3.3337 -0.8076
 1491SOL    HW216107   4.383   2.452   1.299  0.3855  1.6087 -0.0660
 1492SOL     OW16108   0.793   3.574   7.872 -0.5273 -0.3131  0.1323
 1492SOL    HW116109   0.779   3.494   7.922 -0.7707  0.3998  1.2039
 1492SOL    HW216110   0.877   3.556   7.830 -1.1605 -2.1857 -0.3223
 1493SOL     OW16111   0.869   1.552  16.868  0.3093 -0.3529 -0.3956
 1493SOL    HW116112   0.832   1.521  16.951 -0.9283  3.4638  0.4597
 1493SOL    HW216113   0.890   1.644  16.882 -0.6720 -0.0419 -0.9472
 1494SOL     OW16114   2.628   2.114   4.362 -0.4143 -0.2176  0.1539
 1494SOL    HW116115   2.687   2.088   4.291 -1.2619  1.8438 -1.2879
 1494SOL    HW216116   2.550   2.133   4.309 -2.1945 -4.7675  1.1983
 1495SOL     OW16117   1.122   3.321  13.424 -0.3657  0.0493  0.3973
 1495SOL    HW116118   1.118   3.226  13.421 -0.1169 -0.0413  2.9966
 1495SOL    HW216119   1.087   3.342  13.511 -0.3941 -1.5633  0.7707
 1496SOL     OW16120   3.790   1.180  11.465 -0.1410 -0.0037  0.3211
 1496SOL    HW116121   3.857   1.116  11.440  0.5835  0.9174 -0.0671
 1496SOL    HW216122   3.721   1.160  11.402 -0.3540 -0.3085  0.6477
 1497SOL     OW16123   4.695   4.379   7.893  0.4963  0.8553 -0.2052
 1497SOL    HW116124   4.672   4.418   7.808 -1.3876  1.2947  0.5098
 1497SOL    HW216125   4.706   4.451   7.955 -1.6417  0.3333  0.7570
 1498SOL     OW16126   3.514   0.382   5.547  0.1025  0.3050  0.2485
 1498SOL    HW116127   3.565   0.307   5.578 -1.5448 -0.8823  0.0556
 1498SOL    HW216128   3.577   0.454   5.558  0.4354  0.2101 -1.1221
 1499SOL     OW16129   1.350   1.514   2.490  0.2290 -0.0895 -1.2806
 1499SOL    HW116130   1.276   1.570   2.515 -0.0522 -0.3010 -1.6289
 1499SOL    HW216131   1.413   1.580   2.463  1.8609 -1.4179 -0.7661
 1500SOL     OW16132   1.916   3.970  16.210 -0.6106  0.4546 -0.5428
 1500SOL    HW116133   1.932   4.063  16.228  1.9519  0.0256 -0.6017
 1500SOL    HW216134   1.957   3.923  16.283 -1.2371  1.6976  0.6028
 1501SOL     OW16135   0.024   3.392   3.410  0.2449  0.3182  0.0728
 1501SOL    HW116136   4.683   3.444   3.428 -2.2675 -2.5152 -2.9471
 1501SOL    HW216137   4.725   3.334   3.344 -2.5686 -0.9123  2.6923
 1502SOL     OW16138   1.605   2.942   0.364 -0.0651 -0.3695  0.6797
 1502SOL    HW116139   1.531   2.923   0.306  0.5179 -0.7451  0.0517
 1502SOL    HW216140   1.626   3.034   0.347 -1.3566 -0.0332  0.9678
 1503SOL     OW16141   3.837   0.438   3.949  0.1358 -0.6588  0.2599
 1503SOL    HW116142   3.814   0.482   4.030 -1.2009 -2.3934  0.8230
 1503SOL    HW216143   3.890   0.368   3.988  0.7934 -0.9044 -1.0444
 1504SOL     OW16144   0.717   2.582   7.295  0.4207 -0.2845  0.0801
 1504SOL    HW116145   0.648   2.601   7.359  0.9798 -2.1191  1.2479
 1504SOL    HW216146   0.726   2.488   7.314 -1.2950 -0.4937 -0.1508
 1505SOL     OW16147   0.329   2.951   3.599 -0.1932  0.4859 -0.1523
 1505SOL    HW116148   0.284   2.866   3.602  0.8773 -0.1151 -0.9217
 1505SOL    HW216149   0.268   3.012   3.558  0.3959  2.0912  1.3504
 1506SOL     OW16150   0.154   0.030   8.812  0.3083 -0.9766  0.0119
 1506SOL    HW116151   0.187   0.091   8.746  0.9151 -1.6208 -0.2766
 1506SOL    HW216152   0.234   4.717   8.824  0.7222 -0.5773 -1.1195
 1507SOL     OW16153   4.131   4.449  14.754  0.1359 -0.3434  0.0859
 1507SOL    HW116154   4.121   4.461  14.660 -1.8010  1.8198  0.5471
 1507SOL    HW216155   4.118   4.355  14.765 -0.9698 -0.4774 -2.3618
 1508SOL     OW16156   0.351   2.281   4.149 -0.1382 -0.1220  0.8427
 1508SOL    HW116157   0.390   2.259   4.065 -0.5602  1.6970  0.1710
 1508SOL    HW216158   0.281   2.216   4.158  0.8596 -1.3616 -0.3467
 1509SOL     OW16159   3.315   3.844   0.627  0.2924  0.0672  0.3659
 1509SOL    HW116160   3.323   3.828   0.533  1.6922  0.0403  0.4822
 1509SOL    HW216161   3.339   3.760   0.666 -0.0950 -0.0619  0.3228
 1510SOL     OW16162   2.906   2.582  17.682  0.0300 -0.3682  0.0150
 1510SOL    HW116163   2.980   2.628  17.721  0.5331 -0.9709 -0.2247
 1510SOL    HW216164   2.841   2.590   0.004  1.1121  0.9272  0.8622
 1511SOL     OW16165   2.997   1.862  11.537 -0.5319  0.9520  0.2141
 1511SOL    HW116166   2.908   1.829  11.524 -0.6420  1.5257 -0.5131
 1511SOL    HW216167   3.005   1.813  11.619 -1.2285  1.5514  0.6337
 1512SOL     OW16168   0.460   3.603   6.554  0.6571  0.2095 -0.7543
 1512SOL    HW116169   0.546   3.572   6.527  0.5179  0.0636 -1.0421
 1512SOL    HW216170   0.480   3.684   6.601 -0.6163  1.1889 -1.8909
 1513SOL     OW16171   3.049   0.800   5.397 -0.3473 -0.1068  0.1233
 1513SOL    HW116172   3.034   0.707   5.382  2.8852 -0.5610 -0.1861
 1513SOL    HW216173   3.106   0.788   5.473 -0.7162 -0.0837  0.4050
 1514SOL     OW16174   0.252   0.510  16.041 -0.2916  0.2373 -0.1035
 1514SOL    HW116175   0.171   0.488  15.996 -1.7491  2.9139  1.1810
 1514SOL    HW216176   0.245   0.477  16.131 -1.5436  1.4255  0.2387
 1515SOL     OW16177   0.298   2.831  11.282 -0.5105  0.2406 -0.5804
 1515SOL    HW116178   0.215   2.823  11.235 -0.4295 -0.4421 -0.6097
 1515SOL    HW216179   0.310   2.925  11.296  0.1209  0.1314 -0.3834
 1516SOL     OW16180   1.617   0.340  11.854 -0.2537  0.1385  0.0589
 1516SOL    HW116181   1.574   0.350  11.769 -0.3896  0.6892  0.1937
 1516SOL    HW216182   1.584   0.424  11.886  0.1968  0.3936 -0.1292
 1517SOL     OW16183   3.408   1.272   2.452  0.1161  0.0452  0.4657
 1517SOL    HW116184   3.468   1.285   2.379 -1.1418  0.3211 -0.5270
 1517SOL    HW216185   3.469   1.251   2.523 -1.7707 -0.1208  2.0679
 1518SOL     OW16186   0.391   2.589   6.857 -0.8944  0.8461  0.0251
 1518SOL    HW116187   0.377   2.681   6.831 -0.5954  0.6433 -0.8545
 1518SOL    HW216188   0.487   2.581   6.854 -0.9701 -0.0267  0.1425
 1519SOL     OW16189   1.889   1.313  15.325  0.6185 -0.1751  0.4804
 1519SOL    HW116190   1.818   1.356  15.374  0.7850 -0.3315  0.8575
 1519SOL    HW216191   1.850   1.326  15.239  0.8353  0.6164  0.5031
 1520SOL     OW16192   3.038   3.623   3.049  0.4741  0.2544  0.2049
 1520SOL    HW116193   2.950   3.660   3.058  0.3380 -0.4852  1.8874
 1520SOL    HW216194   3.024   3.528   3.052 -1.7875  0.4622 -4.2380
 1521SOL     OW16195   1.469   0.099  15.107  0.4676  0.2153 -0.3399
 1521SOL    HW116196   1.480   0.053  15.190  1.2707  0.9386 -0.0436
 1521SOL    HW216197   1.474   0.189  15.141  1.1170 -0.4469  1.3572
 1522SOL     OW16198   0.249   3.381   9.059 -0.0879  0.0208  0.3940
 1522SOL    HW116199   0.189   3.451   9.084  0.6590  0.6415  0.4154
 1522SOL    HW216200   0.188   3.318   9.020  0.7921  0.9441 -2.4647
 1523SOL     OW16201   4.683   1.390   7.807 -0.6083  0.2929 -0.1318
 1523SOL    HW116202   4.723   1.442   7.877 -1.2819  2.3724 -1.2887
 1523SOL    HW216203   4.605   1.364   7.857  0.9334  3.6679  4.0642
 1524SOL     OW16204   0.918   2.605  16.899 -0.3947 -0.4098 -0.3435
 1524SOL    HW116205   0.991   2.545  16.916  0.0501  0.8246  2.0926
 1524SOL    HW216206   0.962   2.685  16.870 -1.9496  0.9940  1.1848
 1525SOL     OW16207   4.655   1.371   2.716  0.4302  0.3417  0.3214
 1525SOL    HW116208   4.577   1.419   2.689  1.3466  1.1488 -0.8184
 1525SOL    HW216209   4.634   1.282   2.688  0.6290  0.6717 -0.8577
 1526SOL     OW16210   4.542   4.602   9.056  0.3724  0.5906  0.1233
 1526SOL    HW116211   4.446   4.607   9.052  0.5574  3.0819 -0.9753
 1526SOL    HW216212   4.571   4.675   9.110 -0.2143  0.4312  0.6491
 1527SOL     OW16213   3.567   0.327   2.953 -0.4920 -0.4225  0.0322
 1527SOL    HW116214   3.510   0.265   2.908  0.6823 -1.0179 -0.6638
 1527SOL    HW216215   3.627   0.259   2.983  1.7907  1.4930 -0.0915
 1528SOL     OW16216   1.020   0.557  17.317  0.6559 -0.1429 -0.4687
 1528SOL    HW116217   0.955   0.503  17.363  0.7845 -0.2305 -0.3903
 1528SOL    HW216218   1.096   0.507  17.344  0.5847 -0.3475 -0.6461
 1529SOL     OW16219   2.724   2.649  10.657  0.1787  0.1031 -0.0582
 1529SOL    HW116220   2.811   2.610  10.648  0.2069  0.5646 -1.7682
 1529SOL    HW216221   2.732   2.664  10.752 -0.0573 -2.2826  0.3423
 1530SOL     OW16222   2.969   1.125   4.303 -0.0002  0.3322  0.0424
 1530SOL    HW116223   3.007   1.110   4.390 -1.5393  0.3338  0.7045
 1530SOL    HW216224   2.895   1.177   4.332  0.1935  1.1097 -0.8725
 1531SOL     OW16225   3.381   0.253   8.178  0.1808  0.1225 -0.0579
 1531SOL    HW116226   3.474   0.244   8.159 -0.0509  0.1175 -1.1690
 1531SOL    HW216227   3.340   0.229   8.095 -0.5720  0.4253  0.2252
 1532SOL     OW16228   3.211   2.512   6.049  0.0886  0.2033 -0.3607
 1532SOL    HW116229   3.258   2.593   6.066 -1.6439  1.3586 -1.0541
 1532SOL    HW216230   3.286   2.453   6.057  1.0865  1.5765  0.3817
 1533SOL     OW16231   1.134   2.229   3.969  0.1184 -0.0908 -0.1965
 1533SOL    HW116232   1.183   2.153   4.000 -0.8331 -0.7079 -0.2032
 1533SOL    HW216233   1.172   2.242   3.882  0.6151 -2.3709 -0.3044
 1534SOL     OW16234   4.548   0.577  10.314  0.0573  0.2176 -0.4728
 1534SOL    HW116235   4.572   0.507  10.375 -0.3745  1.5584  1.2185
 1534SOL    HW216236   4.457   0.598  10.336 -0.1093  0.8952 -1.8336
 1535SOL     OW16237   0.268   1.568   1.277  0.1242 -0.0534 -0.0236
 1535SOL    HW116238   0.271   1.493   1.336  1.7607 -1.0209 -1.3505
 1535SOL    HW216239   0.345   1.544   1.225 -1.4852 -1.9379 -1.5503
 1536SOL     OW16240   1.896   0.899   4.338  0.2198 -0.2710  0.5053
 1536SOL    HW116241   1.881   0.980   4.387  0.4476 -1.8061  3.1451
 1536SOL    HW216242   1.807   0.890   4.303 -0.0875  1.4596  0.8581
 1537SOL     OW16243   4.270   0.761   7.930  0.2477 -0.3243  0.2761
 1537SOL    HW116244   4.277   0.782   8.023  0.5942 -0.6268  0.3187
 1537SOL    HW216245   4.306   0.839   7.887 -2.0754 -0.4106 -1.8493
 1538SOL     OW16246   0.517   2.070   2.348 -0.5182 -0.0204 -0.1593
 1538SOL    HW116247   0.470   2.148   2.320 -1.6939 -0.8023 -0.3859
 1538SOL    HW216248   0.466   2.009   2.294  1.1685 -0.0939 -1.6526
 1539SOL     OW16249   0.520   0.869   7.124  0.1203  0.2620 -0.4759
 1539SOL    HW116250   0.446   0.908   7.078 -0.6599 -2.0128 -1.1778
 1539SOL    HW216251   0.522   0.916   7.207 -1.2082 -0.5080 -0.0076
 1540SOL     OW16252   0.537   0.348   7.371  0.1803  0.5230  0.1437
 1540SOL    HW116253   0.604   0.415   7.381 -0.0943  0.5333  1.9233
 1540SOL    HW216254   0.492   0.398   7.303  1.6983 -0.5077 -1.6445
 1541SOL     OW16255   2.349   3.711   4.868  0.1315  0.0270 -0.3580
 1541SOL    HW116256   2.339   3.792   4.917 -1.3873  0.0482 -0.7052
 1541SOL    HW216257   2.372   3.656   4.943 -0.8236  0.1780  0.0500
 1542SOL     OW16258   1.743   1.591  13.684  0.5151 -0.0258 -0.3097
 1542SOL    HW116259   1.775   1.636  13.606 -2.0836  1.3136 -0.5771
 1542SOL    HW216260   1.822   1.547  13.715  0.7036  1.1704  0.8953
 1543SOL     OW16261   2.419   2.313   6.827 -0.2119  0.2755 -0.0279
 1543SOL    HW116262   2.447   2.370   6.755 -2.7148  2.1506  0.4735
 1543SOL    HW216263   2.344   2.269   6.786  0.0511 -0.0490 -0.1564
 1544SOL     OW16264   0.149   3.770   7.702 -0.9158  0.5348  0.5651
 1544SOL    HW116265   0.196   3.854   7.705 -1.9667  1.1720 -0.8127
 1544SOL    HW216266   0.217   3.704   7.698 -0.8727  0.6516 -0.5592
 1545SOL     OW16267   3.178   1.267   2.288 -0.1816  0.6053 -0.1819
 1545SOL    HW116268   3.194   1.361   2.293 -2.1389  0.9664 -0.5773
 1545SOL    HW216269   3.222   1.248   2.371  0.6682  1.3511 -0.4688
 1546SOL     OW16270   4.241   1.161  12.868 -0.1259 -0.1879 -0.7977
 1546SOL    HW116271   4.197   1.225  12.924 -1.6547 -0.6996 -1.4163
 1546SOL    HW216272   4.309   1.211  12.823  1.2841 -2.5329 -1.2871
 1547SOL     OW16273   2.303   2.546   5.877  0.2153 -0.0544 -0.2005
 1547SOL    HW116274   2.379   2.566   5.822  1.7114 -1.8061  1.2184
 1547SOL    HW216275   2.247   2.502   5.813 -1.0366 -1.1077  1.6315
 1548SOL     OW16276   4.642   0.503  16.039 -0.4805  0.2611 -0.3389
 1548SOL    HW116277   4.620   0.548  15.957  0.8616 -1.2458 -1.5323
 1548SOL    HW216278   4.677   0.426  15.994  1.9541  0.2256  1.6476
 1549SOL     OW16279   0.170   1.664   0.111 -0.4766 -0.4433  0.8734
 1549SOL    HW116280   0.110   1.722   0.064 -1.1904 -1.9985 -0.1652
 1549SOL    HW216281   0.204   1.719   0.182  2.7481  2.3580 -2.8829
 1550SOL     OW16282   4.396   0.772   4.583 -0.0383 -0.5897 -0.0077
 1550SOL    HW116283   4.357   0.858   4.567 -1.4178 -1.0489  0.9000
 1550SOL    HW216284   4.473   0.775   4.527  0.3658  2.5304  0.7027
 1551SOL     OW16285   0.056   2.547   2.655  0.7199 -0.0665 -0.0556
 1551SOL    HW116286   0.149   2.552   2.635  1.1644 -0.3254  1.9770
 1551SOL    HW216287   0.022   2.636   2.654 -0.3342 -0.4332  1.9002
 1552SOL     OW16288   4.089   3.736   2.394  0.3219 -0.1758  0.3299
 1552SOL    HW116289   4.049   3.813   2.435  0.5072  0.1074 -0.0159
 1552SOL    HW216290   4.097   3.689   2.477 -0.6262 -0.9005  0.0122
 1553SOL     OW16291   0.631   1.711   3.887 -0.0630  0.0203 -0.3122
 1553SOL    HW116292   0.649   1.762   3.966  0.7945  0.6977 -0.9576
 1553SOL    HW216293   0.604   1.778   3.825 -0.0336  0.1847 -0.1478
 1554SOL     OW16294   4.167   3.558  11.760  0.1936 -0.3414  0.2803
 1554SOL    HW116295   4.158   3.529  11.851 -1.1042  2.5485  1.0870
 1554SOL    HW216296   4.115   3.491  11.715  0.0964  0.4536 -0.7799
 1555SOL     OW16297   2.246   3.007   8.906 -0.2431 -0.0741  0.0592
 1555SOL    HW116298   2.264   3.035   8.817  1.8745  0.7809  0.7626
 1555SOL    HW216299   2.151   2.995   8.897 -0.1793 -0.4082 -0.2053
 1556SOL     OW16300   3.064   0.821   8.693  0.6568 -0.1876 -0.2074
 1556SOL    HW116301   3.031   0.798   8.780 -1.1347  0.2943 -0.7670
 1556SOL    HW216302   3.068   0.735   8.651  0.5403  0.1779 -0.9776
 1557SOL     OW16303   3.661   2.246   4.460 -0.0101 -0.7616  0.3684
 1557SOL    HW116304   3.674   2.242   4.365 -3.3075 -0.1750 -0.1339
 1557SOL    HW216305   3.750   2.215   4.474  0.1686  0.7353  2.5258
 1558SOL     OW16306   2.972   2.366   3.477 -0.4601  0.4838  0.5349
 1558SOL    HW116307   2.946   2.306   3.408  0.5434  1.0994 -0.3783
 1558SOL    HW216308   2.904   2.356   3.544  1.2406 -0.9358  2.0612
 1559SOL     OW16309   4.461   0.496   2.354 -0.9283 -0.2434  0.2977
 1559SOL    HW116310   4.464   0.591   2.368  1.5684 -0.2854  0.0291
 1559SOL    HW216311   4.369   0.481   2.333  0.2292 -3.1997 -2.5364
 1560SOL     OW16312   1.944   4.428   5.865  0.0696 -0.2554  0.3464
 1560SOL    HW116313   2.039   4.439   5.867  0.2366 -1.4781 -0.6353
 1560SOL    HW216314   1.915   4.432   5.774 -1.9379  0.7732  1.0487
 1561SOL     OW16315   0.448   2.543   1.643  0.3100  0.4569  0.3423
 1561SOL    HW116316   0.440   2.552   1.738 -0.7377 -0.4938  0.3336
 1561SOL    HW216317   0.497   2.461   1.642 -2.3006 -1.0646 -2.3388
 1562SOL     OW16318   1.705   1.502   3.781 -0.2521 -0.2778  0.0890
 1562SOL    HW116319   1.735   1.584   3.741 -1.5606 -0.2364 -0.8039
 1562SOL    HW216320   1.766   1.490   3.854  0.5547 -0.4425 -0.6100
 1563SOL     OW16321   2.988   0.568   4.488 -0.4959 -0.2191 -0.3051
 1563SOL    HW116322   3.053   0.502   4.464 -2.2498 -1.8220 -0.5794
 1563SOL    HW216323   2.963   0.588   4.398  0.9060 -1.5496 -0.9919
 1564SOL     OW16324   0.709   2.053   3.993  0.2283 -0.0818 -0.1729
 1564SOL    HW116325   0.783   2.037   3.934 -0.4301  0.1944 -1.0580
 1564SOL    HW216326   0.636   2.083   3.939  1.0194  0.7258 -0.8114
 1565SOL     OW16327   2.286   2.889   4.471 -0.4107  0.3688 -0.1482
 1565SOL    HW116328   2.329   2.910   4.388 -0.8899 -4.0389 -1.5344
 1565SOL    HW216329   2.267   2.976   4.505 -1.2353 -0.3392  1.2305
 1566SOL     OW16330   4.543   2.261   7.011 -0.6864  0.3579 -0.0231
 1566SOL    HW116331   4.528   2.173   7.047 -1.3705  1.0550  1.3816
 1566SOL    HW216332   4.615   2.250   6.949 -0.2759 -0.2013  0.5491
 1567SOL     OW16333   2.103   0.178   6.436 -0.4809 -0.4335  0.1224
 1567SOL    HW116334   2.134   0.201   6.524  1.0287  1.1206 -0.8221
 1567SOL    HW216335   2.157   0.110   6.398 -0.9434 -1.3677  1.1229
 1568SOL     OW16336   1.917   1.914   2.436 -0.3170 -0.7199  0.8551
 1568SOL    HW116337   2.003   1.874   2.426  1.3662  2.7812  1.1582
 1568SOL    HW216338   1.899   1.907   2.342  0.2392 -0.8307  0.7541
 1569SOL     OW16339   1.654   1.081   3.862  0.0991  0.2704 -0.4990
 1569SOL    HW116340   1.678   1.122   3.779  0.9522 -0.7976 -0.7858
 1569SOL    HW216341   1.571   1.129   3.870 -0.3196 -0.7439  1.2699
 1570SOL     OW16342   1.526   0.257   4.755  0.1457 -0.5949  0.3030
 1570SOL    HW116343   1.462   0.206   4.706  0.4274 -0.3338 -0.3479
 1570SOL    HW216344   1.597   0.261   4.690  0.1226  2.1476  0.4683
 1571SOL     OW16345   1.740   1.431  15.879 -0.0888 -0.0086 -0.4572
 1571SOL    HW116346   1.762   1.373  15.807  0.8739  0.3538 -0.4562
 1571SOL    HW216347   1.808   1.403  15.941 -0.4500  1.2641  0.5186
 1572SOL     OW16348   2.428   4.208   9.153  0.1520 -0.7696  0.1776
 1572SOL    HW116349   2.473   4.292   9.166  1.1294 -1.4111  0.9372
 1572SOL    HW216350   2.337   4.238   9.147  0.1428 -0.7856  0.2340
 1573SOL     OW16351   3.984   4.592   3.839  0.2365  0.0607  0.3935
 1573SOL    HW116352   3.919   4.579   3.771 -0.6208 -2.4580  1.6978
 1573SOL    HW216353   3.984   4.687   3.831  1.4004  0.1117  0.9083
 1574SOL     OW16354   0.023   0.064   5.977  0.4938  0.2072  0.2440
 1574SOL    HW116355   4.721   0.135   5.926  0.0482  0.1265  0.4778
 1574SOL    HW216356   0.089   0.035   5.914  0.7826  0.8131  0.2718
 1575SOL     OW16357   0.565   2.334   9.718  0.1238 -0.3018  0.1979
 1575SOL    HW116358   0.654   2.337   9.683  1.1382  3.1772  3.0670
 1575SOL    HW216359   0.520   2.278   9.655  1.7295 -1.7287  0.3181
 1576SOL     OW16360   0.460   0.132   4.586 -0.0817 -0.1844 -0.4035
 1576SOL    HW116361   0.468   0.044   4.551 -1.1141 -0.6160  0.4244
 1576SOL    HW216362   0.544   0.154   4.625  0.5249 -0.8083 -1.3734
 1577SOL     OW16363   2.235   3.510  17.379 -0.2785 -0.4002  0.1308
 1577SOL    HW116364   2.293   3.441  17.349  1.3812  1.2053 -0.3625
 1577SOL    HW216365   2.189   3.528  17.297 -0.3699  0.6342  0.4041
 1578SOL     OW16366   2.141   0.015   3.646  0.5973  0.2424  0.1441
 1578SOL    HW116367   2.055   0.019   3.604  0.6850  1.2835  0.0662
 1578SOL    HW216368   2.168   4.666   3.616  1.2407  1.1657 -1.9482
 1579SOL     OW16369   4.152   4.267  12.845  0.0618 -0.0206  0.4273
 1579SOL    HW116370   4.142   4.289  12.753  0.9646  1.1554  0.6119
 1579SOL    HW216371   4.060   4.256  12.869  0.0775 -1.8650 -0.3136
 1580SOL     OW16372   1.740   0.822   3.136 -0.3370  0.1335  0.6212
 1580SOL    HW116373   1.682   0.797   3.208 -0.9124 -1.0827 -0.2503
 1580SOL    HW216374   1.807   0.753   3.140 -2.5341 -1.9408  1.5300
 1581SOL     OW16375   0.026   0.894   4.925 -0.5286 -0.2932  0.6036
 1581SOL    HW116376   0.069   0.977   4.946 -0.4654 -0.2704  0.3911
 1581SOL    HW216377   0.103   0.839   4.911 -0.9811 -0.6214 -0.5798
 1582SOL     OW16378   3.103   1.847   7.594 -0.1895 -0.1389 -0.4515
 1582SOL    HW116379   3.191   1.821   7.566 -1.2912 -2.6077 -1.6793
 1582SOL    HW216380   3.109   1.942   7.586  2.8188 -0.1060  2.5678
 1583SOL     OW16381   3.404   2.198  15.684  0.4737 -0.2137 -0.0101
 1583SOL    HW116382   3.366   2.284  15.703  2.2574  1.0141 -2.0705
 1583SOL    HW216383   3.335   2.153  15.636  0.3470 -1.9385  1.8050
 1584SOL     OW16384   3.233   1.246   7.501  0.1507  0.0498 -0.1296
 1584SOL    HW116385   3.139   1.228   7.504  0.2188 -0.2261  0.4440
 1584SOL    HW216386   3.270   1.168   7.543  0.5500  0.1736 -0.2528
 1585SOL     OW16387   2.010   0.637  11.652 -0.1341  0.3547 -0.6691
 1585SOL    HW116388   1.963   0.568  11.699 -0.2688  0.7203 -0.2659
 1585SOL    HW216389   2.048   0.588  11.579  1.4279 -0.0125  0.3820
 1586SOL     OW16390   3.662   1.524   5.511 -0.5747 -0.1416  0.2625
 1586SOL    HW116391   3.727   1.553   5.574  0.7536  1.4215 -1.8215
 1586SOL    HW216392   3.656   1.435   5.547  2.4542 -0.6668 -0.5304
 1587SOL     OW16393   3.754   2.322  14.893 -0.4809  0.1760  0.0444
 1587SOL    HW116394   3.820   2.274  14.942 -0.1799  0.8744  0.3166
 1587SOL    HW216395   3.798   2.405  14.871 -2.5597  1.3210  0.1679
 1588SOL     OW16396   2.125   2.029   2.850 -0.1373  0.1114 -0.2163
 1588SOL    HW116397   2.142   1.960   2.914 -2.3108 -0.8947 -0.7281
 1588SOL    HW216398   2.052   1.996   2.798 -1.0922  1.1384  0.4554
 1589SOL     OW16399   1.279   4.086   9.273 -0.1048  0.4020 -0.0071
 1589SOL    HW116400   1.194   4.043   9.271  1.6274 -3.0176 -0.1562
 1589SOL    HW216401   1.320   4.051   9.352  0.6196 -0.9482 -0.9666
 1590SOL     OW16402   0.637   2.139   6.855 -0.1030  0.2506 -0.0628
 1590SOL    HW116403   0.695   2.070   6.887  2.1720  3.0340  1.8181
 1590SOL    HW216404   0.556   2.090   6.867  0.9749 -1.2356  1.1882
 1591SOL     OW16405   1.045   1.752  15.121  0.1517 -0.4934  0.5511
 1591SOL    HW116406   1.112   1.812  15.088 -1.0472 -0.6945 -2.2051
 1591SOL    HW216407   0.965   1.804  15.122  2.2614  2.7513  3.6629
 1592SOL     OW16408   0.341   0.255   6.371 -0.3036  0.0429  0.2608
 1592SOL    HW116409   0.380   0.309   6.302  2.3997 -1.5879  0.5121
 1592SOL    HW216410   0.383   0.297   6.446  2.5529  0.6860 -1.6851
 1593SOL     OW16411   4.644   3.724   5.815  0.0826  0.0824  0.4170
 1593SOL    HW116412   4.668   3.741   5.724 -1.2398  1.6403  0.3701
 1593SOL    HW216413   4.713   3.664   5.844  0.8213  0.6341 -0.1820
 1594SOL     OW16414   3.511   2.177   6.292 -0.0137 -1.3850  0.1609
 1594SOL    HW116415   3.446   2.108   6.280 -0.1557 -1.4459  1.3222
 1594SOL    HW216416   3.529   2.204   6.202  0.6730 -2.0230  0.1066
 1595SOL     OW16417   0.313   2.265   1.184 -0.5074  0.5315 -0.2733
 1595SOL    HW116418   0.236   2.256   1.240 -1.6402  2.0247 -1.5920
 1595SOL    HW216419   0.302   2.195   1.120  1.1945 -1.0009  1.1105
 1596SOL     OW16420   0.806   3.377   2.980  0.5078  0.0097  0.0968
 1596SOL    HW116421   0.866   3.417   2.917 -0.8297  1.1008 -0.4746
 1596SOL    HW216422   0.794   3.296   2.930 -1.8817  0.8413 -0.6276
 1597SOL     OW16423   2.859   1.023  13.117  0.3884  0.1230  0.0734
 1597SOL    HW116424   2.943   1.011  13.163  2.1492  2.0234 -2.6730
 1597SOL    HW216425   2.869   0.955  13.051  0.0655  0.0169  0.1327
 1598SOL     OW16426   1.978   3.938   6.262  0.7490 -0.1910 -0.7026
 1598SOL    HW116427   1.892   3.946   6.220 -1.1952 -3.4296  2.7252
 1598SOL    HW216428   2.025   3.896   6.189  2.8621  2.2236 -0.7182
 1599SOL     OW16429   2.082   2.465   4.356  0.2655  0.1808 -0.3123
 1599SOL    HW116430   2.082   2.476   4.261 -0.1794  0.9751 -0.2200
 1599SOL    HW216431   2.085   2.558   4.379  1.2282  0.3772 -1.2622
 1600SOL     OW16432   1.955   0.272   1.953 -0.2569  0.4225 -0.5226
 1600SOL    HW116433   2.039   0.258   1.998  0.0848  0.3733 -1.1829
 1600SOL    HW216434   1.899   0.278   2.031 -1.8039 -0.6367 -1.5492
 1601SOL     OW16435   4.384   3.887   3.862 -0.0354 -0.4880 -0.0879
 1601SOL    HW116436   4.391   3.791   3.855  0.0016 -0.5151  0.3705
 1601SOL    HW216437   4.290   3.897   3.843  0.3912  1.4697 -1.1640
 1602SOL     OW16438   1.209   3.890  14.995 -0.0286 -0.1400  0.4494
 1602SOL    HW116439   1.205   3.809  15.046  0.5119 -2.0410 -2.5112
 1602SOL    HW216440   1.145   3.954  15.026  0.7918  1.1543 -0.5117
 1603SOL     OW16441   1.235   2.467   6.298  0.0106 -0.1938 -0.3627
 1603SOL    HW116442   1.267   2.551   6.330 -1.9510  0.4890 -0.2038
 1603SOL    HW216443   1.236   2.506   6.211 -0.0487 -0.4775 -0.4916
 1604SOL     OW16444   3.357   3.140   4.924  0.6287  0.5359 -1.0621
 1604SOL    HW116445   3.297   3.066   4.916  1.0459  0.0778  0.0023
 1604SOL    HW216446   3.301   3.217   4.933  2.6444  2.4311 -5.0390
 1605SOL     OW16447   0.305   4.610   9.157  0.7753  0.7618 -0.5481
 1605SOL    HW116448   0.307   4.533   9.214  3.0321  0.8128 -0.5713
 1605SOL    HW216449   0.221   4.595   9.113  0.7870 -0.6657 -0.0761
 1606SOL     OW16450   3.082   1.288   1.206 -0.5560 -0.1733  0.3305
 1606SOL    HW116451   2.990   1.306   1.222 -0.7764 -1.9889  1.0415
 1606SOL    HW216452   3.075   1.285   1.110 -0.1299 -1.0615  0.3333
 1607SOL     OW16453   1.391   4.583  14.093  0.0118 -0.4081  0.3452
 1607SOL    HW116454   1.457   4.588  14.162  1.3073  2.2451 -1.0947
 1607SOL    HW216455   1.436   4.561  14.012 -1.5850 -0.9856 -0.3780
 1608SOL     OW16456   2.375   1.499   5.600  0.2292  0.1157  0.5422
 1608SOL    HW116457   2.347   1.471   5.688 -1.6065 -0.0901 -0.1153
 1608SOL    HW216458   2.301   1.545   5.561  0.1822 -1.2006 -0.8899
 1609SOL     OW16459   3.851   3.602   8.886  0.4770  0.6626 -0.5381
 1609SOL    HW116460   3.936   3.559   8.881  0.6218  1.1312 -1.9342
 1609SOL    HW216461   3.804   3.528   8.848 -0.4705  0.8366  0.2764
 1610SOL     OW16462   2.662   1.573   6.249  0.3239  0.3032 -0.4984
 1610SOL    HW116463   2.724   1.542   6.314  2.1711  1.7142 -1.5920
 1610SOL    HW216464   2.604   1.626   6.304 -1.7640 -0.3427 -2.0500
 1611SOL     OW16465   2.083   0.151   9.428  0.0012 -0.3260  0.2667
 1611SOL    HW116466   2.124   0.102   9.358 -1.0902 -0.6091 -0.1710
 1611SOL    HW216467   2.120   0.240   9.431 -0.0990 -0.2860  0.3341
 1612SOL     OW16468   0.825   1.937  16.264  0.4579 -0.4268 -0.7141
 1612SOL    HW116469   0.758   1.968  16.325  3.1994  2.4854  0.8056
 1612SOL    HW216470   0.895   1.902  16.319  0.1578  0.2912  0.1148
 1613SOL     OW16471   1.512   3.485  17.268  0.4197 -0.1583 -0.0468
 1613SOL    HW116472   1.493   3.543  17.194 -0.7660  0.2734  0.5816
 1613SOL    HW216473   1.543   3.407  17.222  1.2671 -0.3112  0.7994
 1614SOL     OW16474   2.181   2.052   7.020 -0.3772 -1.0936  0.1927
 1614SOL    HW116475   2.189   2.143   7.047  1.2174 -0.8980 -0.9845
 1614SOL    HW216476   2.098   2.041   6.974 -0.6320  0.3121  0.3146
 1615SOL     OW16477   1.987   3.350  17.449 -0.3636  0.3411 -0.0700
 1615SOL    HW116478   2.056   3.417  17.441  1.4005 -1.7140 -1.9455
 1615SOL    HW216479   2.007   3.309  17.534  2.6782  1.5520 -0.1980
 1616SOL     OW16480   4.401   3.146   6.497  0.8717  0.6237 -0.3130
 1616SOL    HW116481   4.311   3.115   6.496  1.2945 -0.5197 -2.6538
 1616SOL    HW216482   4.418   3.152   6.403 -0.9570 -0.0106 -0.6707
 1617SOL     OW16483   3.367   0.534  11.076  0.2215  0.1751  0.1234
 1617SOL    HW116484   3.300   0.489  11.025  1.4567  0.6427 -1.9275
 1617SOL    HW216485   3.372   0.621  11.036 -2.1254 -0.3133 -1.1900
 1618SOL     OW16486   4.292   3.737  16.556  0.0358 -0.0091 -1.0834
 1618SOL    HW116487   4.227   3.672  16.583 -0.6134  0.3166 -1.8468
 1618SOL    HW216488   4.296   3.721  16.461  3.2688  0.0708 -0.9720
 1619SOL     OW16489   0.496   3.529   8.996 -0.3657 -0.2386  0.0565
 1619SOL    HW116490   0.511   3.485   8.912  0.6263  0.9673 -0.4059
 1619SOL    HW216491   0.418   3.481   9.022  1.1275 -2.8273 -0.2338
 1620SOL     OW16492   2.523   1.363   2.747 -0.0741 -0.0001  0.5427
 1620SOL    HW116493   2.450   1.375   2.809 -0.3739 -1.4289  0.4610
 1620SOL    HW216494   2.580   1.438   2.767 -2.1913  1.8832 -0.4053
 1621SOL     OW16495   0.651   4.540   5.403 -0.1228  0.0980  0.0748
 1621SOL    HW116496   0.575   4.484   5.420 -0.6881  0.1657 -2.2945
 1621SOL    HW216497   0.665   4.558   5.496  1.0374  2.5981 -0.5891
 1622SOL     OW16498   4.175   2.038   1.772 -0.2055 -0.4405  0.2384
 1622SOL    HW116499   4.162   2.113   1.831 -0.2821  0.8710 -1.4426
 1622SOL    HW216500   4.267   2.051   1.750 -0.5248 -1.8596 -1.9065
 1623SOL     OW16501   3.583   0.006   6.861 -0.1803 -0.1026 -0.5863
 1623SOL    HW116502   3.642   4.700   6.798  0.4927 -1.5314  1.0370
 1623SOL    HW216503   3.594   0.100   6.847 -1.0094  0.0410 -0.2312
 1624SOL     OW16504   1.273   1.178   9.253  0.3096  0.1849  0.8347
 1624SOL    HW116505   1.347   1.145   9.303  0.9615  0.6503  0.1687
 1624SOL    HW216506   1.201   1.188   9.315 -0.5462  1.3646 -0.3515
 1625SOL     OW16507   1.588   2.464  15.860 -0.0262  0.3927  0.4962
 1625SOL    HW116508   1.643   2.542  15.867  1.0156 -0.3797  0.8817
 1625SOL    HW216509   1.535   2.474  15.939 -0.9140  0.5772 -0.1208
 1626SOL     OW16510   0.006   4.565  16.086  0.2237 -0.1737 -0.4183
 1626SOL    HW116511   0.039   4.621  16.016  0.2768 -2.2206 -2.0455
 1626SOL    HW216512   0.026   4.620  16.161  1.5985 -2.3941  0.8458
 1627SOL     OW16513   0.166   1.906  17.416  0.3722  0.1563  0.3551
 1627SOL    HW116514   0.252   1.935  17.387  0.1747 -1.4824 -1.8403
 1627SOL    HW216515   0.164   1.813  17.393 -2.4325  0.9491 -2.5555
 1628SOL     OW16516   0.696   2.609   3.426  0.0349 -0.1510  0.6177
 1628SOL    HW116517   0.629   2.659   3.380  1.1707  1.1701  0.3872
 1628SOL    HW216518   0.729   2.672   3.490  1.0139  0.6493 -0.6610
 1629SOL     OW16519   3.262   1.620  11.635 -0.0512  0.1156 -0.6557
 1629SOL    HW116520   3.265   1.713  11.612  1.4450 -0.1671 -1.5773
 1629SOL    HW216521   3.269   1.627  11.730 -0.1115  0.2500 -0.6617
 1630SOL     OW16522   1.898   1.073  14.978 -0.0626 -0.1888 -0.0114
 1630SOL    HW116523   1.827   1.124  14.939 -0.0250 -1.3670 -1.5907
 1630SOL    HW216524   1.848   1.009  15.028  1.8276  0.0472  2.1754
 1631SOL     OW16525   2.358   1.754  13.811  0.0860  0.1393 -0.1683
 1631SOL    HW116526   2.312   1.711  13.739 -1.7790 -0.7215  1.5444
 1631SOL    HW216527   2.395   1.683  13.863  0.4262 -1.4337 -2.6025
 1632SOL     OW16528   4.376   2.893  13.222  0.5857  0.2541  0.2351
 1632SOL    HW116529   4.281   2.894  13.212  0.5484 -2.2532  0.4848
 1632SOL    HW216530   4.415   2.924  13.141  3.6479  0.1591  1.6509
 1633SOL     OW16531   0.902   4.313  15.887 -0.1951 -0.6305  0.7097
 1633SOL    HW116532   0.913   4.221  15.912  1.1925 -0.5926  0.2445
 1633SOL    HW216533   0.913   4.295  15.794 -2.2454 -1.5208  0.6398
 1634SOL     OW16534   4.443   3.274   6.946 -0.3290  0.8837 -0.4185
 1634SOL    HW116535   4.436   3.282   7.041 -2.1366 -0.0907 -0.4717
 1634SOL    HW216536   4.382   3.339   6.911 -1.2034  0.5309  0.4545
 1635SOL     OW16537   1.218   4.057   1.969  0.1337  0.0484 -0.5800
 1635SOL    HW116538   1.214   3.993   1.898 -3.0561 -0.2918 -0.0831
 1635SOL    HW216539   1.185   4.135   1.923 -2.6985 -0.0007  1.3992
 1636SOL     OW16540   2.415   1.717   1.024  0.0635  0.5482 -0.2347
 1636SOL    HW116541   2.506   1.733   1.000  0.2241 -0.7162 -0.4933
 1636SOL    HW216542   2.379   1.700   0.937  0.4985  2.8700 -0.8628
 1637SOL     OW16543   2.767   0.487  11.908 -1.0319 -0.2598  0.1534
 1637SOL    HW116544   2.695   0.492  11.845  0.8531 -0.0564 -1.9475
 1637SOL    HW216545   2.756   0.397  11.939 -2.2568  0.0026  0.4779
 1638SOL     OW16546   1.155   1.923   3.672  0.2590  0.1567 -0.2689
 1638SOL    HW116547   1.090   1.917   3.603 -0.7038  0.7754  0.5808
 1638SOL    HW216548   1.182   2.015   3.665  1.4285 -0.0970  0.8665
 1639SOL     OW16549   1.575   2.896   8.336 -0.1266 -0.2255  0.7301
 1639SOL    HW116550   1.633   2.885   8.262 -0.1432 -0.8718  0.8121
 1639SOL    HW216551   1.509   2.957   8.304 -0.0420 -0.7448 -0.4119
 1640SOL     OW16552   1.733   3.749   4.909 -0.0802  0.2899  0.2381
 1640SOL    HW116553   1.676   3.821   4.881  1.4963  1.9274  1.2643
 1640SOL    HW216554   1.695   3.680   4.855  0.5813  0.0037  0.1484
 1641SOL     OW16555   0.926   3.627   7.595  0.0091 -0.1465 -0.1720
 1641SOL    HW116556   0.925   3.597   7.503 -1.9694 -1.4320  0.2789
 1641SOL    HW216557   0.988   3.560   7.624 -0.5365 -0.2699  0.7082
 1642SOL     OW16558   2.944   4.179  11.534 -0.2646 -0.5667 -0.0232
 1642SOL    HW116559   3.025   4.129  11.525  0.4698  0.5804  0.2945
 1642SOL    HW216560   2.945   4.237  11.458 -4.0445  3.1297  2.7310
 1643SOL     OW16561   3.670   4.540   4.750 -0.1998  0.4472  0.0182
 1643SOL    HW116562   3.668   4.479   4.676  0.7472  1.0507 -0.5061
 1643SOL    HW216563   3.630   4.488   4.819 -0.1265 -2.0048 -1.7748
 1644SOL     OW16564   2.583   0.030   3.739 -0.1438 -0.6638 -0.1302
 1644SOL    HW116565   2.526   4.725   3.803 -1.9178  2.7697  0.6036
 1644SOL    HW216566   2.613   4.688   3.695 -2.6781 -0.5235 -2.0792
 1645SOL     OW16567   3.149   1.978   4.925  0.1603  0.6726 -0.0790
 1645SOL    HW116568   3.161   2.039   4.852  2.6071  1.5709  1.0835
 1645SOL    HW216569   3.130   2.031   5.002  3.5482  1.0161  0.5045
 1646SOL     OW16570   3.296   2.082   8.517 -0.2639  0.2625  0.0572
 1646SOL    HW116571   3.376   2.115   8.477 -1.5667  1.5340 -1.5046
 1646SOL    HW216572   3.235   2.077   8.444  2.0169 -0.6051 -1.7790
 1647SOL     OW16573   2.383   1.070   5.202  0.5992 -0.0311 -0.2416
 1647SOL    HW116574   2.376   0.984   5.242 -1.9749  0.7316  0.9711
 1647SOL    HW216575   2.298   1.062   5.160  0.0841  0.2928  0.7410
 1648SOL     OW16576   3.885   4.214   3.300 -0.1707 -0.4798 -0.4643
 1648SOL    HW116577   3.851   4.124   3.295  0.6233 -0.7870 -0.4182
 1648SOL    HW216578   3.957   4.196   3.240 -0.1741  0.1200 -0.6418
 1649SOL     OW16579   4.296   3.645   8.798 -0.1350  0.4225  0.0036
 1649SOL    HW116580   4.249   3.726   8.819  0.1190  0.4127  0.5916
 1649SOL    HW216581   4.316   3.654   8.705  0.9543 -1.2792  0.0764
 1650SOL     OW16582   1.638   1.797   3.857  0.1320 -0.5045 -0.5552
 1650SOL    HW116583   1.555   1.790   3.810  0.3639  0.8454 -1.1654
 1650SOL    HW216584   1.609   1.760   3.941  1.7736 -0.2030  0.1528
 1651SOL     OW16585   0.529   1.576   0.827  0.3779 -0.0304 -0.0093
 1651SOL    HW116586   0.520   1.638   0.754  0.6536 -0.1616 -0.1550
 1651SOL    HW216587   0.579   1.631   0.887  0.4860 -0.4797  0.3039
 1652SOL     OW16588   2.451   0.602   6.421  0.0618 -0.1835 -0.1168
 1652SOL    HW116589   2.523   0.592   6.358 -1.3742  1.8344 -2.1033
 1652SOL    HW216590   2.387   0.560   6.364 -2.0405  2.8099  0.0187
 1653SOL     OW16591   2.573   1.610   7.386  0.4905 -0.0642 -0.3461
 1653SOL    HW116592   2.585   1.545   7.455 -2.7710 -0.5775 -0.2669
 1653SOL    HW216593   2.646   1.596   7.326  0.6860  0.7242 -0.2918
 1654SOL     OW16594   1.441   1.660  15.678 -0.1839 -0.2136 -0.2483
 1654SOL    HW116595   1.459   1.700  15.593  4.2341  1.2198  1.3471
 1654SOL    HW216596   1.347   1.642  15.669  0.2869 -1.8295 -1.9219
 1655SOL     OW16597   1.571   4.319   6.732  0.2029 -0.4347 -0.4779
 1655SOL    HW116598   1.548   4.282   6.817 -0.5864  2.0661  0.4018
 1655SOL    HW216599   1.524   4.255   6.679  0.4867 -2.2169  1.4565
 1656SOL     OW16600   0.529   3.062  11.020  0.0302 -0.7504  0.0880
 1656SOL    HW116601   0.521   3.151  10.985  0.0346 -0.1357  1.6463
 1656SOL    HW216602   0.579   3.076  11.100 -2.8099  0.2676  1.6645
 1657SOL     OW16603   0.078   0.837   5.439 -0.3601  0.0286  0.0882
 1657SOL    HW116604   0.028   0.876   5.368  0.9102 -1.0632 -1.4058
 1657SOL    HW216605   0.091   0.748   5.406  0.9230  0.1855  0.1393
 1658SOL     OW16606   2.653   1.394   1.653 -0.4735 -0.2721 -0.2618
 1658SOL    HW116607   2.598   1.361   1.582  0.0591  1.6199 -1.5475
 1658SOL    HW216608   2.740   1.405   1.615 -0.5046  0.4529 -0.1228
 1659SOL     OW16609   2.962   4.447   5.766  0.1962 -0.3417  0.1854
 1659SOL    HW116610   3.043   4.409   5.734 -0.0756 -0.4770 -0.3337
 1659SOL    HW216611   2.983   4.464   5.858 -3.5127  0.1839  0.9629
 1660SOL     OW16612   1.277   0.391   9.364  0.4316 -0.0344  0.8005
 1660SOL    HW116613   1.220   0.370   9.438 -0.1826  0.6192  0.5116
 1660SOL    HW216614   1.347   0.334   9.395 -0.7512 -2.0229 -0.1731
 1661SOL     OW16615   1.224   1.489  15.050 -0.4067 -0.4321  0.2158
 1661SOL    HW116616   1.225   1.535  14.966 -0.7891 -2.5903 -0.9726
 1661SOL    HW216617   1.156   1.423  15.032  1.1191 -0.9975 -3.6006
 1662SOL     OW16618   3.175   1.581   8.219  0.2469  0.1306  0.7084
 1662SOL    HW116619   3.177   1.485   8.215 -1.6878  0.1047 -0.1286
 1662SOL    HW216620   3.232   1.606   8.291 -0.9012 -0.5891  1.8795
 1663SOL     OW16621   3.253   0.271   6.756 -0.3354 -0.1812  1.1825
 1663SOL    HW116622   3.256   0.177   6.738  3.2030  0.1486  0.2224
 1663SOL    HW216623   3.158   0.281   6.753 -0.4575 -2.1331 -1.7334
 1664SOL     OW16624   2.561   3.179  16.639  0.1949 -0.2270  0.1237
 1664SOL    HW116625   2.563   3.211  16.549 -1.8933  0.9936  0.5161
 1664SOL    HW216626   2.503   3.245  16.675 -1.1713 -0.9365 -0.8001
 1665SOL     OW16627   0.314   2.178   1.936 -0.2739  0.3106  0.1551
 1665SOL    HW116628   0.221   2.168   1.918 -0.0097  1.3392 -1.7718
 1665SOL    HW216629   0.352   2.181   1.849  1.0978  0.9812  0.7770
 1666SOL     OW16630   1.077   2.503  14.265  0.4529  0.9043  0.1266
 1666SOL    HW116631   1.048   2.505  14.174  1.0157  1.2725 -0.0409
 1666SOL    HW216632   1.073   2.592  14.298  1.4846  1.3306 -0.8986
 1667SOL     OW16633   4.011   0.663   9.849  0.3778  0.0672  0.4121
 1667SOL    HW116634   3.936   0.607   9.869 -0.3577  1.1445  0.6519
 1667SOL    HW216635   4.030   0.685   9.940 -0.8703 -2.6609  1.3375
 1668SOL     OW16636   2.472   3.710   9.240  0.4700 -0.3577 -0.2490
 1668SOL    HW116637   2.381   3.714   9.209  0.9974  0.6924 -1.6782
 1668SOL    HW216638   2.506   3.800   9.240 -0.5677  0.0390 -1.0770
 1669SOL     OW16639   3.462   4.403   6.925  0.0070  0.1976 -0.2090
 1669SOL    HW116640   3.411   4.322   6.915 -1.9433  1.2161  1.5041
 1669SOL    HW216641   3.546   4.382   6.884 -0.5382 -0.5426 -0.9524
 1670SOL     OW16642   2.631   3.412  14.330 -0.2894  0.0757 -0.9063
 1670SOL    HW116643   2.626   3.406  14.235 -0.1579  0.2448 -0.9240
 1670SOL    HW216644   2.676   3.329  14.345  0.5889  0.7189  0.0564
 1671SOL     OW16645   1.310   3.547   9.158  0.2081  0.2383  0.1773
 1671SOL    HW116646   1.317   3.611   9.230  0.9671 -0.3755  0.6445
 1671SOL    HW216647   1.219   3.523   9.176  0.3682  0.1193  0.8478
 1672SOL     OW16648   0.875   0.406   3.931 -0.4435 -0.1019 -0.1162
 1672SOL    HW116649   0.937   0.337   3.907 -1.4055 -1.1414  0.4131
 1672SOL    HW216650   0.793   0.357   3.931 -0.8742  0.6063 -0.4381
 1673SOL     OW16651   2.277   0.821  10.536 -0.4493 -0.4202  0.4177
 1673SOL    HW116652   2.232   0.755  10.589 -1.8685 -0.3163 -0.6718
 1673SOL    HW216653   2.371   0.811  10.553 -0.3141  0.5801  0.2569
 1674SOL     OW16654   1.731   2.258  15.916 -0.2504  0.1343 -0.2328
 1674SOL    HW116655   1.662   2.317  15.889  0.6766  0.9950 -0.7279
 1674SOL    HW216656   1.734   2.192  15.846  3.1434 -1.8020  1.7202
 1675SOL     OW16657   1.169   2.254  14.138 -0.1547  0.0095  0.3346
 1675SOL    HW116658   1.104   2.281  14.204 -0.0686  1.6131 -0.2457
 1675SOL    HW216659   1.193   2.333  14.089  0.9310 -0.7319 -0.3003
 1676SOL     OW16660   1.216   1.668   8.786  0.1337  0.8359  0.2889
 1676SOL    HW116661   1.192   1.687   8.695 -0.2268  0.0183  0.2078
 1676SOL    HW216662   1.307   1.641   8.773  0.1146  0.9009  0.0162
 1677SOL     OW16663   4.301   1.861   4.290 -0.1017 -0.4422  0.5429
 1677SOL    HW116664   4.364   1.873   4.220 -0.1256  0.4399  0.6719
 1677SOL    HW216665   4.262   1.780   4.258  0.4161 -1.1117  1.5926
 1678SOL     OW16666   2.684   1.847   5.409 -0.3325 -0.0033 -0.4857
 1678SOL    HW116667   2.606   1.812   5.451 -0.0752 -1.0271 -0.8553
 1678SOL    HW216668   2.676   1.941   5.425 -2.8933 -0.4838  1.0909
 1679SOL     OW16669   1.024   4.089   3.006  0.0855  0.2287 -0.2193
 1679SOL    HW116670   1.016   4.184   3.002 -0.3414  0.3355  3.0728
 1679SOL    HW216671   1.097   4.065   2.950  1.2984 -0.0111  1.4792
 1680SOL     OW16672   4.525   0.947   8.609  0.2223 -0.6661 -0.0482
 1680SOL    HW116673   4.588   0.923   8.542  0.4927  0.5323 -0.2296
 1680SOL    HW216674   4.565   0.909   8.687 -0.6268 -1.2608  0.1008
 1681SOL     OW16675   2.115   0.200   7.711 -0.5495 -0.2472 -0.9263
 1681SOL    HW116676   2.189   0.141   7.720 -0.9477 -0.1159  3.2046
 1681SOL    HW216677   2.060   0.171   7.783  0.6391  2.1366  0.9298
 1682SOL     OW16678   2.328   3.802   3.246 -0.3894  0.0390  0.0611
 1682SOL    HW116679   2.253   3.768   3.196 -0.7290 -1.1270  1.3393
 1682SOL    HW216680   2.295   3.880   3.290  0.9753  1.4452 -1.4079
 1683SOL     OW16681   1.537   0.340   6.487 -0.0245 -1.1573 -0.3303
 1683SOL    HW116682   1.442   0.343   6.475  0.1606  0.0757 -1.5622
 1683SOL    HW216683   1.558   0.403   6.418 -0.5560  0.8622  1.3496
 1684SOL     OW16684   0.990   4.222   5.240 -0.4747  0.4525 -0.0797
 1684SOL    HW116685   0.950   4.238   5.155  0.3861 -1.4176 -0.8216
 1684SOL    HW216686   0.961   4.291   5.300  1.3140 -0.5749  1.9849
 1685SOL     OW16687   2.064   4.149   6.502 -0.3417 -0.4884  0.4484
 1685SOL    HW116688   2.058   4.092   6.426 -0.2551 -3.0506  2.3328
 1685SOL    HW216689   1.977   4.137   6.539 -0.8556  1.1421 -0.2415
 1686SOL     OW16690   0.496   2.513   7.480 -0.1629  0.0979  0.3666
 1686SOL    HW116691   0.504   2.451   7.407 -2.9631 -2.0004  1.8378
 1686SOL    HW216692   0.429   2.472   7.534  0.6434 -0.8169  0.6854
 1687SOL     OW16693   1.361   0.613   3.247 -0.1151 -0.0317  0.5337
 1687SOL    HW116694   1.283   0.604   3.301 -1.6309  1.6022 -1.3748
 1687SOL    HW216695   1.429   0.603   3.313  0.5513 -2.3413 -0.4786
 1688SOL     OW16696   0.171   0.189   9.591  0.0269  0.3771  0.3160
 1688SOL    HW116697   0.184   0.178   9.685  1.9442  1.2854  0.1623
 1688SOL    HW216698   0.219   0.110   9.563  0.5840  1.2801 -1.3074
 1689SOL     OW16699   2.005   3.644   3.636 -0.1184 -0.3384 -0.5340
 1689SOL    HW116700   2.084   3.592   3.622 -0.7823 -1.6116  0.4182
 1689SOL    HW216701   1.941   3.591   3.589 -0.8528 -1.6342  1.9533
 1690SOL     OW16702   3.250   0.891   7.294  0.4850  0.3036 -0.2159
 1690SOL    HW116703   3.320   0.892   7.359  0.4355  2.1699 -0.1871
 1690SOL    HW216704   3.296   0.843   7.226  0.2338 -0.5502  0.2218
 1691SOL     OW16705   0.352   0.175   8.681 -0.3545  0.2451 -0.1762
 1691SOL    HW116706   0.432   0.138   8.718 -0.6805 -0.8497 -0.5704
 1691SOL    HW216707   0.361   0.266   8.707 -3.1142  0.5435 -0.2100
 1692SOL     OW16708   2.373   3.824   8.157  0.2440  0.1005 -0.2559
 1692SOL    HW116709   2.367   3.745   8.104  2.0450 -1.8674  2.4511
 1692SOL    HW216710   2.294   3.867   8.125  1.4185  2.4643  0.0432
 1693SOL     OW16711   2.234   4.174   0.293  0.4893 -0.1928 -0.2853
 1693SOL    HW116712   2.215   4.130   0.376 -1.2555  1.3643  0.1206
 1693SOL    HW216713   2.294   4.246   0.315 -0.0309  0.1788 -0.1020
 1694SOL     OW16714   1.589   0.402   4.279  0.5021  0.2176  0.0192
 1694SOL    HW116715   1.551   0.473   4.330  2.2602  1.4472 -0.3680
 1694SOL    HW216716   1.667   0.441   4.239  0.7930 -2.7802 -2.3893
 1695SOL     OW16717   4.014   3.897  10.908  0.6501  0.5295 -0.2860
 1695SOL    HW116718   4.099   3.934  10.932  1.6492  0.7024 -4.1933
 1695SOL    HW216719   3.969   3.881  10.991 -0.4132  0.2109 -0.9210
 1696SOL     OW16720   0.008   2.345   0.889 -0.1804 -0.1148 -0.1010
 1696SOL    HW116721   4.675   2.292   0.928  0.4553  0.2085  1.4990
 1696SOL    HW216722   4.714   2.360   0.800 -0.4011  0.7402  0.1211
 1697SOL     OW16723   1.865   3.400   9.415 -0.2795  0.6678  0.2835
 1697SOL    HW116724   1.879   3.471   9.478 -3.8830  0.3460  1.4440
 1697SOL    HW216725   1.950   3.390   9.372  1.9361  0.3975  4.6883
 1698SOL     OW16726   2.521   1.577   2.041 -0.7661  0.1390 -0.1341
 1698SOL    HW116727   2.510   1.598   1.948  0.4703  3.3080  0.4658
 1698SOL    HW216728   2.609   1.539   2.042 -0.3025  1.2322  0.2755
 1699SOL     OW16729   1.341   4.063   3.636 -0.4077 -0.2861  0.3005
 1699SOL    HW116730   1.314   4.074   3.545 -1.7921 -1.3211  0.5903
 1699SOL    HW216731   1.435   4.053   3.623 -0.5436 -0.2405 -0.7331
 1700SOL     OW16732   1.853   2.437   4.790  0.1564  0.3115  0.1722
 1700SOL    HW116733   1.809   2.375   4.732  0.7061  0.5442 -0.4978
 1700SOL    HW216734   1.807   2.517   4.768  0.7303  0.3924 -0.7320
 1701SOL     OW16735   2.733   3.943  16.325 -0.2310  0.3054  0.0445
 1701SOL    HW116736   2.800   3.966  16.389  0.9137 -1.1192 -0.6460
 1701SOL    HW216737   2.711   4.030  16.292  1.0405  0.3382 -0.7097
 1702SOL     OW16738   0.117   4.218   3.755  0.2367 -0.2557 -0.5853
 1702SOL    HW116739   0.152   4.142   3.708  1.6334 -0.6708  1.0908
 1702SOL    HW216740   0.035   4.192   3.798  1.0180 -0.2785  0.9134
 1703SOL     OW16741   0.104   4.103   8.660 -0.1414 -0.9034 -0.0321
 1703SOL    HW116742   0.044   4.178   8.666  1.3604  0.2696  0.3863
 1703SOL    HW216743   0.181   4.159   8.670 -0.3914 -0.5881  0.1240
 1704SOL     OW16744   4.191   3.305   7.415 -0.3023 -0.7028 -0.0177
 1704SOL    HW116745   4.138   3.293   7.493  0.6156 -2.8971  0.2640
 1704SOL    HW216746   4.121   3.350   7.368 -1.9538 -0.4289  2.6914
 1705SOL     OW16747   3.528   2.352   8.113 -0.0472  0.2229  0.2204
 1705SOL    HW116748   3.498   2.390   8.031  0.3909 -0.2487 -0.1630
 1705SOL    HW216749   3.622   2.361   8.098 -0.4337  4.4819  0.6088
 1706SOL     OW16750   0.754   2.214  15.783 -0.5523 -0.1851 -0.1943
 1706SOL    HW116751   0.789   2.157  15.851 -1.1261 -0.0305  0.2251
 1706SOL    HW216752   0.667   2.174  15.778  0.1102 -1.8295  1.4883
 1707SOL     OW16753   0.653   0.753   7.848  0.4027 -0.2940  0.6382
 1707SOL    HW116754   0.597   0.723   7.919  0.8719 -2.1478  0.2285
 1707SOL    HW216755   0.594   0.797   7.787  1.1335 -0.1609  0.0199
 1708SOL     OW16756   3.311   4.034   3.296  0.6321 -0.6427 -0.0426
 1708SOL    HW116757   3.383   3.972   3.311 -0.4826 -2.2224 -1.2041
 1708SOL    HW216758   3.238   3.976   3.273 -2.2512  3.0995 -0.2969
 1709SOL     OW16759   3.469   4.477   1.519 -0.3269  0.6851 -0.3640
 1709SOL    HW116760   3.423   4.394   1.516 -1.7669  1.4446  0.9318
 1709SOL    HW216761   3.532   4.466   1.590  0.3919 -2.0650 -1.4376
 1710SOL     OW16762   4.225   0.107   7.703 -0.3959 -0.1974 -0.1920
 1710SOL    HW116763   4.166   0.038   7.674 -0.3099 -0.5019  0.3575
 1710SOL    HW216764   4.243   0.144   7.617  1.9491  0.5577  0.6369
 1711SOL     OW16765   2.127   3.246   6.362 -0.4882 -0.6147  0.1013
 1711SOL    HW116766   2.158   3.300   6.289  0.1620 -1.6279 -0.3638
 1711SOL    HW216767   2.142   3.155   6.336  0.3173 -0.4434 -0.0455
 1712SOL     OW16768   0.462   3.390   4.206  0.3827  0.2671 -0.4748
 1712SOL    HW116769   0.447   3.308   4.159  3.4668  0.7249 -2.2470
 1712SOL    HW216770   0.373   3.425   4.218  0.4725 -0.2762  1.7779
 1713SOL     OW16771   2.467   2.510   1.040 -0.2273 -0.1449 -0.4164
 1713SOL    HW116772   2.453   2.546   0.952 -1.3558  0.0467 -0.1654
 1713SOL    HW216773   2.558   2.483   1.049 -1.3687 -3.8514 -0.2113
 1714SOL     OW16774   0.338   2.700   8.550 -0.2887  0.0470  0.0744
 1714SOL    HW116775   0.403   2.740   8.492  0.0420  1.5341  1.4672
 1714SOL    HW216776   0.262   2.702   8.492  0.6632  1.3816 -1.1448
 1715SOL     OW16777   1.548   4.202   9.220 -0.1617  1.1141 -0.6359
 1715SOL    HW116778   1.520   4.256   9.293 -1.0316  0.3848 -0.4317
 1715SOL    HW216779   1.494   4.125   9.238  0.4740  0.7405 -0.3352
 1716SOL     OW16780   3.838   4.637   6.225 -0.1687  0.1891 -0.3260
 1716SOL    HW116781   3.901   4.653   6.294  0.6233 -0.9811 -0.7868
 1716SOL    HW216782   3.842   4.713   6.167 -1.6923 -0.5368 -1.3908
 1717SOL     OW16783   1.941   2.447  14.853 -0.1455 -0.3719 -0.3471
 1717SOL    HW116784   1.849   2.426  14.839  0.1488 -1.1474 -1.1057
 1717SOL    HW216785   1.972   2.441  14.762 -0.5172  0.6830 -0.5462
 1718SOL     OW16786   4.428   0.789   2.692 -0.0063  0.3801 -0.1792
 1718SOL    HW116787   4.410   0.730   2.764  1.3201 -0.1203 -0.2632
 1718SOL    HW216788   4.372   0.865   2.710  0.7199  0.8657  0.0559
 1719SOL     OW16789   3.430   4.604   1.899 -0.6213  0.1565  0.1628
 1719SOL    HW116790   3.483   4.527   1.920  1.4437  1.9874  1.6288
 1719SOL    HW216791   3.467   4.669   1.959 -2.0829  1.3975 -0.2660
 1720SOL     OW16792   0.128   4.692   4.589 -0.2596 -0.3989 -0.1706
 1720SOL    HW116793   0.128   4.617   4.530  1.0380  1.2209 -2.2170
 1720SOL    HW216794   0.181   4.659   4.661 -0.6450  0.6732  0.6206
 1721SOL     OW16795   3.026   2.425   7.674 -0.3836  0.3489  0.4022
 1721SOL    HW116796   2.952   2.460   7.624 -1.2300 -1.4415  0.4197
 1721SOL    HW216797   3.029   2.505   7.728 -0.0566  0.1778  0.6362
 1722SOL     OW16798   0.529   2.188  13.991  0.1696 -0.3833  0.0515
 1722SOL    HW116799   0.604   2.193  13.931  0.2589  1.5553  0.3209
 1722SOL    HW216800   0.502   2.101  13.961  3.0183 -1.5292  0.8005
 1723SOL     OW16801   2.361   2.386   8.625 -0.4919  0.6253 -0.1998
 1723SOL    HW116802   2.273   2.409   8.654 -0.4833 -2.1412  1.9620
 1723SOL    HW216803   2.358   2.292   8.611 -2.1562  0.2422  2.6818
 1724SOL     OW16804   2.566   1.329   7.250 -0.4704  0.1696  0.4040
 1724SOL    HW116805   2.620   1.397   7.211 -0.5165 -0.6384 -1.0608
 1724SOL    HW216806   2.533   1.294   7.167  1.8002 -2.5208  0.6366
 1725SOL     OW16807   3.163   2.893   1.760 -0.3794 -0.3892 -0.3630
 1725SOL    HW116808   3.216   2.850   1.692  1.8995  0.0677  1.1208
 1725SOL    HW216809   3.213   2.971   1.785 -1.3738 -0.2296  1.1080
 1726SOL     OW16810   1.681   1.394   5.171 -0.3798 -0.2628  0.4224
 1726SOL    HW116811   1.685   1.416   5.263 -0.2955 -2.8563  1.0551
 1726SOL    HW216812   1.604   1.338   5.175 -1.1406  0.4967 -3.4035
 1727SOL     OW16813   3.486   4.119  12.347  0.1034  0.0250 -0.2843
 1727SOL    HW116814   3.508   4.033  12.310 -0.4110  1.0467 -2.9634
 1727SOL    HW216815   3.440   4.161  12.275 -0.1603 -0.8221 -0.6070
 1728SOL     OW16816   3.946   2.885   6.185 -0.1606  0.1032 -0.4517
 1728SOL    HW116817   3.862   2.842   6.177 -0.4764  0.2523  1.9681
 1728SOL    HW216818   4.013   2.817   6.190 -1.6108 -1.2128  0.8971
 1729SOL     OW16819   2.621   3.939   8.226  0.6420 -0.0749  0.5304
 1729SOL    HW116820   2.527   3.928   8.213  0.8263 -1.1290  0.0758
 1729SOL    HW216821   2.651   3.987   8.149 -0.6378 -0.4733 -0.2043
 1730SOL     OW16822   3.903   1.757   5.909 -0.4773 -0.2177 -0.1160
 1730SOL    HW116823   3.870   1.814   5.840  3.3666 -1.2038 -2.7771
 1730SOL    HW216824   3.935   1.823   5.971  0.5787 -0.2536 -0.6222
 1731SOL     OW16825   1.135   3.082  12.750  0.2237 -0.5416 -0.7459
 1731SOL    HW116826   1.147   3.134  12.830 -0.4382  0.2667 -1.1863
 1731SOL    HW216827   1.201   3.119  12.692  0.9473  0.5228  0.7558
 1732SOL     OW16828   4.056   0.270   7.839 -0.2850  0.2827  0.1060
 1732SOL    HW116829   4.118   0.222   7.784  1.0037  0.4017  1.4664
 1732SOL    HW216830   4.068   0.363   7.821  0.7781 -0.0501 -0.8708
 1733SOL     OW16831   3.559   4.281  17.405  0.0990  0.1488  0.0502
 1733SOL    HW116832   3.601   4.206  17.447 -0.2798 -0.0143  0.1447
 1733SOL    HW216833   3.465   4.263  17.413  0.4189 -0.6550  1.9236
 1734SOL     OW16834   3.579   4.389  11.495  0.9014 -0.2607  0.4044
 1734SOL    HW116835   3.627   4.470  11.480 -1.2540  1.1990  1.2161
 1734SOL    HW216836   3.585   4.336  11.416  0.1640  1.1260 -0.5870
 1735SOL     OW16837   1.510   0.979   5.771  0.1392  0.2316  0.3162
 1735SOL    HW116838   1.416   0.981   5.754  0.4769 -1.0069 -1.6796
 1735SOL    HW216839   1.534   0.920   5.699  1.6678  0.7590  0.3794
 1736SOL     OW16840   1.750   4.575   6.959 -0.0182 -0.0424  0.6710
 1736SOL    HW116841   1.663   4.584   6.997 -0.9968  0.5559 -1.7315
 1736SOL    HW216842   1.740   4.522   6.880 -4.3381  0.5821  0.8319
 1737SOL     OW16843   3.450   0.059   2.878  0.1076 -0.0818 -0.1617
 1737SOL    HW116844   3.491   4.717   2.843 -2.4150 -1.9195  0.9921
 1737SOL    HW216845   3.402   0.098   2.805  0.6947 -0.1846 -0.5970
 1738SOL     OW16846   2.432   0.704  11.358  0.1172  0.0619 -0.3925
 1738SOL    HW116847   2.482   0.627  11.385  0.6891  0.3721 -0.5749
 1738SOL    HW216848   2.494   0.775  11.341 -0.7972  0.7430 -0.8618
 1739SOL     OW16849   2.613   0.164   5.101 -0.1013  0.1598 -0.2540
 1739SOL    HW116850   2.565   0.245   5.081 -0.4935  0.1030  0.4538
 1739SOL    HW216851   2.694   0.188   5.057  0.5047  2.1534  1.8911
 1740SOL     OW16852   1.626   1.842  16.874 -0.1892 -0.1596 -0.2709
 1740SOL    HW116853   1.598   1.856  16.965  1.3183  0.9589  0.0122
 1740SOL    HW216854   1.628   1.932  16.841  0.2262 -0.8233 -2.0345
 1741SOL     OW16855   2.905   4.082   2.811 -0.6857 -0.2674 -0.6497
 1741SOL    HW116856   2.983   4.101   2.760 -0.7900 -2.4520 -1.6119
 1741SOL    HW216857   2.845   4.130   2.755 -0.6019 -0.8974 -1.2878
 1742SOL     OW16858   4.084   2.606   2.974  0.1831  0.4721 -0.2998
 1742SOL    HW116859   4.124   2.590   2.889  1.6168 -0.6098  0.5672
 1742SOL    HW216860   4.145   2.661   3.023 -0.0835  0.1223  0.4344
 1743SOL     OW16861   2.685   3.322   9.371 -0.0203 -0.1774 -0.4332
 1743SOL    HW116862   2.711   3.404   9.413 -1.8373 -1.4831  3.2518
 1743SOL    HW216863   2.646   3.279   9.446  0.8312 -1.8219 -0.9283
 1744SOL     OW16864   4.269   1.657   8.587  0.4405  0.3626  0.1340
 1744SOL    HW116865   4.186   1.651   8.634 -0.7473  1.3489 -1.8284
 1744SOL    HW216866   4.252   1.736   8.535  2.8494  0.0610 -1.1550
 1745SOL     OW16867   3.671   4.125   3.812  0.0980 -0.3122  0.2361
 1745SOL    HW116868   3.628   4.145   3.729  0.2177 -0.1381  0.2149
 1745SOL    HW216869   3.648   4.033   3.824  1.5116 -0.7950 -0.7534
 1746SOL     OW16870   1.418   0.683   8.197  0.1679 -0.3250 -0.0166
 1746SOL    HW116871   1.383   0.676   8.286  2.3566  1.8044  1.0362
 1746SOL    HW216872   1.511   0.663   8.209  0.6000  1.7391  0.1955
 1747SOL     OW16873   4.093   1.538   1.799 -0.0656  0.2826  0.2260
 1747SOL    HW116874   4.063   1.450   1.778  2.3722  0.0907 -2.5243
 1747SOL    HW216875   4.022   1.590   1.762 -1.2198 -1.4349  0.0342
 1748SOL     OW16876   4.139   2.702   6.964 -0.2020 -0.1209  0.1772
 1748SOL    HW116877   4.209   2.647   6.999  0.3079  2.0331  2.5767
 1748SOL    HW216878   4.184   2.771   6.914 -2.1468  0.7595 -0.3359
 1749SOL     OW16879   3.468   2.119   1.583  0.9008  0.5189  0.3845
 1749SOL    HW116880   3.418   2.039   1.603 -0.4745  1.2252 -0.2043
 1749SOL    HW216881   3.518   2.087   1.509  1.7442 -1.6727  1.8943
 1750SOL     OW16882   2.480   4.441  11.527 -0.0390  0.1410 -0.3268
 1750SOL    HW116883   2.550   4.473  11.471 -0.6038  0.7873 -0.6639
 1750SOL    HW216884   2.430   4.399  11.457 -0.1371 -0.5301  0.1480
 1751SOL     OW16885   3.318   0.744   2.938 -0.0717  0.0384  0.8172
 1751SOL    HW116886   3.363   0.827   2.923  1.3478 -0.9467 -0.4459
 1751SOL    HW216887   3.296   0.745   3.031  0.9196 -0.5546  1.0663
 1752SOL     OW16888   4.667   0.422  16.374 -0.2595 -0.4191  0.0090
 1752SOL    HW116889   0.022   0.441  16.360 -0.5916  1.5832  0.5368
 1752SOL    HW216890   4.661   0.392  16.465 -2.2406 -2.2184 -0.7101
 1753SOL     OW16891   4.307   0.517   3.259  0.0307 -0.4959  0.4309
 1753SOL    HW116892   4.232   0.575   3.246  0.5174 -0.0817 -0.5867
 1753SOL    HW216893   4.276   0.440   3.213 -1.7188  1.2400 -1.2912
 1754SOL     OW16894   4.391   3.801   9.051 -0.0446 -0.1937 -0.5507
 1754SOL    HW116895   4.338   3.845   8.984 -0.5004 -0.1626 -0.1706
 1754SOL    HW216896   4.324   3.741   9.085  0.1962  0.7807  1.6822
 1755SOL     OW16897   4.201   2.931   9.436 -0.0852  0.0940 -0.4603
 1755SOL    HW116898   4.179   2.979   9.516  0.3083 -1.0400  0.3213
 1755SOL    HW216899   4.282   2.900   9.477  1.1460  2.8587 -0.7748
 1756SOL     OW16900   0.682   0.929  11.782  0.4052  0.5015  0.7139
 1756SOL    HW116901   0.681   0.969  11.695 -0.8165  0.7973  0.8691
 1756SOL    HW216902   0.667   0.838  11.756  2.8626  0.0853  0.7080
 1757SOL     OW16903   3.995   3.132   7.932 -0.2554  0.1146 -0.3197
 1757SOL    HW116904   3.987   3.058   7.871 -0.8760 -0.8332  0.9113
 1757SOL    HW216905   3.913   3.128   7.981 -0.6083 -0.0899 -0.9254
 1758SOL     OW16906   0.509   3.949   9.707  0.3297 -0.0860  0.1333
 1758SOL    HW116907   0.454   3.917   9.635  1.4859 -0.5475 -0.5674
 1758SOL    HW216908   0.451   3.994   9.767 -0.7858  0.9720 -1.7239
 1759SOL     OW16909   2.916   4.653   7.257  0.1950  0.4442  0.0639
 1759SOL    HW116910   2.883   4.594   7.324 -0.1427 -0.4622 -0.8923
 1759SOL    HW216911   2.968   4.599   7.197  1.3261  0.6528  0.8643
 1760SOL     OW16912   0.322   4.453   2.143 -0.7135  0.1897  0.6427
 1760SOL    HW116913   0.254   4.517   2.163 -2.1713 -1.2651  0.3995
 1760SOL    HW216914   0.291   4.431   2.055  1.1006  1.2958 -0.2662
 1761SOL     OW16915   1.524   1.762  11.663  0.4729 -0.1703  0.2903
 1761SOL    HW116916   1.437   1.775  11.701  0.0342  2.0482 -1.4770
 1761SOL    HW216917   1.556   1.852  11.654 -1.6875  0.5948  0.3034
 1762SOL     OW16918   3.027   4.122  10.455  0.2314  0.2927  0.5799
 1762SOL    HW116919   3.096   4.174  10.497 -0.8831  3.2500 -1.2173
 1762SOL    HW216920   3.025   4.152  10.364  1.2119  2.3677  1.2459
 1763SOL     OW16921   2.828   2.302   1.859  0.1268 -0.4910  0.0559
 1763SOL    HW116922   2.747   2.313   1.909  0.7193  3.5991  0.0308
 1763SOL    HW216923   2.794   2.347   1.781  1.7554  2.2209  0.9440
 1764SOL     OW16924   2.949   1.579  10.862  0.5967  0.1761  0.3788
 1764SOL    HW116925   3.016   1.556  10.926  0.1483 -0.9250  0.4429
 1764SOL    HW216926   2.976   1.532  10.783  1.0689 -0.1257  0.7180
 1765SOL     OW16927   2.170   1.510   7.807 -0.2938  0.1137  0.8771
 1765SOL    HW116928   2.154   1.566   7.883 -0.4941  1.4047 -0.1023
 1765SOL    HW216929   2.222   1.566   7.748  0.1918  1.2655  2.4007
 1766SOL     OW16930   3.744   3.056  17.277  0.2435  0.1750  0.1830
 1766SOL    HW116931   3.814   2.997  17.249 -0.4287 -0.6525  0.2456
 1766SOL    HW216932   3.765   3.146  17.249  0.8339  0.2976  1.0251
 1767SOL     OW16933   2.050   4.674   8.229 -0.0813 -0.8810  0.1622
 1767SOL    HW116934   1.959   4.695   8.206  0.6095  1.6400 -0.2361
 1767SOL    HW216935   2.105   0.014   8.217 -2.2250  0.7367  0.8610
 1768SOL     OW16936   4.378   3.082  15.046 -0.4024 -0.5346 -0.3657
 1768SOL    HW116937   4.315   3.013  15.069 -0.1526 -0.3003  1.0317
 1768SOL    HW216938   4.423   3.035  14.975 -1.2855 -1.0143 -0.6090
 1769SOL     OW16939   4.701   0.190  16.948  0.2679 -0.1407 -0.6330
 1769SOL    HW116940   4.623   0.211  16.897 -0.0652  0.6399  0.1937
 1769SOL    HW216941   0.028   0.185  16.878  1.7565  0.6709  0.6757
 1770SOL     OW16942   0.707   3.827   9.433  0.1138 -0.1780 -0.0089
 1770SOL    HW116943   0.759   3.872   9.499 -0.6524  1.0111 -0.2171
 1770SOL    HW216944   0.680   3.750   9.483  1.7941 -1.6362 -1.3499
 1771SOL     OW16945   2.558   4.258   3.795  0.0880  0.1760  0.9834
 1771SOL    HW116946   2.628   4.256   3.730  0.5146 -0.5830  1.4557
 1771SOL    HW216947   2.600   4.311   3.863 -0.4895  2.3547 -0.3945
 1772SOL     OW16948   1.189   2.768   5.731 -0.6676 -0.4818 -0.3614
 1772SOL    HW116949   1.224   2.679   5.730  1.2548  0.2280  2.1218
 1772SOL    HW216950   1.124   2.753   5.799 -0.3179 -1.9743 -0.3671
 1773SOL     OW16951   4.168   4.679   9.502 -0.1163 -0.2884  0.4386
 1773SOL    HW116952   4.214   0.025   9.498 -0.1970 -0.1661  2.2236
 1773SOL    HW216953   4.239   4.615   9.499  2.3510  2.4809  0.6409
 1774SOL     OW16954   0.567   0.030   3.368  0.0194  0.1526 -0.4901
 1774SOL    HW116955   0.646   0.074   3.336 -0.7306  1.2704 -0.7878
 1774SOL    HW216956   0.598   4.678   3.353  0.5284 -0.0340  1.7021
 1775SOL     OW16957   0.975   3.948  13.636  0.6396 -0.2472 -0.5994
 1775SOL    HW116958   1.052   4.001  13.615 -0.9796  1.1468 -2.8780
 1775SOL    HW216959   1.001   3.869  13.590 -2.3728 -1.5632 -0.0415
 1776SOL     OW16960   1.242   2.040   4.265 -0.5869  0.5299  0.2799
 1776SOL    HW116961   1.155   2.061   4.231 -0.8369 -1.2526 -0.1581
 1776SOL    HW216962   1.254   1.948   4.240 -0.1521 -0.0036  2.4737
 1777SOL     OW16963   4.467   1.472   8.653 -0.0442  0.4538  0.5010
 1777SOL    HW116964   4.537   1.534   8.630  0.4322 -0.8320 -1.4592
 1777SOL    HW216965   4.386   1.521   8.638 -0.5728 -0.2288  1.1388
 1778SOL     OW16966   4.142   1.740   2.690 -0.1876 -0.2466 -0.6205
 1778SOL    HW116967   4.101   1.821   2.658 -0.5468 -0.1936 -0.0275
 1778SOL    HW216968   4.155   1.764   2.781  0.1152 -2.4727 -0.0846
 1779SOL     OW16969   4.151   4.020   7.421 -0.3968 -0.2264  0.3822
 1779SOL    HW116970   4.180   4.003   7.331  0.0457 -2.8562  1.0374
 1779SOL    HW216971   4.057   4.038   7.412 -0.2665 -0.3183 -1.3187
 1780SOL     OW16972   1.908   0.261   7.172  1.0060 -0.3016 -0.7737
 1780SOL    HW116973   1.816   0.251   7.194  0.7187  2.9144 -0.4149
 1780SOL    HW216974   1.921   0.170   7.148 -1.4308 -0.6471 -0.7282
 1781SOL     OW16975   0.338   0.741  17.353 -0.3832 -0.1560  0.3220
 1781SOL    HW116976   0.380   0.665  17.313  0.6845  0.5075  0.1692
 1781SOL    HW216977   0.253   0.749  17.309 -0.3520 -2.6259 -0.1347
 1782SOL     OW16978   4.381   0.102   5.338  0.6056 -0.6518  0.0401
 1782SOL    HW116979   4.310   0.046   5.306 -0.9727  0.3564  1.8102
 1782SOL    HW216980   4.357   0.183   5.293  1.7159 -0.0805  0.4835
 1783SOL     OW16981   3.917   0.244  13.316 -0.2960  0.2056 -0.4271
 1783SOL    HW116982   3.830   0.280  13.302 -0.1325  0.5175 -0.6474
 1783SOL    HW216983   3.936   0.297  13.393 -1.1424 -1.2137  0.7419
 1784SOL     OW16984   1.454   1.687   5.170 -0.0670 -0.1122 -0.4518
 1784SOL    HW116985   1.360   1.671   5.182 -0.2408  2.1450  1.2921
 1784SOL    HW216986   1.482   1.724   5.254 -0.8750  1.0439 -0.6905
 1785SOL     OW16987   3.545   3.576   3.471 -0.3618 -0.0764  0.4388
 1785SOL    HW116988   3.595   3.606   3.547  0.7350 -1.2221  0.1594
 1785SOL    HW216989   3.462   3.548   3.510  0.3823 -3.2111 -0.1879
 1786SOL     OW16990   0.253   3.359  15.327 -0.0326 -0.3254 -0.0275
 1786SOL    HW116991   0.348   3.369  15.314  0.1544 -1.4711  0.4140
 1786SOL    HW216992   0.224   3.356  15.236 -0.2069  0.8011 -0.0101
 1787SOL     OW16993   1.001   0.047   4.423  0.6649 -0.4790 -0.0291
 1787SOL    HW116994   1.087   0.045   4.382  0.1030  2.2551 -1.3367
 1787SOL    HW216995   0.964   0.109   4.361  0.1337 -0.0372  0.7286
 1788SOL     OW16996   2.942   0.224   1.278 -0.6559  0.0861 -0.3199
 1788SOL    HW116997   2.878   0.269   1.222  1.4885 -0.1986 -3.0040
 1788SOL    HW216998   2.933   0.132   1.255  1.2533  0.2074 -1.5966
 1789SOL     OW16999   4.005   0.843   6.562  0.2816 -1.0151  0.6189
 1789SOL    HW117000   4.093   0.814   6.585  0.5993 -0.3929  0.1897
 1789SOL    HW217001   3.965   0.757   6.560 -1.5500 -0.1642  0.2948
 1790SOL     OW17002   3.639   3.916   1.761  0.3564  0.1328 -0.2212
 1790SOL    HW117003   3.612   3.824   1.759  0.7508  0.0002  0.8982
 1790SOL    HW217004   3.732   3.922   1.738  0.2146 -3.0923 -1.6950
 1791SOL     OW17005   1.462   4.093   6.599  0.0133 -0.0254 -0.3235
 1791SOL    HW117006   1.403   4.029   6.639 -0.9953  0.1480 -1.5410
 1791SOL    HW217007   1.501   4.049   6.523 -2.7682 -0.6649 -1.4117
 1792SOL     OW17008   3.214   4.537   8.465  0.9140 -0.2366 -0.2329
 1792SOL    HW117009   3.168   4.547   8.549  1.8870 -1.8064  0.4797
 1792SOL    HW217010   3.234   4.626   8.438 -0.1739  0.1229  0.1060
 1793SOL     OW17011   2.252   4.171   2.710 -0.0790  0.0318  0.2140
 1793SOL    HW117012   2.180   4.110   2.693 -1.9588  2.6759 -1.3726
 1793SOL    HW217013   2.331   4.135   2.669  1.1834  4.4519 -1.2012
 1794SOL     OW17014   1.947   4.398   7.324  0.0286 -0.6802 -0.3792
 1794SOL    HW117015   2.004   4.400   7.401  1.4570  0.5896 -1.4608
 1794SOL    HW217016   2.005   4.363   7.256 -0.7787  1.3387 -2.0860
 1795SOL     OW17017   2.294   2.715   2.097  0.7434 -0.4013 -0.3332
 1795SOL    HW117018   2.308   2.674   2.182 -0.7593 -0.0137  0.0956
 1795SOL    HW217019   2.379   2.756   2.078  0.3748  0.7726  0.6060
 1796SOL     OW17020   0.363   2.840   5.933 -0.2877  0.6473 -0.0862
 1796SOL    HW117021   0.373   2.921   5.884  0.7616  0.8783  0.5119
 1796SOL    HW217022   0.453   2.812   5.950 -0.1236  1.8829  1.1163
 1797SOL     OW17023   3.645   2.147   7.717  0.2244 -0.2712  0.2943
 1797SOL    HW117024   3.701   2.130   7.642 -2.2345  0.1410 -1.6460
 1797SOL    HW217025   3.599   2.227   7.690 -0.5503 -1.3776 -1.6853
 1798SOL     OW17026   1.414   4.715   5.345 -0.2558  0.3684  0.0112
 1798SOL    HW117027   1.489   0.036   5.354 -0.8246  1.0562  0.2734
 1798SOL    HW217028   1.372   4.726   5.431  0.5656  3.4269 -0.0050
 1799SOL     OW17029   0.168   0.904   6.125  0.5111 -0.2616 -0.1541
 1799SOL    HW117030   0.211   0.877   6.206 -0.7323  0.7384  0.8503
 1799SOL    HW217031   0.113   0.828   6.106  0.5623 -0.5086  0.6872
 1800SOL     OW17032   3.778   4.596   2.134 -1.2054 -0.1854  0.0821
 1800SOL    HW117033   3.748   4.516   2.091  0.5568 -0.7201 -0.1461
 1800SOL    HW217034   3.697   4.630   2.172 -1.3434 -0.4726  0.0439
 1801SOL     OW17035   3.167   1.732   1.858  0.0455 -0.0236  0.5161
 1801SOL    HW117036   3.112   1.727   1.936 -1.6388  2.5086 -0.4891
 1801SOL    HW217037   3.187   1.641   1.837 -0.9078  0.0356 -0.6347
 1802SOL     OW17038   1.567   3.797   6.232 -0.3227 -0.2213  0.3516
 1802SOL    HW117039   1.597   3.716   6.273 -1.4163 -1.0690 -0.5193
 1802SOL    HW217040   1.622   3.802   6.153 -0.3102 -2.9184  0.2064
 1803SOL     OW17041   4.247   2.888   5.715  0.4261  0.2531  0.4643
 1803SOL    HW117042   4.342   2.900   5.708  0.5686 -0.7936  0.5910
 1803SOL    HW217043   4.217   2.962   5.661 -0.5319 -0.2776  0.2760
 1804SOL     OW17044   3.116   3.275   3.859  0.5641 -0.2592  0.0896
 1804SOL    HW117045   3.035   3.278   3.910  0.2007  0.8557 -0.5696
 1804SOL    HW217046   3.140   3.366   3.846  0.6403 -0.4659 -1.2335
 1805SOL     OW17047   4.307   3.072  12.575 -0.0485  0.4556 -0.2639
 1805SOL    HW117048   4.245   3.017  12.623  1.4446  0.1660  1.3568
 1805SOL    HW217049   4.390   3.067  12.623  0.1978  2.4363 -0.4624
 1806SOL     OW17050   0.456   0.742   4.462  0.6424  0.2199 -0.5165
 1806SOL    HW117051   0.375   0.775   4.423  1.3104  0.9284 -1.2984
 1806SOL    HW217052   0.513   0.776   4.393  0.1877  1.2348 -0.3995
 1807SOL     OW17053   4.317   4.510   3.916  0.4169 -0.2478 -0.6407
 1807SOL    HW117054   4.368   4.444   3.963 -0.7286 -1.4773 -1.1231
 1807SOL    HW217055   4.246   4.448   3.899 -0.4158 -0.2789  2.9903
 1808SOL     OW17056   1.391   0.269   7.511  0.4686  0.5490  0.4223
 1808SOL    HW117057   1.365   0.299   7.598 -0.5515  2.1378 -0.4452
 1808SOL    HW217058   1.460   0.204   7.527  1.5759  1.7260  0.4449
 1809SOL     OW17059   2.443   1.125   2.985 -0.4365  0.3160 -0.1393
 1809SOL    HW117060   2.395   1.130   3.068  0.1399  1.9851  0.0905
 1809SOL    HW217061   2.459   1.218   2.970 -0.3430  0.5350  1.2834
 1810SOL     OW17062   0.325   3.376   6.728  0.2297  0.3816 -0.2174
 1810SOL    HW117063   0.232   3.352   6.726  0.0378  1.1035 -0.0024
 1810SOL    HW217064   0.342   3.454   6.676 -2.1645  1.6629  0.9354
 1811SOL     OW17065   3.867   2.510   6.394  0.6860 -0.0890 -0.2316
 1811SOL    HW117066   3.888   2.556   6.313  1.5080 -2.0122 -1.0810
 1811SOL    HW217067   3.830   2.431   6.355 -0.8891  0.7596 -0.4666
 1812SOL     OW17068   2.946   4.196   1.951  0.4546 -0.1199 -0.4149
 1812SOL    HW117069   3.035   4.228   1.940  1.1129 -2.3687 -1.6013
 1812SOL    HW217070   2.919   4.223   2.039  1.5935  0.0178 -0.1122
 1813SOL     OW17071   2.884   4.570   2.335  0.1341  0.3078  0.1439
 1813SOL    HW117072   2.826   4.599   2.264 -1.8076 -2.9449  0.3792
 1813SOL    HW217073   2.955   4.535   2.281  0.5595  2.2229 -0.5427
 1814SOL     OW17074   2.867   3.539   3.598 -0.0137 -0.6317  0.2113
 1814SOL    HW117075   2.914   3.573   3.522 -0.6100 -0.3839 -0.0445
 1814SOL    HW217076   2.931   3.540   3.670  1.7293 -3.3426 -1.2983
 1815SOL     OW17077   2.969   2.999   3.823 -0.7372  0.1365  0.1132
 1815SOL    HW117078   3.000   3.089   3.821  0.9243 -0.4633 -0.6764
 1815SOL    HW217079   3.034   2.941   3.783 -1.5668 -1.1898  0.6899
 1816SOL     OW17080   3.117   3.512   9.312  0.1464 -0.4662 -0.2973
 1816SOL    HW117081   3.196   3.565   9.300 -0.6224  0.9190  0.8530
 1816SOL    HW217082   3.108   3.475   9.224  0.1504  0.8553 -0.8514
 1817SOL     OW17083   0.630   3.981   7.996  0.0238  0.2471  0.6274
 1817SOL    HW117084   0.691   4.048   8.027 -0.7281  0.8775  0.7435
 1817SOL    HW217085   0.598   4.030   7.921 -0.6664 -1.7970 -0.4157
 1818SOL     OW17086   1.639   2.344   8.701 -0.1243  0.5687 -0.8398
 1818SOL    HW117087   1.722   2.312   8.664 -0.7017  0.5848 -2.1473
 1818SOL    HW217088   1.572   2.345   8.633 -0.9618 -0.3006 -0.0173
 1819SOL     OW17089   0.964   3.058  15.224 -0.2080 -0.4330  0.3184
 1819SOL    HW117090   0.973   3.078  15.131 -1.1381 -0.1658  0.2904
 1819SOL    HW217091   1.025   2.987  15.244  0.5489  0.2196  0.3441
 1820SOL     OW17092   1.917   0.683   3.743  0.7053  0.4655 -0.3143
 1820SOL    HW117093   1.906   0.589   3.757  2.7660 -0.0509 -2.0142
 1820SOL    HW217094   1.943   0.719   3.827  1.8124 -0.0354 -0.4404
 1821SOL     OW17095   3.589   4.226  12.582  0.3655 -0.4263 -0.7635
 1821SOL    HW117096   3.680   4.221  12.554  0.4205 -1.0819 -0.4686
 1821SOL    HW217097   3.540   4.208  12.502  1.2477  0.2112 -1.4397
 1822SOL     OW17098   0.862   2.610  12.265  0.1078 -0.3450 -0.1586
 1822SOL    HW117099   0.873   2.705  12.258  0.8712 -0.5822 -2.0948
 1822SOL    HW217100   0.769   2.596  12.282  0.0996 -1.7180 -1.4207
 1823SOL     OW17101   3.271   3.155   4.474 -0.0954  0.3252 -0.2722
 1823SOL    HW117102   3.218   3.087   4.433  4.0089 -2.1365 -1.4929
 1823SOL    HW217103   3.362   3.128   4.462 -0.0223  0.5813 -0.3020
 1824SOL     OW17104   0.744   1.877   2.100  0.1051  0.7372 -0.2509
 1824SOL    HW117105   0.665   1.907   2.056 -1.0349  1.3408  2.1692
 1824SOL    HW217106   0.802   1.931   2.046 -1.7262  1.2210 -1.6915
 1825SOL     OW17107   2.278   2.657   9.444 -0.2965  0.4424  0.2152
 1825SOL    HW117108   2.320   2.699   9.369 -2.2337 -0.4398 -1.3628
 1825SOL    HW217109   2.212   2.599   9.405  1.2878 -1.9125  1.0353
 1826SOL     OW17110   2.982   0.715  14.021  0.1942 -0.4019 -0.5131
 1826SOL    HW117111   2.916   0.708  14.090  0.3212  2.1535 -0.0936
 1826SOL    HW217112   3.059   0.688  14.072 -0.3180 -0.4412  0.2410
 1827SOL     OW17113   4.682   4.113   3.296 -0.8615  0.1407 -0.2209
 1827SOL    HW117114   0.039   4.114   3.281 -0.5940 -0.4150  1.4359
 1827SOL    HW217115   4.654   4.069   3.215  3.1604 -1.9309 -0.4637
 1828SOL     OW17116   2.231   2.060   7.567  0.1343 -0.2424  0.4774
 1828SOL    HW117117   2.304   2.065   7.628 -0.0231  1.3977  0.5439
 1828SOL    HW217118   2.254   1.973   7.534 -1.9311 -1.3987  2.0336
 1829SOL     OW17119   3.953   4.245  11.857 -0.4019 -0.1065 -0.0630
 1829SOL    HW117120   4.009   4.320  11.838  1.0716 -0.6905  2.0500
 1829SOL    HW217121   3.866   4.282  11.871  0.7982  1.9144  1.8412
 1830SOL     OW17122   1.803   4.061   6.622  0.0993  0.5517  0.0660
 1830SOL    HW117123   1.731   4.035   6.564 -0.9790 -0.4334  1.8574
 1830SOL    HW217124   1.770   4.047   6.710  0.3260  1.7029  0.3323
 1831SOL     OW17125   2.660   1.487  12.152 -0.0980  0.2159 -0.3345
 1831SOL    HW117126   2.756   1.488  12.154 -0.1450  1.1622  2.3282
 1831SOL    HW217127   2.651   1.468  12.059 -1.3779  0.4462 -0.2517
 1832SOL     OW17128   1.067   4.377   9.291  0.6907 -0.2388  0.5327
 1832SOL    HW117129   1.001   4.308   9.299  1.6419 -0.8231  3.2532
 1832SOL    HW217130   1.084   4.355   9.199 -2.0259 -3.8847  0.8814
 1833SOL     OW17131   0.888   0.060   3.034 -0.6750 -0.8153  0.1130
 1833SOL    HW117132   0.956   0.030   3.095 -0.0323 -0.3125 -0.3668
 1833SOL    HW217133   0.867   4.717   2.985  2.3627 -0.9360 -1.0159
 1834SOL     OW17134   3.717   0.581   6.294 -0.5574  0.7073  0.5284
 1834SOL    HW117135   3.789   0.518   6.294 -0.1420  1.1975 -1.5286
 1834SOL    HW217136   3.641   0.530   6.323 -0.6721  1.5512  1.7207
 1835SOL     OW17137   2.526   3.353   6.123 -0.0387 -0.2483 -0.2367
 1835SOL    HW117138   2.568   3.363   6.038 -0.6182  1.9289 -0.2692
 1835SOL    HW217139   2.591   3.305   6.174  0.2345 -0.3372 -0.6717
 1836SOL     OW17140   0.386   0.902  17.566 -0.4224 -0.0619  0.1015
 1836SOL    HW117141   0.400   0.996  17.550  3.4831 -0.4965  1.0453
 1836SOL    HW217142   0.402   0.860  17.481 -0.3063  2.2799 -1.0484
 1837SOL     OW17143   1.656   1.972   5.658 -1.1144  0.2385  0.3672
 1837SOL    HW117144   1.606   1.999   5.581 -0.0709  1.3364  0.0747
 1837SOL    HW217145   1.681   1.883   5.632 -0.4219  1.2709 -2.4781
 1838SOL     OW17146   2.248   3.003   1.952 -0.1577  0.5163 -0.0822
 1838SOL    HW117147   2.232   2.949   1.876 -1.2010  0.8274 -0.0808
 1838SOL    HW217148   2.326   3.047   1.919  0.9813 -2.6464 -1.5773
 1839SOL     OW17149   1.064   4.503   7.825  0.2501 -0.3470  0.3311
 1839SOL    HW117150   0.976   4.489   7.790  0.1008  1.4294  0.0031
 1839SOL    HW217151   1.089   4.569   7.761  0.7442 -1.1595 -0.3130
 1840SOL     OW17152   3.835   0.521  10.004 -0.5341  0.1237 -0.0574
 1840SOL    HW117153   3.888   0.518  10.084  0.0474 -0.5294 -0.4675
 1840SOL    HW217154   3.749   0.514  10.045 -0.4650 -0.2490  0.0211
 1841SOL     OW17155   4.310   3.347   9.543  0.1439 -0.0982  0.2225
 1841SOL    HW117156   4.288   3.257   9.564  1.4090 -0.9563 -2.1737
 1841SOL    HW217157   4.326   3.371   9.634 -0.7712  0.3762  0.2599
 1842SOL     OW17158   0.538   1.590  11.733  0.7071  0.0612  0.1635
 1842SOL    HW117159   0.575   1.590  11.645  1.5907 -0.0377  0.5343
 1842SOL    HW217160   0.448   1.560  11.728  0.1255  2.0459 -1.3002
 1843SOL     OW17161   4.021   2.441   8.997  0.0219 -0.2797  0.0916
 1843SOL    HW117162   3.980   2.358   8.971 -1.2036  0.3475  0.0219
 1843SOL    HW217163   4.022   2.430   9.092  0.1656 -1.3755 -0.0393
 1844SOL     OW17164   0.178   3.846   6.113  0.2897 -0.2767  0.2928
 1844SOL    HW117165   0.267   3.828   6.142  1.2376  1.1458 -1.7135
 1844SOL    HW217166   0.137   3.899   6.181 -0.3636  0.3693 -0.5917
 1845SOL     OW17167   0.177   4.157  12.785 -0.3310  0.4471 -0.0033
 1845SOL    HW117168   0.125   4.194  12.857 -2.7034 -0.5872 -1.1750
 1845SOL    HW217169   0.118   4.085  12.760 -3.3891  2.3281  1.7123
 1846SOL     OW17170   1.094   0.964   2.685 -0.3714  0.0944 -0.5153
 1846SOL    HW117171   1.149   0.920   2.750  0.2465  0.9198 -0.4892
 1846SOL    HW217172   1.011   0.965   2.732  0.0844 -1.0688  0.3152
 1847SOL     OW17173   1.160   2.597  16.497  0.0848 -0.1949 -0.4693
 1847SOL    HW117174   1.115   2.542  16.431  1.3451 -1.1337 -0.5448
 1847SOL    HW217175   1.097   2.649  16.546  1.3171  0.8682 -0.0528
 1848SOL     OW17176   0.524   0.778  10.678  0.0471 -0.8964  0.0752
 1848SOL    HW117177   0.540   0.694  10.635 -1.6362 -1.9201  1.4626
 1848SOL    HW217178   0.450   0.807  10.625  0.7030  1.4965  0.4515
 1849SOL     OW17179   1.582   4.537   2.569  0.1265 -0.3960 -0.1764
 1849SOL    HW117180   1.631   4.465   2.529  1.0590  0.8429 -1.2472
 1849SOL    HW217181   1.505   4.523   2.514 -0.3170  0.0019  0.3483
 1850SOL     OW17182   2.032   1.475   8.690  0.0312  0.3764 -0.0538
 1850SOL    HW117183   2.016   1.499   8.781 -2.4296  2.3043 -1.0008
 1850SOL    HW217184   1.942   1.471   8.660  0.5607  1.6898 -1.8331
 1851SOL     OW17185   1.941   0.776   4.009  0.3567  0.1737  0.4039
 1851SOL    HW117186   2.017   0.787   4.067 -1.0310 -1.1719  2.4737
 1851SOL    HW217187   1.913   0.865   3.988  0.6223  0.0447 -0.4830
 1852SOL     OW17188   3.626   1.533   8.156 -0.2860  0.2146  0.0818
 1852SOL    HW117189   3.686   1.477   8.206 -0.5155 -0.5649 -0.5162
 1852SOL    HW217190   3.628   1.617   8.201  0.0879 -0.7070  1.7997
 1853SOL     OW17191   1.736   2.335   3.317  0.1720 -0.7946 -0.7790
 1853SOL    HW117192   1.682   2.353   3.239  0.1472  0.6594 -0.4385
 1853SOL    HW217193   1.733   2.422   3.358  1.2037 -1.8006  1.4300
 1854SOL     OW17194   2.204   2.228   6.714  0.0379  0.5476  1.2311
 1854SOL    HW117195   2.169   2.261   6.631  0.2686 -2.0878  0.0922
 1854SOL    HW217196   2.130   2.176   6.747  0.5886 -2.4983 -2.3674
 1855SOL     OW17197   0.483   3.783   3.288  0.6979 -0.0232  0.2230
 1855SOL    HW117198   0.456   3.862   3.242 -1.2120 -0.4252  0.6775
 1855SOL    HW217199   0.476   3.817   3.377 -1.4509 -2.1916  0.8661
 1856SOL     OW17200   1.874   0.203   6.003 -0.4097 -0.1054  0.5846
 1856SOL    HW117201   1.781   0.193   5.982 -0.1192 -0.6820 -0.4187
 1856SOL    HW217202   1.895   0.114   6.030  1.4454 -0.4390 -1.9152
 1857SOL     OW17203   0.391   2.534   8.135  0.3059 -0.1234  0.2150
 1857SOL    HW117204   0.363   2.611   8.084 -0.2079 -0.3683  0.1349
 1857SOL    HW217205   0.474   2.520   8.090  0.1342  1.8533 -0.7408
 1858SOL     OW17206   1.504   0.086  13.467 -0.1929  0.0883 -0.2044
 1858SOL    HW117207   1.500   0.106  13.561  1.0976  0.1894 -0.1701
 1858SOL    HW217208   1.499   0.178  13.440 -2.8477  0.5883  1.8980
 1859SOL     OW17209   2.399   0.600   8.813  0.2385  0.6091 -0.1395
 1859SOL    HW117210   2.377   0.518   8.859  0.0943 -0.2672 -1.7705
 1859SOL    HW217211   2.350   0.585   8.732  0.0418 -0.7856  0.2347
 1860SOL     OW17212   3.103   3.633   5.593  0.2308  0.1855  0.1436
 1860SOL    HW117213   3.065   3.705   5.543  0.9311 -0.8592 -1.8948
 1860SOL    HW217214   3.104   3.557   5.536  0.5750  0.5591 -0.3456
 1861SOL     OW17215   3.737   3.238   5.107 -0.0948  0.3054 -0.5961
 1861SOL    HW117216   3.766   3.159   5.061 -2.1024 -0.9773  0.3665
 1861SOL    HW217217   3.816   3.292   5.117  1.2102 -1.7886  0.3558
 1862SOL     OW17218   1.453   3.326  16.124 -0.1165  0.3117  0.2956
 1862SOL    HW117219   1.426   3.326  16.216 -0.3742 -1.5511  0.2259
 1862SOL    HW217220   1.408   3.403  16.089 -0.6031  0.3700  1.0454
 1863SOL     OW17221   0.145   3.666   8.812 -0.0060 -0.1896 -0.3343
 1863SOL    HW117222   0.093   3.700   8.739  0.5949 -1.4859 -1.3605
 1863SOL    HW217223   0.144   3.741   8.872 -0.4775  2.5638 -3.7580
 1864SOL     OW17224   1.100   3.650   0.084 -0.0161 -0.7001 -0.3957
 1864SOL    HW117225   1.066   3.653  17.743  1.8694 -0.2947 -1.0834
 1864SOL    HW217226   1.096   3.560   0.115  1.3968 -1.6893 -3.1917
 1865SOL     OW17227   3.545   4.188   6.118  1.2742  0.3915  0.0985
 1865SOL    HW117228   3.615   4.158   6.177  1.9305 -0.4948 -1.1083
 1865SOL    HW217229   3.470   4.140   6.151  0.9299 -0.1790 -1.5082
 1866SOL     OW17230   1.316   3.080   7.063  0.1772  0.3899 -0.6973
 1866SOL    HW117231   1.275   3.016   7.121  0.8566 -0.5487 -1.2455
 1866SOL    HW217232   1.267   3.091   6.982 -1.1050  1.1884  0.1924
 1867SOL     OW17233   4.509   1.049   2.389  0.5067  0.1811  0.1334
 1867SOL    HW117234   4.557   1.103   2.326  1.0359 -0.2711  0.1499
 1867SOL    HW217235   4.429   1.101   2.387  0.1762 -0.4436 -4.3242
 1868SOL     OW17236   3.080   3.408   5.406 -0.7722 -0.0094 -0.1346
 1868SOL    HW117237   3.089   3.313   5.404 -1.7142 -0.0733 -1.0519
 1868SOL    HW217238   3.147   3.434   5.342 -0.8528  0.7912  0.0993
 1869SOL     OW17239   0.523   1.760  17.405  0.2422  0.1264  0.2784
 1869SOL    HW117240   0.501   1.853  17.404  2.6000  0.6990  1.3578
 1869SOL    HW217241   0.516   1.735  17.313  1.8405 -0.9392  0.4297
 1870SOL     OW17242   1.675   0.247   4.500 -0.2265 -0.3072 -0.1684
 1870SOL    HW117243   1.627   0.312   4.449  0.6731  0.7996  0.4016
 1870SOL    HW217244   1.755   0.226   4.451  0.8663  2.3986  0.4443
 1871SOL     OW17245   2.088   0.902   3.327 -0.2789 -0.0576 -0.3542
 1871SOL    HW117246   2.177   0.871   3.309 -0.8100 -2.7267  1.6277
 1871SOL    HW217247   2.057   0.930   3.240  1.5438  0.7220 -0.7599
 1872SOL     OW17248   3.138   0.611  15.290 -0.5687 -0.3831  0.2626
 1872SOL    HW117249   3.165   0.528  15.252  0.4957  0.4201 -0.7468
 1872SOL    HW217250   3.150   0.588  15.382 -3.9642 -3.5322 -0.0889
 1873SOL     OW17251   1.667   0.815  12.800 -0.2093 -0.8795  0.5064
 1873SOL    HW117252   1.657   0.899  12.845 -0.9370 -0.5109 -0.3489
 1873SOL    HW217253   1.736   0.825  12.735 -1.4508  2.5321 -0.3150
 1874SOL     OW17254   1.545   4.613   8.867 -0.4306 -0.0344 -0.2776
 1874SOL    HW117255   1.487   4.556   8.918 -0.7567  1.1576  0.6660
 1874SOL    HW217256   1.480   4.665   8.819 -0.1517  1.1084  0.5778
 1875SOL     OW17257   0.220   1.972   3.770  0.4022 -0.1210  0.2609
 1875SOL    HW117258   0.153   1.933   3.714  1.1719  0.0286 -0.7575
 1875SOL    HW217259   0.223   2.064   3.744 -0.5243 -0.7708 -2.0808
 1876SOL     OW17260   4.590   2.341  11.659  0.0946 -0.3290  0.5113
 1876SOL    HW117261   4.609   2.271  11.597 -1.6465  0.8127 -1.2948
 1876SOL    HW217262   4.513   2.377  11.615 -0.0070  0.5889  1.4341
 1877SOL     OW17263   1.495   4.034   8.798 -0.4155  0.0605 -0.1964
 1877SOL    HW117264   1.548   4.024   8.877  0.8367 -0.6170 -1.1182
 1877SOL    HW217265   1.483   4.128   8.804  0.3584  0.0428  1.7664
 1878SOL     OW17266   0.026   4.431   5.876  0.8273  0.3800  0.0051
 1878SOL    HW117267   0.011   4.458   5.967  0.0632  0.9551 -0.2956
 1878SOL    HW217268   4.679   4.465   5.848 -0.5799 -1.8583  1.5328
 1879SOL     OW17269   1.817   1.397  16.940 -0.2301 -0.7874 -0.2910
 1879SOL    HW117270   1.822   1.392  16.845 -0.3000 -0.9251 -0.2871
 1879SOL    HW217271   1.877   1.472  16.940  0.5695 -1.4228  0.4686
 1880SOL     OW17272   1.140   2.543   7.796 -0.1823 -0.2523  0.5743
 1880SOL    HW117273   1.135   2.557   7.701  2.6551 -2.8715  0.0866
 1880SOL    HW217274   1.230   2.514   7.800  0.2430  0.6016 -2.3297
 1881SOL     OW17275   2.345   4.194   6.453  0.0015  0.2257  0.4594
 1881SOL    HW117276   2.385   4.112   6.485 -1.2029 -1.6052 -2.7679
 1881SOL    HW217277   2.250   4.186   6.458 -0.0938  0.6666 -0.7485
 1882SOL     OW17278   0.346   1.869   3.990  0.1495 -0.2897 -0.4218
 1882SOL    HW117279   0.311   1.913   3.913 -2.9822 -2.6021 -0.3538
 1882SOL    HW217280   0.273   1.810   4.012  0.3782 -0.2616  0.4304
 1883SOL     OW17281   4.224   4.021   7.908 -0.0193 -0.3223 -0.1587
 1883SOL    HW117282   4.168   4.033   7.832 -2.8605 -1.4069  1.7900
 1883SOL    HW217283   4.310   4.046   7.873  1.1638  0.0184  2.9679
 1884SOL     OW17284   3.345   2.636   5.724  0.1211  0.3320  0.4462
 1884SOL    HW117285   3.255   2.605   5.716  0.8176 -1.9492  1.5134
 1884SOL    HW217286   3.331   2.728   5.745 -1.6710 -0.3603  2.2202
 1885SOL     OW17287   1.058   4.422  11.995  0.1416  0.9882 -0.2705
 1885SOL    HW117288   0.982   4.457  11.947  0.9700  0.2125 -2.1440
 1885SOL    HW217289   1.044   4.475  12.073  0.2176  0.4625  0.0950
 1886SOL     OW17290   2.667   2.193   5.800  0.0649 -0.6928  0.2288
 1886SOL    HW117291   2.661   2.289   5.802 -2.0289 -0.8242  0.3673
 1886SOL    HW217292   2.578   2.167   5.778 -0.5941  0.9716  0.9314
 1887SOL     OW17293   4.000   4.580   4.941  0.1378 -0.3618 -0.1785
 1887SOL    HW117294   3.959   4.649   4.889  2.7596  0.2477 -1.4356
 1887SOL    HW217295   4.044   4.543   4.864 -0.5783  0.6009 -1.0384
 1888SOL     OW17296   3.116   0.378   3.947 -0.0241  0.3408 -0.6703
 1888SOL    HW117297   3.185   0.315   3.925 -0.4851 -0.0766 -0.9180
 1888SOL    HW217298   3.146   0.464   3.918 -1.2700  0.4989 -1.5059
 1889SOL     OW17299   1.477   3.559   8.007  0.3297  0.0501 -0.3961
 1889SOL    HW117300   1.386   3.534   7.994  0.7327 -1.8705  0.5473
 1889SOL    HW217301   1.476   3.655   8.017 -0.1349  0.0535 -0.4703
 1890SOL     OW17302   2.386   1.943  17.137  0.1727 -0.2577 -0.3307
 1890SOL    HW117303   2.348   1.872  17.188 -1.8879  0.3056 -1.0932
 1890SOL    HW217304   2.436   1.880  17.085  1.2800 -0.0765  0.5116
 1891SOL     OW17305   1.704   2.869   6.483 -0.5934 -0.1867  0.0519
 1891SOL    HW117306   1.638   2.927   6.519  0.0810  0.0130  0.9620
 1891SOL    HW217307   1.784   2.920   6.495 -1.2716  0.9906 -0.4390
 1892SOL     OW17308   3.439   2.529   5.320  0.0513 -0.1254 -0.6686
 1892SOL    HW117309   3.532   2.553   5.318  0.1465 -0.5003 -0.6212
 1892SOL    HW217310   3.445   2.462   5.388 -0.9289  1.0792  0.6212
 1893SOL     OW17311   2.346   3.388   8.996 -0.0324  0.3616  0.0646
 1893SOL    HW117312   2.327   3.356   9.084 -1.5516  3.7783  0.9769
 1893SOL    HW217313   2.432   3.428   9.008 -1.4325  3.1509  0.6711
 1894SOL     OW17314   1.096   0.990  15.296 -0.0274 -0.4885 -0.0519
 1894SOL    HW117315   1.086   0.911  15.349 -1.9278  0.4370  0.9981
 1894SOL    HW217316   1.009   1.029  15.307 -0.0504 -1.3609  2.9036
 1895SOL     OW17317   2.432   2.085   8.393 -0.0817  0.0692 -0.3521
 1895SOL    HW117318   2.399   2.003   8.428 -0.0049  0.8203  1.4715
 1895SOL    HW217319   2.361   2.134   8.351  1.4179  0.0556 -2.9020
 1896SOL     OW17320   2.993   0.531  12.606 -0.0783 -0.1293 -0.0069
 1896SOL    HW117321   2.980   0.441  12.636 -0.5935 -0.2604 -0.6165
 1896SOL    HW217322   3.084   0.548  12.584 -0.0526 -0.9149 -0.5098
 1897SOL     OW17323   3.419   2.715  10.083  0.1058  0.8371  0.2829
 1897SOL    HW117324   3.494   2.754  10.128  0.0362 -0.1305  1.2407
 1897SOL    HW217325   3.437   2.628  10.117 -2.6070  0.5405  1.0204
 1898SOL     OW17326   3.138   3.726   7.662 -0.4909  0.0108  0.2924
 1898SOL    HW117327   3.091   3.675   7.728  0.1729 -0.0929  0.6856
 1898SOL    HW217328   3.164   3.656   7.602  0.9277 -0.7282  1.7430
 1899SOL     OW17329   2.675   2.001  17.353  0.2625  0.3242  0.2656
 1899SOL    HW117330   2.681   2.065  17.282  0.2009  2.0957  1.8269
 1899SOL    HW217331   2.710   1.925  17.307  2.2221  2.4807 -1.8152
 1900SOL     OW17332   3.944   3.032   5.788 -1.0580 -0.2333 -0.5909
 1900SOL    HW117333   3.874   2.974   5.759 -1.4013 -0.9576  1.6656
 1900SOL    HW217334   4.012   3.013   5.724 -1.9576 -2.0024 -1.0187
 1901SOL     OW17335   4.033   0.243   8.419 -0.0947 -0.6775 -0.1407
 1901SOL    HW117336   4.010   0.212   8.506  0.0496  1.5701  0.6874
 1901SOL    HW217337   3.992   0.174   8.366 -1.2705  1.5754 -2.1802
 1902SOL     OW17338   0.238   0.221   1.997  0.5288 -0.1023 -0.1583
 1902SOL    HW117339   0.293   0.236   2.074 -0.7703 -1.0015  0.9468
 1902SOL    HW217340   0.302   0.185   1.935 -1.1848  0.4453 -2.2110
 1903SOL     OW17341   3.029   3.310  12.841 -0.3716 -0.1368 -0.4545
 1903SOL    HW117342   2.997   3.354  12.920 -0.1992  1.9453 -1.5469
 1903SOL    HW217343   3.052   3.393  12.798  0.7660 -0.1156  0.1992
 1904SOL     OW17344   0.542   3.104   8.727  0.7146  0.2046  0.4139
 1904SOL    HW117345   0.498   3.020   8.713  2.8730 -1.1725  1.9103
 1904SOL    HW217346   0.593   3.110   8.647  0.4962  1.3529  0.3636
 1905SOL     OW17347   0.761   0.090   5.367 -0.4102  0.5276 -0.3137
 1905SOL    HW117348   0.807   0.029   5.425 -1.1872  1.8182  1.6796
 1905SOL    HW217349   0.671   0.060   5.359 -1.0261  1.7324  1.9341
 1906SOL     OW17350   0.458   1.408   6.226  0.0978  0.5389  0.2166
 1906SOL    HW117351   0.466   1.458   6.145  1.1414 -2.5489 -1.5590
 1906SOL    HW217352   0.375   1.361   6.214 -0.3439  1.1402  0.9146
 1907SOL     OW17353   2.499   3.996   9.493 -0.3028  0.4233  0.7918
 1907SOL    HW117354   2.568   3.965   9.434 -0.5648  1.1300  0.1042
 1907SOL    HW217355   2.544   4.005   9.577  0.4948 -1.3754  0.5472
 1908SOL     OW17356   3.277   3.896   5.907 -0.0052 -0.0013 -0.0694
 1908SOL    HW117357   3.303   3.808   5.934  1.1569  0.2796 -0.2800
 1908SOL    HW217358   3.182   3.884   5.908 -0.2781  2.3184 -0.0223
 1909SOL     OW17359   1.263   0.302   9.945 -0.0550 -0.5382 -0.4409
 1909SOL    HW117360   1.222   0.366   9.887 -1.1471  0.3325  1.2912
 1909SOL    HW217361   1.186   0.287  10.001  0.7301  2.8279  1.5011
 1910SOL     OW17362   0.035   1.365   5.728 -0.3167  0.2009 -0.4879
 1910SOL    HW117363   0.039   1.460   5.742 -2.3500  0.2916 -0.4359
 1910SOL    HW217364   0.080   1.358   5.644 -1.2441 -0.1607 -0.9543
 1911SOL     OW17365   1.202   4.117  10.574  0.1800  0.1120  0.3868
 1911SOL    HW117366   1.119   4.073  10.556  1.3743 -2.9709  2.4195
 1911SOL    HW217367   1.259   4.041  10.588  1.7150  1.6902  2.6405
 1912SOL     OW17368   0.981   0.533   0.523 -0.5029  0.5168  0.1802
 1912SOL    HW117369   0.944   0.445   0.525  1.1997 -0.1923  0.5219
 1912SOL    HW217370   0.906   0.592   0.529  0.9696  2.0730  2.9035
 1913SOL     OW17371   1.534   3.932   4.849 -0.3529 -0.5794 -0.1742
 1913SOL    HW117372   1.503   4.002   4.792 -0.3240 -0.7481 -0.3999
 1913SOL    HW217373   1.530   3.967   4.938 -1.3415 -0.2854 -0.3332
 1914SOL     OW17374   1.056   1.586   3.501 -0.1764 -0.0686 -0.1203
 1914SOL    HW117375   0.961   1.592   3.509 -0.2215 -1.2597  0.1972
 1914SOL    HW217376   1.079   1.674   3.470  2.3122 -0.4814  0.5531
 1915SOL     OW17377   2.455   0.233   7.521 -0.1519 -0.1394 -0.5719
 1915SOL    HW117378   2.480   0.239   7.613  1.4131  2.2620 -1.1298
 1915SOL    HW217379   2.502   0.154   7.496  0.0714  0.1350 -1.0199
 1916SOL     OW17380   3.862   3.897   3.020 -0.1120  0.1991 -0.2587
 1916SOL    HW117381   3.833   3.915   3.109 -0.4568 -0.4913 -0.2295
 1916SOL    HW217382   3.779   3.906   2.972 -0.2054  1.5679  0.1657
 1917SOL     OW17383   1.011   4.340  11.693 -0.5866  0.7053 -0.9192
 1917SOL    HW117384   1.031   4.303  11.607  0.6937  3.4970 -1.8162
 1917SOL    HW217385   0.960   4.416  11.666 -2.1940 -0.1668 -0.3515
 1918SOL     OW17386   2.629   4.375   7.427 -0.0240  0.4212 -0.4612
 1918SOL    HW117387   2.684   4.392   7.350 -1.8453  0.5412 -1.7489
 1918SOL    HW217388   2.649   4.452   7.481 -1.5438 -0.4447  1.3064
 1919SOL     OW17389   2.167   2.888   3.613 -0.0851 -0.1670 -1.0499
 1919SOL    HW117390   2.185   2.966   3.560  2.3019 -1.6358 -2.3609
 1919SOL    HW217391   2.159   2.922   3.702  1.7218  0.5131 -1.1358
 1920SOL     OW17392   0.501   3.715   5.426  0.8360  0.1015 -0.2061
 1920SOL    HW117393   0.472   3.697   5.515  1.3640  1.8369  0.3082
 1920SOL    HW217394   0.501   3.810   5.422 -2.1120  0.0357 -1.6729
 1921SOL     OW17395   4.273   3.428   4.409 -0.7354  0.4724  0.1674
 1921SOL    HW117396   4.316   3.380   4.338 -2.2117  1.0408 -1.1028
 1921SOL    HW217397   4.257   3.359   4.474 -2.2709 -0.3775 -1.1275
 1922SOL     OW17398   3.408   3.902   8.311  0.0441 -0.1046 -0.4648
 1922SOL    HW117399   3.416   3.908   8.216  0.7290 -0.7533 -0.4425
 1922SOL    HW217400   3.320   3.865   8.319 -0.2962  1.4614  3.4070
 1923SOL     OW17401   3.620   1.448  11.325 -0.1228 -0.2330 -0.2089
 1923SOL    HW117402   3.684   1.481  11.388  0.0159  1.4897 -1.2220
 1923SOL    HW217403   3.561   1.523  11.318 -0.9315 -0.6094  2.6293
 1924SOL     OW17404   0.597   4.172   4.804  0.0805  0.2475  0.1042
 1924SOL    HW117405   0.514   4.199   4.764 -1.1018 -1.4344  1.4356
 1924SOL    HW217406   0.557   4.114   4.869  0.1921  0.3441  0.2581
 1925SOL     OW17407   2.837   4.403  17.606  0.2473 -0.3147 -0.3495
 1925SOL    HW117408   2.767   4.383  17.544 -1.6255 -0.8938  1.9507
 1925SOL    HW217409   2.785   4.449  17.672  0.0007  1.6292 -1.8857
 1926SOL     OW17410   2.265   2.842   1.736  0.9083  0.1558  0.5316
 1926SOL    HW117411   2.330   2.772   1.749  0.2529 -0.4921  0.3045
 1926SOL    HW217412   2.200   2.807   1.675 -0.9038 -0.1020  2.5982
 1927SOL     OW17413   0.752   2.559   9.182 -0.0468 -0.0454 -0.9390
 1927SOL    HW117414   0.848   2.554   9.187 -0.2321  0.7245  3.2942
 1927SOL    HW217415   0.735   2.616   9.108 -0.5955 -0.7271 -1.3319
 1928SOL     OW17416   2.906   2.181   5.081 -0.3578 -0.3526  0.0571
 1928SOL    HW117417   2.826   2.234   5.078 -0.5306 -0.4581  2.8113
 1928SOL    HW217418   2.977   2.242   5.098 -0.1681 -1.2070  2.3351
 1929SOL     OW17419   2.071   3.814  11.171  0.9664  0.3731  0.0860
 1929SOL    HW117420   2.095   3.805  11.263  0.8890  1.3459  0.1994
 1929SOL    HW217421   2.156   3.817  11.128  1.8167  0.0919  1.7604
 1930SOL     OW17422   3.648   4.457   6.003  0.2015 -0.1926  0.0791
 1930SOL    HW117423   3.662   4.386   6.065 -0.6003 -0.2360  0.2091
 1930SOL    HW217424   3.724   4.515   6.017 -0.3147  1.1871 -2.9277
 1931SOL     OW17425   2.308   4.519  14.986  0.1895  0.2734 -0.4143
 1931SOL    HW117426   2.360   4.443  15.012 -1.6632 -0.8308  0.0582
 1931SOL    HW217427   2.364   4.592  15.012  1.4544 -0.1480 -1.9254
 1932SOL     OW17428   2.381   2.434  13.355  0.2754  0.2441  0.1755
 1932SOL    HW117429   2.386   2.339  13.365  1.2102  0.4825  1.7793
 1932SOL    HW217430   2.352   2.455  13.443 -0.8036  2.4421 -0.6925
 1933SOL     OW17431   1.609   1.532   1.638 -0.1075  0.1837 -0.0291
 1933SOL    HW117432   1.644   1.620   1.624 -1.2815  0.6954  0.2301
 1933SOL    HW217433   1.526   1.540   1.685 -0.3555 -0.2558 -0.3866
 1934SOL     OW17434   3.380   2.094   0.562  0.0943 -0.1056 -0.4981
 1934SOL    HW117435   3.426   2.171   0.528 -0.6262 -0.3658 -2.0126
 1934SOL    HW217436   3.450   2.029   0.568  0.6608  0.4091 -1.6484
 1935SOL     OW17437   0.472   4.472   6.753 -0.4114  0.3718 -0.3347
 1935SOL    HW117438   0.463   4.462   6.848  1.4499 -0.7438 -0.2819
 1935SOL    HW217439   0.470   4.379   6.731  4.3312  0.2392 -0.1272
 1936SOL     OW17440   4.317   3.674   7.594  0.3101  0.1674  0.1488
 1936SOL    HW117441   4.393   3.634   7.634  0.0037  0.8423  1.3992
 1936SOL    HW217442   4.318   3.759   7.638  1.1531 -0.6328  1.6647
 1937SOL     OW17443   1.592   1.488   4.599 -0.1633  0.7048  0.2812
 1937SOL    HW117444   1.501   1.474   4.624  0.6220 -1.7373  1.8230
 1937SOL    HW217445   1.599   1.412   4.541  0.2561  1.1289 -0.2226
 1938SOL     OW17446   4.508   1.888   1.904  0.3396  0.0230 -0.5053
 1938SOL    HW117447   4.416   1.882   1.930  0.5182 -2.3796 -0.3804
 1938SOL    HW217448   4.500   1.970   1.857 -0.7804  0.1129 -0.1689
 1939SOL     OW17449   0.808   3.279   9.162  0.1043 -0.7783 -0.4690
 1939SOL    HW117450   0.802   3.207   9.224 -1.4842  0.1387  0.4519
 1939SOL    HW217451   0.775   3.242   9.080 -1.1905  0.3542 -0.4669
 1940SOL     OW17452   4.141   0.988   4.658 -0.6422  0.0678 -0.0797
 1940SOL    HW117453   4.079   1.057   4.679  2.4740  2.5040  1.0348
 1940SOL    HW217454   4.105   0.922   4.718 -0.2513 -0.4666 -0.4352
 1941SOL     OW17455   1.595   1.544  17.044 -0.2674  0.3637  0.6066
 1941SOL    HW117456   1.634   1.516  17.128 -0.9301  1.4302  1.2656
 1941SOL    HW217457   1.663   1.510  16.986 -3.7382 -1.4130 -2.3345
 1942SOL     OW17458   0.764   3.171   2.552  0.1664  0.0737  0.4350
 1942SOL    HW117459   0.725   3.170   2.465 -0.6506 -0.4767  0.8156
 1942SOL    HW217460   0.822   3.096   2.537 -1.4302 -0.9781 -0.4474
 1943SOL     OW17461   0.466   1.091   6.401  0.2225 -0.4611 -0.1450
 1943SOL    HW117462   0.519   1.168   6.383 -2.2558  0.9304 -1.4769
 1943SOL    HW217463   0.382   1.123   6.436 -0.7892 -2.0020 -1.1948
 1944SOL     OW17464   3.620   4.064   9.165  0.0725 -0.0957 -0.2856
 1944SOL    HW117465   3.683   4.133   9.184 -0.3067  0.5454 -1.3589
 1944SOL    HW217466   3.639   4.004   9.237  1.1570  0.6759  0.0693
 1945SOL     OW17467   3.271   1.646   1.483  0.3737 -0.1464  0.2071
 1945SOL    HW117468   3.273   1.595   1.402  0.2198  2.1077 -1.1865
 1945SOL    HW217469   3.352   1.610   1.519 -1.2735 -0.4001  3.6982
 1946SOL     OW17470   1.157   0.579   9.156 -0.0898 -0.1423 -0.2451
 1946SOL    HW117471   1.216   0.506   9.173  0.5006 -0.1259 -2.2491
 1946SOL    HW217472   1.203   0.660   9.178  1.6719 -1.5398  1.1769
 1947SOL     OW17473   3.103   1.291   4.758  0.5351  0.0698 -0.4653
 1947SOL    HW117474   3.009   1.284   4.775  0.1912  0.0177 -2.3888
 1947SOL    HW217475   3.137   1.212   4.800 -1.8218 -0.7473 -0.0790
 1948SOL     OW17476   4.693   0.923   8.403 -0.0152 -0.0044  0.7131
 1948SOL    HW117477   4.733   1.007   8.381 -0.9384  0.8603  2.3691
 1948SOL    HW217478   0.003   0.865   8.344  1.3034  1.6011  0.1805
 1949SOL     OW17479   0.595   2.537   4.910  0.2009 -0.3027 -0.9408
 1949SOL    HW117480   0.613   2.629   4.932  1.4224 -1.2665  1.9344
 1949SOL    HW217481   0.653   2.498   4.974 -1.5132  0.9658  1.3694
 1950SOL     OW17482   2.217   2.197  12.237  0.6164 -0.0395 -0.0790
 1950SOL    HW117483   2.155   2.154  12.178  2.6108  0.2960 -2.4478
 1950SOL    HW217484   2.177   2.283  12.244  0.1638 -0.2359 -0.2431
 1951SOL     OW17485   2.101   2.738   2.915  0.0365  0.2929  0.6602
 1951SOL    HW117486   2.133   2.733   2.825 -2.7436 -3.7647 -0.1026
 1951SOL    HW217487   2.047   2.659   2.920  0.5494  0.0399  2.2421
 1952SOL     OW17488   3.546   4.370   2.048 -0.0142 -0.1369  0.5745
 1952SOL    HW117489   3.542   4.282   2.012  2.0031 -0.5500  1.3855
 1952SOL    HW217490   3.524   4.346   2.138 -0.7950 -0.9431  0.1674
 1953SOL     OW17491   4.698   0.966   7.577 -0.2731 -0.2972 -0.4401
 1953SOL    HW117492   0.017   0.987   7.503  1.0745 -2.2809  0.0409
 1953SOL    HW217493   0.005   0.886   7.604  2.4769  1.0062 -1.0645
 1954SOL     OW17494   3.282   4.508   3.741 -0.1732 -0.4239 -0.2373
 1954SOL    HW117495   3.209   4.490   3.682  1.2575  0.6080 -2.3173
 1954SOL    HW217496   3.241   4.567   3.804  0.3491 -0.6337  0.2994
 1955SOL     OW17497   0.100   1.923  16.890  0.4476  0.1108  0.0889
 1955SOL    HW117498   0.134   1.846  16.844  1.3382  0.9260 -0.6034
 1955SOL    HW217499   0.079   1.978  16.814 -2.5541 -0.0755  0.7743
 1956SOL     OW17500   4.510   0.115  11.469 -0.2306  0.5542 -0.4550
 1956SOL    HW117501   4.583   0.149  11.521  0.6494  0.9411 -1.9468
 1956SOL    HW217502   4.471   0.064  11.540  0.4594 -0.1331 -0.5743
 1957SOL     OW17503   0.043   0.878   1.764 -0.1381 -0.8517 -0.8537
 1957SOL    HW117504   4.732   0.801   1.792  1.6706 -0.6473  2.9200
 1957SOL    HW217505   0.091   0.895   1.845 -2.0132 -1.6470  0.4090
 1958SOL     OW17506   0.997   2.299  15.496  0.2385  0.0466 -0.3454
 1958SOL    HW117507   1.020   2.256  15.578 -0.6025 -1.5754 -0.9643
 1958SOL    HW217508   0.966   2.384  15.527  0.8648  0.0978  0.1407
 1959SOL     OW17509   0.523   3.090   6.071 -0.2447  0.0032 -0.5291
 1959SOL    HW117510   0.569   3.018   6.027 -1.1375  0.4295 -2.1559
 1959SOL    HW217511   0.478   3.032   6.133 -0.6036  0.7186 -0.1282
 1960SOL     OW17512   1.228   3.047   6.787 -0.1666 -0.0452  0.3225
 1960SOL    HW117513   1.236   2.972   6.728 -1.3185  0.0814 -0.0053
 1960SOL    HW217514   1.153   3.103   6.766  1.4983  1.5644 -1.3902
 1961SOL     OW17515   2.532   0.088  13.130 -0.8313  0.2233 -0.3776
 1961SOL    HW117516   2.579   0.070  13.048 -0.5336  0.0170 -0.1579
 1961SOL    HW217517   2.500   0.001  13.150  2.8602 -0.3573  2.8770
 1962SOL     OW17518   1.891   3.404   7.944 -0.0761  0.9611 -0.1542
 1962SOL    HW117519   1.941   3.334   7.903  2.0528  1.3493  1.7469
 1962SOL    HW217520   1.800   3.373   7.950  0.6777 -0.9227  1.8402
 1963SOL     OW17521   4.736   0.008   7.044  0.3407  0.8057  0.4263
 1963SOL    HW117522   4.686   4.665   7.058  1.2047 -0.0287 -1.3005
 1963SOL    HW217523   0.059   4.725   6.973  0.6511  1.2047  0.5761
 1964SOL     OW17524   4.044   2.995   1.553 -0.0345  0.0720  0.1355
 1964SOL    HW117525   4.111   3.025   1.491  0.3101  1.8893  1.3970
 1964SOL    HW217526   3.960   3.002   1.507  2.1788  1.3005 -3.7142
 1965SOL     OW17527   1.244   4.325   5.265 -0.3822 -0.2575 -0.4846
 1965SOL    HW117528   1.264   4.393   5.200  3.0561 -2.5086 -1.8457
 1965SOL    HW217529   1.167   4.274   5.241 -0.9762 -0.8190  2.6552
 1966SOL     OW17530   4.032   4.374   1.749 -0.1971 -0.0888  0.1688
 1966SOL    HW117531   4.029   4.444   1.684  1.1910  0.6796  0.9276
 1966SOL    HW217532   3.955   4.318   1.741 -0.6196  0.4811  0.1743
 1967SOL     OW17533   0.779   0.379   2.062 -0.3183 -0.0353  0.1886
 1967SOL    HW117534   0.798   0.314   2.130  0.4701 -1.0892 -1.0362
 1967SOL    HW217535   0.694   0.419   2.077  0.0653  0.1187  2.0537
 1968SOL     OW17536   3.241   4.100   0.610 -0.1941  0.0423  0.5113
 1968SOL    HW117537   3.329   4.137   0.617 -1.1857  2.5101 -0.1777
 1968SOL    HW217538   3.267   4.008   0.598 -1.0211  0.2308 -2.7649
 1969SOL     OW17539   1.356   2.229  14.376  0.8702  0.6436  0.2429
 1969SOL    HW117540   1.284   2.278  14.337  0.1489 -0.8165 -0.2734
 1969SOL    HW217541   1.419   2.234  14.305  1.2774 -2.5628  0.3471
 1970SOL     OW17542   0.203   1.920   6.365  0.4279  0.3142 -0.2348
 1970SOL    HW117543   0.211   1.853   6.297 -0.2656  1.8524 -1.8306
 1970SOL    HW217544   0.267   1.989   6.345 -0.2821  1.0620  0.0533
 1971SOL     OW17545   3.880   1.864   8.342  0.0210  0.1816  0.3606
 1971SOL    HW117546   3.961   1.914   8.332  0.9679 -0.8870  2.7008
 1971SOL    HW217547   3.893   1.786   8.288  1.0150 -0.1281  1.0657
 1972SOL     OW17548   0.137   2.500   1.788 -0.8539  0.6477 -0.4311
 1972SOL    HW117549   0.179   2.463   1.865  1.4221  2.1808 -0.9319
 1972SOL    HW217550   0.156   2.594   1.788  1.0336  0.2496  0.2754
 1973SOL     OW17551   1.823   4.500   6.314  0.0962  0.3530 -0.4763
 1973SOL    HW117552   1.794   4.489   6.404  2.1943 -1.5884 -0.0476
 1973SOL    HW217553   1.882   4.428   6.295  0.1040  0.2824 -0.1823
 1974SOL     OW17554   1.706   3.923  10.992  0.7514 -0.2382  0.1109
 1974SOL    HW117555   1.735   3.874  10.915  0.6630  0.8442 -0.6080
 1974SOL    HW217556   1.624   3.879  11.013 -0.0792  0.1692 -2.3465
 1975SOL     OW17557   0.582   4.410   9.294  0.3267 -0.6189 -0.2819
 1975SOL    HW117558   0.560   4.342   9.230 -1.6848  1.5472 -1.9156
 1975SOL    HW217559   0.622   4.363   9.368  2.2451  0.2493 -0.7710
 1976SOL     OW17560   4.367   3.595   3.889  0.3974 -0.3101 -0.3636
 1976SOL    HW117561   4.279   3.566   3.913  0.4867 -0.5812 -0.3529
 1976SOL    HW217562   4.420   3.530   3.936 -2.8666 -1.6918  1.4261
 1977SOL     OW17563   1.550   3.889   9.052 -0.4930 -0.0685  0.5981
 1977SOL    HW117564   1.573   3.876   9.144  1.6156  1.9364  0.3802
 1977SOL    HW217565   1.462   3.923   9.070  0.5186  2.7633  0.3268
 1978SOL     OW17566   1.765   2.479   9.461 -0.3786  0.0825  0.0444
 1978SOL    HW117567   1.810   2.484   9.377  0.9267  1.5588  0.8318
 1978SOL    HW217568   1.825   2.519   9.524  0.4958 -0.2006 -0.5958
 1979SOL     OW17569   3.536   4.687   2.244 -0.3791 -0.3484  1.1426
 1979SOL    HW117570   3.519   0.025   2.300  0.8750  1.7403 -1.2747
 1979SOL    HW217571   3.465   4.628   2.270 -0.8300  0.7052  2.3028
 1980SOL     OW17572   1.233   2.852   6.589 -0.4892  0.5257  0.8292
 1980SOL    HW117573   1.164   2.788   6.578  0.1212  0.2072 -1.1586
 1980SOL    HW217574   1.308   2.795   6.574 -1.1753 -0.7754  2.4256
 1981SOL     OW17575   2.615   0.008   7.748  0.5479  0.3185  0.0933
 1981SOL    HW117576   2.630   4.728   7.841  1.8426 -0.7116 -0.3254
 1981SOL    HW217577   2.609   0.103   7.740 -0.3952  0.3392  0.9440
 1982SOL     OW17578   2.951   1.097   7.843  0.2698 -0.8461 -0.5080
 1982SOL    HW117579   2.901   1.132   7.769 -0.6186 -2.2355 -0.5598
 1982SOL    HW217580   2.904   1.015   7.856  0.2667 -0.7975 -0.2163
 1983SOL     OW17581   2.297   0.045   5.136  0.4272  0.3677  0.3634
 1983SOL    HW117582   2.289   0.030   5.230 -0.9617 -0.4291  0.1145
 1983SOL    HW217583   2.368   4.722   5.111  1.5030  1.3484  1.0278
 1984SOL     OW17584   0.912   1.748   5.719  0.3347 -0.2051  0.0002
 1984SOL    HW117585   0.820   1.760   5.695  0.2969  0.6435  0.5624
 1984SOL    HW217586   0.907   1.717   5.810 -3.4030 -0.2679 -0.1923
 1985SOL     OW17587   2.189   1.167   4.667  0.4723  0.1107 -0.1992
 1985SOL    HW117588   2.283   1.184   4.661  0.5270  0.1369  0.8607
 1985SOL    HW217589   2.146   1.236   4.617  2.6372 -0.1507 -2.4797
 1986SOL     OW17590   2.836   2.458   6.296 -0.4279  0.1652  0.3506
 1986SOL    HW117591   2.886   2.539   6.287  1.2336 -0.9824 -0.8011
 1986SOL    HW217592   2.866   2.422   6.212  2.2774  0.1268  1.3043
 1987SOL     OW17593   4.496   0.459   1.925 -0.0682  0.2721  0.2792
 1987SOL    HW117594   4.413   0.458   1.974  0.7429  0.3159  1.6483
 1987SOL    HW217595   4.548   0.394   1.973  0.1889  0.6664  0.5300
 1988SOL     OW17596   0.632   2.617   9.819 -0.1141  0.4228  0.1897
 1988SOL    HW117597   0.582   2.563   9.759 -1.4470  0.7377  1.0149
 1988SOL    HW217598   0.618   2.707   9.790  1.7679 -0.2430 -2.7559
 1989SOL     OW17599   2.231   4.519   3.545  0.5521 -0.4001 -0.5776
 1989SOL    HW117600   2.311   4.467   3.540  1.3454  0.7761 -0.0794
 1989SOL    HW217601   2.219   4.556   3.458  1.1674  0.4952 -0.2831
 1990SOL     OW17602   0.416   0.863   1.422  0.0185 -0.1944 -0.0215
 1990SOL    HW117603   0.390   0.883   1.332 -3.1936  0.3357  1.0165
 1990SOL    HW217604   0.338   0.824   1.462  0.4672 -2.3441 -1.2390
 1991SOL     OW17605   0.509   1.168   1.161  0.0197  0.6275 -0.4884
 1991SOL    HW117606   0.590   1.194   1.205  1.0252  0.4298 -2.2474
 1991SOL    HW217607   0.514   1.229   1.088  3.9026 -0.0175 -0.7479
 1992SOL     OW17608   2.333   1.360   9.626  0.0237  0.1585  0.0617
 1992SOL    HW117609   2.386   1.437   9.645 -1.8851  1.4362  0.2129
 1992SOL    HW217610   2.306   1.380   9.536  0.0758 -0.2144 -0.0354
 1993SOL     OW17611   0.210   0.379   2.455 -0.3415 -0.8497 -0.0261
 1993SOL    HW117612   0.254   0.416   2.378 -0.6204 -0.7825 -0.1506
 1993SOL    HW217613   0.187   0.292   2.422  0.2588 -0.0401 -2.5858
 1994SOL     OW17614   2.822   0.803   2.178 -0.3917  0.1123  0.2011
 1994SOL    HW117615   2.840   0.889   2.217 -2.0190  0.7813 -0.5344
 1994SOL    HW217616   2.885   0.801   2.106 -0.9042  0.2321 -0.2428
 1995SOL     OW17617   4.182   3.660   9.170 -0.2715  0.1431  0.5319
 1995SOL    HW117618   4.259   3.666   9.227  0.0705  0.2225  0.0664
 1995SOL    HW217619   4.115   3.629   9.230 -1.2725 -0.7109 -1.0166
 1996SOL     OW17620   3.932   3.406   6.547  0.3778  0.0481 -0.0320
 1996SOL    HW117621   3.922   3.388   6.454  0.7993  0.4397 -0.1562
 1996SOL    HW217622   3.923   3.322   6.592 -1.9505  1.3107  1.9243
 1997SOL     OW17623   2.015   3.217   5.022  0.3817 -0.1481 -0.3984
 1997SOL    HW117624   1.987   3.185   4.936 -1.7927  0.4144  0.1118
 1997SOL    HW217625   2.109   3.206   5.004  0.2668 -1.4274 -0.2429
 1998SOL     OW17626   0.360   4.461   6.263  0.5739 -0.3135 -0.1440
 1998SOL    HW117627   0.356   4.555   6.245 -1.2803 -0.2770  0.4157
 1998SOL    HW217628   0.454   4.442   6.266  0.2974 -1.5159  0.7516
 1999SOL     OW17629   0.984   1.843   3.182 -0.0142 -0.5370 -0.4096
 1999SOL    HW117630   1.076   1.851   3.159  0.1076  1.6178  0.8033
 1999SOL    HW217631   0.956   1.759   3.145  0.4613 -0.6701 -0.4639
 2000SOL     OW17632   0.312   4.463  16.574 -0.0333 -0.0292 -0.0547
 2000SOL    HW117633   0.405   4.470  16.592  0.2235 -1.1285 -0.9595
 2000SOL    HW217634   0.285   4.389  16.629 -0.4050  0.8090  0.8937
 2001SOL     OW17635   0.051   2.999  16.364  0.5880 -0.0561  0.4665
 2001SOL    HW117636   0.094   2.955  16.437  0.0181 -0.3618  0.6234
 2001SOL    HW217637   0.027   3.081  16.406  0.5381 -0.7470  1.7926
 2002SOL     OW17638   4.198   1.894   4.952 -0.5558 -0.0353 -0.0345
 2002SOL    HW117639   4.169   1.823   4.895 -0.7497  0.0699 -0.0696
 2002SOL    HW217640   4.123   1.954   4.943 -0.9123 -0.3756  0.6432
 2003SOL     OW17641   3.653   2.751   5.462  0.4219 -0.0075  0.1970
 2003SOL    HW117642   3.717   2.820   5.476  0.3291 -0.0135  0.6765
 2003SOL    HW217643   3.585   2.806   5.425 -0.2317 -1.3409 -0.6021
 2004SOL     OW17644   1.247   1.333   2.307 -0.5994 -1.1206 -0.3222
 2004SOL    HW117645   1.289   1.372   2.384  0.0046  1.1471 -1.7904
 2004SOL    HW217646   1.169   1.387   2.309  0.7964  0.8753  0.4368
 2005SOL     OW17647   3.149   1.955   3.294  0.4857  0.1103 -0.2659
 2005SOL    HW117648   3.116   1.938   3.382  0.2949  1.2359 -0.1188
 2005SOL    HW217649   3.195   2.033   3.324 -0.0254  0.4333 -0.3238
 2006SOL     OW17650   2.474   0.869   2.617 -0.5408  0.1139  0.3645
 2006SOL    HW117651   2.382   0.879   2.638 -0.1271  0.2011  2.1539
 2006SOL    HW217652   2.480   0.871   2.521  1.6567  0.4614  0.4949
 2007SOL     OW17653   0.983   3.369   6.388  0.6663 -0.5271  0.2008
 2007SOL    HW117654   1.008   3.454   6.353 -1.1136  0.7390  1.9926
 2007SOL    HW217655   1.066   3.330   6.416 -0.6986 -2.4390  1.5872
 2008SOL     OW17656   4.440   3.285   1.517  0.0955 -0.4577  0.3842
 2008SOL    HW117657   4.459   3.285   1.423  1.6099 -1.9350  0.6914
 2008SOL    HW217658   4.401   3.198   1.509 -0.1169 -0.1359 -2.3000
 2009SOL     OW17659   4.536   4.086   4.963 -0.2683  0.6168  0.2862
 2009SOL    HW117660   4.584   4.009   4.932 -0.2658 -0.0258  1.8741
 2009SOL    HW217661   4.587   4.162   4.935  0.9866 -0.2387  0.2408
 2010SOL     OW17662   1.054   2.817   8.950 -0.3226  0.3005 -0.0812
 2010SOL    HW117663   1.033   2.759   9.024  2.8320 -0.6806  0.0897
 2010SOL    HW217664   1.125   2.870   8.987 -0.4244  2.2639 -2.6895
 2011SOL     OW17665   2.910   0.865   0.788  0.0779  0.1796  0.2692
 2011SOL    HW117666   2.837   0.917   0.754 -0.3025 -0.8563 -0.5028
 2011SOL    HW217667   2.864   0.820   0.859  0.1889  1.4634  1.1717
 2012SOL     OW17668   3.801   2.602   3.491 -0.4532 -0.2936 -0.0124
 2012SOL    HW117669   3.860   2.669   3.524 -0.0376 -0.2624 -0.8179
 2012SOL    HW217670   3.721   2.646   3.520  1.2119  1.0621  2.4887
 2013SOL     OW17671   0.861   4.469  14.922  0.0603 -0.4128  0.3954
 2013SOL    HW117672   0.827   4.489  15.009  1.0941  0.2365  0.6525
 2013SOL    HW217673   0.939   4.525  14.926  0.7805 -1.4470  0.8210
 2014SOL     OW17674   2.808   0.177   0.278 -0.0202 -0.0149  0.0226
 2014SOL    HW117675   2.833   0.270   0.275 -0.0358 -0.0600 -1.3636
 2014SOL    HW217676   2.758   0.175   0.360 -0.7058  2.2354 -0.3276
 2015SOL     OW17677   0.808   3.071   3.126  0.2368  0.1718 -0.9109
 2015SOL    HW117678   0.744   3.122   3.174 -2.2653 -1.8101 -2.1307
 2015SOL    HW217679   0.848   3.142   3.076  1.4494 -0.4718 -0.8674
 2016SOL     OW17680   2.147   2.605  14.911  0.3429  0.5547 -0.1918
 2016SOL    HW117681   2.211   2.534  14.901  0.6572  0.9042 -0.6543
 2016SOL    HW217682   2.065   2.556  14.921  1.7561 -2.0994 -1.6477
 2017SOL     OW17683   0.491   2.541  12.536  0.3246  0.7054  0.0638
 2017SOL    HW117684   0.416   2.583  12.577  0.3337  0.2803  0.5077
 2017SOL    HW217685   0.469   2.450  12.557  0.3484  0.3667 -1.3667
 2018SOL     OW17686   0.794   0.874   3.900 -0.3755 -0.0603  0.8409
 2018SOL    HW117687   0.747   0.802   3.857  2.3929 -1.0912 -0.4151
 2018SOL    HW217688   0.742   0.873   3.981 -2.0358  0.6072 -0.2048
 2019SOL     OW17689   1.052   3.281   5.829  0.7389  0.5506  0.6035
 2019SOL    HW117690   1.126   3.278   5.767  1.0151  0.6694  0.9262
 2019SOL    HW217691   1.065   3.195   5.869  0.4206 -1.2196 -3.1060
 2020SOL     OW17692   2.476   2.629   9.187  0.0088 -0.3566  0.0775
 2020SOL    HW117693   2.526   2.708   9.169  0.3931 -0.3947  0.9748
 2020SOL    HW217694   2.468   2.595   9.097 -1.4611 -0.0088  0.0778
 2021SOL     OW17695   0.008   4.355   0.709 -0.3027 -0.1431 -0.0887
 2021SOL    HW117696   4.704   4.433   0.746 -1.3684 -0.4202 -0.6921
 2021SOL    HW217697   4.735   4.300   0.787 -1.1176  0.3505  0.1490
 2022SOL     OW17698   2.003   1.188  14.268 -0.0208 -0.6751  0.0869
 2022SOL    HW117699   2.012   1.174  14.362 -2.3054 -0.0980  0.3951
 2022SOL    HW217700   2.084   1.143  14.243 -0.6155 -1.7097  0.0420
 2023SOL     OW17701   0.596   4.332   8.125  0.0570 -0.1183  0.4997
 2023SOL    HW117702   0.640   4.404   8.080 -0.5085  0.3851  0.7482
 2023SOL    HW217703   0.504   4.342   8.102  0.2013  0.9027  0.3695
 2024SOL     OW17704   3.243   1.873  11.951 -0.1201  0.3603  0.3813
 2024SOL    HW117705   3.284   1.922  12.022 -0.2869  0.5203  0.3665
 2024SOL    HW217706   3.217   1.928  11.877 -1.2083 -0.0389  0.4653
 2025SOL     OW17707   3.760   4.217   8.857  0.1717 -0.5152 -0.3422
 2025SOL    HW117708   3.736   4.124   8.858  1.3398 -0.8276 -0.9524
 2025SOL    HW217709   3.762   4.229   8.762  0.1693 -0.0627 -0.2843
 2026SOL     OW17710   0.644   3.602   9.574  0.1901  0.0192 -0.1531
 2026SOL    HW117711   0.574   3.537   9.579 -0.0572  0.4004  1.3794
 2026SOL    HW217712   0.721   3.556   9.539  1.1044  0.9803  0.5673
 2027SOL     OW17713   2.236   3.731   2.237  0.3920  0.1746 -0.1621
 2027SOL    HW117714   2.156   3.680   2.223  1.2904 -0.5507 -2.6437
 2027SOL    HW217715   2.292   3.657   2.260  1.0347  0.6673 -0.1520
 2028SOL     OW17716   1.983   1.499   4.743 -0.0507  0.2813 -0.6397
 2028SOL    HW117717   1.900   1.517   4.787 -0.1951 -2.4854  0.2441
 2028SOL    HW217718   2.041   1.543   4.805  1.2082  0.9290 -2.2720
 2029SOL     OW17719   1.036   1.999  15.590  0.3152  0.1070  0.3597
 2029SOL    HW117720   0.986   2.031  15.515 -2.7242 -1.7370  1.6306
 2029SOL    HW217721   1.075   1.920  15.554 -0.4376 -0.5990  1.1154
 2030SOL     OW17722   2.160   0.051   8.892  0.0917  0.4394 -0.1108
 2030SOL    HW117723   2.218   0.081   8.961 -2.3850  1.6663  1.4215
 2030SOL    HW217724   2.170   4.694   8.906 -0.8173  0.3183 -0.2880
 2031SOL     OW17725   3.492   4.711   8.631  0.2818  0.0071  0.8626
 2031SOL    HW117726   3.492   0.017   8.546  1.7264  1.5848  1.6555
 2031SOL    HW217727   3.406   4.731   8.669  0.2228  1.5285 -0.1019
 2032SOL     OW17728   1.434   2.660   6.652  0.4653  0.8623  0.0887
 2032SOL    HW117729   1.475   2.701   6.728  0.2835 -1.4542  1.4517
 2032SOL    HW217730   1.345   2.649   6.683  1.0321  0.5354  1.6039
 2033SOL     OW17731   3.245   3.816  12.197 -0.6880  0.0884  0.3229
 2033SOL    HW117732   3.175   3.795  12.259 -0.4521 -1.1982  0.1490
 2033SOL    HW217733   3.319   3.795  12.254 -0.6800  2.7163  1.3202
 2034SOL     OW17734   3.398   3.310   8.545 -0.0115 -0.3711  0.3241
 2034SOL    HW117735   3.425   3.222   8.570 -0.4893 -0.6381 -0.0963
 2034SOL    HW217736   3.303   3.307   8.558 -0.1082  2.0111  0.2408
 2035SOL     OW17737   3.745   3.123   1.991 -0.3340  1.1983 -0.7217
 2035SOL    HW117738   3.657   3.086   1.989  0.9488 -1.9183 -0.3744
 2035SOL    HW217739   3.744   3.194   1.926 -1.2865  1.9047  0.0739
 2036SOL     OW17740   4.120   3.860   3.391  0.3024  0.1333 -0.0673
 2036SOL    HW117741   4.125   3.917   3.314  1.4899 -1.6881 -1.3202
 2036SOL    HW217742   4.082   3.922   3.454 -2.0035 -1.4805  0.1225
 2037SOL     OW17743   1.374   2.148   2.787 -0.0674 -0.3689 -0.7239
 2037SOL    HW117744   1.336   2.060   2.781 -0.1339 -0.3123 -1.1718
 2037SOL    HW217745   1.440   2.131   2.854  1.3549  1.1438 -1.7555
 2038SOL     OW17746   4.401   2.593  10.871  0.3938 -0.0144  0.1036
 2038SOL    HW117747   4.330   2.648  10.905  0.2018 -1.2240  1.6461
 2038SOL    HW217748   4.348   2.515  10.854 -0.3688  0.6871 -0.7292
 2039SOL     OW17749   3.442   3.245  17.155 -0.8398  0.6525  1.0533
 2039SOL    HW117750   3.454   3.337  17.130  0.6763 -0.3153 -1.7443
 2039SOL    HW217751   3.425   3.257  17.248 -1.1841  2.3143  0.7725
 2040SOL     OW17752   4.095   0.000  13.324 -0.4159 -0.1102  0.1263
 2040SOL    HW117753   4.041   0.078  13.336 -0.0095 -0.1347  2.1586
 2040SOL    HW217754   4.036   4.669  13.293  2.5728 -2.3862 -0.5096
 2041SOL     OW17755   3.187   0.569   7.084 -0.0792 -0.5292 -0.1943
 2041SOL    HW117756   3.170   0.573   7.178 -1.9129 -1.2675 -0.4990
 2041SOL    HW217757   3.109   0.522   7.054  1.5227 -1.7596 -2.3827
 2042SOL     OW17758   0.790   0.149   8.816  0.2133  0.8067  0.1794
 2042SOL    HW117759   0.695   0.140   8.810  0.3559  0.3503 -1.3234
 2042SOL    HW217760   0.795   0.141   8.911  2.6680  0.9283  0.0610
 2043SOL     OW17761   2.947   0.550  13.579 -0.0969 -0.3714 -0.4507
 2043SOL    HW117762   2.869   0.542  13.525 -0.5605  1.6295 -0.0766
 2043SOL    HW217763   2.934   0.621  13.642  1.8581  0.7402 -1.3060
 2044SOL     OW17764   2.997   3.670   8.163  0.4224 -0.4973 -0.2102
 2044SOL    HW117765   3.073   3.663   8.221 -0.0797  3.7292  0.9849
 2044SOL    HW217766   3.006   3.765   8.154  1.0184 -0.6986 -1.7070
 2045SOL     OW17767   0.604   3.631  10.223 -0.3241 -0.9171  0.0562
 2045SOL    HW117768   0.627   3.540  10.239  1.9311 -0.6931 -1.7821
 2045SOL    HW217769   0.518   3.613  10.183 -0.6748  2.4976 -0.7479
 2046SOL     OW17770   2.170   2.139   7.971 -0.0894  0.5786  0.0780
 2046SOL    HW117771   2.252   2.148   7.922 -0.0896  1.0885  0.1789
 2046SOL    HW217772   2.106   2.135   7.899 -0.8457  0.6226  0.7553
 2047SOL     OW17773   1.330   3.308   9.282  0.4033  0.6084 -0.1518
 2047SOL    HW117774   1.236   3.298   9.294  0.2299  2.5556  0.1129
 2047SOL    HW217775   1.337   3.396   9.245  1.7596  0.5789  0.0114
 2048SOL     OW17776   0.550   2.456  14.622 -0.1694 -0.0195  0.7500
 2048SOL    HW117777   0.516   2.413  14.543  2.7252  2.7064 -1.9780
 2048SOL    HW217778   0.645   2.453  14.610 -0.2905  1.3701 -0.5576
 2049SOL     OW17779   4.277   2.832   4.277  0.1532  0.5878  0.6623
 2049SOL    HW117780   4.184   2.822   4.257  0.5624 -1.0414 -0.3950
 2049SOL    HW217781   4.271   2.790   4.363  1.3439 -0.4223  0.2576
 2050SOL     OW17782   4.278   3.868  11.389 -0.3593  0.1018  0.1528
 2050SOL    HW117783   4.261   3.840  11.299 -2.0105  0.7046  0.2707
 2050SOL    HW217784   4.233   3.807  11.447 -1.1216  0.3573 -0.1701
 2051SOL     OW17785   2.075   2.023   4.909 -0.2529  0.2061 -0.5357
 2051SOL    HW117786   2.087   2.118   4.906  2.1561 -0.0387  2.4194
 2051SOL    HW217787   2.115   2.007   4.824  1.8505  1.2983  0.2521
 2052SOL     OW17788   1.196   0.382  11.325  0.5425 -0.2062 -0.1907
 2052SOL    HW117789   1.278   0.411  11.285  0.1155 -1.4898 -2.0156
 2052SOL    HW217790   1.150   0.466  11.332  0.7689 -0.2692  1.9451
 2053SOL     OW17791   0.520   3.071   8.254 -0.5137  0.4267 -0.1359
 2053SOL    HW117792   0.550   3.074   8.344  1.2428  0.3880 -0.7071
 2053SOL    HW217793   0.528   3.161   8.223  0.6367  0.7830  1.2184
 2054SOL     OW17794   2.833   0.802   5.127  0.3892  0.1608  0.0022
 2054SOL    HW117795   2.780   0.859   5.070  2.4850  1.1455 -0.9589
 2054SOL    HW217796   2.918   0.846   5.133  1.3995 -1.5829 -1.4415
 2055SOL     OW17797   4.701   3.824  12.155  0.1182 -1.0905  0.4481
 2055SOL    HW117798   0.027   3.875  12.205  0.6347 -0.3572 -0.9764
 2055SOL    HW217799   0.011   3.750  12.116 -0.7860 -1.3607 -0.1306
 2056SOL     OW17800   3.725   3.175   2.604  0.0112 -0.0568 -0.2403
 2056SOL    HW117801   3.706   3.083   2.624  1.5417 -0.1558  0.7549
 2056SOL    HW217802   3.691   3.226   2.678  0.1719  0.3660 -0.4608
 2057SOL     OW17803   1.223   1.184   8.798  0.5016 -0.3227  0.2825
 2057SOL    HW117804   1.132   1.174   8.771  0.9004 -1.4083 -0.6549
 2057SOL    HW217805   1.255   1.095   8.785  0.5682 -0.5061  1.7908
 2058SOL     OW17806   0.404   1.581   6.020 -0.8048 -0.3618 -0.1666
 2058SOL    HW117807   0.431   1.551   5.933 -1.5580 -2.6436  0.3870
 2058SOL    HW217808   0.455   1.662   6.028 -1.5192 -0.0123  0.8033
 2059SOL     OW17809   1.042   4.339   2.598  0.2836  0.2536  0.1221
 2059SOL    HW117810   1.064   4.347   2.506 -1.2294  2.7331 -0.0217
 2059SOL    HW217811   0.946   4.338   2.588  0.1144  1.2636  1.5534
 2060SOL     OW17812   1.742   1.362   8.739 -0.2111  0.4243  0.3322
 2060SOL    HW117813   1.691   1.293   8.697  2.1904 -0.1667 -1.6307
 2060SOL    HW217814   1.700   1.357   8.825 -1.2640  0.8653 -0.1591
 2061SOL     OW17815   4.442   3.266  12.780  0.1096 -0.2838 -0.1113
 2061SOL    HW117816   4.526   3.224  12.762  0.1043 -0.4868  0.3305
 2061SOL    HW217817   4.475   3.352  12.805  0.6276 -0.1230 -1.3625
 2062SOL     OW17818   3.218   0.915   6.083  0.6307  0.1590  0.2476
 2062SOL    HW117819   3.264   0.981   6.134  1.0288 -0.2623  0.4414
 2062SOL    HW217820   3.286   0.850   6.067  0.9822  0.3808  0.8300
 2063SOL     OW17821   4.195   4.068   4.451  0.2935  0.6605 -0.2506
 2063SOL    HW117822   4.213   4.162   4.450  0.2993  0.6674  0.9895
 2063SOL    HW217823   4.110   4.072   4.406 -0.1330 -4.4301  0.1296
 2064SOL     OW17824   0.397   1.654   7.481 -0.2723 -0.3345 -0.7064
 2064SOL    HW117825   0.341   1.684   7.409 -1.6576  0.1224  0.5486
 2064SOL    HW217826   0.428   1.738   7.513 -1.7077 -0.2040  0.3291
 2065SOL     OW17827   0.439   0.451   4.197 -0.1074  0.0378  0.1351
 2065SOL    HW117828   0.486   0.485   4.121 -2.7096  3.1861 -0.0556
 2065SOL    HW217829   0.498   0.386   4.236  1.0100  0.5685 -0.6683
 2066SOL     OW17830   4.474   0.538  10.950 -0.1579  0.5619 -0.5036
 2066SOL    HW117831   4.436   0.496  10.873  0.2737  1.9371 -1.4527
 2066SOL    HW217832   4.403   0.581  10.996  0.6656 -0.6045  1.8634
 2067SOL     OW17833   4.249   0.486   6.319  0.1141 -0.2343 -0.3536
 2067SOL    HW117834   4.159   0.485   6.287  0.1579 -0.8390 -0.4593
 2067SOL    HW217835   4.239   0.443   6.404  0.8699  1.8288  0.7684
 2068SOL     OW17836   2.425   2.171   6.285 -0.2251 -0.1462 -0.2267
 2068SOL    HW117837   2.471   2.228   6.224 -0.8006 -0.5394 -1.0347
 2068SOL    HW217838   2.378   2.118   6.220 -2.4110 -0.5096  1.6506
 2069SOL     OW17839   3.233   2.941  17.188  0.2106 -0.1704 -0.7913
 2069SOL    HW117840   3.317   2.948  17.233 -0.3352  1.5018 -0.0526
 2069SOL    HW217841   3.248   2.899  17.103  0.5414  1.1500 -1.3755
 2070SOL     OW17842   3.629   2.645   5.701  0.2454  0.4571 -0.1713
 2070SOL    HW117843   3.629   2.677   5.610 -2.5231 -1.3076 -0.8096
 2070SOL    HW217844   3.535   2.644   5.721  0.7355  0.2432  2.1303
 2071SOL     OW17845   0.654   0.108   7.341 -0.0781 -0.0929 -0.4668
 2071SOL    HW117846   0.713   0.115   7.266  0.6561 -0.7377  0.0504
 2071SOL    HW217847   0.627   0.200   7.347  1.6654  0.3515  0.7711
 2072SOL     OW17848   0.068   3.726   1.879  0.3237  0.1921 -0.4891
 2072SOL    HW117849   4.719   3.697   1.851 -0.8670  2.7544  0.5180
 2072SOL    HW217850   0.119   3.650   1.851  2.0737  0.5907  1.5760
 2073SOL     OW17851   3.806   1.429  11.538  0.5935  0.6313  0.0527
 2073SOL    HW117852   3.779   1.346  11.499  0.5115  0.4054  0.6038
 2073SOL    HW217853   3.869   1.405  11.605  0.9089  1.1740 -0.0446
 2074SOL     OW17854   1.870   0.780   8.084  0.3210  0.2823  0.3683
 2074SOL    HW117855   1.790   0.733   8.108  0.0893  0.7539  0.5086
 2074SOL    HW217856   1.897   0.731   8.007  0.8522  0.5872  0.3588
 2075SOL     OW17857   2.342   3.727  15.230  0.2631  0.1141 -0.4317
 2075SOL    HW117858   2.326   3.636  15.255 -1.0449  0.8564  1.4563
 2075SOL    HW217859   2.357   3.777  15.310  1.6525  0.5815 -0.9905
 2076SOL     OW17860   4.043   3.957   4.894  0.5752  0.1319 -0.3978
 2076SOL    HW117861   4.092   3.942   4.813 -0.2733 -2.1213 -0.5035
 2076SOL    HW217862   4.016   4.049   4.888 -0.6617 -0.2721 -0.9179
 2077SOL     OW17863   4.511   3.714  15.505  0.0938 -0.4168 -0.4705
 2077SOL    HW117864   4.488   3.622  15.492 -1.0848  0.0046 -1.4088
 2077SOL    HW217865   4.428   3.751  15.475 -0.5124  0.0824  1.8009
 2078SOL     OW17866   0.021   2.897   4.347  0.8913 -0.0092  0.3779
 2078SOL    HW117867   4.697   2.948   4.400  1.8145  1.1749  0.3125
 2078SOL    HW217868   0.098   2.890   4.403  2.6795  1.1552 -1.9081
 2079SOL     OW17869   4.179   2.950   3.855  0.5445  0.2303 -0.0152
 2079SOL    HW117870   4.232   3.029   3.860 -0.6555  1.0414 -0.2212
 2079SOL    HW217871   4.253   2.889   3.861  0.9878  0.8619  0.9051
 2080SOL     OW17872   0.456   4.658   6.553 -0.0306 -0.5916  0.0336
 2080SOL    HW117873   0.504   4.622   6.478  0.5022  0.7576 -0.2663
 2080SOL    HW217874   0.475   4.598   6.626 -0.6098 -0.2975  0.4194
 2081SOL     OW17875   3.462   1.547   1.643 -0.1031  0.1455 -0.0360
 2081SOL    HW117876   3.463   1.544   1.739  1.2479  0.1381 -0.0488
 2081SOL    HW217877   3.543   1.506   1.614  0.9043  2.5371 -0.5447
 2082SOL     OW17878   4.085   0.670   2.470 -0.2024  0.2606  0.8818
 2082SOL    HW117879   4.048   0.734   2.410  0.3247  0.8619  1.1934
 2082SOL    HW217880   4.072   0.723   2.548 -1.1250  0.1529  0.7952
 2083SOL     OW17881   4.087   3.206   8.263 -0.3331 -0.3760  0.5068
 2083SOL    HW117882   4.021   3.265   8.227 -0.8079 -0.4864  1.2041
 2083SOL    HW217883   4.129   3.257   8.332 -1.3266 -0.7310  1.3795
 2084SOL     OW17884   0.404   1.636  17.681  0.5081  0.2277  0.1231
 2084SOL    HW117885   0.326   1.666  17.728  0.9906  3.7973 -1.3820
 2084SOL    HW217886   0.458   1.715  17.688 -0.3484  0.8204 -0.0504
 2085SOL     OW17887   4.642   4.161   6.084  0.1001 -0.3005  0.5709
 2085SOL    HW117888   4.604   4.171   5.997 -2.5720 -1.3114  1.6411
 2085SOL    HW217889   4.736   4.154   6.068  0.3010  0.3663  1.4395
 2086SOL     OW17890   3.364   0.555   2.266 -0.7623  0.4027 -0.3556
 2086SOL    HW117891   3.379   0.465   2.236  1.3934 -0.0248  1.9632
 2086SOL    HW217892   3.445   0.603   2.248 -0.2061 -0.3949 -0.0069
 2087SOL     OW17893   0.024   4.636   5.191 -0.5132 -0.5845  0.2549
 2087SOL    HW117894   0.119   4.634   5.183 -0.5947  0.2822 -0.8572
 2087SOL    HW217895   4.726   4.707   5.137 -1.9795 -0.5142  1.2843
 2088SOL     OW17896   2.124   1.011   7.135 -0.1486  0.2602 -0.1342
 2088SOL    HW117897   2.086   0.929   7.103 -0.1453 -0.0386  0.6242
 2088SOL    HW217898   2.100   1.005   7.228  1.2828 -1.5260  0.1072
 2089SOL     OW17899   3.846   0.832   1.051  0.1169 -0.0476  0.4390
 2089SOL    HW117900   3.884   0.776   0.982  1.0995  1.2293 -0.0505
 2089SOL    HW217901   3.796   0.898   1.004  2.7932  2.4863  1.1359
 2090SOL     OW17902   4.513   1.598  14.383 -0.7645 -0.2326  0.3876
 2090SOL    HW117903   4.437   1.562  14.428 -1.2543  1.5277  0.9756
 2090SOL    HW217904   4.458   1.669  14.350  2.6175  2.5684  0.6692
 2091SOL     OW17905   0.451   1.086   6.061  0.2528 -0.1897 -0.0742
 2091SOL    HW117906   0.388   1.060   6.128  1.8985 -1.4797  0.9759
 2091SOL    HW217907   0.404   1.059   5.982  0.5540 -3.4723  0.8629
 2092SOL     OW17908   0.370   1.124   9.458  0.2128 -0.0621  0.6692
 2092SOL    HW117909   0.343   1.213   9.436  0.4726 -0.5419 -1.5068
 2092SOL    HW217910   0.398   1.146   9.547 -1.1925  0.9631  0.8557
 2093SOL     OW17911   2.445   4.609   5.631  0.1004 -0.2576 -0.1974
 2093SOL    HW117912   2.458   4.570   5.545 -0.1604  2.6127 -1.5345
 2093SOL    HW217913   2.474   4.700   5.623  1.3442 -0.6599 -0.3100
 2094SOL     OW17914   0.968   0.176   4.194 -0.6997 -0.1291 -0.2614
 2094SOL    HW117915   0.933   0.252   4.240 -0.6448 -0.7226  0.7582
 2094SOL    HW217916   0.991   0.202   4.105 -1.6750 -1.1729 -0.8223
 2095SOL     OW17917   2.321   4.075   5.725  0.1628  0.4885  0.3934
 2095SOL    HW117918   2.232   4.082   5.759 -0.0872 -0.6383 -0.0176
 2095SOL    HW217919   2.370   4.123   5.791  1.2694  1.0733 -0.8455
 2096SOL     OW17920   4.641   1.856   4.649 -0.5623  0.2635 -0.1286
 2096SOL    HW117921   4.560   1.820   4.610  0.1100 -2.1467  0.7149
 2096SOL    HW217922   4.694   1.777   4.663  1.7921  1.5292 -2.0041
 2097SOL     OW17923   4.433   3.800   9.559 -0.1877  0.7606  0.5109
 2097SOL    HW117924   4.384   3.882   9.569 -0.0834  0.6745  1.7304
 2097SOL    HW217925   4.522   3.833   9.562  0.0452  0.0630  1.2833
 2098SOL     OW17926   2.232   4.197  13.638 -0.8835 -0.2933 -0.4194
 2098SOL    HW117927   2.244   4.282  13.595  1.2015 -0.2877  0.1630
 2098SOL    HW217928   2.315   4.152  13.622 -1.3226 -0.6853 -1.5982
 2099SOL     OW17929   0.394   4.257  11.371  0.6334  0.4627  0.1638
 2099SOL    HW117930   0.344   4.335  11.346  0.0674  0.3028  0.8010
 2099SOL    HW217931   0.448   4.243  11.294 -0.2916  1.6899 -0.7129
 2100SOL     OW17932   4.402   1.904   5.851  0.0811 -0.4561  0.2408
 2100SOL    HW117933   4.411   1.810   5.869  3.4810 -0.1755 -0.1488
 2100SOL    HW217934   4.423   1.913   5.758  0.4119 -3.6076 -0.0019
 2101SOL     OW17935   1.819   3.300   2.164  0.6216 -0.2971 -0.0712
 2101SOL    HW117936   1.745   3.294   2.223  1.4097  1.0254  1.0581
 2101SOL    HW217937   1.793   3.321   2.074 -0.7213 -3.2115 -0.3467
 2102SOL     OW17938   0.167   2.517   6.552 -0.6707  0.1389 -0.5896
 2102SOL    HW117939   0.072   2.531   6.558 -0.7902 -2.2074  3.2449
 2102SOL    HW217940   0.179   2.487   6.462 -3.2146  0.2918 -0.9798
 2103SOL     OW17941   4.018   4.536   3.373 -0.0413 -0.0494 -0.2973
 2103SOL    HW117942   3.927   4.518   3.395  0.6186 -2.6036  0.2679
 2103SOL    HW217943   4.002   4.620   3.328  0.4634  0.9380  1.3669
 2104SOL     OW17944   2.958   2.123   7.559 -0.1786  0.2420 -0.1262
 2104SOL    HW117945   2.925   2.113   7.648 -2.9764 -0.7211 -1.2670
 2104SOL    HW217946   3.025   2.191   7.571 -1.0987  0.8756  1.4585
 2105SOL     OW17947   2.134   2.265  16.726  0.7338 -0.0138 -0.1478
 2105SOL    HW117948   2.160   2.174  16.735 -4.3088 -1.4084  0.5267
 2105SOL    HW217949   2.084   2.260  16.644 -1.4963  1.5470  1.1102
 2106SOL     OW17950   1.602   4.722   2.165  0.3189  0.2176 -0.1846
 2106SOL    HW117951   1.638   4.652   2.219 -0.6924  1.2955  1.8540
 2106SOL    HW217952   1.553   4.670   2.101  1.7720  0.7419 -1.7470
 2107SOL     OW17953   3.668   2.453  13.086 -0.1339  0.4114  0.4941
 2107SOL    HW117954   3.694   2.365  13.058  2.5943  0.8343  1.7466
 2107SOL    HW217955   3.580   2.449  13.123 -1.4909  1.9382 -2.6060
 2108SOL     OW17956   4.444   0.751   3.984 -0.0387  0.3124  0.1132
 2108SOL    HW117957   4.409   0.692   4.050  0.8469 -3.5793 -2.8973
 2108SOL    HW217958   4.515   0.694   3.957  0.7975  2.3091 -1.8777
 2109SOL     OW17959   2.512   4.491   5.855 -0.2743  0.6715  0.9404
 2109SOL    HW117960   2.597   4.531   5.874 -1.5153  2.3661  2.8883
 2109SOL    HW217961   2.491   4.529   5.770 -0.8570 -1.4281  0.1514
 2110SOL     OW17962   2.482   2.216   5.329 -0.6187  0.5485  0.0395
 2110SOL    HW117963   2.422   2.171   5.389  0.4631  0.3164  0.9374
 2110SOL    HW217964   2.478   2.150   5.260  0.2143  0.9766 -0.4064
 2111SOL     OW17965   0.249   2.917   4.048 -0.3000  0.2767 -0.4840
 2111SOL    HW117966   0.210   2.970   3.978  0.4236  2.6159  0.8914
 2111SOL    HW217967   0.182   2.849   4.051 -2.0434  1.9398 -1.4650
 2112SOL     OW17968   4.366   2.285   8.770 -0.2476 -0.3795  0.2520
 2112SOL    HW117969   4.409   2.274   8.854 -0.1111 -0.8112  0.1275
 2112SOL    HW217970   4.329   2.371   8.792  0.6235 -0.5420  2.3191
 2113SOL     OW17971   1.527   2.419  16.323  0.0511 -0.1163  0.0378
 2113SOL    HW117972   1.599   2.392  16.267 -0.8140 -1.2015 -0.5619
 2113SOL    HW217973   1.470   2.449  16.253  0.2221  1.5169  0.6115
 2114SOL     OW17974   4.103   2.222   1.255 -0.0650 -0.2493  0.2265
 2114SOL    HW117975   4.188   2.179   1.263  0.6773  1.0534 -0.6989
 2114SOL    HW217976   4.134   2.312   1.261  1.5583 -0.9221  1.8805
 2115SOL     OW17977   2.756   2.676  14.021 -0.4221 -0.0416  0.5084
 2115SOL    HW117978   2.684   2.629  13.980  0.7567  0.2076 -1.8421
 2115SOL    HW217979   2.807   2.675  13.940 -1.6332  0.6825 -0.2588
 2116SOL     OW17980   1.487   0.374   0.792  0.8212 -0.1720 -0.2496
 2116SOL    HW117981   1.479   0.281   0.810  1.6402 -0.2313 -0.2030
 2116SOL    HW217982   1.542   0.405   0.863  1.0411  2.1852 -1.4403
 2117SOL     OW17983   2.644   1.113   0.974 -0.5929  0.3450  0.4867
 2117SOL    HW117984   2.659   1.085   1.064  5.6111  0.3690 -0.5365
 2117SOL    HW217985   2.720   1.168   0.952 -0.0922 -1.0307 -1.2617
 2118SOL     OW17986   2.377   2.448   7.765 -0.3738  0.0745  0.1499
 2118SOL    HW117987   2.438   2.469   7.836  0.0474 -0.8068  0.0411
 2118SOL    HW217988   2.363   2.356   7.784 -2.0156  0.0360 -1.2183
 2119SOL     OW17989   2.085   3.514   2.475  0.7943  0.2148 -0.0455
 2119SOL    HW117990   2.059   3.606   2.478  2.0523  0.5067  2.0166
 2119SOL    HW217991   2.053   3.497   2.386 -0.7663 -1.3081  0.7978
 2120SOL     OW17992   2.070   0.542   6.606  0.1233 -0.0759 -0.0783
 2120SOL    HW117993   2.112   0.547   6.520 -1.5390  0.1452 -0.8788
 2120SOL    HW217994   2.148   0.551   6.661  0.5094 -2.6041 -0.2011
 2121SOL     OW17995   0.687   0.962   5.768 -0.6396  0.6511 -0.3309
 2121SOL    HW117996   0.703   1.018   5.692 -1.5716  0.4624 -0.6705
 2121SOL    HW217997   0.653   1.030   5.825 -0.0987  1.3693 -0.8747
 2122SOL     OW17998   1.586   3.514   9.047  0.1573  0.1395  0.1816
 2122SOL    HW117999   1.500   3.552   9.061  0.5183  1.4428 -1.0685
 2122SOL    HW218000   1.565   3.433   9.000 -0.3616  1.0614 -1.1421
 2123SOL     OW18001   4.134   3.738  11.214  0.0457 -0.1343  0.3433
 2123SOL    HW118002   4.060   3.795  11.191  1.7338  0.8561 -2.5232
 2123SOL    HW218003   4.095   3.669  11.268 -0.8911  2.0039  2.4298
 2124SOL     OW18004   2.297   2.707   7.895 -0.2086 -0.1297  0.0860
 2124SOL    HW118005   2.332   2.719   7.983 -0.6901 -0.4695  0.3247
 2124SOL    HW218006   2.276   2.613   7.894 -0.5700 -0.0497  0.2630
 2125SOL     OW18007   1.309   1.701  14.318 -0.3363 -0.4143  0.1066
 2125SOL    HW118008   1.284   1.655  14.239 -0.8705 -0.4033  0.2696
 2125SOL    HW218009   1.256   1.780  14.303  0.0623  0.1779  1.7375
 2126SOL     OW18010   4.218   1.181   5.964 -0.1407 -0.1081 -0.6956
 2126SOL    HW118011   4.138   1.224   5.995 -1.1135 -2.4951  0.0581
 2126SOL    HW218012   4.232   1.117   6.034  0.2922  1.6131  0.7872
 2127SOL     OW18013   1.286   3.702   0.268  0.0827 -0.2348  0.0387
 2127SOL    HW118014   1.332   3.658   0.196  1.0599  2.0823 -0.7429
 2127SOL    HW218015   1.195   3.694   0.241 -0.7537 -0.2635  2.8696
 2128SOL     OW18016   1.329   3.132   3.436  0.5647 -0.4316 -0.0387
 2128SOL    HW118017   1.421   3.148   3.413  1.1350  0.4673  2.8597
 2128SOL    HW218018   1.324   3.038   3.414  2.8625 -1.3184  3.2573
 2129SOL     OW18019   0.290   2.134  12.083 -0.1940 -0.0517 -0.0651
 2129SOL    HW118020   0.266   2.194  12.012  0.9536  1.6011  0.9466
 2129SOL    HW218021   0.211   2.080  12.078  0.1108 -0.5753  0.8219
 2130SOL     OW18022   1.087   0.172   8.439  0.2586  0.3038  0.0457
 2130SOL    HW118023   1.089   0.209   8.352 -1.1756  0.3842  0.0525
 2130SOL    HW218024   1.161   0.202   8.492 -0.1379  0.9683  0.2183
 2131SOL     OW18025   1.584   3.262   2.339  0.0025  0.2291 -0.4669
 2131SOL    HW118026   1.616   3.266   2.429 -1.0728 -1.5452  0.0005
 2131SOL    HW218027   1.582   3.167   2.331  0.8713  0.1632  0.0852
 2132SOL     OW18028   1.901   1.006   2.239  0.1565  0.6912 -0.3611
 2132SOL    HW118029   1.983   1.011   2.191  0.9453  0.2642  0.9415
 2132SOL    HW218030   1.887   1.100   2.254 -3.7553 -0.3891  3.0366
 2133SOL     OW18031   3.602   4.469   2.481 -0.0675 -0.1318  0.4316
 2133SOL    HW118032   3.669   4.406   2.508 -0.6681 -0.1812  1.8241
 2133SOL    HW218033   3.567   4.434   2.399  0.1408  0.2996  0.1613
 2134SOL     OW18034   4.628   1.359  11.522 -0.5510 -1.0066 -0.2165
 2134SOL    HW118035   4.586   1.274  11.509 -1.7857 -0.4199 -0.0698
 2134SOL    HW218036   4.667   1.356  11.609 -3.6315 -4.3046  1.0438
 2135SOL     OW18037   1.762   2.790   0.503  0.4029 -0.0794 -0.3601
 2135SOL    HW118038   1.699   2.853   0.467  1.7220  1.3130 -0.2357
 2135SOL    HW218039   1.834   2.792   0.440  0.4411 -0.2744 -0.3237
 2136SOL     OW18040   4.664   3.010   4.710 -0.3264  0.7177  0.5518
 2136SOL    HW118041   4.614   3.010   4.629  1.5248  1.0648 -0.5858
 2136SOL    HW218042   4.601   3.052   4.769 -1.7374 -0.5195 -0.0714
 2137SOL     OW18043   1.300   1.680   4.811 -0.3847 -0.4881  0.1346
 2137SOL    HW118044   1.314   1.644   4.723 -0.9231  2.9935 -1.3782
 2137SOL    HW218045   1.239   1.750   4.788  0.6450  0.2791 -0.2537
 2138SOL     OW18046   2.984   0.443   4.763 -0.0287 -0.2538 -0.0936
 2138SOL    HW118047   2.977   0.513   4.828  0.7804 -0.6317  0.3919
 2138SOL    HW218048   2.983   0.496   4.683  0.6425 -1.3513 -0.8214
 2139SOL     OW18049   2.455   1.702   3.004 -0.5620 -0.5994  0.0393
 2139SOL    HW118050   2.500   1.751   3.072 -0.9198  3.1987 -2.4374
 2139SOL    HW218051   2.513   1.716   2.929 -0.2496 -1.0775  0.1893
 2140SOL     OW18052   3.803   2.679  13.032 -0.4317  0.0270  0.7065
 2140SOL    HW118053   3.754   2.659  12.952  0.4819 -1.4794  0.5301
 2140SOL    HW218054   3.793   2.589  13.062  0.9630 -0.5865 -0.6301
 2141SOL     OW18055   4.269   4.322   1.099  0.1192 -0.2253 -0.4052
 2141SOL    HW118056   4.222   4.404   1.116 -1.3663 -0.9207 -1.1600
 2141SOL    HW218057   4.313   4.356   1.022  0.1646  0.8642  0.1029
 2142SOL     OW18058   3.172   3.575   6.513  0.0140 -0.4446 -0.4382
 2142SOL    HW118059   3.250   3.626   6.535 -0.7613  1.4693 -2.1433
 2142SOL    HW218060   3.205   3.487   6.533 -0.4109 -0.2942  0.9960
 2143SOL     OW18061   2.848   3.032  12.497 -0.2740 -0.1528  0.3016
 2143SOL    HW118062   2.832   3.106  12.555 -0.6939  0.1825 -0.2498
 2143SOL    HW218063   2.791   3.041  12.421 -0.5577  0.1988  0.5525
 2144SOL     OW18064   3.406   4.056   8.519  0.0928 -0.7064  0.1952
 2144SOL    HW118065   3.334   4.001   8.550 -0.7726 -0.3039 -1.0469
 2144SOL    HW218066   3.399   4.024   8.428  0.4534  0.2532 -0.1673
 2145SOL     OW18067   1.526   3.992   5.383  0.4684  0.2929  0.3871
 2145SOL    HW118068   1.581   3.927   5.426  0.3737 -1.6355 -2.4154
 2145SOL    HW218069   1.443   3.974   5.428 -0.0552 -2.4953 -1.6813
 2146SOL     OW18070   4.392   1.050   9.825  0.4495  0.0213  0.4900
 2146SOL    HW118071   4.332   1.124   9.817  1.7534  1.1413  1.0760
 2146SOL    HW218072   4.331   0.982   9.854  0.6770  0.0322  1.0091
 2147SOL     OW18073   1.944   4.184   6.904 -0.4520 -0.1155  0.7504
 2147SOL    HW118074   1.858   4.226   6.892 -0.1101  0.2204 -0.5202
 2147SOL    HW218075   1.917   4.093   6.895  0.6445 -0.3685  0.0518
 2148SOL     OW18076   2.823   4.547   3.678 -0.1934 -0.5251  0.7008
 2148SOL    HW118077   2.874   4.628   3.688  2.4328 -2.0945 -0.2545
 2148SOL    HW218078   2.864   4.496   3.748  3.0097 -0.2435 -0.9972
 2149SOL     OW18079   2.436   2.562   9.721  0.0650 -0.1528  0.1438
 2149SOL    HW118080   2.414   2.490   9.662 -1.7854  2.1928 -2.0228
 2149SOL    HW218081   2.461   2.514   9.800  0.3201  1.1269  0.8523
 2150SOL     OW18082   1.287   2.793  17.210 -0.0910  0.3602 -0.4894
 2150SOL    HW118083   1.225   2.859  17.240  1.0262  2.1432 -2.0406
 2150SOL    HW218084   1.323   2.833  17.130  0.9035  0.9951  0.2848
 2151SOL     OW18085   0.416   3.918  11.219  0.3030  0.4323 -0.2251
 2151SOL    HW118086   0.457   4.000  11.191 -0.5640  0.3272 -1.7623
 2151SOL    HW218087   0.490   3.864  11.249 -0.7636 -0.7282  0.2991
 2152SOL     OW18088   2.508   1.507   8.385  0.1289  0.5384 -0.4177
 2152SOL    HW118089   2.461   1.570   8.439 -0.7883  0.8285 -1.5375
 2152SOL    HW218090   2.549   1.566   8.322  1.0017  0.9618  0.5591
 2153SOL     OW18091   3.649   2.833   7.833  0.1279  0.1525  0.5407
 2153SOL    HW118092   3.700   2.800   7.759  0.3542  2.0677 -0.1570
 2153SOL    HW218093   3.703   2.815   7.910  0.6234 -0.8059 -0.0353
 2154SOL     OW18094   4.597   3.255   2.173 -0.3505  0.3356  0.4035
 2154SOL    HW118095   4.635   3.234   2.259  0.4799  1.2689  0.2638
 2154SOL    HW218096   4.516   3.298   2.201  0.9607  2.4742  0.9030
 2155SOL     OW18097   2.026   4.496  10.175  0.0579  0.4833 -0.5900
 2155SOL    HW118098   2.103   4.540  10.210 -1.1065  0.6149  1.7853
 2155SOL    HW218099   2.061   4.442  10.103 -1.5511  1.6315 -2.2199
 2156SOL     OW18100   2.429   0.078   4.758 -0.4092 -0.3909  0.3263
 2156SOL    HW118101   2.517   0.049   4.781 -0.7496 -0.2049  1.8567
 2156SOL    HW218102   2.431   0.173   4.745 -0.5160 -0.3310  0.7537
 2157SOL     OW18103   2.116   0.388   8.159 -0.0821  0.1066  0.4805
 2157SOL    HW118104   2.099   0.466   8.212 -4.5628 -1.0764  0.7599
 2157SOL    HW218105   2.030   0.355   8.133 -0.4529  2.2417 -0.9730
 2158SOL     OW18106   3.222   3.807   1.730 -0.7513  0.7230  0.5489
 2158SOL    HW118107   3.284   3.877   1.713 -0.1635  0.4907  1.7483
 2158SOL    HW218108   3.138   3.846   1.705 -1.5664 -0.1610  1.9137
 2159SOL     OW18109   4.542   1.616   4.811 -0.1822 -0.2909 -0.1319
 2159SOL    HW118110   4.530   1.685   4.745 -0.8209 -0.1470  0.1318
 2159SOL    HW218111   4.466   1.561   4.793  1.5063 -2.9101  0.6778
 2160SOL     OW18112   1.867   2.267   8.626 -0.0213  0.3017  0.2310
 2160SOL    HW118113   1.939   2.322   8.658 -0.4712  0.4429  0.9967
 2160SOL    HW218114   1.920   2.202   8.579  0.8694 -0.3342  2.0795
 2161SOL     OW18115   3.965   3.132   6.045  0.0799 -0.2047 -0.2068
 2161SOL    HW118116   3.974   3.047   6.089  0.6523 -0.7768 -1.4127
 2161SOL    HW218117   3.943   3.117   5.953  1.9339 -0.7673 -0.5730
 2162SOL     OW18118   0.733   1.217   3.270 -0.4895 -0.4222  0.6007
 2162SOL    HW118119   0.678   1.183   3.341  0.6302  0.0167  1.6762
 2162SOL    HW218120   0.724   1.310   3.288 -0.6332 -0.0505 -1.4339
 2163SOL     OW18121   0.378   2.523   9.094 -0.1057  0.2010  0.3766
 2163SOL    HW118122   0.315   2.571   9.146  0.8465  1.2526  0.5600
 2163SOL    HW218123   0.441   2.588   9.062 -3.0975  1.4534 -2.8806
 2164SOL     OW18124   3.012   3.722   7.272  0.6110  0.2711  0.5337
 2164SOL    HW118125   3.047   3.682   7.193  2.1026  1.7284  0.4414
 2164SOL    HW218126   2.954   3.791   7.239  0.7955  0.3877  0.4511
 2165SOL     OW18127   2.070   2.353   3.247  0.3339  0.4150 -0.1970
 2165SOL    HW118128   2.029   2.313   3.170 -0.5605  0.2327  0.3724
 2165SOL    HW218129   2.056   2.448   3.243 -0.5802  0.2954  0.2626
 2166SOL     OW18130   1.266   2.066   5.762 -0.2194  0.1757 -0.0959
 2166SOL    HW118131   1.296   2.015   5.687 -0.0076  1.1147 -0.6404
 2166SOL    HW218132   1.285   2.154   5.732 -0.2649 -0.7298 -2.7893
 2167SOL     OW18133   2.911   2.402   7.066 -0.1631 -0.2146  0.9168
 2167SOL    HW118134   2.914   2.356   7.150 -0.3799 -0.6017  0.7103
 2167SOL    HW218135   2.851   2.341   7.024 -2.2819  2.8212 -0.4642
 2168SOL     OW18136   3.589   1.643  11.900  0.1071 -0.6243 -1.0568
 2168SOL    HW118137   3.664   1.633  11.840 -1.8159 -2.4316 -3.1418
 2168SOL    HW218138   3.542   1.719  11.866  0.4603  0.0508 -0.0382
 2169SOL     OW18139   0.236   3.542   4.382 -0.1568 -0.0052  0.1162
 2169SOL    HW118140   0.172   3.589   4.327  2.5334  0.6260 -2.4358
 2169SOL    HW218141   0.239   3.606   4.453  2.9651 -0.1674  0.0933
 2170SOL     OW18142   1.632   3.485   4.836 -0.4303  0.6517 -0.4355
 2170SOL    HW118143   1.542   3.455   4.825 -1.4850  3.2228  1.3247
 2170SOL    HW218144   1.663   3.484   4.745 -0.0028  1.1248 -0.2968
 2171SOL     OW18145   0.577   1.342   6.664  0.2011 -0.6492 -0.1597
 2171SOL    HW118146   0.612   1.254   6.680  1.2259 -0.2120 -0.0375
 2171SOL    HW218147   0.623   1.360   6.583 -1.0680  0.2668 -0.6772
 2172SOL     OW18148   3.955   2.943   9.315 -0.3409  0.3540 -0.5588
 2172SOL    HW118149   3.913   3.011   9.368 -0.6515 -0.6502  0.4866
 2172SOL    HW218150   4.037   2.919   9.359 -0.2229  0.9698 -0.4485
 2173SOL     OW18151   2.745   3.174  14.375  0.3727  0.0648  0.3108
 2173SOL    HW118152   2.841   3.167  14.376  0.3372 -0.5227 -0.5839
 2173SOL    HW218153   2.730   3.080  14.364 -3.2153  0.8711 -1.4792
 2174SOL     OW18154   0.521   3.964  17.181  0.5675  0.1345  0.1640
 2174SOL    HW118155   0.547   4.055  17.197 -0.9802  0.1127  2.7304
 2174SOL    HW218156   0.485   3.973  17.092  2.0653 -0.9054 -0.5520
 2175SOL     OW18157   2.140   2.034   4.627  0.5847  0.6292  0.0952
 2175SOL    HW118158   2.105   2.123   4.620 -0.1467  0.2251 -1.4242
 2175SOL    HW218159   2.235   2.048   4.624  0.5216  1.3632  1.3741
 2176SOL     OW18160   1.344   1.012   0.219  0.6064 -0.5739  0.5942
 2176SOL    HW118161   1.256   1.009   0.181  0.3438  0.0702  1.1580
 2176SOL    HW218162   1.342   1.081   0.285 -0.0622 -2.0043  2.0711
 2177SOL     OW18163   1.454   0.104   0.836 -0.6473  0.4862  0.4138
 2177SOL    HW118164   1.391   0.072   0.771  0.1965  1.1730 -0.7548
 2177SOL    HW218165   1.505   0.023   0.845 -0.3755  0.7191  1.0027
 2178SOL     OW18166   3.379   3.575   9.325  0.1708  0.2036 -0.4180
 2178SOL    HW118167   3.475   3.574   9.322  0.1290  0.2539 -1.7182
 2178SOL    HW218168   3.367   3.515   9.399  3.8565  1.7235  1.4183
 2179SOL     OW18169   3.284   3.671   8.979  0.1693 -0.3010  0.4372
 2179SOL    HW118170   3.253   3.595   9.029 -1.6219 -0.2807 -0.6481
 2179SOL    HW218171   3.227   3.669   8.902  0.7434 -1.5418  0.0478
 2180SOL     OW18172   0.215   1.403   3.654  0.1909 -0.2317 -0.2519
 2180SOL    HW118173   0.224   1.496   3.630  1.6336 -0.5818 -1.0806
 2180SOL    HW218174   0.123   1.386   3.632  0.2612  1.6244 -2.0436
 2181SOL     OW18175   0.176   2.048   8.635  0.0327  0.1902  0.0266
 2181SOL    HW118176   0.198   2.140   8.619  0.3312 -0.2972 -2.3126
 2181SOL    HW218177   0.244   2.024   8.698  0.3641 -0.0701 -0.4346
 2182SOL     OW18178   3.509   2.806   2.456  0.1662 -0.5313  0.2716
 2182SOL    HW118179   3.438   2.793   2.392 -0.4943  2.1293  0.4642
 2182SOL    HW218180   3.512   2.716   2.490  1.9192 -1.1077 -1.4123
 2183SOL     OW18181   0.863   4.234  10.896  0.0205 -0.6060  0.2698
 2183SOL    HW118182   0.918   4.244  10.819 -0.2768  1.7142  0.3643
 2183SOL    HW218183   0.920   4.290  10.949 -0.2597  1.4715 -1.5903
 2184SOL     OW18184   3.665   2.876   4.707  0.3366 -0.1029 -0.2855
 2184SOL    HW118185   3.682   2.816   4.779  0.0988 -0.7568 -0.7792
 2184SOL    HW218186   3.649   2.813   4.637  0.0194 -1.9296  1.4399
 2185SOL     OW18187   0.734   2.419   5.095  0.3050  0.3549  0.1865
 2185SOL    HW118188   0.790   2.359   5.146 -2.0896 -2.0334 -0.0218
 2185SOL    HW218189   0.772   2.503   5.121  4.5716 -0.9678 -1.6314
 2186SOL     OW18190   0.372   4.260   3.471 -0.0229  0.1778 -0.2884
 2186SOL    HW118191   0.403   4.316   3.542  0.6547 -3.3964  2.2898
 2186SOL    HW218192   0.415   4.308   3.401 -0.6418 -0.8235 -1.3472
 2187SOL     OW18193   1.482   1.572   8.722 -0.2978 -0.8011 -0.4387
 2187SOL    HW118194   1.530   1.585   8.804 -0.5162 -0.6076 -0.3426
 2187SOL    HW218195   1.534   1.618   8.657 -0.3233  0.3980  0.4071
 2188SOL     OW18196   0.758   3.347   5.523 -0.0933  0.1923  0.5083
 2188SOL    HW118197   0.730   3.348   5.615  3.4422 -1.2074  1.5937
 2188SOL    HW218198   0.849   3.374   5.523  0.2120 -0.8583 -1.3788
 2189SOL     OW18199   1.940   1.931   3.501 -0.0357 -0.7372  0.0433
 2189SOL    HW118200   1.914   1.949   3.591 -0.2569  1.7628 -0.5465
 2189SOL    HW218201   2.035   1.918   3.507  0.1270  0.4588 -0.0329
 2190SOL     OW18202   4.560   3.809  16.656  0.2490 -0.1540  0.2202
 2190SOL    HW118203   4.611   3.852  16.587  0.4295 -0.3423  0.2355
 2190SOL    HW218204   4.470   3.811  16.621  0.9230  0.0175 -1.5250
 2191SOL     OW18205   3.305   0.198  16.842  0.2840  0.3741  0.4591
 2191SOL    HW118206   3.381   0.240  16.882 -0.4796  0.7881  1.4789
 2191SOL    HW218207   3.280   0.145  16.918 -0.6463 -3.0266 -2.2335
 2192SOL     OW18208   0.100   4.376   3.529  0.0991  0.4567 -0.3785
 2192SOL    HW118209   0.098   4.321   3.607 -0.8485 -0.9862 -1.3981
 2192SOL    HW218210   0.189   4.372   3.494 -0.1548 -0.5106 -0.9239
 2193SOL     OW18211   2.674   2.672   3.983  0.6617  0.3009  0.1148
 2193SOL    HW118212   2.742   2.644   4.045  2.1635  0.8059 -1.3164
 2193SOL    HW218213   2.608   2.687   4.051  2.1776  0.9668  1.4485
 2194SOL     OW18214   4.405   0.447  14.085 -0.1871  0.2640 -0.5144
 2194SOL    HW118215   4.399   0.484  14.173  0.6665  3.0892 -1.6472
 2194SOL    HW218216   4.343   0.374  14.090  0.7555 -0.5396 -0.6007
 2195SOL     OW18217   4.340   2.042  12.657 -0.2489  0.0985 -0.2646
 2195SOL    HW118218   4.307   2.032  12.568 -0.7334  2.1433 -0.3162
 2195SOL    HW218219   4.423   1.994  12.652  1.3503  2.5552  2.6141
 2196SOL     OW18220   1.132   3.208  13.011 -0.2766 -0.0932  0.1451
 2196SOL    HW118221   1.140   3.136  13.075 -0.7646 -1.4620 -1.3364
 2196SOL    HW218222   1.076   3.272  13.053 -1.4542 -0.0082 -1.5643
 2197SOL     OW18223   3.157   1.707   6.129  0.5652 -0.0261  0.2165
 2197SOL    HW118224   3.144   1.763   6.206 -0.6600  0.4982 -0.3632
 2197SOL    HW218225   3.246   1.678   6.145  0.9509  1.8485  1.4362
 2198SOL     OW18226   4.007   1.540  13.190  0.3467  0.0756 -0.0399
 2198SOL    HW118227   3.944   1.506  13.254  0.9292 -1.4075 -0.2482
 2198SOL    HW218228   3.976   1.630  13.181 -2.2430 -1.0482 -2.3631
 2199SOL     OW18229   4.702   0.504   7.377 -0.5858 -0.5537  0.1998
 2199SOL    HW118230   4.624   0.451   7.361 -0.5913  0.2333 -2.4637
 2199SOL    HW218231   4.689   0.547   7.461 -0.1900 -2.3733  1.1837
 2200SOL     OW18232   4.697   0.968  13.051 -0.0709 -0.3578  0.1950
 2200SOL    HW118233   4.722   0.996  12.963 -0.6438  1.6101  0.6528
 2200SOL    HW218234   0.040   0.963  13.103  1.3303  1.6571 -1.7531
 2201SOL     OW18235   3.193   2.209   2.216 -0.4389  0.4624 -0.1446
 2201SOL    HW118236   3.233   2.129   2.184 -1.1683  0.6672 -1.5422
 2201SOL    HW218237   3.161   2.252   2.137 -0.9720 -0.8163 -0.6119
 2202SOL     OW18238   1.924   3.562   7.531  0.0240  0.5049  0.3591
 2202SOL    HW118239   1.846   3.581   7.582  0.8347 -2.3171  2.6641
 2202SOL    HW218240   1.997   3.574   7.591  0.3478 -0.5561  0.1793
 2203SOL     OW18241   3.751   3.875   6.473 -0.2206  0.5230 -0.4435
 2203SOL    HW118242   3.708   3.808   6.420 -3.4865 -0.8686  4.0317
 2203SOL    HW218243   3.742   3.950   6.414  2.4945  0.6242 -0.7086
 2204SOL     OW18244   2.166   3.502   0.102  0.1918  0.1095 -0.9529
 2204SOL    HW118245   2.156   3.420   0.054  1.2744 -0.8666  0.4990
 2204SOL    HW218246   2.162   3.561   0.026  1.9037  0.4184 -0.8131
 2205SOL     OW18247   4.608   3.163   4.926  0.6769 -0.1754  0.2296
 2205SOL    HW118248   4.647   3.138   5.010 -0.4435 -0.4043  0.6850
 2205SOL    HW218249   4.526   3.195   4.965  1.1217  0.0725  0.9628
 2206SOL     OW18250   3.485   4.210   8.068  0.0658  0.0383 -0.9384
 2206SOL    HW118251   3.542   4.231   8.141 -2.5428 -0.9670  1.3866
 2206SOL    HW218252   3.402   4.253   8.089  0.0234 -0.9505  0.8787
 2207SOL     OW18253   0.827   4.173   8.046 -0.2792  0.7591 -0.2282
 2207SOL    HW118254   0.758   4.239   8.057 -0.0246  1.4095 -2.4910
 2207SOL    HW218255   0.868   4.176   8.132  1.1815  1.7254 -0.9465
 2208SOL     OW18256   3.190   4.571   2.973 -0.0663  0.8243  0.3700
 2208SOL    HW118257   3.257   4.538   2.914  0.2373  0.1277  1.1057
 2208SOL    HW218258   3.182   4.665   2.953 -3.0588  1.2072  3.2984
 2209SOL     OW18259   2.465   3.236   4.706  0.1515  0.0171  0.0208
 2209SOL    HW118260   2.524   3.216   4.778 -0.0285  1.5295  0.5868
 2209SOL    HW218261   2.510   3.311   4.667 -1.0836  0.9323  0.3437
 2210SOL     OW18262   1.552   3.861   2.712  0.1773  0.3333 -0.2594
 2210SOL    HW118263   1.543   3.957   2.716 -0.3837  0.2192  1.4141
 2210SOL    HW218264   1.527   3.841   2.622 -1.4854  1.2375 -0.0034
 2211SOL     OW18265   3.173   1.540   8.766 -0.0435  0.0923 -0.8464
 2211SOL    HW118266   3.158   1.461   8.818  0.3304  2.1480  2.3991
 2211SOL    HW218267   3.139   1.512   8.680 -0.8829 -0.7720 -0.2440
 2212SOL     OW18268   4.265   2.907   2.673  0.0354  0.2766  0.3100
 2212SOL    HW118269   4.359   2.903   2.656 -0.1900  1.5760 -1.2790
 2212SOL    HW218270   4.260   2.981   2.733  0.3503 -1.5630  2.5812
 2213SOL     OW18271   4.142   4.013  16.848  0.3633  0.1512  0.2419
 2213SOL    HW118272   4.179   4.100  16.832 -0.5061  0.2243 -1.4406
 2213SOL    HW218273   4.220   3.971  16.884 -0.0874  0.8876  2.0787
 2214SOL     OW18274   2.487   2.003   4.800 -0.1233  0.0822 -0.0250
 2214SOL    HW118275   2.517   2.094   4.797  1.1954 -0.3291  0.8587
 2214SOL    HW218276   2.544   1.958   4.739  0.0719  1.2288 -0.6934
 2215SOL     OW18277   3.028   0.041   0.336  0.9803 -0.0116 -0.4442
 2215SOL    HW118278   2.943   0.076   0.309 -0.0920 -1.6061  0.8848
 2215SOL    HW218279   3.024   4.701   0.280  1.5258  0.5244 -1.2391
 2216SOL     OW18280   0.774   3.756   4.996  0.3003 -0.2935  0.3652
 2216SOL    HW118281   0.865   3.741   5.020  1.3498 -0.1123 -3.5327
 2216SOL    HW218282   0.752   3.837   5.043 -1.2385  1.3719 -3.1930
 2217SOL     OW18283   3.092   0.204   1.732 -0.2707  0.0356 -0.0475
 2217SOL    HW118284   3.080   0.131   1.670  0.0719  0.4264 -0.5753
 2217SOL    HW218285   3.065   0.166   1.816  1.9704 -1.9149 -0.1698
 2218SOL     OW18286   1.829   2.997   3.767  0.3709 -0.2250 -0.9872
 2218SOL    HW118287   1.913   2.954   3.784  0.8896  0.5010 -1.7247
 2218SOL    HW218288   1.769   2.930   3.800 -0.2116 -0.5853 -2.7458
 2219SOL     OW18289   1.403   2.105   1.998  0.0977 -0.0488 -0.6942
 2219SOL    HW118290   1.495   2.079   1.999  0.0865 -0.0198  2.0749
 2219SOL    HW218291   1.376   2.076   2.086 -2.5180  0.9743 -1.1570
 2220SOL     OW18292   0.125   4.726  15.913  0.5059 -0.2984  0.1060
 2220SOL    HW118293   0.185   0.058  15.886  0.5127 -0.3458 -0.0024
 2220SOL    HW218294   0.043   0.022  15.877 -0.0679 -0.9453  0.8056
 2221SOL     OW18295   0.949   4.563   6.819  0.3338 -0.8296  0.7807
 2221SOL    HW118296   0.906   4.545   6.735 -1.8880  2.1687  1.2836
 2221SOL    HW218297   1.044   4.561   6.804  0.0539  0.9336 -1.3842
 2222SOL     OW18298   4.129   0.992  14.542  0.4484  0.4670  0.1589
 2222SOL    HW118299   4.058   0.936  14.570 -0.1344  0.5393 -1.1774
 2222SOL    HW218300   4.204   0.933  14.552  1.0900  1.3154  0.4005
 2223SOL     OW18301   3.822   0.038   1.547 -0.6104 -0.3402 -0.0808
 2223SOL    HW118302   3.746   0.092   1.525 -1.4223 -1.0628  0.9558
 2223SOL    HW218303   3.897   0.081   1.507  0.1838 -0.1956  1.5543
 2224SOL     OW18304   3.888   3.722   6.971  0.0613  0.3973  0.0817
 2224SOL    HW118305   3.829   3.651   6.944 -0.2200  0.8537 -0.4892
 2224SOL    HW218306   3.914   3.758   6.887 -0.3708  2.1601  0.7143
 2225SOL     OW18307   3.759   0.093  16.131  0.0680  0.3051  0.1297
 2225SOL    HW118308   3.768   0.011  16.178  2.7280  0.2286 -0.5040
 2225SOL    HW218309   3.828   0.101  16.065  0.4785  1.9891  0.7617
 2226SOL     OW18310   1.770   4.735   9.021 -0.5937 -0.5721 -0.0773
 2226SOL    HW118311   1.687   4.699   8.990 -2.5797  0.8493  3.5769
 2226SOL    HW218312   1.760   0.093   9.017 -0.8530 -0.5065  1.8773
 2227SOL     OW18313   1.324   1.073   2.308 -0.3202  0.4669  0.2408
 2227SOL    HW118314   1.372   1.051   2.387 -1.2750 -3.0866 -0.1746
 2227SOL    HW218315   1.313   1.168   2.313 -0.5456  0.4757 -0.3738
 2228SOL     OW18316   2.717   2.295  11.517  0.0224  0.5052 -0.1400
 2228SOL    HW118317   2.732   2.336  11.432 -1.6354 -0.5181 -0.9426
 2228SOL    HW218318   2.790   2.234  11.517 -0.8209 -0.4991 -0.8046
 2229SOL     OW18319   1.332   3.664   8.783 -0.4418  0.1229 -0.1411
 2229SOL    HW118320   1.292   3.699   8.862  1.7087 -0.1811  1.1058
 2229SOL    HW218321   1.303   3.724   8.714  0.0033  1.0086  0.4479
 2230SOL     OW18322   4.111   1.285   6.654 -0.4250  0.0510 -0.5041
 2230SOL    HW118323   4.158   1.232   6.719  2.1336 -0.2265 -2.5418
 2230SOL    HW218324   4.091   1.356   6.715 -3.0221 -1.5631  0.4912
 2231SOL     OW18325   4.573   0.658   3.196  0.5681  0.4256  0.6463
 2231SOL    HW118326   4.503   0.607   3.236 -0.4559  0.0259 -1.6744
 2231SOL    HW218327   4.633   0.590   3.165  0.6580 -0.2683  2.3535
 2232SOL     OW18328   0.484   0.471  17.422 -0.6242 -0.1008 -0.1457
 2232SOL    HW118329   0.394   0.478  17.389 -0.3829  0.1141 -0.7450
 2232SOL    HW218330   0.486   0.537  17.492  1.1873 -0.2449 -0.0639
 2233SOL     OW18331   2.535   3.973  16.786  0.2765  0.1339 -0.9851
 2233SOL    HW118332   2.593   3.901  16.812  0.5697 -0.1658 -2.4671
 2233SOL    HW218333   2.467   3.918  16.746 -0.2316  1.1072 -1.4564
 2234SOL     OW18334   2.126   0.719   7.365  0.2210  0.1981  0.0622
 2234SOL    HW118335   2.073   0.735   7.443 -0.1876  0.0548 -0.1868
 2234SOL    HW218336   2.069   0.657   7.320  0.0921  1.6848 -1.7907
 2235SOL     OW18337   0.249   4.691   5.827  0.3057  0.2975 -0.4713
 2235SOL    HW118338   0.296   4.608   5.823  0.3018  0.3711 -2.2298
 2235SOL    HW218339   0.239   4.720   5.736  1.1002  0.6111 -0.4557
 2236SOL     OW18340   3.422   3.491   3.203 -1.1330  0.3308  0.3345
 2236SOL    HW118341   3.464   3.435   3.137 -1.9255  1.0785 -0.8079
 2236SOL    HW218342   3.412   3.570   3.149  0.8743 -0.2980 -0.9536
 2237SOL     OW18343   3.163   3.260  13.142 -0.2675 -0.1287  0.3464
 2237SOL    HW118344   3.069   3.280  13.135 -0.1082  1.0911  1.5784
 2237SOL    HW218345   3.212   3.334  13.104 -1.8990  1.1635  0.7422
 2238SOL     OW18346   4.542   3.497   5.372  0.2358 -0.0486  0.6456
 2238SOL    HW118347   4.517   3.460   5.457  2.4981 -0.1018  1.2918
 2238SOL    HW218348   4.601   3.426   5.346 -2.3441 -0.5103 -3.9404
 2239SOL     OW18349   3.526   0.272  12.794 -0.2277 -0.7872 -0.6757
 2239SOL    HW118350   3.475   0.342  12.835 -0.8760 -0.3244 -2.2679
 2239SOL    HW218351   3.456   0.230  12.743  0.7948 -1.3604 -1.5994
 2240SOL     OW18352   4.724   0.848   4.359 -0.3033 -0.3377  0.1327
 2240SOL    HW118353   0.004   0.806   4.275  0.1641 -2.1117  1.1139
 2240SOL    HW218354   4.630   0.867   4.357  0.3394  2.9844  1.7460
 2241SOL     OW18355   0.151   0.982  13.215 -0.3800  0.4455 -0.1737
 2241SOL    HW118356   0.182   1.066  13.247  2.0030 -1.2715  1.9362
 2241SOL    HW218357   0.202   0.925  13.272  0.1179  1.8740  0.7880
 2242SOL     OW18358   4.346   0.608   4.207 -0.2013 -0.7392 -0.4725
 2242SOL    HW118359   4.389   0.524   4.224  0.0303 -0.2658  1.2201
 2242SOL    HW218360   4.255   0.590   4.232  0.0355 -1.5949 -0.2309
 2243SOL     OW18361   1.678   2.615   6.453 -0.2931  0.3539  0.0574
 2243SOL    HW118362   1.754   2.588   6.505  0.1276  2.0662  0.3087
 2243SOL    HW218363   1.685   2.708   6.472  2.2619  0.3104 -0.6453
 2244SOL     OW18364   1.279   3.227  12.589  0.1464  0.0043 -0.2393
 2244SOL    HW118365   1.248   3.263  12.505  2.6302  0.7091 -0.8459
 2244SOL    HW218366   1.364   3.203  12.553 -0.6876  0.2141 -2.3742
 2245SOL     OW18367   1.634   3.136   8.857  0.2441  0.5668 -0.1043
 2245SOL    HW118368   1.585   3.171   8.932  0.2483  0.4090 -0.0280
 2245SOL    HW218369   1.714   3.189   8.858  0.5165  0.0759  3.2652
 2246SOL     OW18370   3.983   1.390   3.701 -0.5093  0.1939  0.1431
 2246SOL    HW118371   3.896   1.357   3.725  0.2839 -2.6275 -0.8301
 2246SOL    HW218372   4.008   1.453   3.769  0.3236  0.6727 -0.6128
 2247SOL     OW18373   2.207   4.474   5.926 -0.1394  0.5650  0.3609
 2247SOL    HW118374   2.302   4.457   5.927 -0.0777  0.8475 -2.8565
 2247SOL    HW218375   2.210   4.567   5.902 -0.2792  0.0841 -1.5066
 2248SOL     OW18376   3.455   2.639  13.338 -0.4811  0.1186 -0.2134
 2248SOL    HW118377   3.420   2.615  13.252 -1.3593 -1.9738  0.7450
 2248SOL    HW218378   3.430   2.732  13.340  0.3751  0.4410 -3.5289
 2249SOL     OW18379   0.715   3.464   5.760  0.0429 -0.2032 -0.3440
 2249SOL    HW118380   0.668   3.541   5.794  0.1384 -0.5329  0.5410
 2249SOL    HW218381   0.803   3.499   5.748 -0.4685  0.7662 -1.2960
 2250SOL     OW18382   1.510   3.928   7.757 -0.4279  0.0538 -0.4558
 2250SOL    HW118383   1.598   3.923   7.795  0.0120  3.5070 -1.0580
 2250SOL    HW218384   1.512   4.019   7.728 -0.1478  0.4843  0.9250
 2251SOL     OW18385   0.359   0.055  11.177  0.7621  0.0405 -0.0184
 2251SOL    HW118386   0.390   4.732  11.244  1.2418 -0.2311 -0.4826
 2251SOL    HW218387   0.319   0.121  11.234 -0.3183 -1.8951  1.4493
 2252SOL     OW18388   4.059   3.335   6.928 -0.2717  0.1530  0.1776
 2252SOL    HW118389   4.096   3.423   6.933  0.6903 -0.2510  0.1406
 2252SOL    HW218390   4.093   3.296   7.009  1.6068 -2.5802 -1.9246
 2253SOL     OW18391   0.942   0.448   5.932 -0.1327 -0.3332  0.2521
 2253SOL    HW118392   0.935   0.415   5.843  0.9382 -1.5646  0.6040
 2253SOL    HW218393   1.029   0.422   5.965  0.6668  0.3039 -1.3755
 2254SOL     OW18394   3.912   2.771   3.801 -0.1603 -0.2941  0.3183
 2254SOL    HW118395   3.991   2.824   3.814 -0.5874  0.8732 -1.8026
 2254SOL    HW218396   3.845   2.837   3.782  0.9742  1.1403  1.2573
 2255SOL     OW18397   3.517   2.995  17.010  0.5727 -0.0437 -0.3684
 2255SOL    HW118398   3.499   3.078  17.052 -0.4030  0.5409 -1.9289
 2255SOL    HW218399   3.531   3.018  16.918  0.0215  1.4276 -0.0760
 2256SOL     OW18400   3.477   0.468  13.472 -0.0216 -0.2998  0.4914
 2256SOL    HW118401   3.492   0.427  13.557  2.8120  0.1695  0.2054
 2256SOL    HW218402   3.416   0.539  13.493  0.0404  0.3834 -1.6554
 2257SOL     OW18403   2.531   3.075   4.186  0.1265  0.0378  0.3931
 2257SOL    HW118404   2.524   3.081   4.091 -0.2976  0.7444  0.4714
 2257SOL    HW218405   2.457   3.132   4.206 -0.9336 -0.4812 -2.0515
 2258SOL     OW18406   1.101   2.052  14.969 -0.7332 -0.2452 -0.5537
 2258SOL    HW118407   1.085   2.145  14.951  1.7566  0.5352  1.3067
 2258SOL    HW218408   1.046   2.017  14.899  2.1725 -1.2327 -2.3321
 2259SOL     OW18409   0.353   2.402   4.820 -0.2393 -0.3795 -0.1959
 2259SOL    HW118410   0.444   2.424   4.838 -0.5931 -0.1619  1.3426
 2259SOL    HW218411   0.364   2.312   4.790 -1.3960 -0.8356  0.7630
 2260SOL     OW18412   4.023   1.984   7.470  0.0936 -0.7115 -0.0466
 2260SOL    HW118413   3.972   1.945   7.398  0.8425  0.4344 -1.2004
 2260SOL    HW218414   4.112   1.955   7.448  0.8375  2.6584 -1.5330
 2261SOL     OW18415   0.384   0.780  10.950 -0.2207 -0.2067  0.0053
 2261SOL    HW118416   0.423   0.793  10.864  0.6551 -1.7280  0.1728
 2261SOL    HW218417   0.403   0.865  10.990  1.1367 -0.0462 -1.0010
 2262SOL     OW18418   3.220   1.693  11.291  0.7618 -0.3004 -0.7691
 2262SOL    HW118419   3.173   1.670  11.211 -2.4234  1.4091  0.6487
 2262SOL    HW218420   3.150   1.693  11.355  1.5732  0.6751  0.1002
 2263SOL     OW18421   3.565   2.404   9.247 -0.1278  0.4589  0.1087
 2263SOL    HW118422   3.566   2.417   9.342  2.5272  0.1419  0.1197
 2263SOL    HW218423   3.600   2.488   9.218 -0.7343  0.9723  0.8680
 2264SOL     OW18424   3.901   3.469   2.689  0.2960 -0.2456  0.3578
 2264SOL    HW118425   3.957   3.545   2.674  2.5936 -1.6948  1.4779
 2264SOL    HW218426   3.894   3.422   2.606 -0.8464  2.1455 -0.8990
 2265SOL     OW18427   0.112   0.300   8.253 -0.3535 -0.3712 -0.0162
 2265SOL    HW118428   0.123   0.381   8.202  0.3901 -1.6307 -1.8350
 2265SOL    HW218429   0.130   0.234   8.187  0.3312 -0.5058  0.3089
 2266SOL     OW18430   1.282   1.575   6.027 -0.1064 -0.2727  0.3697
 2266SOL    HW118431   1.250   1.619   5.948  0.9182 -0.3939 -0.1184
 2266SOL    HW218432   1.194   1.567   6.064 -0.7660  0.4370 -1.0563
 2267SOL     OW18433   1.802   1.028   3.330 -0.0216 -0.4059 -0.8152
 2267SOL    HW118434   1.738   0.959   3.310  0.5326 -1.5422  1.2978
 2267SOL    HW218435   1.889   0.995   3.306  0.4809  0.1646  0.1983
 2268SOL     OW18436   1.447   0.202  11.486 -0.3746  0.0704  0.0546
 2268SOL    HW118437   1.485   0.277  11.534  0.3499  0.4676 -1.1419
 2268SOL    HW218438   1.485   0.230  11.403 -0.8748  0.6233  0.0133
 2269SOL     OW18439   4.233   0.503   1.993 -0.4211 -0.2477 -0.2347
 2269SOL    HW118440   4.215   0.585   2.039 -0.5553  0.2707 -1.2125
 2269SOL    HW218441   4.203   0.444   2.062  0.5774 -0.2986  0.1673
 2270SOL     OW18442   2.849   2.138   8.467  0.5034 -0.2402 -0.2072
 2270SOL    HW118443   2.811   2.200   8.529  0.4445  0.8218 -1.3170
 2270SOL    HW218444   2.923   2.117   8.524  1.9901  1.3838 -1.5591
 2271SOL     OW18445   1.402   1.490   3.873  0.7221  0.4124 -0.2527
 2271SOL    HW118446   1.414   1.569   3.925  0.4583 -1.1735  2.2142
 2271SOL    HW218447   1.489   1.489   3.832  1.1422  1.9459  0.5967
 2272SOL     OW18448   1.031   3.352   9.799 -0.2596  0.0376  0.2795
 2272SOL    HW118449   1.006   3.414   9.868  1.2368 -0.9287  1.6941
 2272SOL    HW218450   0.944   3.323   9.775  0.3172  1.2057 -3.1429
 2273SOL     OW18451   2.423   1.485   4.203  0.1859  0.0532 -0.0239
 2273SOL    HW118452   2.413   1.538   4.125  0.0085 -0.6378 -0.4727
 2273SOL    HW218453   2.501   1.435   4.178  0.5020 -0.4018  1.8519
 2274SOL     OW18454   3.017   0.746   8.984  0.4201  0.4322 -0.1948
 2274SOL    HW118455   2.993   0.750   9.077 -0.2215 -0.2379 -0.3284
 2274SOL    HW218456   3.097   0.693   8.983 -0.6533 -1.1557 -1.0750
 2275SOL     OW18457   0.886   0.997  12.433 -0.4511 -0.0701 -0.5118
 2275SOL    HW118458   0.956   1.038  12.485  0.0247 -1.7761  0.1834
 2275SOL    HW218459   0.882   1.052  12.355 -0.7675  0.6349  0.0031
 2276SOL     OW18460   1.703   1.768   7.925 -0.4677  0.2203  0.2781
 2276SOL    HW118461   1.614   1.739   7.905 -0.0711  1.0622 -2.7983
 2276SOL    HW218462   1.711   1.756   8.019 -1.0918  1.6100  0.5067
 2277SOL     OW18463   1.768   4.615   4.115 -0.1661  0.0420 -0.2159
 2277SOL    HW118464   1.706   4.550   4.082 -0.2373  0.0561 -0.1135
 2277SOL    HW218465   1.733   4.697   4.080  1.1040  0.9940  0.7391
 2278SOL     OW18466   4.505   3.503   6.409 -0.0549 -0.5823  0.3444
 2278SOL    HW118467   4.440   3.469   6.347  2.1203 -3.1955 -0.5178
 2278SOL    HW218468   4.450   3.548   6.473 -0.5634 -0.4084 -0.2112
 2279SOL     OW18469   0.413   1.678  16.627 -0.1586 -0.1959  0.8542
 2279SOL    HW118470   0.419   1.587  16.598 -2.0345 -1.4169  4.2769
 2279SOL    HW218471   0.323   1.685  16.658 -1.9794 -0.4820 -4.4029
 2280SOL     OW18472   0.976   0.560  10.581  0.1739  0.8106  0.1067
 2280SOL    HW118473   0.968   0.625  10.651  1.8818 -0.2814  1.3101
 2280SOL    HW218474   1.036   0.498  10.622 -0.3247 -1.0998 -2.0489
 2281SOL     OW18475   1.022   0.769  12.190  0.0960  0.2800 -0.6855
 2281SOL    HW118476   0.952   0.828  12.161 -1.0431 -0.7811 -0.1093
 2281SOL    HW218477   1.018   0.705  12.118 -1.5716  1.9786 -2.1230
 2282SOL     OW18478   3.385   4.321   7.487 -0.3015  0.3214  0.3510
 2282SOL    HW118479   3.352   4.344   7.574 -1.9427 -1.1952  0.1328
 2282SOL    HW218480   3.334   4.380   7.431 -1.4854 -2.0114 -1.0178
 2283SOL     OW18481   1.487   3.698  17.068 -0.3396 -0.2408  0.1940
 2283SOL    HW118482   1.492   3.687  16.973  0.0457 -0.8924  0.2866
 2283SOL    HW218483   1.508   3.791  17.074 -2.2062  0.1629  0.4668
 2284SOL     OW18484   3.738   0.194   7.820  0.6451 -0.6000  0.0876
 2284SOL    HW118485   3.689   0.146   7.887 -0.6982  0.7206  0.0603
 2284SOL    HW218486   3.827   0.162   7.834  0.3796 -2.8514 -3.3358
 2285SOL     OW18487   0.056   0.541   5.341 -0.4208 -0.5031  0.4028
 2285SOL    HW118488   0.110   0.537   5.261 -1.1258  0.1477 -0.1115
 2285SOL    HW218489   4.713   0.497   5.313 -1.1343 -0.0792  1.8105
 2286SOL     OW18490   1.891   3.057  12.367  0.4020  0.5347 -0.2187
 2286SOL    HW118491   1.983   3.079  12.379 -0.0279  2.2568 -0.0059
 2286SOL    HW218492   1.861   3.126  12.308  1.4685  1.0169 -0.2010
 2287SOL     OW18493   3.244   1.807   8.823  0.3992  0.3011  0.5257
 2287SOL    HW118494   3.225   1.715   8.806 -0.4204  0.6052 -0.2386
 2287SOL    HW218495   3.163   1.844   8.859 -0.4318  0.3326 -1.4066
 2288SOL     OW18496   0.820   4.674   4.610  0.3722 -0.3953  0.1023
 2288SOL    HW118497   0.891   4.701   4.552  0.1759 -1.4339 -0.6302
 2288SOL    HW218498   0.766   0.015   4.601  2.0905  0.4552 -2.6445
 2289SOL     OW18499   4.399   3.988  13.892 -0.4705  0.2693  0.3170
 2289SOL    HW118500   4.419   4.007  13.800 -0.3393 -0.2433  0.2400
 2289SOL    HW218501   4.397   4.077  13.928 -0.5596 -0.7893  2.8930
 2290SOL     OW18502   0.256   1.730   8.967 -0.4387 -0.2556 -0.0116
 2290SOL    HW118503   0.249   1.641   8.932  0.8517 -0.3080 -0.1481
 2290SOL    HW218504   0.188   1.784   8.927  1.3308 -0.1858 -2.8860
 2291SOL     OW18505   3.665   0.365   6.030 -0.3727 -0.2680 -0.4989
 2291SOL    HW118506   3.667   0.272   6.005 -1.0690 -0.5605  0.5579
 2291SOL    HW218507   3.584   0.356   6.080 -1.1167 -0.7226 -1.7853
 2292SOL     OW18508   2.687   2.703   2.224  0.8478 -0.0581  0.2878
 2292SOL    HW118509   2.694   2.610   2.250 -1.7410  0.0862  1.4302
 2292SOL    HW218510   2.681   2.741   2.312  0.2904  1.1366 -0.2842
 2293SOL     OW18511   0.602   0.467   8.787  0.0602 -0.2405 -0.0152
 2293SOL    HW118512   0.585   0.435   8.698 -0.0425  0.3213 -0.1956
 2293SOL    HW218513   0.513   0.488   8.816 -0.3261 -0.9437 -0.6743
 2294SOL     OW18514   1.048   3.469   7.790  0.2540 -0.2843  0.5052
 2294SOL    HW118515   1.057   3.374   7.792  4.4463  0.0924 -1.4693
 2294SOL    HW218516   1.127   3.503   7.833 -0.2521  1.6738 -0.1054
 2295SOL     OW18517   0.430   2.283   5.436  0.1873  0.1211  0.1536
 2295SOL    HW118518   0.475   2.198   5.433  0.6913  0.3168  2.0656
 2295SOL    HW218519   0.448   2.313   5.347  1.2889  1.6764  0.8939
 2296SOL     OW18520   2.521   1.745   6.431  0.3577 -0.0559  0.0986
 2296SOL    HW118521   2.536   1.833   6.399  2.4719 -0.8545 -1.0552
 2296SOL    HW218522   2.532   1.761   6.525 -1.4459 -0.1507  0.3242
 2297SOL     OW18523   3.689   1.830   7.092  0.1006  0.0459  0.2169
 2297SOL    HW118524   3.686   1.925   7.087  1.4166  0.0230 -0.8979
 2297SOL    HW218525   3.655   1.825   7.003  5.1354 -2.6794 -1.5485
 2298SOL     OW18526   1.455   3.921  11.223 -0.1920 -0.3273  0.1166
 2298SOL    HW118527   1.395   3.907  11.296 -0.6941  0.3609 -0.1590
 2298SOL    HW218528   1.537   3.881  11.251  0.4606 -0.4755 -1.9502
 2299SOL     OW18529   1.772   1.464   7.965  0.0373  0.3596  0.3670
 2299SOL    HW118530   1.682   1.488   7.988 -0.3882 -0.5986 -0.3004
 2299SOL    HW218531   1.799   1.547   7.928 -1.0614  1.2688  1.6000
 2300SOL     OW18532   0.698   4.431  10.743  0.4952 -0.8307  0.7329
 2300SOL    HW118533   0.716   4.345  10.704  0.8655  0.1596 -1.2479
 2300SOL    HW218534   0.687   4.401  10.834  0.6559  0.8519  1.3043
 2301SOL     OW18535   3.167   1.055   4.889 -0.3082  0.4999 -0.0418
 2301SOL    HW118536   3.161   1.117   4.962  1.9134  0.8595 -0.1779
 2301SOL    HW218537   3.174   0.970   4.933  0.3072 -0.1583 -1.4042
 2302SOL     OW18538   3.995   4.006  17.411 -0.1965 -0.1512 -0.2089
 2302SOL    HW118539   4.090   3.995  17.408  0.0620  1.6149  1.1498
 2302SOL    HW218540   3.958   3.923  17.441  0.3169 -0.5405 -0.6586
 2303SOL     OW18541   2.055   2.275  17.457  0.2514 -0.3071  0.2056
 2303SOL    HW118542   1.963   2.253  17.473 -0.3912  1.3785 -1.1973
 2303SOL    HW218543   2.051   2.327  17.377 -0.8297  0.4388  0.7465
 2304SOL     OW18544   3.631   0.671   2.255 -0.8421 -0.0973  0.1454
 2304SOL    HW118545   3.687   0.665   2.177  0.0259 -0.7145  0.8115
 2304SOL    HW218546   3.690   0.632   2.319 -1.2786  0.9506  1.1800
 2305SOL     OW18547   0.760   4.709   1.721  0.0532 -0.6329  0.1206
 2305SOL    HW118548   0.780   4.670   1.636  0.4403  0.9540 -0.5144
 2305SOL    HW218549   0.688   0.034   1.712 -0.3274 -1.2357 -1.0754
 2306SOL     OW18550   3.678   4.326   7.451  0.6299 -0.3466  0.0414
 2306SOL    HW118551   3.588   4.345   7.426  1.1230 -0.4457 -1.8232
 2306SOL    HW218552   3.697   4.248   7.398  0.5343 -0.5653  0.3279
 2307SOL     OW18553   2.820   1.110   5.741 -0.6187  0.2571  0.9504
 2307SOL    HW118554   2.821   1.085   5.833 -2.4138 -0.2036  0.8429
 2307SOL    HW218555   2.794   1.033   5.690  0.3194  0.4237  0.2134
 2308SOL     OW18556   3.221   1.174   0.429 -0.4353 -0.2328 -0.0516
 2308SOL    HW118557   3.181   1.260   0.420  0.0644  0.0427  0.3445
 2308SOL    HW218558   3.276   1.162   0.351 -0.1761 -0.0683  0.1049
 2309SOL     OW18559   1.089   0.820  15.675  0.0467 -0.0358 -0.2914
 2309SOL    HW118560   1.144   0.806  15.753 -1.0255 -0.5970  0.3703
 2309SOL    HW218561   1.013   0.872  15.701 -1.9932 -2.6251 -1.0363
 2310SOL     OW18562   2.037   4.406   2.409 -0.1506 -0.0115 -0.7728
 2310SOL    HW118563   1.979   4.482   2.401 -0.1400  0.0204 -0.5396
 2310SOL    HW218564   2.051   4.377   2.319  0.3170  1.6528 -1.2466
 2311SOL     OW18565   0.971   1.790   1.360 -0.2015  0.3157 -0.3270
 2311SOL    HW118566   1.057   1.786   1.318 -1.6145 -1.4634 -3.0527
 2311SOL    HW218567   1.001   1.814   1.448  0.6427  1.3550 -0.9037
 2312SOL     OW18568   4.086   0.255   7.387 -0.2326 -0.4545  0.1726
 2312SOL    HW118569   4.176   0.285   7.406 -0.1051 -0.3586 -0.5881
 2312SOL    HW218570   4.103   0.197   7.313  1.2230 -0.3823  0.4453
 2313SOL     OW18571   3.554   0.559   8.660  0.3794  0.0949 -0.1454
 2313SOL    HW118572   3.623   0.621   8.684  0.7027 -0.0308 -0.7370
 2313SOL    HW218573   3.552   0.570   8.564  0.8673 -0.5742 -0.2322
 2314SOL     OW18574   3.545   2.682   1.749 -0.3884 -0.4004 -0.6586
 2314SOL    HW118575   3.521   2.589   1.751 -0.9600 -0.3018 -2.8895
 2314SOL    HW218576   3.586   2.691   1.663 -0.7832 -0.5291 -0.8589
 2315SOL     OW18577   4.490   2.501   8.260  0.2965  0.6348 -0.2973
 2315SOL    HW118578   4.560   2.447   8.296 -0.0248  1.7314  1.9654
 2315SOL    HW218579   4.499   2.578   8.316 -0.4249  0.1662  0.4596
 2316SOL     OW18580   1.098   4.332   7.547  0.5009 -0.0788 -0.0347
 2316SOL    HW118581   1.105   4.427   7.534  0.9147 -0.1054  0.0075
 2316SOL    HW218582   1.159   4.323   7.620 -0.4767  3.2459  1.2353
 2317SOL     OW18583   1.212   4.158   8.667 -0.3124  0.1997  1.0876
 2317SOL    HW118584   1.208   4.106   8.748 -5.4686 -1.1496 -0.0218
 2317SOL    HW218585   1.123   4.149   8.632  0.5266 -1.5133 -0.5774
 2318SOL     OW18586   0.085   1.011  15.653  0.5328  0.5863  0.5931
 2318SOL    HW118587   0.101   1.105  15.660 -0.3264  0.7449  0.4713
 2318SOL    HW218588   0.170   0.968  15.663 -1.1733 -1.9745  3.6807
 2319SOL     OW18589   0.865   2.562  12.894  0.7304 -1.1314 -0.6229
 2319SOL    HW118590   0.879   2.574  12.800  0.5023 -1.2397 -0.6705
 2319SOL    HW218591   0.835   2.649  12.917  0.9809 -1.3392  0.4741
 2320SOL     OW18592   2.158   0.602  10.638  0.1692 -0.2364 -0.6161
 2320SOL    HW118593   2.106   0.578  10.714 -1.0681 -0.9772 -1.7124
 2320SOL    HW218594   2.139   0.527  10.582  0.7739  0.5539 -1.8878
 2321SOL     OW18595   2.499   1.576  10.522 -0.9272 -0.1212 -0.4705
 2321SOL    HW118596   2.496   1.642  10.592 -0.8041 -0.4931 -0.1117
 2321SOL    HW218597   2.449   1.504  10.561  0.9314 -0.9614  0.3514
 2322SOL     OW18598   3.585   2.389   7.604  0.6771 -0.3432  0.3277
 2322SOL    HW118599   3.514   2.383   7.540  1.5527 -2.5082 -0.4639
 2322SOL    HW218600   3.648   2.425   7.542 -1.0256  0.1086 -1.1362
 2323SOL     OW18601   3.321   3.367   2.467 -0.1878 -0.4588  0.4227
 2323SOL    HW118602   3.291   3.296   2.523  2.1241 -1.4640  0.3851
 2323SOL    HW218603   3.415   3.356   2.457 -0.1058  1.0915 -0.4985
 2324SOL     OW18604   4.624   3.903   7.809  0.3554  0.3724  0.5460
 2324SOL    HW118605   4.716   3.898   7.784  0.0665 -0.8035 -0.3149
 2324SOL    HW218606   4.628   3.867   7.898  2.6518  0.0131  0.2974
 2325SOL     OW18607   2.934   2.457   0.261  0.0152 -0.1632 -0.7545
 2325SOL    HW118608   2.848   2.449   0.219 -0.9626 -0.4000  1.2691
 2325SOL    HW218609   2.932   2.552   0.271  0.9723 -0.2528  0.2839
 2326SOL     OW18610   1.714   2.820   8.760 -0.2671  0.3759  0.3125
 2326SOL    HW118611   1.727   2.746   8.701  1.5429  1.1491 -0.2841
 2326SOL    HW218612   1.701   2.776   8.844 -2.1768 -0.9096 -0.6786
 2327SOL     OW18613   3.971   2.714   7.426  0.2426  0.1049 -0.1495
 2327SOL    HW118614   3.987   2.807   7.408  0.7068  0.1769  0.6195
 2327SOL    HW218615   4.049   2.664   7.400  0.0390 -0.2555 -0.0634
 2328SOL     OW18616   3.529   1.224  10.201  0.1909 -0.0040 -0.4874
 2328SOL    HW118617   3.584   1.278  10.258  0.5914  1.6952 -2.4373
 2328SOL    HW218618   3.460   1.285  10.173  0.3781  0.1592 -0.5971
 2329SOL     OW18619   0.075   4.149   7.914  0.4955 -0.6702 -0.7395
 2329SOL    HW118620   0.051   4.238   7.890  2.1591  0.0029  0.0789
 2329SOL    HW218621   0.008   4.144   7.982  0.1629 -0.9732 -1.0955
 2330SOL     OW18622   1.629   1.000   2.949  0.1681  0.4545 -0.3506
 2330SOL    HW118623   1.659   1.089   2.964 -0.8572  0.3419  2.4870
 2330SOL    HW218624   1.664   0.944   3.019  0.1862  0.4632 -0.3528
 2331SOL     OW18625   3.951   1.374   2.294  0.4838 -0.1521  0.6198
 2331SOL    HW118626   4.008   1.431   2.345  2.3972 -0.2617 -1.3952
 2331SOL    HW218627   4.016   1.338   2.234 -0.7677 -0.4241 -0.5769
 2332SOL     OW18628   0.635   2.355   1.674 -0.1919 -0.4473 -0.1731
 2332SOL    HW118629   0.701   2.346   1.742 -2.1872 -1.7450  1.6039
 2332SOL    HW218630   0.568   2.291   1.698 -0.1264 -0.1298  0.8489
 2333SOL     OW18631   0.784   1.374   5.639  0.0048  0.0558  0.0328
 2333SOL    HW118632   0.772   1.442   5.573  2.1561  1.0988  0.7218
 2333SOL    HW218633   0.880   1.370   5.638  0.0460  1.4040 -1.7956
 2334SOL     OW18634   2.489   1.156  14.262 -0.7900  0.1925 -0.0910
 2334SOL    HW118635   2.466   1.227  14.322  3.5605  0.0481  1.7005
 2334SOL    HW218636   2.403   1.118  14.241 -0.2684 -1.2438  0.4209
 2335SOL     OW18637   4.624   1.189   5.277  0.2505 -0.5875  0.1931
 2335SOL    HW118638   4.599   1.099   5.255  0.8323 -0.2959 -1.6988
 2335SOL    HW218639   4.661   1.174   5.363 -1.5566 -2.1307  0.7122
 2336SOL     OW18640   4.125   4.454   8.066 -0.5380 -0.4238 -0.0538
 2336SOL    HW118641   4.119   4.451   7.970  1.3792 -0.3266 -0.1725
 2336SOL    HW218642   4.092   4.541   8.084 -0.0943  0.0990 -1.7863
 2337SOL     OW18643   0.850   0.436   7.627  0.4149  0.6011 -0.4154
 2337SOL    HW118644   0.787   0.367   7.649 -1.4454  2.6595  0.6857
 2337SOL    HW218645   0.832   0.442   7.533  0.5477 -0.5034 -0.5186
 2338SOL     OW18646   3.430   2.676   5.034  0.1511  0.1730  0.3596
 2338SOL    HW118647   3.434   2.635   5.120 -1.8747 -0.4981  0.1433
 2338SOL    HW218648   3.518   2.656   5.005 -0.3839  0.7380 -1.6757
 2339SOL     OW18649   4.457   3.091   6.236  0.3508  0.3323 -0.3242
 2339SOL    HW118650   4.552   3.091   6.240  0.2990  2.4494  0.9088
 2339SOL    HW218651   4.436   3.146   6.160 -1.2402 -1.6144 -1.3073
 2340SOL     OW18652   1.967   0.213   7.488  0.4007 -0.0326 -0.3156
 2340SOL    HW118653   2.020   0.219   7.567  0.3783 -0.8492 -0.2345
 2340SOL    HW218654   2.012   0.272   7.428  0.4268  0.6960  0.4223
 2341SOL     OW18655   3.706   3.492   6.887 -0.3067  0.2295 -0.0116
 2341SOL    HW118656   3.641   3.502   6.957 -1.9774 -2.1963 -1.2102
 2341SOL    HW218657   3.705   3.398   6.870 -2.6400 -0.0393  1.6522
 2342SOL     OW18658   4.594   0.448   8.166  0.1490 -0.3304 -0.6583
 2342SOL    HW118659   4.676   0.498   8.159 -0.1989  0.6032  2.1031
 2342SOL    HW218660   4.542   0.509   8.115  1.1095  1.0755  0.0387
 2343SOL     OW18661   3.702   0.972   4.558 -0.2759 -0.2741  0.0268
 2343SOL    HW118662   3.662   1.015   4.482 -0.8611  0.1728  0.5867
 2343SOL    HW218663   3.718   1.055   4.604 -1.0770  0.0293 -0.2214
 2344SOL     OW18664   1.797   1.868   6.087 -0.1622  0.4375 -0.0561
 2344SOL    HW118665   1.853   1.921   6.031  2.7728 -1.0332  1.4918
 2344SOL    HW218666   1.716   1.878   6.038  0.0654  0.9382 -0.3264
 2345SOL     OW18667   3.957   2.304   4.153  0.3634  0.5547 -0.4159
 2345SOL    HW118668   4.018   2.253   4.206  1.6281 -0.5117 -2.8871
 2345SOL    HW218669   3.992   2.387   4.186  1.9933  0.2304 -1.3296
 2346SOL     OW18670   2.638   1.416   0.839  0.0947 -0.6308  0.4595
 2346SOL    HW118671   2.611   1.329   0.810  0.2719 -0.4368 -0.2823
 2346SOL    HW218672   2.574   1.475   0.801  1.9889  1.2764  0.2515
 2347SOL     OW18673   2.814   2.173  15.303 -0.7015 -0.0332 -0.0241
 2347SOL    HW118674   2.877   2.129  15.246 -0.5171 -0.8393  0.7958
 2347SOL    HW218675   2.867   2.246  15.335 -0.8351  0.1144 -0.1397
 2348SOL     OW18676   2.928   3.183   9.403  0.0516  0.1568 -0.1204
 2348SOL    HW118677   2.857   3.246   9.394  0.0575  0.3606  1.1585
 2348SOL    HW218678   2.986   3.231   9.462  2.9003 -2.1829 -1.0039
 2349SOL     OW18679   0.686   3.574   5.291 -0.3648 -0.0412  0.4100
 2349SOL    HW118680   0.603   3.610   5.325 -1.3268 -0.1569 -1.8079
 2349SOL    HW218681   0.750   3.618   5.347  0.3286 -0.4372 -0.0761
 2350SOL     OW18682   2.860   2.236   8.978  0.1890 -0.4791 -0.3711
 2350SOL    HW118683   2.866   2.193   9.063  0.4896  2.0134  0.8780
 2350SOL    HW218684   2.821   2.323   8.993 -1.6994 -0.7994 -3.2447
 2351SOL     OW18685   3.558   2.494   2.495 -0.0608  0.1031  0.4900
 2351SOL    HW118686   3.652   2.474   2.491  0.3224  1.8372  1.0154
 2351SOL    HW218687   3.544   2.419   2.554  1.8098 -0.7985 -0.2078
 2352SOL     OW18688   3.740   2.937  13.389  0.1248  0.3940 -0.4229
 2352SOL    HW118689   3.704   2.921  13.301  0.3936  1.2175 -0.6759
 2352SOL    HW218690   3.763   3.030  13.387  0.6644  0.2629 -0.1782
 2353SOL     OW18691   1.863   3.278   6.905 -0.6322 -0.2427 -0.2050
 2353SOL    HW118692   1.827   3.189   6.897  1.7821 -1.2073 -0.2852
 2353SOL    HW218693   1.927   3.266   6.975 -1.4963 -1.4651  0.3923
 2354SOL     OW18694   2.716   3.139   5.966  0.2052  0.4973  0.5334
 2354SOL    HW118695   2.773   3.216   5.956  0.1708  0.5093  0.4257
 2354SOL    HW218696   2.774   3.088   6.022 -1.0178  0.9772  2.2156
 2355SOL     OW18697   2.540   3.085  12.568 -0.1947  0.1552  0.9597
 2355SOL    HW118698   2.465   3.031  12.545  0.7204 -0.6215 -0.1601
 2355SOL    HW218699   2.615   3.025  12.566 -0.8486 -0.5694 -1.1900
 2356SOL     OW18700   2.707   0.814   9.456 -0.0709  0.4448 -0.2846
 2356SOL    HW118701   2.687   0.887   9.515  0.9857 -1.8596  2.8858
 2356SOL    HW218702   2.747   0.746   9.510 -1.0376 -0.2999 -0.5041
 2357SOL     OW18703   3.343   0.458   5.301  0.2027 -0.8519 -0.2818
 2357SOL    HW118704   3.427   0.436   5.342  0.8014 -0.6140 -1.3772
 2357SOL    HW218705   3.371   0.466   5.210 -2.4514 -1.6195 -1.1428
 2358SOL     OW18706   2.230   0.952  12.180  0.6091  0.1990 -0.3918
 2358SOL    HW118707   2.165   0.881  12.181  0.7222  0.0895 -0.9220
 2358SOL    HW218708   2.209   0.982  12.269 -0.9296  0.0272 -0.6949
 2359SOL     OW18709   1.119   1.080   6.891 -0.0328 -0.3055  0.1376
 2359SOL    HW118710   1.042   1.044   6.848  0.2325  1.0190 -1.4393
 2359SOL    HW218711   1.102   1.103   6.982  1.0475  1.7946 -0.1690
 2360SOL     OW18712   1.360   2.621  17.405  0.1305 -0.5419  0.7229
 2360SOL    HW118713   1.335   2.680  17.334 -0.7069 -0.5047  1.0500
 2360SOL    HW218714   1.445   2.598  17.367 -0.0944 -0.6745  0.2946
 2361SOL     OW18715   1.076   1.359   7.960  0.4998 -0.1422  0.1080
 2361SOL    HW118716   1.081   1.271   7.999  0.0934 -0.4426 -0.5053
 2361SOL    HW218717   1.016   1.405   8.019  0.0317 -1.9542  1.0612
 2362SOL     OW18718   4.654   4.493   1.143  0.0730 -0.2156 -0.6557
 2362SOL    HW118719   0.000   4.461   1.176 -0.7583 -2.7958 -1.0714
 2362SOL    HW218720   4.609   4.500   1.227  0.0356 -0.2036 -0.6767
 2363SOL     OW18721   0.634   3.715   5.834 -0.1037  0.3166 -0.0983
 2363SOL    HW118722   0.711   3.739   5.886  0.5496  1.2069 -1.4772
 2363SOL    HW218723   0.635   3.793   5.778  3.2062  0.5224  0.2224
 2364SOL     OW18724   2.629   1.985   7.068  0.1736  0.6200  0.8338
 2364SOL    HW118725   2.562   2.033   7.019 -0.2922  0.0651  0.9259
 2364SOL    HW218726   2.579   1.964   7.147 -2.4031  0.9341 -0.7009
 2365SOL     OW18727   0.822   1.291   4.961  0.7137 -0.1273 -0.6342
 2365SOL    HW118728   0.834   1.233   4.886  0.2866 -0.1283 -0.7032
 2365SOL    HW218729   0.749   1.344   4.929  1.8702  0.7776 -1.7815
 2366SOL     OW18730   3.687   3.802   7.141 -0.0057 -0.4972  0.4807
 2366SOL    HW118731   3.652   3.814   7.052  5.3129 -0.6927 -1.6342
 2366SOL    HW218732   3.772   3.768   7.114 -0.9529 -2.2987 -0.2889
 2367SOL     OW18733   1.469   1.439  16.461  0.5129 -0.4952 -0.6876
 2367SOL    HW118734   1.535   1.431  16.393  2.2000  1.0477  0.7569
 2367SOL    HW218735   1.462   1.534  16.459 -0.6037 -0.5703 -0.6292
 2368SOL     OW18736   2.174   3.874   3.581 -0.0535  0.0410 -0.3868
 2368SOL    HW118737   2.131   3.794   3.610 -0.2800  0.3173  0.0268
 2368SOL    HW218738   2.267   3.853   3.588 -0.5601 -1.6767  1.2035
 2369SOL     OW18739   2.680   1.680  10.826  0.1589  0.1760  0.4267
 2369SOL    HW118740   2.740   1.607  10.839  2.2334  1.6016 -1.0825
 2369SOL    HW218741   2.738   1.749  10.858  0.4268 -0.4117  1.2005
 2370SOL     OW18742   0.267   1.640   2.417 -0.2521  0.0230 -0.0407
 2370SOL    HW118743   0.177   1.610   2.433 -1.2283  2.5410 -0.8369
 2370SOL    HW218744   0.262   1.638   2.322  0.4711 -1.9442 -0.0279
 2371SOL     OW18745   2.169   0.245  13.254 -0.1372 -0.4837 -0.9036
 2371SOL    HW118746   2.251   0.203  13.280  0.2570  0.4035 -0.7415
 2371SOL    HW218747   2.105   0.185  13.291  0.5953 -0.3675  0.5402
 2372SOL     OW18748   4.663   1.895   6.002  0.0230  0.2248 -0.4790
 2372SOL    HW118749   4.643   1.963   6.066  1.7528  0.8077 -0.5641
 2372SOL    HW218750   4.574   1.863   5.985 -0.3877  0.6677  0.8009
 2373SOL     OW18751   2.933   3.266   2.636 -0.2631 -0.5931  0.1490
 2373SOL    HW118752   2.974   3.350   2.657  0.9762 -0.7755 -1.5574
 2373SOL    HW218753   2.870   3.267   2.708  2.9136  3.0832  2.8930
 2374SOL     OW18754   1.095   2.625   6.484  0.7521  0.1045 -0.0203
 2374SOL    HW118755   1.078   2.642   6.391 -1.4469 -2.6924 -0.0968
 2374SOL    HW218756   1.162   2.558   6.477  1.0440  0.5157 -1.1604
 2375SOL     OW18757   1.030   4.596   9.084 -0.3706  0.3204  0.6877
 2375SOL    HW118758   0.954   4.654   9.076  0.2270  1.1117  0.7497
 2375SOL    HW218759   1.013   4.545   9.164 -0.9628 -0.4983  0.0361
 2376SOL     OW18760   0.230   4.073  16.155 -0.5954 -0.4157  0.3472
 2376SOL    HW118761   0.217   4.064  16.249  2.1448 -0.6803  0.6821
 2376SOL    HW218762   0.202   4.165  16.147  1.1712  0.1158  0.2852
 2377SOL     OW18763   3.339   1.011   7.612  0.1684  0.0533 -0.2413
 2377SOL    HW118764   3.269   0.947   7.622  0.1249 -0.1496 -1.8252
 2377SOL    HW218765   3.407   0.970   7.666  0.6834 -0.7642 -1.4929
 2378SOL     OW18766   2.770   3.796   8.583 -0.8109  0.0683  0.5879
 2378SOL    HW118767   2.812   3.881   8.568 -2.3739  0.7975  0.3063
 2378SOL    HW218768   2.742   3.767   8.496  3.2503  1.9266 -1.3538
 2379SOL     OW18769   1.629   0.818  15.225 -0.9639 -0.5589  0.3896
 2379SOL    HW118770   1.700   0.774  15.177  0.0768  1.1813  0.3373
 2379SOL    HW218771   1.672   0.902  15.242 -1.0448  0.0148 -2.2698
 2380SOL     OW18772   2.402   2.719   8.154 -0.1063  0.1328  0.0967
 2380SOL    HW118773   2.486   2.674   8.159 -0.0472  0.2150 -0.1453
 2380SOL    HW218774   2.440   2.799   8.190  1.5257 -0.0062 -1.3372
 2381SOL     OW18775   1.575   1.223   0.489 -0.2068  0.3533  0.0723
 2381SOL    HW118776   1.657   1.183   0.460  0.4319  2.8340 -1.5385
 2381SOL    HW218777   1.515   1.237   0.416  0.5721  2.3154 -0.1838
 2382SOL     OW18778   0.270   3.781  15.617  0.0697 -0.3629  0.0314
 2382SOL    HW118779   0.234   3.778  15.706 -2.1479  0.8912 -0.8104
 2382SOL    HW218780   0.194   3.782  15.558 -0.4693  2.3568  0.7742
 2383SOL     OW18781   0.800   2.474   7.657  0.4980 -0.0880  0.2105
 2383SOL    HW118782   0.841   2.527   7.588 -0.8418 -0.8985 -1.1988
 2383SOL    HW218783   0.862   2.401   7.667 -1.1638 -1.4591  0.6294
 2384SOL     OW18784   3.914   1.765   1.892 -0.6044  0.4319  0.0274
 2384SOL    HW118785   3.845   1.804   1.839 -0.3638 -0.7900 -1.1876
 2384SOL    HW218786   3.895   1.768   1.986  0.7574 -2.4752  0.4029
 2385SOL     OW18787   1.875   1.135   4.476 -0.0862 -0.3507  0.3886
 2385SOL    HW118788   1.943   1.200   4.456 -0.7807  0.0609 -0.6690
 2385SOL    HW218789   1.846   1.152   4.565 -0.2146  0.8690  0.1151
 2386SOL     OW18790   2.180   4.685  14.505 -0.1446 -0.9788 -0.2675
 2386SOL    HW118791   2.210   4.609  14.456  3.4002 -0.3958  0.9439
 2386SOL    HW218792   2.200   4.656  14.594 -0.2049  1.4431  0.5424
 2387SOL     OW18793   2.746   2.307   4.726  0.0339  0.4681  0.2788
 2387SOL    HW118794   2.785   2.327   4.641 -1.5124 -0.3153 -0.6281
 2387SOL    HW218795   2.783   2.225   4.759  1.5629 -0.1926 -3.1026
 2388SOL     OW18796   4.212   2.283  12.669 -0.0168  0.5052 -0.1902
 2388SOL    HW118797   4.255   2.302  12.586  1.2991  1.2749  0.6743
 2388SOL    HW218798   4.246   2.194  12.676 -1.5185 -0.1797 -1.6640
 2389SOL     OW18799   3.908   3.321  10.613 -0.3218 -0.6382 -0.0533
 2389SOL    HW118800   3.975   3.368  10.662 -0.9176  0.2953 -0.1214
 2389SOL    HW218801   3.869   3.270  10.684 -2.1073 -1.9911 -1.9879
 2390SOL     OW18802   1.206   2.916   3.166  0.3674  0.4650 -0.0112
 2390SOL    HW118803   1.247   2.979   3.108  0.0002  0.0777 -0.6891
 2390SOL    HW218804   1.124   2.897   3.120  0.1237  1.0641  0.1723
 2391SOL     OW18805   1.884   3.082   6.523  0.3410 -0.3601 -0.0252
 2391SOL    HW118806   1.974   3.059   6.547  0.5366  0.6615  0.2554
 2391SOL    HW218807   1.889   3.178   6.514  0.3874 -0.5786 -2.2902
 2392SOL     OW18808   4.409   1.492   9.699 -0.4850 -0.3681 -0.2078
 2392SOL    HW118809   4.348   1.420   9.717  2.1338 -2.1912  1.2784
 2392SOL    HW218810   4.358   1.565   9.735  1.3896 -0.6955  3.1173
 2393SOL     OW18811   2.224   2.282   5.599 -0.0642 -0.3515 -0.0283
 2393SOL    HW118812   2.186   2.255   5.515  1.3983 -0.8123 -0.5356
 2393SOL    HW218813   2.142   2.290   5.648 -0.5243 -0.5565 -0.7549
 2394SOL     OW18814   1.024   4.415   3.737  0.0763  0.3880  0.6302
 2394SOL    HW118815   1.044   4.407   3.644 -2.1593 -2.8528  0.4163
 2394SOL    HW218816   1.093   4.365   3.781 -0.0353 -1.3642 -1.1813
 2395SOL     OW18817   3.612   0.252   4.524 -0.1774  0.9027 -0.1442
 2395SOL    HW118818   3.555   0.176   4.526  2.0958 -0.8483 -1.7989
 2395SOL    HW218819   3.702   0.217   4.521 -0.2957  0.7937 -2.1107
 2396SOL     OW18820   0.209   2.778   1.776 -0.4170 -0.1062  0.3562
 2396SOL    HW118821   0.125   2.808   1.811 -0.9781  0.5171 -1.5644
 2396SOL    HW218822   0.268   2.821   1.839 -1.5352 -1.4001  2.2675
 2397SOL     OW18823   2.003   1.767   3.813  1.0111 -0.0670 -0.3010
 2397SOL    HW118824   1.921   1.774   3.863  1.0787  3.3715 -0.7282
 2397SOL    HW218825   2.004   1.857   3.782  0.4112 -0.4927 -1.5440
 2398SOL     OW18826   2.470   2.856   6.519 -0.6445  0.2498  0.3174
 2398SOL    HW118827   2.394   2.801   6.499 -0.7385  0.2576  0.6590
 2398SOL    HW218828   2.543   2.795   6.501  0.5536  1.6232  0.5241
 2399SOL     OW18829   2.037   2.152  12.836  0.2141  0.3640 -0.0516
 2399SOL    HW118830   2.039   2.196  12.751 -0.3338  2.8136  1.1945
 2399SOL    HW218831   1.994   2.067  12.831  1.0714 -0.0867  0.3331
 2400SOL     OW18832   3.995   4.626   8.982  0.3528  0.1492 -0.0026
 2400SOL    HW118833   4.042   4.617   8.899  1.1253  0.0919  0.4395
 2400SOL    HW218834   3.913   4.577   8.975  0.6655 -0.4130  0.2738
 2401SOL     OW18835   3.235   1.542   3.248  0.2478  0.1055  0.1061
 2401SOL    HW118836   3.309   1.555   3.306 -0.1382 -0.4069  0.7098
 2401SOL    HW218837   3.274   1.585   3.172  1.1566  1.1829  1.1767
 2402SOL     OW18838   0.775   1.849   4.389  0.7171 -0.1109  0.6990
 2402SOL    HW118839   0.729   1.848   4.305 -1.6230  1.9656  1.9818
 2402SOL    HW218840   0.716   1.902   4.443 -0.5866 -0.1446 -0.7005
 2403SOL     OW18841   1.554   0.430  11.595  0.4193  0.4025 -0.0896
 2403SOL    HW118842   1.522   0.515  11.625  0.0523  0.8684 -1.7962
 2403SOL    HW218843   1.592   0.444  11.508 -2.9632  0.7961 -1.5054
 2404SOL     OW18844   3.728   2.842   4.307 -0.0522  0.3487  0.0133
 2404SOL    HW118845   3.755   2.933   4.295 -0.3890  0.4885  0.3132
 2404SOL    HW218846   3.688   2.819   4.223  1.8071 -2.2856 -0.1510
 2405SOL     OW18847   2.148   0.868   4.206 -0.1187  0.1541  0.2114
 2405SOL    HW118848   2.082   0.862   4.276 -1.4894  0.1379 -1.0950
 2405SOL    HW218849   2.224   0.903   4.253  0.7891 -0.0739 -1.0956
 2406SOL     OW18850   3.215   0.233   9.186 -0.1659 -0.2214 -0.3263
 2406SOL    HW118851   3.168   0.193   9.113 -0.0849  0.7642 -0.9153
 2406SOL    HW218852   3.302   0.246   9.147  0.4022 -1.3637  0.5290
 2407SOL     OW18853   4.035   4.650   7.618  0.6291 -0.1037 -0.1607
 2407SOL    HW118854   3.976   4.575   7.621 -0.5788  0.8512 -0.0553
 2407SOL    HW218855   4.036   4.676   7.526  0.1790  0.7182  0.0710
 2408SOL     OW18856   3.291   1.970  13.896  0.1406  0.2269  0.1615
 2408SOL    HW118857   3.314   1.916  13.971 -1.9063 -0.2449  0.4637
 2408SOL    HW218858   3.353   1.931  13.834  2.0062  0.5581  1.8195
 2409SOL     OW18859   2.821   3.702  13.591 -0.2330  0.3207  0.2387
 2409SOL    HW118860   2.832   3.796  13.577  0.8539 -0.1654 -2.1962
 2409SOL    HW218861   2.872   3.675  13.514 -0.3482 -1.7396  0.8714
 2410SOL     OW18862   4.665   2.404   7.233 -0.7102 -0.3068 -0.1934
 2410SOL    HW118863   4.599   2.361   7.287 -0.8797 -0.9058 -0.8751
 2410SOL    HW218864   4.632   2.372   7.149 -1.0913  0.3060 -0.2780
 2411SOL     OW18865   0.145   2.104  14.701  0.2712  0.2263  0.2951
 2411SOL    HW118866   0.105   2.026  14.739  2.7459 -1.8626 -1.4551
 2411SOL    HW218867   0.220   2.058  14.666  0.7057  0.7778  0.4986
 2412SOL     OW18868   0.063   0.805  11.382  0.0275  0.5050 -0.8122
 2412SOL    HW118869   0.155   0.824  11.367  0.2210 -0.1810 -0.4608
 2412SOL    HW218870   0.020   0.844  11.305 -1.7841 -0.3115 -0.2311
 2413SOL     OW18871   1.061   1.085   1.868  0.2290  0.6799  0.0627
 2413SOL    HW118872   1.080   1.174   1.897  0.3973  0.4982  0.5115
 2413SOL    HW218873   1.136   1.064   1.813 -0.1806  0.5724 -0.4556
 2414SOL     OW18874   4.126   3.150   6.317 -0.7430 -0.1769 -0.0871
 2414SOL    HW118875   4.060   3.113   6.375  1.9009 -2.7339  1.2694
 2414SOL    HW218876   4.180   3.074   6.294  2.3622  1.4807  1.6276
 2415SOL     OW18877   4.054   3.670   6.531  0.0264  0.1448 -0.3038
 2415SOL    HW118878   4.037   3.576   6.531 -1.2403  0.3657 -1.2411
 2415SOL    HW218879   4.109   3.685   6.455 -2.2970  0.9123 -1.8352
 2416SOL     OW18880   2.962   1.192   7.541  0.3808  0.2858 -0.0542
 2416SOL    HW118881   2.973   1.283   7.568 -1.1866  0.4676  0.0185
 2416SOL    HW218882   2.873   1.198   7.506  0.8388  4.0226 -0.5731
 2417SOL     OW18883   0.109   1.337   2.433 -0.0108 -0.6900 -0.1433
 2417SOL    HW118884   0.196   1.348   2.473  0.2608 -0.8095 -0.7113
 2417SOL    HW218885   0.065   1.409   2.478 -0.2957 -2.4842  2.4645
 2418SOL     OW18886   0.940   1.010   7.157  0.1229  0.4173 -0.5988
 2418SOL    HW118887   0.896   0.954   7.092 -0.3745 -1.2820  1.1899
 2418SOL    HW218888   0.865   1.039   7.209  0.2452 -2.4837  1.2219
 2419SOL     OW18889   4.734   0.229  10.908  0.2588  0.0027 -0.2791
 2419SOL    HW118890   0.081   0.201  10.943 -0.1430 -2.2073 -1.0824
 2419SOL    HW218891   4.704   0.146  10.871 -2.2238  1.7020 -2.0897
 2420SOL     OW18892   1.599   2.967   9.245 -0.2109  0.1248  0.4718
 2420SOL    HW118893   1.637   2.909   9.311 -0.1720 -1.1060 -0.6278
 2420SOL    HW218894   1.524   3.003   9.292 -0.4450 -0.3298  0.4512
 2421SOL     OW18895   1.180   0.377  15.116  0.3866 -0.5505 -0.8413
 2421SOL    HW118896   1.274   0.375  15.131  0.6684 -0.3520 -2.6495
 2421SOL    HW218897   1.162   0.283  15.127 -0.0908 -0.4126 -0.4039
 2422SOL     OW18898   2.796   4.660  10.595 -0.3889 -0.4336 -0.0088
 2422SOL    HW118899   2.744   4.734  10.627 -0.4534 -1.4587  2.3048
 2422SOL    HW218900   2.879   4.706  10.582  0.0814 -1.2667  0.0791
 2423SOL     OW18901   1.751   4.502   7.491 -0.7975  0.0137  0.5719
 2423SOL    HW118902   1.826   4.463   7.446 -0.7880  0.0463  0.5598
 2423SOL    HW218903   1.749   4.588   7.450  2.6019 -0.1473  0.0620
 2424SOL     OW18904   2.549   1.802  16.954  0.1723  0.5527 -0.0690
 2424SOL    HW118905   2.469   1.794  16.902  1.0868  0.4338 -1.4471
 2424SOL    HW218906   2.594   1.725  16.919 -0.4821 -0.9353  2.3321
 2425SOL     OW18907   3.473   0.980   2.890 -0.1673 -0.1031 -0.1989
 2425SOL    HW118908   3.503   0.995   2.979  0.4934 -0.9106 -0.2793
 2425SOL    HW218909   3.400   1.042   2.887  0.3023  0.5182  1.1320
 2426SOL     OW18910   2.874   4.667   2.008 -0.0792  0.3690 -0.1159
 2426SOL    HW118911   2.903   4.611   1.937  0.6416 -0.3040  0.7180
 2426SOL    HW218912   2.800   4.618   2.044  1.6255 -0.8778  1.6345
 2427SOL     OW18913   1.555   3.289   3.253  0.3739  0.0267 -0.5977
 2427SOL    HW118914   1.568   3.306   3.346 -0.5067 -2.9073  0.0686
 2427SOL    HW218915   1.461   3.309   3.245  0.4297 -0.4577 -2.5002
 2428SOL     OW18916   1.063   4.483   1.727  0.1096 -0.4583 -0.0335
 2428SOL    HW118917   1.051   4.567   1.771 -2.5539 -1.0413  0.3871
 2428SOL    HW218918   1.064   4.505   1.634  1.3776  1.0150  0.3293
 2429SOL     OW18919   1.518   0.514  16.085  0.3947  0.2653 -0.5617
 2429SOL    HW118920   1.559   0.457  16.151  1.4490  0.7055 -0.8254
 2429SOL    HW218921   1.489   0.450  16.021  1.6562 -1.2066  0.3361
 2430SOL     OW18922   3.072   2.598   2.425 -0.0982 -0.4683 -0.0407
 2430SOL    HW118923   3.006   2.626   2.488 -0.5732  0.0913 -0.7938
 2430SOL    HW218924   3.032   2.614   2.340  3.6665  1.9529 -1.3334
 2431SOL     OW18925   4.049   3.495  10.799 -0.3990 -0.1662 -0.3103
 2431SOL    HW118926   3.988   3.504  10.871  0.6500  1.8162  0.3318
 2431SOL    HW218927   4.085   3.407  10.812  0.8931  0.5358  0.9207
 2432SOL     OW18928   3.049   2.059   4.473  0.3089  0.1207 -0.3025
 2432SOL    HW118929   3.095   2.142   4.465  1.5532 -0.5372  0.0088
 2432SOL    HW218930   3.101   2.014   4.406 -2.8208 -1.2227 -1.8015
 2433SOL     OW18931   1.774   0.972   9.199  0.0834  0.2135  0.6352
 2433SOL    HW118932   1.861   0.998   9.229  1.0900 -1.3092 -0.9519
 2433SOL    HW218933   1.774   0.883   9.236  0.1369  0.3999  1.0820
 2434SOL     OW18934   0.504   1.725  11.981  0.1284  0.0960 -0.0925
 2434SOL    HW118935   0.520   1.678  11.900  0.3751 -1.1423  0.6804
 2434SOL    HW218936   0.502   1.815  11.948 -1.1663 -0.3225 -1.1262
 2435SOL     OW18937   2.098   4.205   4.603  0.0209 -0.7269 -0.1674
 2435SOL    HW118938   2.145   4.124   4.582  0.5192 -0.4888  0.0333
 2435SOL    HW218939   2.072   4.228   4.514 -0.0676  0.0119  0.0504
 2436SOL     OW18940   0.962   3.398   4.484 -0.1228 -0.0171 -0.5719
 2436SOL    HW118941   0.924   3.378   4.399 -0.1253 -0.2691 -0.5124
 2436SOL    HW218942   0.887   3.392   4.543 -0.2194 -1.3410 -0.8349
 2437SOL     OW18943   3.868   1.753   3.527 -1.3569 -0.2153 -0.4543
 2437SOL    HW118944   3.942   1.809   3.503 -0.2506 -1.2944  0.4424
 2437SOL    HW218945   3.897   1.668   3.495 -2.8224 -1.4007  1.3472
 2438SOL     OW18946   2.775   0.784   6.172 -0.2301  0.1271  0.3152
 2438SOL    HW118947   2.704   0.845   6.193 -1.0515 -0.6801 -0.1252
 2438SOL    HW218948   2.840   0.841   6.133 -1.4942  1.3212 -0.0580
 2439SOL     OW18949   0.753   1.387   1.106  0.3768 -0.2305 -0.0825
 2439SOL    HW118950   0.815   1.427   1.046 -1.6152 -1.3542 -2.8712
 2439SOL    HW218951   0.780   1.297   1.092  2.5171  0.1988  1.3046
 2440SOL     OW18952   4.116   4.148   6.573  0.3494  0.2496  0.5659
 2440SOL    HW118953   4.168   4.075   6.607  0.6673 -0.7094 -2.0044
 2440SOL    HW218954   4.029   4.110   6.558 -0.3570  2.5415 -1.0943
 2441SOL     OW18955   4.499   4.356   3.288 -0.0507 -0.0952  0.2984
 2441SOL    HW118956   4.582   4.388   3.252 -0.6164  0.3610 -0.6071
 2441SOL    HW218957   4.525   4.268   3.313 -0.3116  0.0426  1.0372
 2442SOL     OW18958   2.669   0.295  12.051 -0.2789 -0.3771  0.0853
 2442SOL    HW118959   2.647   0.204  12.033 -1.1285 -0.1822  0.1125
 2442SOL    HW218960   2.586   0.333  12.082 -0.4278  0.9451 -1.9404
 2443SOL     OW18961   2.100   2.447  13.284  0.4621  0.2378 -0.0102
 2443SOL    HW118962   2.070   2.505  13.213 -2.9994 -0.3458  0.9736
 2443SOL    HW218963   2.194   2.467  13.281  0.3643  0.8037  0.8147
 2444SOL     OW18964   0.572   3.913   7.607 -0.8392  0.2388 -0.0520
 2444SOL    HW118965   0.659   3.877   7.623  0.0045  1.5907 -1.5347
 2444SOL    HW218966   0.563   3.988   7.667  1.6073 -0.0938  0.7305
 2445SOL     OW18967   1.985   1.369  14.724 -0.2179  0.2454 -0.1413
 2445SOL    HW118968   2.076   1.401  14.725 -0.1359 -0.0417  0.8806
 2445SOL    HW218969   1.954   1.400  14.809 -2.4964 -0.0499 -0.8737
 2446SOL     OW18970   2.276   0.326   7.233 -0.0039  0.2902 -0.2712
 2446SOL    HW118971   2.300   0.330   7.325  1.5827  0.7267 -0.7104
 2446SOL    HW218972   2.245   0.235   7.221 -0.0695  0.4565 -1.3819
 2447SOL     OW18973   0.561   1.814   0.355  0.3126  0.0026 -0.0666
 2447SOL    HW118974   0.615   1.801   0.276 -0.5375 -1.6851 -0.3700
 2447SOL    HW218975   0.475   1.825   0.315  0.5574  1.6946 -0.1344
 2448SOL     OW18976   0.941   2.032   1.918  0.0272  0.2368 -0.5093
 2448SOL    HW118977   1.000   1.968   1.959 -1.5786 -0.6382  0.4509
 2448SOL    HW218978   0.988   2.108   1.951  3.0080 -0.0597 -4.1827
 2449SOL     OW18979   2.467   3.022   7.272 -0.3582  0.2255 -0.2485
 2449SOL    HW118980   2.536   2.957   7.264  1.0889  1.9699 -1.7808
 2449SOL    HW218981   2.509   3.105   7.248  0.7244 -0.2464  0.0681
 2450SOL     OW18982   3.631   3.287  10.128  0.0901  0.2310  0.6271
 2450SOL    HW118983   3.595   3.376  10.122 -0.4902 -0.0039  0.6095
 2450SOL    HW218984   3.725   3.305  10.128 -0.0245  0.8319 -0.0909
 2451SOL     OW18985   2.910   3.566  16.700  0.3264  0.2844  1.0589
 2451SOL    HW118986   2.982   3.508  16.722  1.2365 -0.3226 -3.6495
 2451SOL    HW218987   2.950   3.649  16.727  0.9157  0.6050 -0.8064
 2452SOL     OW18988   3.213   0.884  15.926  0.1147  0.2728  0.1439
 2452SOL    HW118989   3.257   0.817  15.873  0.3070  1.7991 -1.6163
 2452SOL    HW218990   3.275   0.900  15.997 -0.2402  1.3262  0.2064
 2453SOL     OW18991   3.237   2.864   4.915  0.0888 -0.1693 -0.7959
 2453SOL    HW118992   3.163   2.834   4.968  1.0844 -0.4770  0.3949
 2453SOL    HW218993   3.308   2.809   4.948 -0.9545 -1.0519 -0.0277
 2454SOL     OW18994   2.294   3.217   2.766 -0.1710 -0.2897  0.5635
 2454SOL    HW118995   2.265   3.307   2.756 -1.7003 -0.5844  2.1529
 2454SOL    HW218996   2.209   3.172   2.757 -1.1657  1.8842 -0.8778
 2455SOL     OW18997   2.469   3.716   4.303  0.4169  0.0410 -0.4483
 2455SOL    HW118998   2.552   3.693   4.262  0.5785 -3.1931  1.7204
 2455SOL    HW218999   2.495   3.739   4.392 -0.2078  2.2522 -0.8382
 2456SOL     OW19000   2.620   2.303   6.155 -0.3467  0.1948 -0.0463
 2456SOL    HW119001   2.685   2.355   6.203  0.8057  1.0415 -2.5194
 2456SOL    HW219002   2.623   2.342   6.067 -0.2049  0.1523 -0.0604
 2457SOL     OW19003   1.754   3.808   7.507 -0.3177  0.1329 -0.1638
 2457SOL    HW119004   1.683   3.854   7.461 -0.1335 -0.3740 -0.9604
 2457SOL    HW219005   1.707   3.729   7.534 -0.6731 -0.4967 -2.5913
 2458SOL     OW19006   2.988   0.765   2.407 -0.6875  0.3281  0.0920
 2458SOL    HW119007   3.025   0.846   2.374 -0.7188 -0.2697 -1.4327
 2458SOL    HW219008   3.021   0.775   2.497  1.3662  1.5304 -0.7889
 2459SOL     OW19009   3.911   4.215   2.704  0.2588 -0.0016 -0.2936
 2459SOL    HW119010   3.925   4.253   2.617  1.0264 -0.1883 -0.2472
 2459SOL    HW219011   3.973   4.258   2.763 -0.7994  0.4257  0.5311
 2460SOL     OW19012   1.390   3.868   4.512  0.0381 -0.3108 -0.4639
 2460SOL    HW119013   1.467   3.848   4.565 -1.8816 -0.1178  2.3506
 2460SOL    HW219014   1.380   3.962   4.524  0.5485 -0.4048  0.6892
 2461SOL     OW19015   0.011   4.426   3.225 -0.5314 -0.8588  0.0258
 2461SOL    HW119016   0.061   4.474   3.291 -1.5558  0.8498 -0.4476
 2461SOL    HW219017   0.078   4.360   3.204  0.1780  0.5457 -2.1305
 2462SOL     OW19018   1.977   4.196   8.256  0.5086 -0.4675 -0.0522
 2462SOL    HW119019   1.964   4.117   8.308  2.0708 -0.7645 -0.1298
 2462SOL    HW219020   2.006   4.257   8.324 -1.2136 -0.5612  0.7754
 2463SOL     OW19021   2.912   1.697   7.468 -0.1472  0.2455 -1.0252
 2463SOL    HW119022   2.869   1.769   7.422 -1.2872  0.4179  0.3056
 2463SOL    HW219023   2.976   1.751   7.516 -2.5777  1.1801  1.1398
 2464SOL     OW19024   2.806   1.170  16.609 -0.1106  0.2027 -0.0904
 2464SOL    HW119025   2.733   1.192  16.667 -0.1995 -1.1051  0.2917
 2464SOL    HW219026   2.871   1.160  16.678 -0.8845  3.5630  1.1226
 2465SOL     OW19027   0.452   3.483  10.473  0.2262 -0.4394 -0.3092
 2465SOL    HW119028   0.409   3.410  10.517 -1.4291 -0.9821 -2.8470
 2465SOL    HW219029   0.529   3.432  10.448  0.5149 -0.1418 -0.0324
 2466SOL     OW19030   1.460   0.045   1.807  0.0769  0.2350 -0.1655
 2466SOL    HW119031   1.545   0.068   1.845  1.1411 -1.2571 -1.6534
 2466SOL    HW219032   1.431   4.707   1.858 -0.0144  0.0202 -0.5336
 2467SOL     OW19033   4.218   3.978   2.240 -0.5882  0.2522 -0.2243
 2467SOL    HW119034   4.181   3.893   2.264  0.1314  0.3492  1.2369
 2467SOL    HW219035   4.211   3.993   2.146 -0.9847 -0.4427 -0.3041
 2468SOL     OW19036   1.009   0.738  17.589 -0.3139 -0.5145 -0.2601
 2468SOL    HW119037   1.012   0.815  17.646 -1.5478  0.8316 -1.9785
 2468SOL    HW219038   0.954   0.676  17.636 -1.0992  0.9088  0.7106
 2469SOL     OW19039   1.915   0.252  12.305  0.0043 -0.3592 -0.3391
 2469SOL    HW119040   1.874   0.238  12.390 -0.7019 -2.4338 -1.0254
 2469SOL    HW219041   1.846   0.252  12.239  1.3607 -3.9936 -1.7744
 2470SOL     OW19042   0.250   0.422  11.301 -0.1791 -0.3734 -0.3653
 2470SOL    HW119043   0.192   0.424  11.225 -0.5553  0.5216 -0.0507
 2470SOL    HW219044   0.193   0.464  11.366  0.0751 -0.9358  0.2326
 2471SOL     OW19045   0.942   4.242   9.807  0.0737 -0.1843 -0.1358
 2471SOL    HW119046   0.910   4.295   9.734  1.7975  0.5194 -0.3754
 2471SOL    HW219047   1.036   4.255   9.820  0.0744 -0.2568 -0.0683
 2472SOL     OW19048   4.501   1.853   4.078 -0.5994 -0.2615  0.6004
 2472SOL    HW119049   4.556   1.784   4.041  0.7699  0.2873  1.6179
 2472SOL    HW219050   4.419   1.836   4.031 -0.9310 -0.5154  1.2781
 2473SOL     OW19051   0.717   3.304  13.111 -0.3760 -0.4836  0.4552
 2473SOL    HW119052   0.783   3.361  13.150  0.5206 -0.9844 -0.3183
 2473SOL    HW219053   0.654   3.364  13.073  0.2999  0.1078  0.2600
 2474SOL     OW19054   3.675   3.329   4.082 -0.1086  0.2832  0.1867
 2474SOL    HW119055   3.636   3.283   4.156 -1.4021 -0.7914 -1.1600
 2474SOL    HW219056   3.597   3.373   4.048  0.6339  0.4021 -1.3810
 2475SOL     OW19057   1.271   0.410   8.874  0.1183  0.2451 -0.5533
 2475SOL    HW119058   1.178   0.385   8.878  0.8784 -2.2501  1.7722
 2475SOL    HW219059   1.267   0.494   8.829  0.7207  2.4092  3.4353
 2476SOL     OW19060   3.046   1.577   3.636  0.0170  0.3969  0.1258
 2476SOL    HW119061   3.043   1.545   3.546  0.2924  1.8539 -0.4024
 2476SOL    HW219062   3.093   1.660   3.626 -0.2385  0.9195  3.1307
 2477SOL     OW19063   1.540   3.244   4.428  1.0312  0.0660 -0.8537
 2477SOL    HW119064   1.533   3.180   4.357 -0.8572 -1.3586  0.6193
 2477SOL    HW219065   1.484   3.310   4.389  1.4269 -0.7084 -2.7388
 2478SOL     OW19066   3.806   4.679   5.076 -0.1904  0.4671 -0.5354
 2478SOL    HW119067   3.736   4.623   5.108  1.0053 -0.7711 -0.0525
 2478SOL    HW219068   3.873   4.618   5.044 -1.4241 -0.5443 -1.1994
 2479SOL     OW19069   0.632   1.736   1.748  0.2811 -0.4657 -0.3271
 2479SOL    HW119070   0.714   1.698   1.780  3.2750  3.2193 -3.6052
 2479SOL    HW219071   0.595   1.669   1.690 -2.1784  0.8292 -0.2556
 2480SOL     OW19072   1.929   3.030   7.077  0.0695  0.0157 -0.1853
 2480SOL    HW119073   1.922   2.954   7.020 -0.7559 -1.1341  1.4347
 2480SOL    HW219074   2.020   3.056   7.066  0.1078  0.1752  0.4816
 2481SOL     OW19075   2.923   4.266   0.775  0.2160  0.2967  0.4879
 2481SOL    HW119076   2.938   4.192   0.716  3.2929  1.5762 -0.3212
 2481SOL    HW219077   2.835   4.244   0.806  0.0985 -0.6368 -0.4933
 2482SOL     OW19078   1.068   3.066  13.733  0.0944 -0.0371  0.4712
 2482SOL    HW119079   1.136   3.133  13.724 -0.3900  0.3052 -0.5519
 2482SOL    HW219080   1.073   3.017  13.651 -1.0608 -1.0397  0.9921
 2483SOL     OW19081   3.007   1.649   1.486 -0.0785 -0.0802 -0.6433
 2483SOL    HW119082   3.002   1.684   1.396 -0.2920  2.1606  0.2316
 2483SOL    HW219083   3.100   1.661   1.504  0.2829 -0.1967 -2.3934
 2484SOL     OW19084   0.615   0.716   5.846 -0.2750  0.3674 -0.1077
 2484SOL    HW119085   0.652   0.801   5.821  0.1024 -0.0308 -0.8879
 2484SOL    HW219086   0.524   0.746   5.853 -1.2357 -2.4228 -0.6217
 2485SOL     OW19087   1.322   3.987   8.364  0.0030  0.3411 -0.1827
 2485SOL    HW119088   1.356   3.944   8.443 -0.6666  0.5091  0.1959
 2485SOL    HW219089   1.269   4.046   8.418  0.7437  1.8170 -1.0622
 2486SOL     OW19090   0.976   2.047  15.290  0.2304  0.3346 -0.0705
 2486SOL    HW119091   0.927   1.993  15.228 -0.2994  0.4833  0.2218
 2486SOL    HW219092   0.985   2.126  15.235  1.4872  1.1336  1.2835
 2487SOL     OW19093   2.518   3.537   2.060  0.5516 -0.2500  0.4335
 2487SOL    HW119094   2.493   3.475   2.129 -0.8711  0.1963  0.3220
 2487SOL    HW219095   2.533   3.484   1.982 -0.5200  0.3561 -0.1942
 2488SOL     OW19096   1.415   1.154   8.428 -0.0636  0.0276 -0.3111
 2488SOL    HW119097   1.387   1.201   8.507  1.9483 -1.7479  1.4586
 2488SOL    HW219098   1.494   1.103   8.445 -0.4935 -0.9002 -1.1253
 2489SOL     OW19099   2.773   4.076   8.028 -0.4190 -0.1570  0.4085
 2489SOL    HW119100   2.751   4.106   7.940  2.6528 -4.8804 -1.9432
 2489SOL    HW219101   2.766   4.157   8.079  3.6852  0.1074  0.5539
 2490SOL     OW19102   0.003   1.150   4.341  0.0867 -0.0458  0.4747
 2490SOL    HW119103   0.077   1.194   4.383  1.4822 -1.1345 -0.8198
 2490SOL    HW219104   0.020   1.056   4.339  1.0856  0.1363  0.4985
 2491SOL     OW19105   4.220   2.718   0.989  0.2653 -0.2420 -0.2261
 2491SOL    HW119106   4.227   2.679   0.901  1.9272  1.2788 -0.7610
 2491SOL    HW219107   4.181   2.800   0.959  0.0168 -0.5517 -0.7491
 2492SOL     OW19108   4.497   0.937   4.924 -0.0098 -0.0315  0.1202
 2492SOL    HW119109   4.588   0.930   4.896 -0.5560  0.0664 -1.6744
 2492SOL    HW219110   4.484   0.846   4.952 -0.1417  0.5946  2.1036
 2493SOL     OW19111   0.209   1.772  12.701  0.3034 -0.0739 -0.0875
 2493SOL    HW119112   0.277   1.707  12.682  0.6192  0.6226 -1.3375
 2493SOL    HW219113   0.152   1.719  12.756 -0.0361  0.4179  0.0326
 2494SOL     OW19114   4.239   0.614   6.952 -0.0907  0.3243  0.3747
 2494SOL    HW119115   4.183   0.565   7.012 -0.6691 -0.2349 -0.6363
 2494SOL    HW219116   4.216   0.703   6.978  0.3284  1.2669 -2.4694
 2495SOL     OW19117   3.204   3.809   3.709  0.1414  0.2694 -0.0452
 2495SOL    HW119118   3.256   3.831   3.786  0.9440  0.8914 -0.7597
 2495SOL    HW219119   3.117   3.811   3.749 -0.5914  2.4601 -1.6608
 2496SOL     OW19120   0.102   0.572   8.171 -0.0814 -0.2404  0.2241
 2496SOL    HW119121   0.169   0.570   8.103 -1.0342  0.4190 -0.7400
 2496SOL    HW219122   0.116   0.660   8.208 -3.1011 -0.2946  1.4971
 2497SOL     OW19123   3.920   4.545  11.632  0.4170 -0.0144  0.5936
 2497SOL    HW119124   3.989   4.481  11.612 -1.9047 -2.0959 -0.6317
 2497SOL    HW219125   3.865   4.546  11.554  0.3045 -2.1339  0.6628
 2498SOL     OW19126   3.079   3.385   9.772  0.1551 -0.4046 -0.0209
 2498SOL    HW119127   3.158   3.351   9.731  0.4045  0.1790 -0.0205
 2498SOL    HW219128   3.016   3.361   9.704 -0.6501  0.9062  0.2651
 2499SOL     OW19129   4.067   3.670   2.658  0.5776 -0.2269  0.6910
 2499SOL    HW119130   4.051   3.700   2.747  2.4616  3.1920 -0.1431
 2499SOL    HW219131   4.158   3.646   2.674  1.4244  3.8093  1.7348
 2500SOL     OW19132   1.894   1.042   3.984 -0.2925 -0.1210  0.1765
 2500SOL    HW119133   1.812   1.070   3.943  1.0030  0.5220 -2.0350
 2500SOL    HW219134   1.943   1.124   3.993 -0.0897 -0.1241 -0.8361
 2501SOL     OW19135   1.010   3.033   3.309 -0.1788  0.3432  0.4479
 2501SOL    HW119136   1.074   3.023   3.238  0.8797 -1.9638  1.7570
 2501SOL    HW219137   0.924   3.033   3.265  0.7908 -0.5204 -1.4424
 2502SOL     OW19138   4.489   3.846  12.308 -0.2733 -1.0598  0.1433
 2502SOL    HW119139   4.460   3.926  12.263 -0.6374 -1.1241  0.2651
 2502SOL    HW219140   4.573   3.822  12.269 -1.3943 -0.0516 -2.9485
 2503SOL     OW19141   1.093   0.949   7.802 -0.1620 -0.1626  0.2421
 2503SOL    HW119142   1.027   0.894   7.845  0.6832 -2.2343 -1.0977
 2503SOL    HW219143   1.055   1.037   7.808  0.4078 -0.0362  2.0869
 2504SOL     OW19144   2.306   3.269   6.936 -0.0956 -0.2290 -0.0893
 2504SOL    HW119145   2.398   3.246   6.921  0.8197  3.4861 -0.3405
 2504SOL    HW219146   2.277   3.203   6.998 -0.5096 -1.3883 -1.5027
 2505SOL     OW19147   2.760   4.126   6.045  0.2852  0.1625 -0.3340
 2505SOL    HW119148   2.770   4.071   6.122  0.9569  1.1108  0.2599
 2505SOL    HW219149   2.740   4.058   5.981 -0.1009  1.4068 -1.5433
 2506SOL     OW19150   2.124   1.584  17.680  0.4470  0.0324  0.0453
 2506SOL    HW119151   2.057   1.521  17.654  0.2048  0.9012 -1.4517
 2506SOL    HW219152   2.095   1.664  17.635  0.3307  0.4581  0.8712
 2507SOL     OW19153   3.024   0.504   2.322 -0.0346 -0.4493  0.5864
 2507SOL    HW119154   3.092   0.531   2.260 -0.4437 -1.7441 -0.4198
 2507SOL    HW219155   3.001   0.588   2.361  0.4399 -0.1142  0.1535
 2508SOL     OW19156   4.126   1.928   0.115  0.0946 -0.1797 -0.0526
 2508SOL    HW119157   4.086   1.847   0.147 -0.8418 -0.0006 -0.7936
 2508SOL    HW219158   4.184   1.939   0.191  1.2116  0.6005 -1.0227
 2509SOL     OW19159   2.967   0.580  11.763  0.2796 -0.6497 -0.0577
 2509SOL    HW119160   2.910   0.543  11.830 -0.2357  0.3769  0.0768
 2509SOL    HW219161   3.053   0.588  11.804 -0.5448  0.2810  1.4876
 2510SOL     OW19162   0.410   3.582   7.166 -0.1378 -0.3986  0.0249
 2510SOL    HW119163   0.404   3.628   7.083  0.1142  2.3261  1.5267
 2510SOL    HW219164   0.409   3.494   7.129  1.5426 -1.0698  1.5723
 2511SOL     OW19165   0.305   4.462   7.336 -0.2547 -0.2861  0.2347
 2511SOL    HW119166   0.356   4.541   7.317  1.1715 -0.3036  3.9574
 2511SOL    HW219167   0.305   4.460   7.432  0.6578  0.8010  0.2562
 2512SOL     OW19168   3.050   1.668   7.820 -0.5388 -0.4801  0.2204
 2512SOL    HW119169   3.055   1.739   7.756 -2.0887 -2.3404 -1.9399
 2512SOL    HW219170   3.042   1.720   7.900 -0.2357 -1.7018  1.0427
 2513SOL     OW19171   0.138   0.882   2.202 -0.5424 -0.0266 -0.5413
 2513SOL    HW119172   0.048   0.858   2.178 -0.4718  0.3315 -1.1570
 2513SOL    HW219173   0.164   0.827   2.275 -1.6862  0.0259 -0.0934
 2514SOL     OW19174   3.743   2.565   9.586  0.2781  0.4396 -0.0072
 2514SOL    HW119175   3.655   2.588   9.556  0.0586  1.7987  1.6452
 2514SOL    HW219176   3.810   2.597   9.525 -0.6145 -0.8493 -1.6411
 2515SOL     OW19177   3.390   0.047   3.144 -0.4285  0.0892 -0.4599
 2515SOL    HW119178   3.371   0.069   3.052  1.0622  1.8285 -0.3621
 2515SOL    HW219179   3.411   0.127   3.192 -0.1470 -0.9520  1.1190
 2516SOL     OW19180   4.466   1.365   7.603 -0.7212  0.4976  0.2022
 2516SOL    HW119181   4.432   1.279   7.577  0.8099 -0.3716  1.0627
 2516SOL    HW219182   4.534   1.347   7.667  2.1255  0.1255 -2.9330
 2517SOL     OW19183   2.983   2.439  12.018  0.0949  0.4090  0.6032
 2517SOL    HW119184   2.897   2.478  12.005  0.0970  0.9128  2.0630
 2517SOL    HW219185   3.039   2.516  12.008  0.0422  0.3573 -0.0691
 2518SOL     OW19186   0.414   1.572   7.161 -0.4394  0.3039  0.0330
 2518SOL    HW119187   0.444   1.481   7.171 -0.9341  0.3246  1.6819
 2518SOL    HW219188   0.324   1.565   7.131 -0.5299  1.4359  0.0462
 2519SOL     OW19189   1.528   2.248   8.274 -0.3894 -0.1233  0.2602
 2519SOL    HW119190   1.558   2.329   8.317  0.6318 -0.7842  0.8095
 2519SOL    HW219191   1.486   2.271   8.191  1.1035 -1.7798 -0.9630
 2520SOL     OW19192   4.626   1.221   3.956  0.3385  0.1750  0.1284
 2520SOL    HW119193   4.604   1.138   3.915 -0.3899  0.7585 -0.6776
 2520SOL    HW219194   4.719   1.212   3.974  0.3352  0.5527  0.3405
 2521SOL     OW19195   3.187   3.891   7.870  0.0740 -0.2957  0.4381
 2521SOL    HW119196   3.169   3.966   7.814 -0.4839 -0.8298 -0.1016
 2521SOL    HW219197   3.168   3.820   7.809 -0.3383  1.5491 -1.5642
 2522SOL     OW19198   4.216   1.781   8.856  0.9860 -0.1148 -0.1744
 2522SOL    HW119199   4.273   1.786   8.779  0.3450 -2.3084 -0.8071
 2522SOL    HW219200   4.221   1.873   8.882  3.5285 -0.9488  2.1884
 2523SOL     OW19201   1.950   2.728   7.167  0.5112 -0.2494  0.1312
 2523SOL    HW119202   2.037   2.692   7.149  0.8542  0.7059 -0.0697
 2523SOL    HW219203   1.906   2.706   7.085 -0.3972 -0.5924  0.7165
 2524SOL     OW19204   3.206   1.193  14.874  0.5515 -0.6965  0.3729
 2524SOL    HW119205   3.206   1.203  14.970 -1.1377  2.5638  0.0528
 2524SOL    HW219206   3.288   1.241  14.861  0.3088 -0.6823 -1.0338
 2525SOL     OW19207   0.878   2.150   8.877 -0.3176  0.0531 -0.2012
 2525SOL    HW119208   0.910   2.134   8.789  0.0336  0.2212 -0.1034
 2525SOL    HW219209   0.901   2.066   8.915  0.2945 -0.2939 -1.3698
 2526SOL     OW19210   4.034   0.237   2.280 -0.0864  0.7708  0.1526
 2526SOL    HW119211   4.025   0.142   2.287 -0.8570  0.7732 -0.6918
 2526SOL    HW219212   3.944   0.266   2.263  0.7892  1.7170 -2.9717
 2527SOL     OW19213   2.818   3.901   7.228  0.2247  0.5473 -0.1407
 2527SOL    HW119214   2.785   3.940   7.309  1.2777  1.8203 -0.3301
 2527SOL    HW219215   2.806   3.968   7.161  0.5448 -0.2934 -1.0398
 2528SOL     OW19216   2.208   0.955   0.104  0.1031  0.6059  0.8487
 2528SOL    HW119217   2.219   0.901   0.025 -1.9981 -0.3921  1.2328
 2528SOL    HW219218   2.296   0.993   0.108 -0.0008  1.1371 -1.5853
 2529SOL     OW19219   0.664   0.026   4.372  0.4495 -0.4835 -0.2409
 2529SOL    HW119220   0.620   4.679   4.368  2.4801 -1.5128 -1.0440
 2529SOL    HW219221   0.748   0.016   4.326  0.7960  0.0284  0.2663
 2530SOL     OW19222   2.740   3.533   4.649  0.3625 -0.3928  0.0524
 2530SOL    HW119223   2.778   3.620   4.642  1.7340 -1.2565 -2.8794
 2530SOL    HW219224   2.648   3.557   4.662  1.6117  2.8115  3.0582
 2531SOL     OW19225   2.287   2.651   3.471  0.1379 -0.4308  0.1781
 2531SOL    HW119226   2.327   2.605   3.545 -0.9234 -0.1711  0.9009
 2531SOL    HW219227   2.228   2.714   3.513  1.3730  1.9852 -1.7128
 2532SOL     OW19228   4.194   3.895   4.678  0.6148 -0.3787  0.8862
 2532SOL    HW119229   4.280   3.859   4.699  0.7774 -1.0134 -0.8681
 2532SOL    HW219230   4.214   3.951   4.603  0.8101 -1.1805  0.3424
 2533SOL     OW19231   2.965   1.147  10.078  0.4384 -0.0739  0.5857
 2533SOL    HW119232   3.005   1.069  10.116 -1.5906 -1.9851 -1.1892
 2533SOL    HW219233   3.035   1.206  10.103  2.1055 -1.5049 -0.6693
 2534SOL     OW19234   1.461   3.351   2.097 -0.0624  0.0327 -0.1380
 2534SOL    HW119235   1.434   3.425   2.152 -0.1976 -0.3337  0.2865
 2534SOL    HW219236   1.518   3.302   2.156 -0.7521  0.1629  0.6419
 2535SOL     OW19237   1.855   2.053   8.286 -0.2403 -0.0142 -0.3080
 2535SOL    HW119238   1.822   2.136   8.250 -0.1886  0.3016  0.3862
 2535SOL    HW219239   1.898   2.007   8.214 -0.3486  0.1102 -0.4551
 2536SOL     OW19240   0.022   1.452   0.172  0.0755 -0.1154 -0.1329
 2536SOL    HW119241   0.074   1.532   0.178  0.4019 -0.5903  3.2091
 2536SOL    HW219242   0.072   1.392   0.227  3.1295  2.4474 -0.1112
 2537SOL     OW19243   3.692   3.850   7.785  0.1021  1.0672 -0.1814
 2537SOL    HW119244   3.733   3.847   7.698 -2.1796 -1.4855 -1.1884
 2537SOL    HW219245   3.631   3.924   7.778  0.5223  1.3339 -1.0740
 2538SOL     OW19246   1.274   2.848   9.236 -0.1970  0.4649  0.1584
 2538SOL    HW119247   1.270   2.878   9.146 -1.0430  2.4001  0.8233
 2538SOL    HW219248   1.322   2.919   9.278 -0.5643 -0.5059  2.2433
 2539SOL     OW19249   1.963   2.815   4.888  0.7308  1.1627  0.0804
 2539SOL    HW119250   2.006   2.881   4.834  1.1712  1.3084  0.6144
 2539SOL    HW219251   1.882   2.801   4.837  1.3164 -0.7286 -0.3243
 2540SOL     OW19252   3.949   4.179   3.825 -0.0705  0.4848 -0.2244
 2540SOL    HW119253   3.854   4.191   3.825  0.3447  3.6443  1.0273
 2540SOL    HW219254   3.973   4.197   3.734  1.5866  0.9189  0.2874
 2541SOL     OW19255   3.015   1.190  15.530 -0.4420  0.4327  0.0775
 2541SOL    HW119256   2.923   1.164  15.540 -0.7466  0.9348 -1.5383
 2541SOL    HW219257   3.054   1.106  15.557 -0.2301  0.2500 -0.8062
 2542SOL     OW19258   1.345   2.057   2.244  0.3692  0.4366 -0.3577
 2542SOL    HW119259   1.296   2.078   2.323 -0.6077 -0.7573 -0.6439
 2542SOL    HW219260   1.434   2.049   2.280 -0.0272 -0.4204  0.4371
 2543SOL     OW19261   2.903   0.109   7.687 -0.1684  0.0173 -0.4506
 2543SOL    HW119262   2.866   0.063   7.611  2.8124 -1.3901 -1.0558
 2543SOL    HW219263   2.891   0.200   7.659 -0.2267 -0.1817 -1.0712
 2544SOL     OW19264   3.819   3.116   9.625 -0.2408  0.0614  0.1968
 2544SOL    HW119265   3.790   3.131   9.535  1.5745  0.8285 -0.2756
 2544SOL    HW219266   3.759   3.174   9.671 -1.3549 -1.4717  0.6634
 2545SOL     OW19267   4.636   0.721   5.110 -0.3241  0.3503  0.2062
 2545SOL    HW119268   4.654   0.629   5.094 -1.8138 -0.3629  2.6727
 2545SOL    HW219269   4.709   0.758   5.059  0.1761  1.3430  1.6351
 2546SOL     OW19270   1.549   3.820   0.213 -0.0583  0.0338  0.1186
 2546SOL    HW119271   1.576   3.730   0.228 -1.1214 -0.3901 -0.5287
 2546SOL    HW219272   1.483   3.834   0.280 -0.4979 -2.3141  0.1742
 2547SOL     OW19273   1.699   4.625   5.425 -0.2404 -0.1870  0.3004
 2547SOL    HW119274   1.738   4.610   5.339 -0.3191  1.4225 -0.0266
 2547SOL    HW219275   1.689   4.720   5.415 -2.3305 -0.3655  0.6705
 2548SOL     OW19276   1.866   3.242  10.627  0.0980 -0.2945 -0.5905
 2548SOL    HW119277   1.789   3.185  10.637  0.5429 -1.1684 -2.0572
 2548SOL    HW219278   1.927   3.169  10.633  0.9511  0.3958 -0.8375
 2549SOL     OW19279   1.428   1.536  17.316  0.1646 -0.1657  0.2748
 2549SOL    HW119280   1.517   1.506  17.298 -0.0446 -1.1279  0.8133
 2549SOL    HW219281   1.373   1.470  17.272 -0.3798  0.2853  0.2765
 2550SOL     OW19282   3.739   2.815   6.471 -0.5848  0.0385 -0.0962
 2550SOL    HW119283   3.766   2.726   6.494  0.5664 -0.0133 -1.6627
 2550SOL    HW219284   3.684   2.791   6.397 -0.1322  2.3105 -1.1755
 2551SOL     OW19285   3.368   4.403   0.890 -0.2110  0.5665  0.0044
 2551SOL    HW119286   3.360   4.444   0.976  0.2657  1.2226 -0.2627
 2551SOL    HW219287   3.304   4.458   0.846 -0.1827 -1.1493 -2.1873
 2552SOL     OW19288   2.016   2.352   7.451  0.2778 -0.0352  0.0203
 2552SOL    HW119289   2.069   2.404   7.511  1.5979 -1.1822 -0.1720
 2552SOL    HW219290   1.977   2.425   7.401 -1.5539 -0.7529  0.3987
 2553SOL     OW19291   1.310   1.302  17.198  0.1916 -0.2253  0.2480
 2553SOL    HW119292   1.316   1.212  17.228  1.3539 -0.0111  0.6364
 2553SOL    HW219293   1.354   1.292  17.113 -1.2731 -0.8483 -0.4466
 2554SOL     OW19294   1.964   2.300   6.944  0.3499 -0.2433  0.0389
 2554SOL    HW119295   1.950   2.239   7.016 -1.0371  1.0436  0.8606
 2554SOL    HW219296   1.931   2.242   6.875  4.0685 -1.8003 -0.4061
 2555SOL     OW19297   0.005   1.341  11.800 -0.0728 -0.3254 -0.0377
 2555SOL    HW119298   4.699   1.259  11.821 -1.1091 -0.1407 -1.4464
 2555SOL    HW219299   4.690   1.403  11.851 -0.0993 -0.6291  0.2996
 2556SOL     OW19300   1.208   0.984  11.755 -0.2310  0.4402  0.0422
 2556SOL    HW119301   1.275   1.009  11.691  1.5287  1.0252  2.0943
 2556SOL    HW219302   1.181   1.070  11.789 -1.3416 -0.0037  0.2810
 2557SOL     OW19303   0.008   3.341   7.278  0.2751  0.3665 -0.4866
 2557SOL    HW119304   0.073   3.350   7.348 -0.7355 -0.6789  0.5944
 2557SOL    HW219305   4.680   3.282   7.317  1.9772  0.0544  1.8786
 2558SOL     OW19306   2.037   0.745  17.719  0.2297 -0.6838  0.4205
 2558SOL    HW119307   2.056   0.783   0.058 -0.3815 -0.4895  0.4693
 2558SOL    HW219308   1.942   0.755  17.713  0.1538 -2.0022 -0.4215
 2559SOL     OW19309   4.354   2.905   2.334  0.4652 -0.9061  0.8615
 2559SOL    HW119310   4.316   2.972   2.277  1.4602 -1.2555 -0.2035
 2559SOL    HW219311   4.349   2.956   2.415 -0.9897  0.3167  0.0086
 2560SOL     OW19312   3.752   3.666   2.833  0.4190 -0.2085 -0.1408
 2560SOL    HW119313   3.785   3.630   2.751 -0.9810  1.7983 -1.5912
 2560SOL    HW219314   3.721   3.755   2.817  1.9862  0.0510 -1.7283
 2561SOL     OW19315   1.712   1.398   2.704 -0.3929 -0.1248  0.3575
 2561SOL    HW119316   1.727   1.355   2.619 -1.9199 -0.0699  0.0640
 2561SOL    HW219317   1.619   1.377   2.711  0.1421 -1.7613  2.3696
 2562SOL     OW19318   3.704   1.391  17.136 -0.5825 -0.0165  0.2965
 2562SOL    HW119319   3.732   1.343  17.213 -0.8664  0.0312  0.4318
 2562SOL    HW219320   3.626   1.442  17.161 -0.4508 -0.4956  1.6203
 2563SOL     OW19321   0.954   2.568   7.444 -0.1117 -0.1725  0.2204
 2563SOL    HW119322   1.032   2.538   7.397  0.3447  2.7467 -0.8805
 2563SOL    HW219323   0.889   2.582   7.375 -1.1812  0.4843  1.3621
 2564SOL     OW19324   1.952   2.551   9.642 -0.0911 -0.4287  0.0125
 2564SOL    HW119325   2.019   2.619   9.631 -0.4177 -0.0519  0.3675
 2564SOL    HW219326   1.907   2.563   9.725 -1.4750 -1.2441 -0.6177
 2565SOL     OW19327   3.356   1.395   7.308  0.0266  0.0758 -0.1657
 2565SOL    HW119328   3.445   1.384   7.341  0.7409  1.9711 -1.4790
 2565SOL    HW219329   3.306   1.338   7.367 -0.7571  0.1477 -0.7518
 2566SOL     OW19330   1.249   2.287   1.349 -0.4988 -0.1781 -0.1238
 2566SOL    HW119331   1.258   2.326   1.436 -0.1387  0.4322 -0.4348
 2566SOL    HW219332   1.216   2.364   1.302 -3.8018 -0.8254  1.1435
 2567SOL     OW19333   2.888   1.551   8.596  0.0408  0.6035 -0.2043
 2567SOL    HW119334   2.845   1.631   8.564 -0.5794  0.2843 -0.1606
 2567SOL    HW219335   2.975   1.547   8.556  0.4250  0.7928  0.6206
 2568SOL     OW19336   3.276   1.721   6.901 -0.4092 -0.0497  0.2388
 2568SOL    HW119337   3.321   1.688   6.822 -0.6293 -0.0237  0.1037
 2568SOL    HW219338   3.276   1.646   6.961 -3.1704 -1.5102 -1.6091
 2569SOL     OW19339   3.355   0.800   5.450  0.3630  0.8707 -0.4732
 2569SOL    HW119340   3.421   0.749   5.404 -1.3817 -2.5776  0.8656
 2569SOL    HW219341   3.381   0.783   5.540 -0.7879  1.0817 -0.0934
 2570SOL     OW19342   1.666   3.087   3.122  0.0584 -0.1360  0.0205
 2570SOL    HW119343   1.613   3.131   3.188 -1.4148 -2.3084  0.2912
 2570SOL    HW219344   1.602   3.083   3.050 -0.0670  0.2943  0.1095
 2571SOL     OW19345   4.312   4.025   9.546 -0.7908  0.0508  0.5587
 2571SOL    HW119346   4.261   4.081   9.605 -0.2528 -0.8327  1.8624
 2571SOL    HW219347   4.338   4.085   9.476 -0.6436  0.2532  0.7889
 2572SOL     OW19348   0.976   2.334   4.148  0.1771 -0.3633  0.2781
 2572SOL    HW119349   0.944   2.248   4.176 -4.5772  1.0296 -0.8255
 2572SOL    HW219350   1.035   2.303   4.079 -1.0687  1.4942 -1.6058
 2573SOL     OW19351   4.531   1.837   3.659 -0.5364  0.4211  0.0275
 2573SOL    HW119352   4.461   1.814   3.598  1.8829 -1.7456 -1.9547
 2573SOL    HW219353   4.517   1.929   3.681  1.0782  0.7435 -0.2518
 2574SOL     OW19354   4.635   3.244   3.221 -0.6530 -0.6415  0.2680
 2574SOL    HW119355   4.577   3.172   3.194 -0.7876  0.2924 -1.9161
 2574SOL    HW219356   4.590   3.323   3.190 -0.9136 -0.1081  2.0085
 2575SOL     OW19357   3.383   2.366   2.772 -0.2061 -0.7810 -0.1822
 2575SOL    HW119358   3.300   2.321   2.759 -0.1569 -0.7718 -0.5137
 2575SOL    HW219359   3.447   2.315   2.723 -1.1126 -1.1017 -1.0238
 2576SOL     OW19360   3.493   0.548  13.170  0.3493 -0.5423  0.7012
 2576SOL    HW119361   3.426   0.580  13.231  1.4853  0.5057  1.4039
 2576SOL    HW219362   3.552   0.622  13.183  0.6768 -0.7324  0.2675
 2577SOL     OW19363   0.755   3.411   8.386 -0.6981 -0.2159 -0.4732
 2577SOL    HW119364   0.739   3.505   8.390 -0.3700 -0.1751 -0.0846
 2577SOL    HW219365   0.684   3.390   8.326  0.0007  0.2953 -1.4788
 2578SOL     OW19366   2.730   3.213  10.973 -0.0720 -0.4810 -0.2772
 2578SOL    HW119367   2.739   3.307  10.990  1.9681 -0.4338 -1.6822
 2578SOL    HW219368   2.709   3.192  11.064 -1.2987  1.9215 -0.0142
 2579SOL     OW19369   3.040   1.574   5.764 -0.3949 -0.9383 -0.3185
 2579SOL    HW119370   3.037   1.650   5.822  0.3934 -1.6905  0.7001
 2579SOL    HW219371   2.988   1.601   5.688 -1.6772  2.8020  1.8846
 2580SOL     OW19372   1.301   1.258   4.779 -0.1053 -0.1621 -0.5326
 2580SOL    HW119373   1.308   1.169   4.744  1.0370 -0.0391 -0.6033
 2580SOL    HW219374   1.260   1.236   4.862 -0.5691  0.9666 -0.4598
 2581SOL     OW19375   0.058   0.250   6.636 -0.3070  0.1653 -0.3549
 2581SOL    HW119376   0.068   0.191   6.562 -1.1729 -0.8446  0.3261
 2581SOL    HW219377   0.128   0.216   6.692  0.4734 -0.5501 -1.7703
 2582SOL     OW19378   1.188   1.169  17.536  0.4883 -0.3732 -0.4789
 2582SOL    HW119379   1.225   1.081  17.531 -2.9754 -1.7197 -2.4427
 2582SOL    HW219380   1.233   1.214  17.608  0.7023 -2.7420  0.8616
 2583SOL     OW19381   1.749   1.068   3.584 -0.0034 -0.2099  0.0487
 2583SOL    HW119382   1.747   1.052   3.489  1.1033  0.9116 -0.1667
 2583SOL    HW219383   1.710   1.155   3.588  0.6850  0.1012  0.1195
 2584SOL     OW19384   4.099   0.133   9.256  0.4659 -1.1814  0.0086
 2584SOL    HW119385   4.053   0.175   9.183 -0.0465  0.2663  1.1605
 2584SOL    HW219386   4.044   0.056   9.272  1.3346 -1.9051 -0.5269
 2585SOL     OW19387   1.963   1.347   2.012 -0.3463  0.0168  0.2909
 2585SOL    HW119388   1.975   1.438   1.986  0.8658  0.0007  0.7820
 2585SOL    HW219389   2.054   1.320   1.999 -0.7503 -0.3406 -1.7494
 2586SOL     OW19390   1.535   3.073   8.613  0.5575  0.4568 -0.1763
 2586SOL    HW119391   1.569   3.062   8.702  0.9224  0.0344 -0.3674
 2586SOL    HW219392   1.609   3.099   8.558  0.2544 -0.1325 -0.8620
 2587SOL     OW19393   2.175   0.515   7.799 -0.0322 -0.5302 -0.5491
 2587SOL    HW119394   2.227   0.527   7.719 -1.1085  1.9042 -0.8633
 2587SOL    HW219395   2.162   0.420   7.809  0.7141 -0.5035  0.7005
 2588SOL     OW19396   1.679   3.405  13.362  0.0892  0.1633 -0.5956
 2588SOL    HW119397   1.762   3.416  13.317 -0.2641  1.8385 -0.8606
 2588SOL    HW219398   1.642   3.489  13.336  0.5265  0.9367  1.2596
 2589SOL     OW19399   3.901   1.721   7.988  0.2023  0.4022 -0.0209
 2589SOL    HW119400   3.928   1.706   8.079  1.0302 -3.7990 -0.9839
 2589SOL    HW219401   3.823   1.775   8.005  1.0497  0.9184  2.2952
 2590SOL     OW19402   3.623   0.885   0.629 -0.3029  0.1731  0.3443
 2590SOL    HW119403   3.602   0.792   0.630  1.7823 -0.3168 -0.5660
 2590SOL    HW219404   3.540   0.929   0.613 -0.8024 -1.0806 -0.4356
 2591SOL     OW19405   2.855   4.425   6.830 -0.1586  0.6357  0.3230
 2591SOL    HW119406   2.824   4.388   6.913 -2.0392  1.7894  0.1286
 2591SOL    HW219407   2.844   4.355   6.765 -1.4246  1.1335 -0.0025
 2592SOL     OW19408   3.384   0.048   4.584 -0.2256 -0.0251  0.8322
 2592SOL    HW119409   3.314   0.109   4.607  0.5220  0.0518  2.8979
 2592SOL    HW219410   3.414   0.019   4.670  2.3305  1.4682  0.4572
 2593SOL     OW19411   0.476   2.781   3.336 -0.3599  0.4840 -0.2704
 2593SOL    HW119412   0.391   2.757   3.374  0.7299 -1.6666  0.8107
 2593SOL    HW219413   0.501   2.872   3.353 -1.1173  0.6162  0.1160
 2594SOL     OW19414   0.530   2.000   6.556  0.4433 -0.0519 -0.4089
 2594SOL    HW119415   0.521   2.093   6.577 -1.7323 -0.2666 -0.4297
 2594SOL    HW219416   0.446   1.973   6.593  1.6470 -0.5030  1.9819
 2595SOL     OW19417   3.376   2.744  12.598 -0.0725  0.2891 -0.6938
 2595SOL    HW119418   3.354   2.827  12.641 -0.1087 -0.4681  0.7076
 2595SOL    HW219419   3.394   2.679  12.665 -2.4091  1.0236  0.6511
 2596SOL     OW19420   0.488   2.386   7.235 -0.1665 -0.2316 -0.1920
 2596SOL    HW119421   0.453   2.424   7.154  0.5578 -0.1406 -0.4596
 2596SOL    HW219422   0.465   2.293   7.226  0.4296 -0.2582 -1.4590
 2597SOL     OW19423   0.498   0.402   6.185 -0.3932 -0.1664  0.1520
 2597SOL    HW119424   0.459   0.489   6.175  0.5999  0.1399 -1.1618
 2597SOL    HW219425   0.492   0.372   6.094 -0.7579  1.2227 -0.2871
 2598SOL     OW19426   1.915   4.260   7.964  0.4591 -0.0466  0.2875
 2598SOL    HW119427   1.979   4.248   8.034  0.4761  0.0470  0.2882
 2598SOL    HW219428   1.835   4.230   8.005  1.1694  0.5834  2.1272
 2599SOL     OW19429   0.225   4.107   8.225 -0.3100  0.0712  0.9740
 2599SOL    HW119430   0.257   4.182   8.174  0.8134 -1.2820 -0.2951
 2599SOL    HW219431   0.133   4.103   8.197  0.3635 -0.0562 -1.1884
 2600SOL     OW19432   2.338   0.839   3.287  0.1169  0.5353 -0.5675
 2600SOL    HW119433   2.421   0.869   3.324 -0.3393  0.7330  0.3122
 2600SOL    HW219434   2.332   0.750   3.321 -0.4525  1.1490  0.9643
 2601SOL     OW19435   1.369   2.075   2.506  0.3975 -0.1189 -0.1003
 2601SOL    HW119436   1.356   2.111   2.594 -0.8019 -2.3249  0.6237
 2601SOL    HW219437   1.429   2.002   2.525  0.0672 -0.0892  1.0574
 2602SOL     OW19438   4.333   3.293   3.349  0.3646  0.2298  0.4346
 2602SOL    HW119439   4.365   3.275   3.438  1.1223 -2.3180 -0.3736
 2602SOL    HW219440   4.310   3.204   3.325 -0.9733  0.6697  0.0940
 2603SOL     OW19441   0.308   3.435   3.728  0.3118 -0.0138  0.1314
 2603SOL    HW119442   0.270   3.455   3.643 -0.6093  0.5421  0.6733
 2603SOL    HW219443   0.400   3.416   3.711 -0.0553 -0.8853 -0.8311
 2604SOL     OW19444   0.339   1.217   7.570 -0.4343 -0.5114  0.0925
 2604SOL    HW119445   0.435   1.218   7.568 -0.4690  1.6150  0.3011
 2604SOL    HW219446   0.319   1.307   7.595  2.5464  0.5627 -1.4286
 2605SOL     OW19447   1.865   2.728   6.128  0.2365  0.0488 -0.3835
 2605SOL    HW119448   1.790   2.680   6.164 -0.1412  1.7501  1.1347
 2605SOL    HW219449   1.837   2.820   6.136 -0.2504 -0.2494  1.3383
 2606SOL     OW19450   4.088   2.378   6.226 -0.0932  0.0269 -0.0884
 2606SOL    HW119451   4.047   2.361   6.141 -1.2392  0.8995  0.2927
 2606SOL    HW219452   4.167   2.417   6.190  0.4999  0.2015  1.4333
 2607SOL     OW19453   3.777   1.954   0.176 -0.0160 -0.3064  0.3165
 2607SOL    HW119454   3.796   1.868   0.138  2.7952 -0.2864  1.6459
 2607SOL    HW219455   3.689   1.942   0.213 -0.1167  0.4513  0.3220
 2608SOL     OW19456   2.822   4.388   6.068 -0.1539 -0.9045 -0.3281
 2608SOL    HW119457   2.761   4.382   6.141 -1.3342  2.6885 -0.9796
 2608SOL    HW219458   2.808   4.296   6.046 -1.3254 -0.5526 -1.0790
 2609SOL     OW19459   1.015   4.706   1.851 -0.0656  0.3629 -0.4511
 2609SOL    HW119460   0.931   4.725   1.809  1.5139  2.6990 -2.6174
 2609SOL    HW219461   1.033   0.056   1.886 -0.8200  0.4141 -0.1973
 2610SOL     OW19462   3.834   3.713   4.312 -0.2009 -0.3229  0.2257
 2610SOL    HW119463   3.857   3.620   4.320 -1.0701 -0.4893  0.9110
 2610SOL    HW219464   3.799   3.733   4.399  0.7219 -1.2049  0.8060
 2611SOL     OW19465   4.100   3.302   5.283  0.4729  0.1957 -0.1110
 2611SOL    HW119466   4.068   3.392   5.277 -0.0042  0.1400  1.6307
 2611SOL    HW219467   4.188   3.317   5.316  0.3809 -2.1293  1.2015
 2612SOL     OW19468   0.346   2.133  11.285  0.4100 -0.2591 -0.2285
 2612SOL    HW119469   0.349   2.169  11.374  0.1307 -0.9036  0.0442
 2612SOL    HW219470   0.350   2.213  11.233  1.2675  0.4024  0.8491
 2613SOL     OW19471   3.165   2.656   8.062 -0.5366  0.1109 -0.0733
 2613SOL    HW119472   3.252   2.690   8.039  0.8190 -1.4793  2.6973
 2613SOL    HW219473   3.172   2.672   8.156 -0.8483 -0.2779  0.0160
 2614SOL     OW19474   1.774   3.546   0.948 -0.2420  0.0074  0.5608
 2614SOL    HW119475   1.868   3.524   0.947  0.2071  1.9077  1.2842
 2614SOL    HW219476   1.765   3.575   0.858 -1.9409  1.2642  1.1340
 2615SOL     OW19477   3.951   1.985   2.839  0.3946 -0.1278 -0.2475
 2615SOL    HW119478   3.886   1.922   2.870  1.8506 -1.6480 -0.2645
 2615SOL    HW219479   4.028   1.942   2.876 -0.4048 -1.1870  0.2186
 2616SOL     OW19480   4.364   3.028  14.597 -0.3996  0.3578 -0.2628
 2616SOL    HW119481   4.386   3.106  14.546 -1.0633 -0.0042 -1.0874
 2616SOL    HW219482   4.449   2.985  14.587 -0.2744  0.3340  0.8519
 2617SOL     OW19483   1.904   4.004   8.441 -0.4100 -0.3254 -0.1464
 2617SOL    HW119484   1.824   4.043   8.477 -1.4713 -2.2512 -0.4260
 2617SOL    HW219485   1.886   3.911   8.453  0.3043 -0.1427  2.2578
 2618SOL     OW19486   1.832   1.014  13.145  0.6211  0.3057  0.3985
 2618SOL    HW119487   1.810   1.034  13.053 -0.6679  1.6429  0.9898
 2618SOL    HW219488   1.821   0.919  13.150  2.1183  0.1727  0.9114
 2619SOL     OW19489   0.580   2.931  16.054  0.3352 -0.0338  0.3233
 2619SOL    HW119490   0.534   3.009  16.022  0.7860 -0.9488 -2.5046
 2619SOL    HW219491   0.570   2.935  16.149  2.3011  1.2040  0.4687
 2620SOL     OW19492   3.788   2.786   3.199 -0.4060 -0.6061  0.2674
 2620SOL    HW119493   3.763   2.872   3.166 -0.9758 -0.0811  2.0974
 2620SOL    HW219494   3.771   2.724   3.128 -1.1824 -0.5872  0.4339
 2621SOL     OW19495   3.807   1.149   4.218  0.2815  0.2657 -0.3548
 2621SOL    HW119496   3.824   1.240   4.242  1.5928 -0.4346  1.4101
 2621SOL    HW219497   3.741   1.112   4.277 -0.7378  1.8552 -0.5152
 2622SOL     OW19498   1.271   0.011   4.369  0.6738  0.7049  0.7063
 2622SOL    HW119499   1.280   4.659   4.335  1.0308  0.9990  0.0374
 2622SOL    HW219500   1.327   0.067   4.316 -0.0898  0.4580 -0.3593
 2623SOL     OW19501   4.354   1.350   4.561  0.7548  0.6733  0.5910
 2623SOL    HW119502   4.326   1.396   4.640  0.6964  1.0950  0.3212
 2623SOL    HW219503   4.445   1.329   4.583  0.4116 -1.1416  0.3162
 2624SOL     OW19504   0.174   1.978   7.462  0.3244 -0.9435  0.2550
 2624SOL    HW119505   0.169   1.902   7.404 -0.6847 -0.1086 -0.7534
 2624SOL    HW219506   0.182   1.933   7.546 -1.1243 -1.5869  0.0544
 2625SOL     OW19507   1.383   1.156   6.973  0.2773 -0.1953 -0.3930
 2625SOL    HW119508   1.387   1.221   7.043  2.5059  0.1074 -0.7855
 2625SOL    HW219509   1.296   1.175   6.938 -0.3761 -1.6732  0.4203
 2626SOL     OW19510   3.708   3.704   4.011  0.5080  0.3253  0.2889
 2626SOL    HW119511   3.640   3.701   4.078  1.3048  2.1111  1.1808
 2626SOL    HW219512   3.787   3.727   4.061  1.1902 -0.5707 -0.3654
 2627SOL     OW19513   3.988   1.730  15.295 -0.3917  0.1102  0.2525
 2627SOL    HW119514   4.081   1.718  15.313 -0.4560  1.7843  1.6690
 2627SOL    HW219515   3.983   1.714  15.201 -0.0047 -0.5619  0.3431
 2628SOL     OW19516   3.729   0.077   4.142  0.2952 -0.7527  0.4957
 2628SOL    HW119517   3.722   0.035   4.228  0.5589  0.0489  0.9102
 2628SOL    HW219518   3.697   0.004   4.089  0.5749 -1.4476  1.2805
 2629SOL     OW19519   4.371   0.305   9.177  0.1321  0.2761 -0.0654
 2629SOL    HW119520   4.359   0.244   9.105  1.7279  0.7784 -0.7437
 2629SOL    HW219521   4.285   0.311   9.219  0.9348  1.8127  1.3793
 2630SOL     OW19522   1.238   1.912   5.546 -0.5610 -0.7635 -0.6776
 2630SOL    HW119523   1.244   1.869   5.461  1.4832  0.4463 -1.1452
 2630SOL    HW219524   1.157   1.962   5.550 -0.4461 -0.9256  4.1247
 2631SOL     OW19525   3.474   0.957   6.589 -0.0787 -0.2134  0.1004
 2631SOL    HW119526   3.493   1.044   6.624  0.7014  0.7773 -2.7293
 2631SOL    HW219527   3.396   0.985   6.542  0.2258 -0.0278 -0.2972
 2632SOL     OW19528   3.437   0.072   7.561 -0.0684  0.5109 -0.3414
 2632SOL    HW119529   3.351   0.111   7.579 -1.1841 -1.7833 -0.6331
 2632SOL    HW219530   3.427   0.039   7.471 -1.7692  0.4781 -0.1420
 2633SOL     OW19531   2.541   0.487  11.713 -0.4027 -0.0872 -0.0300
 2633SOL    HW119532   2.552   0.521  11.624 -1.6665  0.9584  0.2200
 2633SOL    HW219533   2.449   0.495  11.738 -0.4964 -2.5513  0.4563
 2634SOL     OW19534   1.459   1.398   3.335  0.2804  0.6461  0.0141
 2634SOL    HW119535   1.460   1.452   3.414 -2.0462  1.1508 -0.2933
 2634SOL    HW219536   1.384   1.341   3.349  1.0692  0.1408  2.2799
 2635SOL     OW19537   4.062   0.890   4.407  0.3442 -0.3796 -0.5260
 2635SOL    HW119538   4.116   0.924   4.479 -0.5420 -2.0801  0.9596
 2635SOL    HW219539   4.075   0.956   4.339  0.4785 -0.3888 -0.5093
 2636SOL     OW19540   0.040   3.856   6.549  0.0682 -0.5529 -0.0437
 2636SOL    HW119541   0.029   3.808   6.467  0.5809  0.0775 -0.4756
 2636SOL    HW219542   0.085   3.935   6.520  1.3338 -1.4250 -0.4504
 2637SOL     OW19543   0.704   0.139  14.888 -0.3880  0.5940 -0.0006
 2637SOL    HW119544   0.740   0.051  14.892 -0.1797  0.5746 -2.1891
 2637SOL    HW219545   0.684   0.148  14.795 -0.8988  1.6854  0.2147
 2638SOL     OW19546   3.405   4.357   5.695 -0.2008 -0.2475  0.4389
 2638SOL    HW119547   3.353   4.398   5.765  0.2243 -1.2212  1.3258
 2638SOL    HW219548   3.396   4.265   5.718 -2.3643  0.1413  1.1525
 2639SOL     OW19549   0.527   2.507  14.890 -0.0641 -0.3276  0.0525
 2639SOL    HW119550   0.528   2.490  14.796  1.5055 -2.2263  0.4021
 2639SOL    HW219551   0.578   2.435  14.928  1.4691  1.7166  1.8146
 2640SOL     OW19552   1.292   2.729   8.321  0.1577  0.0396 -0.4023
 2640SOL    HW119553   1.244   2.716   8.239 -0.1911 -1.8542  0.1098
 2640SOL    HW219554   1.367   2.673   8.307  0.5589  0.4453  0.1169
 2641SOL     OW19555   1.502   3.125   1.207 -0.2474 -0.3864 -0.8516
 2641SOL    HW119556   1.512   3.189   1.137  0.5390  0.4076 -0.0087
 2641SOL    HW219557   1.583   3.143   1.255 -1.2617 -0.9796  1.0745
 2642SOL     OW19558   4.523   2.682  14.976  0.4925 -0.3298 -0.1207
 2642SOL    HW119559   4.507   2.733  15.056  2.1493  3.0222 -1.8907
 2642SOL    HW219560   4.601   2.631  15.000 -0.6009 -1.2717  1.3950
 2643SOL     OW19561   1.211   3.181   4.129  0.5204  0.5173  0.1174
 2643SOL    HW119562   1.209   3.161   4.035 -1.2035  0.4060  0.1870
 2643SOL    HW219563   1.121   3.155   4.148 -1.0517  4.8264 -1.4261
 2644SOL     OW19564   4.346   2.393  11.144  0.9920 -0.2751  0.0182
 2644SOL    HW119565   4.302   2.388  11.059 -0.8215  0.4642  0.9255
 2644SOL    HW219566   4.368   2.485  11.158  0.0686  0.3122 -2.2835
 2645SOL     OW19567   1.352   2.232  15.423 -0.0431  0.3291 -0.5249
 2645SOL    HW119568   1.258   2.248  15.412 -0.4082 -1.7545 -0.4586
 2645SOL    HW219569   1.374   2.304  15.482 -2.0566  1.0592 -0.6685
 2646SOL     OW19570   0.582   2.061   0.455  0.0754 -0.2308  0.3930
 2646SOL    HW119571   0.609   1.982   0.408 -0.9075 -1.4734  1.9243
 2646SOL    HW219572   0.500   2.025   0.488  0.2233  0.9999  2.1109
 2647SOL     OW19573   1.191   4.510  14.271 -0.5534  0.7656 -0.3619
 2647SOL    HW119574   1.126   4.575  14.243  0.8294  3.1285  1.9660
 2647SOL    HW219575   1.270   4.551  14.236  1.4592 -0.4726  2.7656
 2648SOL     OW19576   0.422   0.217   6.967 -0.1273 -0.3988 -0.4522
 2648SOL    HW119577   0.493   0.271   6.931 -0.0319 -0.3146 -0.1404
 2648SOL    HW219578   0.405   0.275   7.041 -1.3119 -0.7949 -0.4119
 2649SOL     OW19579   0.744   1.154  17.572 -0.7301 -0.6281 -0.2983
 2649SOL    HW119580   0.672   1.121  17.517 -1.9181 -1.0157  1.4997
 2649SOL    HW219581   0.712   1.132  17.660 -0.7985  0.9949  0.0822
 2650SOL     OW19582   1.447   3.783  10.965  0.4825 -0.4906 -0.4529
 2650SOL    HW119583   1.409   3.833  11.038 -1.3222  0.1695 -1.8572
 2650SOL    HW219584   1.408   3.698  10.988  2.4659 -1.1113  0.6615
 2651SOL     OW19585   3.873   4.259   9.452 -0.4965  0.3180  0.0797
 2651SOL    HW119586   3.801   4.321   9.455 -1.9990 -1.4213  0.0427
 2651SOL    HW219587   3.920   4.305   9.383 -0.8532  1.4689  0.6158
 2652SOL     OW19588   4.368   4.430   9.633 -0.4699  0.6896  0.3433
 2652SOL    HW119589   4.441   4.489   9.651  1.9513 -2.1761 -0.1574
 2652SOL    HW219590   4.308   4.440   9.707 -0.2740 -0.3198  0.6483
 2653SOL     OW19591   2.170   3.758   1.228  0.4879 -0.0840 -0.2274
 2653SOL    HW119592   2.096   3.699   1.242  1.7783 -1.2420  1.7149
 2653SOL    HW219593   2.145   3.825   1.292  1.2627  0.9362 -0.9925
 2654SOL     OW19594   2.179   1.608   2.416 -0.0040  0.0110  0.2533
 2654SOL    HW119595   2.235   1.669   2.464  1.1188 -1.3589  0.7003
 2654SOL    HW219596   2.244   1.566   2.358  0.2148 -2.2104  2.1305
 2655SOL     OW19597   0.586   1.397   4.817  0.2885  0.5087 -0.4149
 2655SOL    HW119598   0.593   1.413   4.723 -2.0360 -1.9228 -1.0174
 2655SOL    HW219599   0.586   1.489   4.841  1.0358  1.0912 -2.6147
 2656SOL     OW19600   3.851   2.037  16.449 -0.2326  0.2149  0.3471
 2656SOL    HW119601   3.760   2.051  16.425  0.0812 -0.2994 -1.1540
 2656SOL    HW219602   3.871   2.126  16.478 -1.2739  0.5819 -0.0971
 2657SOL     OW19603   0.794   4.373   5.994 -0.0913 -0.2334 -0.5116
 2657SOL    HW119604   0.705   4.352   5.965 -0.8929  0.1272  1.7514
 2657SOL    HW219605   0.804   4.303   6.058  1.1611  1.9009  1.6198
 2658SOL     OW19606   4.303   2.623  15.361  0.0455  0.6042 -0.7906
 2658SOL    HW119607   4.317   2.691  15.426  0.9170  0.2116 -0.5653
 2658SOL    HW219608   4.361   2.649  15.291  1.3956  0.1721  0.1727
 2659SOL     OW19609   2.814   2.203  16.041 -0.2894  0.2906 -0.2551
 2659SOL    HW119610   2.821   2.127  16.097  1.5546 -0.1176 -1.0587
 2659SOL    HW219611   2.843   2.159  15.961 -2.4730 -2.3196  0.3827
 2660SOL     OW19612   1.805   1.457   6.876 -0.1456 -0.8224  0.0707
 2660SOL    HW119613   1.744   1.398   6.922 -0.1677 -0.4431  0.5336
 2660SOL    HW219614   1.860   1.473   6.953 -0.3198  0.7588 -0.1366
 2661SOL     OW19615   2.095   1.666   4.930 -0.7705  0.3300 -0.0195
 2661SOL    HW119616   2.166   1.730   4.925  0.0009 -0.5475 -0.2972
 2661SOL    HW219617   2.082   1.652   5.023 -3.0788  0.2469 -0.3526
 2662SOL     OW19618   1.254   3.573   2.802  0.3487  0.2483 -0.3363
 2662SOL    HW119619   1.273   3.526   2.722 -0.9647  1.6464 -1.4706
 2662SOL    HW219620   1.305   3.518   2.862 -1.2760 -0.8741  0.0072
 2663SOL     OW19621   0.764   4.641   2.595  0.0615  0.2804 -0.4747
 2663SOL    HW119622   0.710   4.629   2.517 -1.3122 -1.0973  0.7031
 2663SOL    HW219623   0.703   4.669   2.663 -1.3809 -0.6941 -1.3760
 2664SOL     OW19624   0.773   0.495   7.347  0.2435 -0.4484  0.1591
 2664SOL    HW119625   0.847   0.483   7.287  1.1326 -0.2153  1.2230
 2664SOL    HW219626   0.782   0.585   7.378  1.9217  0.2691 -2.3896
 2665SOL     OW19627   0.481   4.213  16.195 -0.2355 -0.1116  0.3715
 2665SOL    HW119628   0.411   4.266  16.233 -1.1386 -1.9530  1.2908
 2665SOL    HW219629   0.428   4.146  16.151 -1.3879  0.8695  0.2606
 2666SOL     OW19630   1.436   1.058  17.262 -0.0860 -0.0986 -0.2565
 2666SOL    HW119631   1.366   1.021  17.207 -0.1958 -1.0262  0.5032
 2666SOL    HW219632   1.488   1.095  17.191 -0.1473  0.2270 -0.1311
 2667SOL     OW19633   2.307   4.647  11.301  0.0854  0.7743 -0.0766
 2667SOL    HW119634   2.311   4.552  11.297  0.4555  0.6937  2.0261
 2667SOL    HW219635   2.215   4.671  11.293  0.0594  0.6773 -0.0628
 2668SOL     OW19636   3.417   0.559   8.927  0.3150 -0.0695  0.1953
 2668SOL    HW119637   3.477   0.614   8.976 -0.4394 -1.4163  2.6075
 2668SOL    HW219638   3.460   0.568   8.842 -0.7452 -0.1866 -0.3559
 2669SOL     OW19639   4.071   3.405   7.819  0.0382 -0.2367  0.1350
 2669SOL    HW119640   4.004   3.370   7.877  1.9985 -1.2403  1.8000
 2669SOL    HW219641   4.115   3.456   7.888 -0.2231 -0.6265  0.5855
 2670SOL     OW19642   1.576   1.654   8.150  0.3754  0.4734  0.0943
 2670SOL    HW119643   1.560   1.586   8.215 -0.2474  1.8327  1.3876
 2670SOL    HW219644   1.589   1.728   8.210 -1.7375  0.3389  0.7080
 2671SOL     OW19645   4.601   2.260  11.174 -0.0931 -0.3860  0.4833
 2671SOL    HW119646   4.520   2.310  11.163 -1.5119 -1.8482  4.3634
 2671SOL    HW219647   4.625   2.278  11.083 -0.6377 -1.0562  0.2114
 2672SOL     OW19648   0.074   1.978   6.771 -0.0634  0.1489  0.0993
 2672SOL    HW119649   0.168   1.978   6.752  0.1170  5.4363  0.9407
 2672SOL    HW219650   0.038   1.944   6.689 -0.3090  0.4394  0.0850
 2673SOL     OW19651   0.741   1.848   7.258  0.0993  0.1341  0.1844
 2673SOL    HW119652   0.659   1.838   7.209 -0.8806  1.1174  1.6253
 2673SOL    HW219653   0.740   1.934   7.299  1.2801  1.3161 -2.2607
 2674SOL     OW19654   4.272   1.847   7.516 -0.1770  0.0796 -0.1652
 2674SOL    HW119655   4.318   1.786   7.573  0.1126  1.5619  1.1687
 2674SOL    HW219656   4.181   1.822   7.534  0.0503  0.2628  1.1967
 2675SOL     OW19657   4.410   4.427   7.291 -0.6121  0.2714  0.3287
 2675SOL    HW119658   4.427   4.476   7.372 -2.4553  0.1366  0.7978
 2675SOL    HW219659   4.323   4.389   7.305  0.7863 -1.9137  2.9047
 2676SOL     OW19660   1.242   0.021   6.243 -0.1675 -0.2959 -0.2684
 2676SOL    HW119661   1.276   0.056   6.325  0.4776 -0.5328 -0.4320
 2676SOL    HW219662   1.149   0.003   6.259  0.1506 -0.6639  1.1609
 2677SOL     OW19663   0.054   3.271   5.712  0.7901  0.0258  0.6688
 2677SOL    HW119664   0.126   3.208   5.714 -0.3669 -1.3307 -0.6071
 2677SOL    HW219665   0.054   3.313   5.798  0.1147  1.9551 -0.2637
 2678SOL     OW19666   3.542   1.323   2.957  0.2379  0.1480 -0.0667
 2678SOL    HW119667   3.459   1.279   2.941  0.2208  0.1386  0.0514
 2678SOL    HW219668   3.581   1.270   3.027  1.5886 -0.9165 -1.6177
 2679SOL     OW19669   2.767   4.660   7.980  0.5649 -0.1635 -0.0055
 2679SOL    HW119670   2.813   4.677   8.062  3.2941  2.7987 -2.2017
 2679SOL    HW219671   2.728   4.577   8.009 -2.1982  1.9528  2.3493
 2680SOL     OW19672   0.581   3.110  13.839  0.7220  0.9532 -0.0208
 2680SOL    HW119673   0.532   3.029  13.853  0.8545  1.0462  0.9301
 2680SOL    HW219674   0.518   3.177  13.868  1.3197  2.3251 -1.8498
 2681SOL     OW19675   4.240   1.474   5.086 -0.7167  0.5907 -0.5662
 2681SOL    HW119676   4.229   1.497   5.178  0.0933  0.0178 -0.3341
 2681SOL    HW219677   4.192   1.392   5.085  0.4725 -0.0989 -0.4250
 2682SOL     OW19678   1.053   3.692   4.991  0.6547  0.8693 -0.3953
 2682SOL    HW119679   1.067   3.737   4.907  1.8075  2.6123  0.7421
 2682SOL    HW219680   1.100   3.752   5.048  1.1835 -1.1384  1.2877
 2683SOL     OW19681   1.657   2.400  14.827 -0.0458 -0.4013  0.3129
 2683SOL    HW119682   1.628   2.326  14.774  1.0444  0.2150 -1.1261
 2683SOL    HW219683   1.670   2.349  14.907  1.7844 -1.5978 -0.7603
 2684SOL     OW19684   1.420   3.347   2.636  0.4558  0.0440  0.0280
 2684SOL    HW119685   1.390   3.285   2.570 -1.3162 -1.4129  2.1818
 2684SOL    HW219686   1.504   3.310   2.664  1.0432  0.9158 -0.5542
 2685SOL     OW19687   4.604   2.562   2.172 -0.1892 -0.3595 -0.2732
 2685SOL    HW119688   4.539   2.576   2.241 -0.5965  0.6501 -0.8652
 2685SOL    HW219689   4.567   2.617   2.103  1.3022 -0.1036 -0.8670
 2686SOL     OW19690   0.844   4.566   8.787 -0.2759  0.3889 -0.3877
 2686SOL    HW119691   0.815   4.656   8.773 -1.9217 -0.0964 -0.1624
 2686SOL    HW219692   0.938   4.567   8.769 -0.3835  0.7716 -0.9380
 2687SOL     OW19693   0.093   2.232   7.508 -0.0036 -0.5127 -0.5875
 2687SOL    HW119694   0.116   2.143   7.481 -1.2289 -1.1347  0.4337
 2687SOL    HW219695   0.002   2.234   7.477 -0.6999  0.7498  1.5175
 2688SOL     OW19696   4.728   0.247   2.567 -0.3266  0.9495 -0.4970
 2688SOL    HW119697   0.061   0.311   2.555  0.3281  0.3548  0.1702
 2688SOL    HW219698   4.722   0.250   2.663  0.1373  1.0174 -0.4679
 2689SOL     OW19699   3.650   1.374  16.135 -0.1961  0.0587  0.2182
 2689SOL    HW119700   3.687   1.341  16.053  0.0939 -1.5267  0.9907
 2689SOL    HW219701   3.694   1.457  16.153 -0.6122 -0.2783  2.7320
 2690SOL     OW19702   1.194   4.243   9.062 -0.1196 -0.2964  0.1579
 2690SOL    HW119703   1.234   4.194   9.134  0.0493 -1.0188 -0.4208
 2690SOL    HW219704   1.170   4.179   8.994 -1.4871  0.7520 -0.3339
 2691SOL     OW19705   2.574   2.049   7.453 -0.4453  0.2355 -0.2305
 2691SOL    HW119706   2.604   2.123   7.506 -0.5370 -0.1935  0.4117
 2691SOL    HW219707   2.528   2.103   7.389  0.7371  0.6774 -0.7183
 2692SOL     OW19708   2.655   1.151  15.818 -0.4656  0.3905 -0.7507
 2692SOL    HW119709   2.564   1.128  15.797  0.0342 -2.1956 -0.1638
 2692SOL    HW219710   2.680   1.175  15.729  1.1632  2.1654  0.2032
 2693SOL     OW19711   1.861   1.679   9.099 -0.1551  0.0298  0.6330
 2693SOL    HW119712   1.811   1.605   9.132  0.0564 -0.3594  0.0882
 2693SOL    HW219713   1.812   1.758   9.118 -1.7726 -0.3133 -2.0713
 2694SOL     OW19714   4.305   4.628  12.884  0.3256 -1.2746 -0.3581
 2694SOL    HW119715   4.333   4.690  12.951 -2.6588 -1.2103  0.8309
 2694SOL    HW219716   4.210   4.634  12.890  0.2926 -0.8026 -1.3332
 2695SOL     OW19717   0.278   3.936   6.979 -0.4230 -0.2703 -0.5094
 2695SOL    HW119718   0.350   3.978   7.027 -0.0668 -0.4123 -0.9135
 2695SOL    HW219719   0.246   3.890   7.056 -0.6745 -1.1550 -1.1490
 2696SOL     OW19720   3.355   4.448  13.192 -0.3082 -0.0518  0.3905
 2696SOL    HW119721   3.364   4.542  13.177 -0.2165 -0.5873 -2.7387
 2696SOL    HW219722   3.260   4.441  13.179 -0.5552  1.9940  0.9378
 2697SOL     OW19723   2.800   0.711  12.659  0.7297  0.1979 -0.1996
 2697SOL    HW119724   2.822   0.787  12.605 -0.6723 -0.0805 -1.1449
 2697SOL    HW219725   2.871   0.652  12.632 -1.1555 -0.8153 -2.9413
 2698SOL     OW19726   3.103   1.392   8.516 -0.3777 -0.6170  0.1453
 2698SOL    HW119727   3.170   1.346   8.467 -1.8959 -0.0225 -2.4943
 2698SOL    HW219728   3.019   1.357   8.487 -0.5199 -1.9649  2.1663
 2699SOL     OW19729   1.663   4.165  16.241  0.3061 -0.0925 -0.3336
 2699SOL    HW119730   1.640   4.196  16.154  0.3732  0.7262 -0.0618
 2699SOL    HW219731   1.584   4.175  16.294 -0.1941  0.2547 -1.1515
 2700SOL     OW19732   1.200   4.409   6.525  0.6940  0.5849  0.2214
 2700SOL    HW119733   1.144   4.347   6.571 -0.2577  0.4562 -1.1111
 2700SOL    HW219734   1.270   4.368   6.474  0.6779  0.1484  0.5537
 2701SOL     OW19735   4.611   4.446  14.091  0.0949  0.1656  0.0871
 2701SOL    HW119736   4.648   4.361  14.065  0.1684  0.2981 -0.2389
 2701SOL    HW219737   4.596   4.440  14.186  2.2720 -0.3327  0.4094
 2702SOL     OW19738   1.836   3.996   6.036 -0.0770 -0.7685 -0.2812
 2702SOL    HW119739   1.834   4.091   6.049  1.4579 -0.1876 -4.1159
 2702SOL    HW219740   1.829   3.990   5.940 -1.5743 -1.8939 -0.0929
 2703SOL     OW19741   3.733   1.478   3.926  0.2872  0.1761 -0.4169
 2703SOL    HW119742   3.653   1.528   3.943 -1.7386 -3.5374  1.0659
 2703SOL    HW219743   3.701   1.388   3.926  1.5927 -0.2802 -0.6879
 2704SOL     OW19744   4.475   3.734   2.018 -0.4296 -0.0360 -0.8459
 2704SOL    HW119745   4.422   3.712   1.941 -1.1576 -0.2617 -0.2775
 2704SOL    HW219746   4.536   3.661   2.011  1.6881  1.7865 -1.1716
 2705SOL     OW19747   1.347   4.514   9.716  0.4503 -0.6761 -0.2824
 2705SOL    HW119748   1.439   4.500   9.738  0.3958 -0.4757  0.0630
 2705SOL    HW219749   1.365   4.565   9.637  1.1703 -0.9154 -0.2812
 2706SOL     OW19750   4.124   0.691   2.822  0.0562 -0.1706 -0.8381
 2706SOL    HW119751   4.216   0.680   2.844 -0.1476  2.2500  1.2958
 2706SOL    HW219752   4.125   0.782   2.793  1.2133  0.6485  1.7073
 2707SOL     OW19753   0.237   2.095   9.210  0.1669 -0.5500  0.3534
 2707SOL    HW119754   0.203   2.037   9.277 -0.4276  0.0210  0.5467
 2707SOL    HW219755   0.305   2.036   9.177  0.9317 -0.0116  0.9762
 2708SOL     OW19756   2.159   1.058  12.428 -0.2777 -0.1493 -0.1863
 2708SOL    HW119757   2.191   0.986  12.482 -0.8294  1.3981  2.2514
 2708SOL    HW219758   2.199   1.130  12.477  0.9713  0.1409 -1.6465
 2709SOL     OW19759   2.122   4.249   7.766  0.5440  0.0903  0.7463
 2709SOL    HW119760   2.057   4.251   7.837  2.2265  0.7277  2.2856
 2709SOL    HW219761   2.065   4.219   7.695  2.2678 -1.0158 -0.1740
 2710SOL     OW19762   1.725   3.270   1.426  0.3197  0.2694 -0.1695
 2710SOL    HW119763   1.788   3.317   1.480 -0.1695  0.6653  0.0536
 2710SOL    HW219764   1.744   3.314   1.343 -1.5236  1.2911 -0.0583
 2711SOL     OW19765   0.562   2.617  15.161 -0.0424  0.1052 -0.3664
 2711SOL    HW119766   0.635   2.667  15.199 -0.7334  0.8539 -0.0175
 2711SOL    HW219767   0.591   2.526  15.168 -2.5141 -0.7210 -0.8604
 2712SOL     OW19768   3.717   2.543   5.262 -0.2666 -0.3670  0.3840
 2712SOL    HW119769   3.794   2.486   5.265  0.6747  0.8882 -0.1457
 2712SOL    HW219770   3.752   2.620   5.307  1.3561 -0.4618 -0.7110
 2713SOL     OW19771   0.668   3.650   8.406  0.3990 -0.5475  0.1746
 2713SOL    HW119772   0.664   3.715   8.336  0.5603 -1.0703 -0.3292
 2713SOL    HW219773   0.594   3.681   8.458 -1.0864 -3.3900 -0.2027
 2714SOL     OW19774   3.327   2.795   6.084  0.3759  0.0862  0.1954
 2714SOL    HW119775   3.266   2.827   6.018  4.1546  2.2576 -2.2731
 2714SOL    HW219776   3.364   2.883   6.098  0.9348 -0.0900 -0.1614
 2715SOL     OW19777   0.620   2.778   8.890 -0.2734 -0.1063 -0.2383
 2715SOL    HW119778   0.631   2.683   8.897  1.0760  0.1539  1.4363
 2715SOL    HW219779   0.687   2.797   8.824  1.1275 -0.5584  1.0398
 2716SOL     OW19780   2.489   1.321  14.036  0.6796 -0.5178  0.0410
 2716SOL    HW119781   2.490   1.287  14.125 -0.9943 -0.2494  0.1581
 2716SOL    HW219782   2.547   1.262  13.988  0.7292  1.5580 -2.4486
 2717SOL     OW19783   2.865   2.776  10.202  0.1288 -0.7527 -0.1477
 2717SOL    HW119784   2.831   2.802  10.288  1.2127 -0.7310  0.2867
 2717SOL    HW219785   2.818   2.835  10.143  1.7096  0.8136  0.1638
 2718SOL     OW19786   3.470   4.265   2.321  0.0031 -0.2118 -0.6658
 2718SOL    HW119787   3.386   4.219   2.318 -0.2477  0.2435 -0.5311
 2718SOL    HW219788   3.523   4.196   2.360  1.8116  1.2935 -0.4727
 2719SOL     OW19789   2.650   3.182   3.770 -0.0440  0.1656 -0.8306
 2719SOL    HW119790   2.596   3.244   3.818 -1.6931 -0.1214 -2.2895
 2719SOL    HW219791   2.624   3.103   3.817 -0.3516 -0.7313 -2.5091
 2720SOL     OW19792   2.548   1.347   3.252 -0.4022  0.2531  0.4090
 2720SOL    HW119793   2.508   1.400   3.183  0.2477  0.7450  0.4062
 2720SOL    HW219794   2.477   1.291   3.283 -1.2183 -0.0203 -1.9448
 2721SOL     OW19795   2.881   3.341  16.056 -1.0451 -0.5761 -0.3307
 2721SOL    HW119796   2.792   3.368  16.078 -0.4601  1.4751 -0.4837
 2721SOL    HW219797   2.906   3.298  16.138 -0.8760 -1.0511 -0.6261
 2722SOL     OW19798   1.094   4.478   8.599 -0.2071 -0.1450  0.5603
 2722SOL    HW119799   1.107   4.517   8.686 -4.3246  1.2070  0.5569
 2722SOL    HW219800   1.140   4.540   8.543  0.8525 -0.6077  0.9308
 2723SOL     OW19801   2.528   1.026   1.848 -0.3024  0.4987  0.0510
 2723SOL    HW119802   2.459   0.980   1.800 -1.2328 -0.5379  2.3598
 2723SOL    HW219803   2.508   0.986   1.933  1.9189 -0.1004  0.2739
 2724SOL     OW19804   2.469   0.592   3.031  0.3264  0.8104 -0.2287
 2724SOL    HW119805   2.409   0.656   3.070  0.2326 -0.1446  1.1750
 2724SOL    HW219806   2.505   0.644   2.959 -1.1485  1.6710 -0.3502
 2725SOL     OW19807   0.275   0.649   7.922 -0.3072  0.3718  0.7860
 2725SOL    HW119808   0.313   0.711   7.984 -1.6620 -1.1706  3.1252
 2725SOL    HW219809   0.340   0.583   7.900 -0.5518  0.4438 -0.1558
 2726SOL     OW19810   3.392   4.593   5.553  0.7490  0.0411 -0.3369
 2726SOL    HW119811   3.407   4.504   5.585 -1.3889 -0.4991 -0.8243
 2726SOL    HW219812   3.299   4.592   5.528  0.4904  1.5204  0.5860
 2727SOL     OW19813   2.771   3.118   3.152 -0.0927  0.4457  0.0311
 2727SOL    HW119814   2.847   3.092   3.100 -1.0203 -2.3597  0.0602
 2727SOL    HW219815   2.767   3.212   3.137  0.6286  0.4805  0.0596
 2728SOL     OW19816   3.198   1.189  10.702 -0.1382 -0.2672  0.4173
 2728SOL    HW119817   3.104   1.207  10.707 -0.0928  0.1425 -0.2229
 2728SOL    HW219818   3.232   1.248  10.634 -1.4613 -1.0114 -0.8834
 2729SOL     OW19819   0.683   2.097   8.325 -0.1709  0.4423  0.0205
 2729SOL    HW119820   0.621   2.158   8.284  0.2032 -0.5082 -1.9591
 2729SOL    HW219821   0.706   2.035   8.256  0.6050  1.5648 -0.7203
 2730SOL     OW19822   0.374   0.414   6.701 -0.0720 -0.1485  0.6032
 2730SOL    HW119823   0.341   0.332   6.737  2.1281 -0.8470  1.0133
 2730SOL    HW219824   0.446   0.423   6.763  2.6942  0.4355 -2.7034
 2731SOL     OW19825   2.929   3.500   4.925 -0.1065 -0.0205 -0.5108
 2731SOL    HW119826   2.847   3.492   4.973  1.1064 -0.3039  1.5077
 2731SOL    HW219827   2.894   3.504   4.836  1.4576  1.6554 -1.0542
 2732SOL     OW19828   3.957   2.655   6.596  0.8059 -0.4371  0.1499
 2732SOL    HW119829   3.942   2.585   6.533  0.8684  2.0711 -2.6190
 2732SOL    HW219830   4.051   2.649   6.616  0.9815 -1.0628 -0.8795
 2733SOL     OW19831   0.632   1.198  10.646  0.0346 -0.2284  0.2199
 2733SOL    HW119832   0.613   1.278  10.695 -2.5737  1.7219 -3.9254
 2733SOL    HW219833   0.548   1.194  10.601 -1.0959 -0.9011  2.4042
 2734SOL     OW19834   1.901   0.531   7.274  0.3934 -0.0731 -0.0488
 2734SOL    HW119835   1.945   0.452   7.243 -1.9242 -1.3674 -0.0455
 2734SOL    HW219836   1.815   0.493   7.254 -0.4035  1.6504  0.0650
 2735SOL     OW19837   3.482   1.413  10.434  0.1140  0.4809 -0.7340
 2735SOL    HW119838   3.528   1.341  10.477 -2.3500  0.3813  1.7215
 2735SOL    HW219839   3.391   1.390  10.448  0.5212  0.6894  2.2983
 2736SOL     OW19840   3.196   2.469   9.528 -0.1933 -0.0091  0.0974
 2736SOL    HW119841   3.171   2.405   9.461 -0.9952  1.8418 -1.3954
 2736SOL    HW219842   3.171   2.424   9.609  3.0438 -1.1782  0.4480
 2737SOL     OW19843   0.265   1.625  15.292 -0.1765 -0.3946 -0.1380
 2737SOL    HW119844   0.295   1.546  15.336 -1.1756 -1.7418 -1.8870
 2737SOL    HW219845   0.310   1.617  15.208 -1.6474 -2.8700 -0.6696
 2738SOL     OW19846   4.331   1.639   7.694 -0.4988 -0.1333 -0.3584
 2738SOL    HW119847   4.250   1.625   7.743  0.5133 -3.0890  0.5137
 2738SOL    HW219848   4.355   1.547   7.681  1.2359  0.2339  0.1966
 2739SOL     OW19849   0.131   1.153   6.038 -0.0531  0.2647 -0.5058
 2739SOL    HW119850   0.140   1.154   5.942 -2.4469 -0.4666 -0.7300
 2739SOL    HW219851   0.138   1.060   6.058  1.5898  0.6794  0.8006
 2740SOL     OW19852   2.885   2.925   2.543  0.0999 -0.3763 -0.1093
 2740SOL    HW119853   2.861   2.968   2.625  2.3971  0.3551  0.1917
 2740SOL    HW219854   2.980   2.914   2.553  0.0708 -0.6555 -0.1510
 2741SOL     OW19855   3.988   0.720   8.476 -0.4145 -0.2263  1.3261
 2741SOL    HW119856   3.991   0.723   8.380  0.0839  0.1805  1.3558
 2741SOL    HW219857   4.036   0.640   8.499 -0.1325 -0.6940 -0.9020
 2742SOL     OW19858   1.202   3.934   4.840  0.0541  0.0232  0.1736
 2742SOL    HW119859   1.181   3.993   4.768  1.2605  0.6180  0.3009
 2742SOL    HW219860   1.211   3.853   4.790 -0.4182 -0.8070  1.4343
 2743SOL     OW19861   4.120   1.865   4.642  0.0396  0.5124 -0.0416
 2743SOL    HW119862   4.118   1.800   4.572 -1.4845  0.6937 -0.1620
 2743SOL    HW219863   4.032   1.851   4.679  0.7140 -0.7970  1.0612
 2744SOL     OW19864   1.405   3.676   4.328  0.0652  0.5421  0.0544
 2744SOL    HW119865   1.337   3.617   4.362  0.7607  0.0357  0.5959
 2744SOL    HW219866   1.384   3.751   4.384  2.4071  1.2239 -0.0047
 2745SOL     OW19867   2.555   3.241   9.626 -0.0210 -0.1335  0.1205
 2745SOL    HW119868   2.618   3.215   9.693 -1.7026 -1.7834  1.0931
 2745SOL    HW219869   2.477   3.259   9.680  0.0501 -0.6541  0.3985
 2746SOL     OW19870   0.291   1.004   5.511  0.1632  0.1509  0.4536
 2746SOL    HW119871   0.332   0.968   5.432 -0.5639  2.9721 -1.2315
 2746SOL    HW219872   0.205   0.962   5.500 -0.9267  2.2664  0.7986
 2747SOL     OW19873   0.208   2.784   0.537 -0.1419  0.3890 -0.1852
 2747SOL    HW119874   0.253   2.824   0.462  0.9781 -0.7404 -0.1119
 2747SOL    HW219875   0.203   2.862   0.592 -2.1336  0.5834 -0.6531
 2748SOL     OW19876   2.116   1.927   9.636  0.1480 -0.0726  0.2577
 2748SOL    HW119877   2.128   1.832   9.643 -0.7209 -0.1558  0.6845
 2748SOL    HW219878   2.066   1.933   9.555  0.1109  0.8178  0.3496
 2749SOL     OW19879   0.881   2.599  12.627  0.0904 -0.7806  0.0781
 2749SOL    HW119880   0.833   2.654  12.566 -1.4481  1.2875  3.1477
 2749SOL    HW219881   0.893   2.519  12.576  2.1169 -0.1598 -0.4262
 2750SOL     OW19882   2.946   1.787   4.110 -0.4202  0.3267 -0.2786
 2750SOL    HW119883   2.908   1.705   4.141  0.4425  0.4775  1.1701
 2750SOL    HW219884   2.900   1.778   4.027  0.4517  0.4957 -0.7723
 2751SOL     OW19885   4.449   0.753   8.373 -0.3839 -1.1058  0.0739
 2751SOL    HW119886   4.434   0.816   8.444  0.4619 -1.4546  0.5690
 2751SOL    HW219887   4.535   0.718   8.399  0.7281  1.4783 -0.1702
 2752SOL     OW19888   3.636   2.438   6.672  0.3803  0.3260 -0.1549
 2752SOL    HW119889   3.643   2.354   6.627  1.4132 -0.2266  1.0057
 2752SOL    HW219890   3.724   2.445   6.710  0.0322  1.2506  0.4856
 2753SOL     OW19891   2.925   2.243   7.309 -0.0881 -0.1475  0.5667
 2753SOL    HW119892   2.895   2.173   7.368 -3.2587 -1.2035 -2.2630
 2753SOL    HW219893   3.003   2.278   7.352 -0.5636  0.9932  0.4995
 2754SOL     OW19894   3.299   3.072   2.923  0.4388  0.2570 -0.2154
 2754SOL    HW119895   3.339   3.144   2.874  1.0495 -1.7954 -2.7060
 2754SOL    HW219896   3.347   2.993   2.901 -2.5521 -1.6643  0.0629
 2755SOL     OW19897   2.050   0.906   1.897 -0.6365 -0.8180 -0.3991
 2755SOL    HW119898   1.978   0.967   1.915  0.4610  0.6307 -0.9004
 2755SOL    HW219899   2.015   0.828   1.855 -1.6869 -0.9725  0.7665
 2756SOL     OW19900   2.485   0.497   6.019  0.0248  0.5401  0.4927
 2756SOL    HW119901   2.411   0.455   6.063  0.5600 -1.7166 -0.7381
 2756SOL    HW219902   2.431   0.572   5.995 -0.2200  0.7958  1.8250
 2757SOL     OW19903   0.335   4.257  12.561 -0.4872  0.4068 -0.1380
 2757SOL    HW119904   0.253   4.298  12.535 -1.6638 -1.0768  1.3047
 2757SOL    HW219905   0.314   4.210  12.642 -1.9702  2.4178  0.6375
 2758SOL     OW19906   3.790   0.779   5.477 -0.3951  0.3529  0.1487
 2758SOL    HW119907   3.720   0.758   5.415  0.3577 -1.0651 -0.2362
 2758SOL    HW219908   3.770   0.870   5.495  1.0551  1.2692 -2.8252
 2759SOL     OW19909   4.158   4.453   7.803 -0.0261  0.4326  0.0620
 2759SOL    HW119910   4.096   4.394   7.759 -0.7940  0.3593  1.2333
 2759SOL    HW219911   4.152   4.532   7.749 -0.0231 -0.3743 -1.1168
 2760SOL     OW19912   0.570   3.513   2.851  0.1937  0.2598 -0.1855
 2760SOL    HW119913   0.614   3.472   2.776 -0.8139  0.2554 -0.7787
 2760SOL    HW219914   0.631   3.480   2.917 -0.5331  0.7629  0.7389
 2761SOL     OW19915   3.809   3.958   6.034  0.1108 -0.1730  0.2178
 2761SOL    HW119916   3.802   3.989   6.124 -2.9889 -2.4277  0.7487
 2761SOL    HW219917   3.837   4.040   5.994 -0.4873 -0.9492 -1.8072
 2762SOL     OW19918   2.021   1.332   9.279  0.8115 -0.4104  0.4330
 2762SOL    HW119919   2.042   1.348   9.187  0.3267 -1.9052  0.0601
 2762SOL    HW219920   1.927   1.345   9.285  0.8889  0.3615 -0.1442
 2763SOL     OW19921   4.275   3.418   6.261  0.0864 -0.6305  0.1597
 2763SOL    HW119922   4.197   3.424   6.206 -0.1443  1.8916  0.7583
 2763SOL    HW219923   4.252   3.342   6.314  0.4704 -1.2047 -0.4822
 2764SOL     OW19924   2.679   3.312  10.160  0.0984  0.5275  0.4340
 2764SOL    HW119925   2.679   3.261  10.241  3.2731  1.8775  1.3362
 2764SOL    HW219926   2.633   3.393  10.184  0.9202  0.3791  2.5851
 2765SOL     OW19927   4.429   3.717   6.589 -0.2054 -0.4546  0.5512
 2765SOL    HW119928   4.507   3.726   6.644 -0.0255 -0.4786  0.2963
 2765SOL    HW219929   4.362   3.688   6.651  0.0201 -1.1005  0.4999
 2766SOL     OW19930   0.611   0.107   9.566  0.2087 -0.3727 -0.1203
 2766SOL    HW119931   0.583   0.115   9.657  1.5917 -1.6739  0.4271
 2766SOL    HW219932   0.566   0.024   9.548 -2.7848  0.9031  1.4625
 2767SOL     OW19933   1.129   2.760   7.515  0.4125  0.1669  0.2392
 2767SOL    HW119934   1.054   2.704   7.497 -0.2059  0.6179  1.4188
 2767SOL    HW219935   1.087   2.824   7.573 -1.0407  0.0324 -0.6771
 2768SOL     OW19936   0.191   2.281  12.729 -0.4440 -0.6146  0.0478
 2768SOL    HW119937   0.099   2.271  12.754 -0.7227  2.2427  0.1462
 2768SOL    HW219938   0.198   2.193  12.692  2.5570  0.3716 -1.7022
 2769SOL     OW19939   4.605   4.197   7.576  0.0374  0.4443 -0.2167
 2769SOL    HW119940   4.603   4.104   7.553 -2.1932  0.2130  0.8440
 2769SOL    HW219941   4.700   4.203   7.576 -0.1764  3.7601  1.4991
 2770SOL     OW19942   1.163   2.816   1.503  0.2374  0.5692 -0.4226
 2770SOL    HW119943   1.102   2.798   1.575  0.5753  2.2302  0.2672
 2770SOL    HW219944   1.108   2.876   1.453  1.5832 -0.1925 -2.8034
 2771SOL     OW19945   3.863   0.558   2.107  0.4322 -0.1937 -0.6418
 2771SOL    HW119946   3.870   0.565   2.012  1.6390  1.2629 -0.4445
 2771SOL    HW219947   3.943   0.598   2.140  0.9161 -2.1038  0.5289
 2772SOL     OW19948   1.507   3.067   4.220 -0.1731 -0.4162  0.1201
 2772SOL    HW119949   1.427   3.067   4.167  0.3706  0.3016 -0.7066
 2772SOL    HW219950   1.565   3.057   4.145  2.6545  0.7108  2.1810
 2773SOL     OW19951   3.063   3.926   7.450 -0.0009  0.1705 -0.4216
 2773SOL    HW119952   3.027   3.854   7.399  2.7139 -1.2769 -0.3015
 2773SOL    HW219953   3.111   3.874   7.515 -0.3060  2.3767  1.5938
 2774SOL     OW19954   3.423   4.112   5.851 -0.3497 -0.2124  0.4714
 2774SOL    HW119955   3.469   4.141   5.929  0.8298 -1.6758  0.3153
 2774SOL    HW219956   3.375   4.037   5.887 -0.6917 -0.5696 -0.7115
 2775SOL     OW19957   2.978   1.957   5.268 -0.4214 -0.4549  0.0774
 2775SOL    HW119958   2.985   1.885   5.205 -2.7707 -0.6079 -0.0130
 2775SOL    HW219959   2.931   2.018   5.211 -2.5420 -0.9939  1.2449
 2776SOL     OW19960   0.618   2.536   4.483 -0.1559  0.4302  0.2047
 2776SOL    HW119961   0.571   2.455   4.463  0.7392  0.0290 -0.2694
 2776SOL    HW219962   0.692   2.506   4.431  1.1982  3.1426  0.5744
 2777SOL     OW19963   3.137   0.762   8.274  0.4848  0.7585  0.4801
 2777SOL    HW119964   3.213   0.710   8.302 -0.6086 -1.3909 -0.5892
 2777SOL    HW219965   3.176   0.812   8.202  1.8372  0.4422  0.9896
 2778SOL     OW19966   3.834   2.813   6.801  0.3988  0.3633 -0.4974
 2778SOL    HW119967   3.905   2.784   6.743  0.6017  0.4404 -0.2851
 2778SOL    HW219968   3.763   2.776   6.749 -1.6762  3.6440  0.0478
 2779SOL     OW19969   3.261   2.854   4.425 -0.0306 -0.0866 -0.6344
 2779SOL    HW119970   3.192   2.850   4.358  0.4400 -2.4993 -0.9613
 2779SOL    HW219971   3.209   2.881   4.501 -1.5296  0.0187 -1.6922
 2780SOL     OW19972   0.536   2.837   9.669  0.4112  0.2974 -0.2161
 2780SOL    HW119973   0.461   2.886   9.702 -0.1558 -2.6810  2.9937
 2780SOL    HW219974   0.536   2.855   9.575 -0.4377 -1.1897 -0.5013
 2781SOL     OW19975   4.473   0.828   6.919  0.3686 -0.0604 -0.4466
 2781SOL    HW119976   4.567   0.811   6.922  0.6683  1.4472 -1.1619
 2781SOL    HW219977   4.476   0.908   6.971 -1.1487  0.3752 -1.0229
 2782SOL     OW19978   4.162   1.401  17.086  0.8341 -0.1102 -0.1785
 2782SOL    HW119979   4.230   1.392  17.019  0.7244  0.0954 -0.3149
 2782SOL    HW219980   4.165   1.495  17.099 -3.1464 -0.0500  0.0389
 2783SOL     OW19981   3.716   1.654  10.204  0.6915 -0.2231 -0.0561
 2783SOL    HW119982   3.714   1.657  10.300 -2.2078 -0.7170 -0.0845
 2783SOL    HW219983   3.772   1.577  10.198  2.5591  1.2751 -1.4965
 2784SOL     OW19984   2.347   0.761   6.049 -0.3801  0.3145 -0.3486
 2784SOL    HW119985   2.254   0.742   6.033 -0.5927  1.9714 -1.0761
 2784SOL    HW219986   2.353   0.792   6.139  0.9574  0.2410 -0.4110
 2785SOL     OW19987   0.601   2.336  12.797  0.2368 -0.1975  0.4969
 2785SOL    HW119988   0.541   2.295  12.734 -0.2971 -0.5670  1.2526
 2785SOL    HW219989   0.679   2.337  12.742 -0.9411 -0.6718 -1.2029
 2786SOL     OW19990   4.009   2.309   8.701 -0.4649  0.1786 -0.1664
 2786SOL    HW119991   4.012   2.338   8.610  1.0913  0.8247  0.0899
 2786SOL    HW219992   4.043   2.384   8.749 -1.0481  0.4638 -0.1901
 2787SOL     OW19993   2.586   2.560  13.860 -0.7321  0.5175  0.4138
 2787SOL    HW119994   2.539   2.478  13.870 -1.8873  1.0016 -1.1530
 2787SOL    HW219995   2.537   2.597  13.787 -0.8700 -3.7270 -1.6371
 2788SOL     OW19996   3.639   4.311  12.160 -0.0916 -0.5831 -0.3819
 2788SOL    HW119997   3.662   4.231  12.208 -2.5961 -2.1503 -1.8062
 2788SOL    HW219998   3.544   4.319  12.161 -0.2192 -2.1716  0.3074
 2789SOL     OW19999   2.329   2.199   2.756 -0.1302  1.1724 -0.3956
 2789SOL    HW120000   2.267   2.228   2.689 -0.8526  4.3482  1.6864
 2789SOL    HW220001   2.273   2.171   2.828 -1.5757  0.2485 -1.8664
 2790SOL     OW20002   2.468   0.391  14.280  0.4351 -0.0384  0.2304
 2790SOL    HW120003   2.442   0.424  14.366 -1.5166 -0.8368 -0.0629
 2790SOL    HW220004   2.483   0.480  14.247 -2.7407 -0.3670 -2.1596
 2791SOL     OW20005   4.133   1.617   2.331  0.5239 -0.8398  0.0256
 2791SOL    HW120006   4.151   1.599   2.239  1.2404 -2.1801  0.4298
 2791SOL    HW220007   4.083   1.698   2.331 -0.0095 -1.1764 -0.2679
 2792SOL     OW20008   3.877   2.416   6.815 -0.0226  0.2477  0.6356
 2792SOL    HW120009   3.851   2.434   6.905 -0.6062  1.3175  0.2551
 2792SOL    HW220010   3.943   2.486   6.812 -2.8152  2.7274 -2.6122
 2793SOL     OW20011   2.833   1.341   1.255  0.3673 -0.3321  0.1063
 2793SOL    HW120012   2.775   1.404   1.213  0.7449 -0.0028  0.0727
 2793SOL    HW220013   2.777   1.265   1.267  0.7011 -0.8876 -1.8786
 2794SOL     OW20014   0.305   3.268   2.173 -0.1614 -0.0241 -0.3625
 2794SOL    HW120015   0.299   3.346   2.228 -0.1941 -0.0478 -0.3325
 2794SOL    HW220016   0.376   3.285   2.112 -0.2699 -2.0895 -1.0825
 2795SOL     OW20017   4.232   0.033  15.749  0.4042  0.5144 -0.4927
 2795SOL    HW120018   4.195   0.096  15.810 -3.4221 -1.3925 -0.8716
 2795SOL    HW220019   4.265   0.098  15.687 -0.0189  0.6098 -0.6143
 2796SOL     OW20020   3.232   3.079   5.285  0.4345  0.0257 -0.1460
 2796SOL    HW120021   3.284   3.013   5.331 -0.2163  0.7607  1.6384
 2796SOL    HW220022   3.306   3.126   5.247 -1.0447  1.3384 -1.4161
 2797SOL     OW20023   1.091   1.757   7.949  0.3237 -0.1667  0.1707
 2797SOL    HW120024   1.022   1.791   7.893 -0.3603  1.0191  1.7360
 2797SOL    HW220025   1.160   1.724   7.891  0.9978 -0.5902  1.2135
 2798SOL     OW20026   0.989   2.317   5.867 -0.1403 -0.0653 -0.4426
 2798SOL    HW120027   1.081   2.293   5.879 -0.6681 -2.3622 -0.9021
 2798SOL    HW220028   0.958   2.233   5.832 -0.8037 -0.2698  0.6286
 2799SOL     OW20029   0.797   2.084   2.372 -0.2801  0.5473 -0.3201
 2799SOL    HW120030   0.824   2.146   2.305 -1.5749 -0.3870 -1.7102
 2799SOL    HW220031   0.711   2.055   2.343 -0.5380  0.6898  0.2949
 2800SOL     OW20032   3.001   4.108   3.367  0.2019 -0.4072  0.2440
 2800SOL    HW120033   3.021   4.128   3.459 -0.4390  1.1951  0.0447
 2800SOL    HW220034   3.071   4.163   3.330 -0.9163 -1.0076 -2.7559
 2801SOL     OW20035   2.219   0.128   8.206  0.4163  0.5766  0.7717
 2801SOL    HW120036   2.170   0.210   8.198  0.2421  0.4059  0.1418
 2801SOL    HW220037   2.307   0.161   8.229  1.6444 -1.1690 -1.4376
 2802SOL     OW20038   2.615   0.880   8.174  0.0291  0.3017 -0.3451
 2802SOL    HW120039   2.564   0.800   8.177 -0.1053  0.4946  2.4264
 2802SOL    HW220040   2.685   0.868   8.239  1.3762  1.4450 -1.5770
 2803SOL     OW20041   3.100   0.878   6.378 -0.2400 -0.2141  0.2437
 2803SOL    HW120042   3.029   0.878   6.442  1.4518  4.7466  2.0914
 2803SOL    HW220043   3.058   0.854   6.295 -0.8443  0.4973  0.3466
 2804SOL     OW20044   3.583   4.301   5.495 -0.0700 -0.2601 -0.5471
 2804SOL    HW120045   3.643   4.229   5.517  0.2750 -0.4692 -2.1269
 2804SOL    HW220046   3.536   4.319   5.576  0.5322  1.5733 -0.6100
 2805SOL     OW20047   2.848   1.129   2.069  0.1977 -0.0077 -0.8013
 2805SOL    HW120048   2.752   1.121   2.069  0.1710  0.1727 -2.6031
 2805SOL    HW220049   2.848   1.188   2.144  1.6352 -1.4296  0.3118
 2806SOL     OW20050   0.805   0.717   3.595 -0.3549  0.5186  0.3161
 2806SOL    HW120051   0.900   0.718   3.586 -0.2708  1.7819  1.3939
 2806SOL    HW220052   0.781   0.739   3.505  2.0193 -1.5340 -0.8504
 2807SOL     OW20053   0.378   1.872   2.211 -0.6875 -0.2508  0.9565
 2807SOL    HW120054   0.360   1.855   2.118 -1.3927  0.1376  1.0199
 2807SOL    HW220055   0.295   1.902   2.248 -0.2498 -0.1228  1.8342
 2808SOL     OW20056   4.636   1.218   2.225  0.6131 -0.2357  0.7322
 2808SOL    HW120057   4.597   1.303   2.206 -0.1062 -0.6969  0.1407
 2808SOL    HW220058   4.724   1.233   2.261 -1.0447  3.1440  3.4317
 2809SOL     OW20059   3.276   3.017  13.045 -0.4252  0.0605 -0.0947
 2809SOL    HW120060   3.182   3.014  13.064 -0.3102 -0.2049  0.4558
 2809SOL    HW220061   3.291   3.101  13.087  1.3522 -1.0852  1.5779
 2810SOL     OW20062   1.665   2.655  13.902  0.0621  0.2487  0.1663
 2810SOL    HW120063   1.745   2.706  13.889  0.4067 -0.0138  1.2311
 2810SOL    HW220064   1.619   2.673  13.820  2.0678 -0.4637 -1.1060
 2811SOL     OW20065   1.332   2.676   2.700 -0.6862  0.8189 -0.5384
 2811SOL    HW120066   1.269   2.605   2.704  1.0578 -0.7870 -2.0614
 2811SOL    HW220067   1.406   2.636   2.655 -0.5975  0.4358 -0.0554
 2812SOL     OW20068   1.269   4.698   2.935 -0.4516  0.5058  0.6142
 2812SOL    HW120069   1.228   0.015   2.869  0.4494  1.8984  1.1966
 2812SOL    HW220070   1.353   4.673   2.897 -0.4378 -2.0182  2.3006
 2813SOL     OW20071   1.912   0.163   1.329  0.0281  0.4590 -0.7594
 2813SOL    HW120072   1.845   0.145   1.395  0.5712 -0.1941 -0.3825
 2813SOL    HW220073   1.853   0.185   1.257 -3.4503 -0.2076  1.8839
 2814SOL     OW20074   4.293   3.856  14.673 -0.4267  0.3299 -0.1836
 2814SOL    HW120075   4.296   3.766  14.708  2.3983  0.7940  0.7104
 2814SOL    HW220076   4.201   3.870  14.651 -0.1309  0.8621 -1.0416
 2815SOL     OW20077   2.608   1.553   9.215 -0.3309 -0.2054  0.0874
 2815SOL    HW120078   2.580   1.546   9.124  0.6723  1.0406 -0.3025
 2815SOL    HW220079   2.591   1.463   9.243  0.2182 -0.9599 -1.9993
 2816SOL     OW20080   3.097   4.488   0.712 -0.5374 -0.2711  0.0582
 2816SOL    HW120081   3.047   4.429   0.768 -0.1093 -1.2178 -0.5490
 2816SOL    HW220082   3.078   4.466   0.620  1.1037 -2.0172  0.1364
 2817SOL     OW20083   0.217   0.601  12.129 -0.3514  0.1679  0.4672
 2817SOL    HW120084   0.201   0.604  12.224  1.2941 -0.4822  0.7550
 2817SOL    HW220085   0.159   0.668  12.092 -0.3338 -1.0003 -1.6735
 2818SOL     OW20086   3.939   2.571  14.234  0.0696  0.7438  0.7196
 2818SOL    HW120087   4.000   2.528  14.295 -0.5120 -2.5577 -1.0909
 2818SOL    HW220088   4.009   2.621  14.191 -0.5754  3.1313  2.4490
 2819SOL     OW20089   2.890   1.197   0.919  0.4089 -0.3537  0.0968
 2819SOL    HW120090   2.907   1.289   0.939  2.1147 -0.6597  0.0738
 2819SOL    HW220091   2.960   1.184   0.854  0.8486  1.0884  0.2771
 2820SOL     OW20092   1.918   0.217   4.364 -0.2660 -0.3349  0.0893
 2820SOL    HW120093   1.980   0.146   4.378 -1.0529 -0.9817  0.3220
 2820SOL    HW220094   1.961   0.292   4.405  0.0758  0.2470 -1.3242
 2821SOL     OW20095   2.243   1.915   4.160 -0.2592  0.7619 -0.0278
 2821SOL    HW120096   2.239   1.862   4.240  2.1121 -1.6786 -1.5586
 2821SOL    HW220097   2.177   1.980   4.185 -1.6413 -0.5100 -0.3478
 2822SOL     OW20098   1.835   1.892   7.473 -0.1134 -0.2961 -0.6976
 2822SOL    HW120099   1.863   1.849   7.554 -2.3214 -0.9364 -0.2746
 2822SOL    HW220100   1.885   1.847   7.406  0.6002 -0.4099 -0.0877
 2823SOL     OW20101   2.550   2.460   9.408  0.2372  0.0665 -0.1408
 2823SOL    HW120102   2.471   2.414   9.438  0.5132 -0.2314  0.1353
 2823SOL    HW220103   2.520   2.528   9.348  0.7248 -0.9250 -1.5129
 2824SOL     OW20104   2.162   4.282   9.124  0.4467 -0.0795  0.0389
 2824SOL    HW120105   2.131   4.192   9.121 -1.2804  0.6300 -3.6176
 2824SOL    HW220106   2.117   4.317   9.201 -1.2976 -3.3859  0.4710
 2825SOL     OW20107   4.279   0.883   6.479  0.3748 -0.2552 -0.3354
 2825SOL    HW120108   4.318   0.839   6.555  2.3554  2.1559  0.0612
 2825SOL    HW220109   4.304   0.821   6.411 -0.7082  0.3036 -1.2289
 2826SOL     OW20110   0.187   4.364   5.649  0.0515 -0.2686  0.2326
 2826SOL    HW120111   0.127   4.289   5.653  1.1385 -1.0865  1.1419
 2826SOL    HW220112   0.141   4.425   5.707 -1.3373  0.5614 -1.7702
 2827SOL     OW20113   4.152   0.338   9.579  0.5008 -0.1419  0.0930
 2827SOL    HW120114   4.162   0.276   9.651  0.9513  0.0801  0.2230
 2827SOL    HW220115   4.059   0.318   9.583  0.5991  0.1623  3.3681
 2828SOL     OW20116   0.678   1.884  17.147  0.4477 -0.1536  0.3469
 2828SOL    HW120117   0.679   1.800  17.100  1.5309 -0.8456  1.6088
 2828SOL    HW220118   0.636   1.941  17.082 -0.0734  2.6975  3.2123
 2829SOL     OW20119   2.365   1.471   2.234  0.0262  0.4582 -0.0232
 2829SOL    HW120120   2.384   1.388   2.190 -0.0660  1.1230 -1.3293
 2829SOL    HW220121   2.433   1.516   2.184 -0.2815  0.6075 -0.3073
 2830SOL     OW20122   2.196   4.716   6.247  0.1984 -0.1005 -0.0501
 2830SOL    HW120123   2.281   4.697   6.208 -0.8344 -1.3103 -1.7036
 2830SOL    HW220124   2.134   4.728   6.176  0.8537  1.2503 -0.3993
 2831SOL     OW20125   2.676   1.973   8.336  0.9340 -0.3397  0.1312
 2831SOL    HW120126   2.728   2.045   8.374 -0.1001  0.1604  0.6088
 2831SOL    HW220127   2.588   2.009   8.350  0.6011 -1.1522  0.0947
 2832SOL     OW20128   4.157   3.182   2.476  0.6858  0.3125 -0.1184
 2832SOL    HW120129   4.092   3.177   2.546 -1.4390  2.2911 -1.8917
 2832SOL    HW220130   4.107   3.145   2.403 -0.8333 -0.1500  1.1636
 2833SOL     OW20131   4.593   0.850  15.591  0.0966 -0.2683 -0.0950
 2833SOL    HW120132   4.682   0.876  15.617  0.4456 -0.3404 -1.1930
 2833SOL    HW220133   4.547   0.918  15.639 -0.9112 -0.4967 -0.7423
 2834SOL     OW20134   1.602   3.319   3.504 -0.0817  0.2229 -0.3599
 2834SOL    HW120135   1.660   3.244   3.516  0.1910  0.2609 -1.4872
 2834SOL    HW220136   1.578   3.335   3.596 -1.4756  1.3571 -0.9205
 2835SOL     OW20137   1.543   0.872  16.327  0.0790  0.0419  0.3717
 2835SOL    HW120138   1.593   0.835  16.400 -0.4943  0.9684  1.2290
 2835SOL    HW220139   1.552   0.815  16.251  1.0318 -2.7261  2.5335
 2836SOL     OW20140   3.842   3.779   0.756  0.3528  0.3807  0.2773
 2836SOL    HW120141   3.866   3.782   0.664  0.8959  1.2194  0.4473
 2836SOL    HW220142   3.909   3.836   0.793  1.5215  1.1555 -3.1128
 2837SOL     OW20143   3.459   4.241   0.709  0.3296 -0.0314 -0.2707
 2837SOL    HW120144   3.412   4.281   0.782  1.6678 -0.2515  0.7211
 2837SOL    HW220145   3.467   4.312   0.645  0.6813 -0.6183 -0.8768
 2838SOL     OW20146   3.245   4.050  16.388  0.4066 -0.1603 -0.3149
 2838SOL    HW120147   3.322   3.993  16.396 -0.9426 -1.5828  2.6908
 2838SOL    HW220148   3.283   4.129  16.349 -1.4760 -0.4630 -2.6998
 2839SOL     OW20149   0.850   1.284  11.067 -0.0716  0.2574  0.3009
 2839SOL    HW120150   0.863   1.189  11.068 -1.4786  0.0655  0.2935
 2839SOL    HW220151   0.932   1.318  11.103  0.7164 -1.4086  0.0489
 2840SOL     OW20152   2.813   0.196   7.962 -0.3887  0.1769  0.5268
 2840SOL    HW120153   2.783   0.114   8.001  0.7216  0.2231  1.4815
 2840SOL    HW220154   2.837   0.172   7.873 -0.9951  1.6329 -0.0261
 2841SOL     OW20155   0.662   1.524   3.355 -0.5069  0.4100  0.3523
 2841SOL    HW120156   0.579   1.477   3.348  0.8380 -1.9586  0.2690
 2841SOL    HW220157   0.625   1.612   3.359  0.6240  0.7765  2.3736
 2842SOL     OW20158   3.791   1.486   5.966 -0.4180 -0.3320  0.3914
 2842SOL    HW120159   3.707   1.503   6.007 -0.8242 -1.4643  0.0436
 2842SOL    HW220160   3.827   1.573   5.981 -0.3167 -0.2609 -0.2678
 2843SOL     OW20161   1.511   0.457   3.955  0.7258  0.2411  0.1622
 2843SOL    HW120162   1.452   0.531   3.972 -1.9498 -1.1686 -3.0833
 2843SOL    HW220163   1.537   0.425   4.041  2.4921  1.0538 -0.0730
 2844SOL     OW20164   0.977   2.483  16.263  0.4168 -0.2734 -0.1854
 2844SOL    HW120165   0.946   2.392  16.257  1.5344 -0.7704  1.4972
 2844SOL    HW220166   0.959   2.525  16.179 -0.4803 -1.3106 -0.5022
 2845SOL     OW20167   3.362   0.357   6.171 -0.1059  0.5975  0.2176
 2845SOL    HW120168   3.325   0.271   6.190 -1.8799  0.9032 -1.8371
 2845SOL    HW220169   3.325   0.414   6.239  2.9467  3.1464 -0.2492
 2846SOL     OW20170   0.671   4.370   8.813 -0.0717 -0.1092  0.0130
 2846SOL    HW120171   0.723   4.450   8.822 -2.1659  1.4682 -1.9462
 2846SOL    HW220172   0.741   4.305   8.821  0.7077  0.4205 -2.7718
 2847SOL     OW20173   4.590   4.103   3.828  0.0382  0.4763  0.1489
 2847SOL    HW120174   4.608   4.092   3.735  1.0470 -0.9947  0.5201
 2847SOL    HW220175   4.523   4.036   3.842 -0.8387  1.7193  1.9730
 2848SOL     OW20176   3.850   2.701   7.671 -0.1300 -0.3915  0.1633
 2848SOL    HW120177   3.887   2.723   7.585 -0.9206 -0.7262 -0.2621
 2848SOL    HW220178   3.868   2.607   7.677  0.3298 -0.6353 -4.8994
 2849SOL     OW20179   0.680   0.649  15.020 -0.0815  0.0340  0.5940
 2849SOL    HW120180   0.775   0.648  15.010 -0.0803  1.8142  0.5082
 2849SOL    HW220181   0.665   0.558  14.995 -0.6878 -0.2025  1.8003
 2850SOL     OW20182   3.415   1.897   2.527  0.2070  0.9906  0.3900
 2850SOL    HW120183   3.494   1.860   2.488 -0.6672  0.5676 -1.0057
 2850SOL    HW220184   3.374   1.948   2.456 -0.5649 -0.3896 -0.1558
 2851SOL     OW20185   0.153   4.572   3.964 -0.1620 -0.1795  0.2253
 2851SOL    HW120186   0.156   4.623   4.045  1.1000  1.1217 -0.6409
 2851SOL    HW220187   0.065   4.574   3.928 -0.1128  0.7495  0.1452
 2852SOL     OW20188   1.696   2.151   5.257 -0.0395 -0.2023 -0.1178
 2852SOL    HW120189   1.679   2.082   5.193  1.8134 -1.0542  0.3312
 2852SOL    HW220190   1.773   2.193   5.220  0.3629 -0.4529  0.4421
 2853SOL     OW20191   0.793   0.452   4.763 -0.0665  0.1730  0.4095
 2853SOL    HW120192   0.765   0.452   4.672  3.5244  1.2464 -0.7058
 2853SOL    HW220193   0.887   0.434   4.754 -0.2763 -0.5305 -0.3368
 2854SOL     OW20194   4.445   1.506   2.579 -0.1750  0.7588 -0.2982
 2854SOL    HW120195   4.355   1.499   2.609  0.6075 -0.6796  1.6779
 2854SOL    HW220196   4.439   1.573   2.511  3.4841  1.9715  0.5710
 2855SOL     OW20197   3.297   3.463   5.234  0.1834 -0.3033  0.0968
 2855SOL    HW120198   3.346   3.381   5.227 -3.7752 -2.7347  0.2925
 2855SOL    HW220199   3.348   3.529   5.189 -1.2364  0.9971  0.3849
 2856SOL     OW20200   3.154   4.091   7.701  0.2281  0.0136  0.2932
 2856SOL    HW120201   3.077   4.124   7.656 -0.1883 -1.9992 -0.4766
 2856SOL    HW220202   3.213   4.063   7.631 -1.3999 -1.8392 -0.3515
 2857SOL     OW20203   4.557   1.783   7.754  0.4042  0.3199 -0.0158
 2857SOL    HW120204   4.475   1.736   7.770  1.2543 -0.8272  0.8475
 2857SOL    HW220205   4.620   1.733   7.804 -0.1470 -0.7111 -0.3602
 2858SOL     OW20206   3.063   4.160   5.826 -0.3034 -0.4271  0.1634
 2858SOL    HW120207   2.974   4.156   5.793 -0.3150 -1.8711  0.4086
 2858SOL    HW220208   3.065   4.074   5.868  2.1287 -1.0039 -1.1015
 2859SOL     OW20209   3.295   1.185   3.824  0.2981 -0.7297 -0.0230
 2859SOL    HW120210   3.309   1.279   3.813 -1.7426 -0.6443 -1.8082
 2859SOL    HW220211   3.296   1.173   3.918  0.6460  0.5095  0.1334
 2860SOL     OW20212   2.912   2.823   4.031  0.0089 -0.3975 -0.2661
 2860SOL    HW120213   2.834   2.776   4.000  0.9667 -3.0619  1.3777
 2860SOL    HW220214   2.904   2.898   3.972 -0.4560 -1.0775 -1.0637
 2861SOL     OW20215   3.134   2.629   3.352  0.5182 -0.7736  0.1325
 2861SOL    HW120216   3.189   2.580   3.413  1.5205  2.8690  2.1518
 2861SOL    HW220217   3.067   2.565   3.328  0.0154  0.3029 -1.3719
 2862SOL     OW20218   2.262   4.410   4.997  0.3973 -0.6060  0.2153
 2862SOL    HW120219   2.200   4.427   5.069  1.6574 -0.8187  1.3388
 2862SOL    HW220220   2.244   4.481   4.935  0.4394 -1.9183 -1.2679
 2863SOL     OW20221   2.418   4.334   3.485 -0.6298 -0.0189 -0.1037
 2863SOL    HW120222   2.513   4.326   3.500 -0.2578  1.7122 -1.5311
 2863SOL    HW220223   2.394   4.322   3.393  2.1304 -0.9860 -0.6954
 2864SOL     OW20224   1.803   1.561  12.338  0.1071  0.0621 -0.0636
 2864SOL    HW120225   1.786   1.502  12.264  0.0397  1.2551 -1.0088
 2864SOL    HW220226   1.718   1.564  12.380 -1.6208  0.4471 -3.5655
 2865SOL     OW20227   2.638   3.934   4.450  0.3500  0.2114  0.2592
 2865SOL    HW120228   2.550   3.941   4.487 -0.3039 -0.9889 -1.0742
 2865SOL    HW220229   2.669   4.015   4.491  2.0200  0.0538 -0.7202
 2866SOL     OW20230   0.970   1.276  17.079 -0.3427  0.7680  0.1231
 2866SOL    HW120231   1.053   1.307  17.043 -0.7794  2.0633  0.1987
 2866SOL    HW220232   1.015   1.200  17.116 -1.4594 -0.1384 -0.3818
 2867SOL     OW20233   1.013   0.512   7.250  0.2493 -0.0848 -0.5121
 2867SOL    HW120234   1.057   0.596   7.236 -2.6386  1.1788 -1.9392
 2867SOL    HW220235   1.059   0.465   7.320  1.6720 -0.7003 -1.8566
 2868SOL     OW20236   4.424   0.934   7.570 -0.5329  0.3506 -0.2477
 2868SOL    HW120237   4.361   1.003   7.590 -0.8122  0.5825 -1.9424
 2868SOL    HW220238   4.505   0.985   7.577 -0.6913  0.9874 -2.9851
 2869SOL     OW20239   4.472   4.489  16.094  0.0324 -0.5540  0.1616
 2869SOL    HW120240   4.565   4.512  16.087  0.1247 -0.3357  1.9882
 2869SOL    HW220241   4.420   4.569  16.102  1.0929  0.0130  1.5566
 2870SOL     OW20242   2.269   2.692   6.421  0.3942 -0.2284  0.0448
 2870SOL    HW120243   2.182   2.691   6.460 -0.7850 -3.1667 -2.6586
 2870SOL    HW220244   2.287   2.608   6.379  0.5565 -0.6058  0.8884
 2871SOL     OW20245   4.417   1.674   0.718  0.1028  0.1481  0.2764
 2871SOL    HW120246   4.336   1.654   0.764  0.3541 -1.8568 -0.1551
 2871SOL    HW220247   4.400   1.759   0.678 -0.7149 -0.9804 -1.7702
 2872SOL     OW20248   3.948   4.710   7.864  0.6274 -0.1369 -0.1188
 2872SOL    HW120249   4.001   4.691   7.787 -0.9175 -1.0258 -0.9668
 2872SOL    HW220250   3.870   4.654   7.866 -1.0252  2.0644 -2.0051
 2873SOL     OW20251   1.716   3.034   3.479  0.7422 -0.6348 -0.2473
 2873SOL    HW120252   1.777   2.967   3.450 -0.4247 -2.0888  0.7075
 2873SOL    HW220253   1.723   3.032   3.574 -1.7127  1.0245 -0.0241
 2874SOL     OW20254   3.647   0.765  13.278 -0.4325  0.1311  0.0753
 2874SOL    HW120255   3.691   0.718  13.349  0.1069 -2.5805 -2.0644
 2874SOL    HW220256   3.564   0.781  13.323 -0.4509  2.2782 -0.7566
 2875SOL     OW20257   3.175   3.174   9.298 -0.6201  0.7428  0.0055
 2875SOL    HW120258   3.160   3.187   9.204 -0.9136  1.0482  0.0949
 2875SOL    HW220259   3.087   3.173   9.334 -0.6347 -0.5941 -0.0689
 2876SOL     OW20260   1.092   4.370   8.105  0.5193 -0.4895 -0.1603
 2876SOL    HW120261   1.038   4.389   8.029 -1.0349 -1.6178  0.6565
 2876SOL    HW220262   1.178   4.397   8.072 -0.3937  1.2124 -1.1073
 2877SOL     OW20263   4.566   0.368   8.634  0.2775 -0.0148  0.3224
 2877SOL    HW120264   4.478   0.378   8.670  0.6022  0.7572  0.9065
 2877SOL    HW220265   4.549   0.341   8.544 -2.2134 -2.3044  1.4731
 2878SOL     OW20266   3.934   3.478   1.665  0.8449 -0.1168  0.6209
 2878SOL    HW120267   4.006   3.429   1.625  0.0503  0.8574 -1.9935
 2878SOL    HW220268   3.915   3.561   1.622 -0.4433 -2.1170 -2.6843
 2879SOL     OW20269   3.105   3.115   8.697  1.1618  1.0252 -0.0978
 2879SOL    HW120270   3.022   3.082   8.733  2.0806 -1.2462 -0.0202
 2879SOL    HW220271   3.129   3.042   8.639 -0.5494 -1.4093  2.2169
 2880SOL     OW20272   0.674   1.082   9.784 -0.3765 -0.6089 -0.0467
 2880SOL    HW120273   0.586   1.117   9.768  0.4942  0.9903 -1.3237
 2880SOL    HW220274   0.659   0.994   9.819  0.9885 -0.9820 -0.4236
 2881SOL     OW20275   3.665   2.159   6.025  0.3271  0.4923 -0.5624
 2881SOL    HW120276   3.726   2.120   6.087 -0.1748 -1.5749 -1.3715
 2881SOL    HW220277   3.650   2.078   5.976 -1.0843  0.8045 -0.6358
 2882SOL     OW20278   3.842   2.028   6.203  0.2427  0.3636  0.3699
 2882SOL    HW120279   3.904   2.075   6.258  1.6916  0.6566 -1.5171
 2882SOL    HW220280   3.897   1.962   6.161 -0.1741  1.0774 -1.3234
 2883SOL     OW20281   4.730   1.450  14.398  0.0682  0.2620  0.3311
 2883SOL    HW120282   4.690   1.384  14.341 -0.3020  2.2943 -1.7721
 2883SOL    HW220283   4.662   1.517  14.390 -0.1816 -0.1828 -1.3098
 2884SOL     OW20284   2.509   4.274   7.043 -0.3394  0.3344 -0.0478
 2884SOL    HW120285   2.438   4.281   7.107  0.4791 -0.1670  0.9125
 2884SOL    HW220286   2.497   4.355   6.993  1.8289  1.3144  1.0261
 2885SOL     OW20287   1.873   4.273   6.070 -0.3855 -0.3029  0.3512
 2885SOL    HW120288   1.897   4.329   5.996 -0.4269  0.5122  0.9672
 2885SOL    HW220289   1.784   4.305   6.087 -0.1727  0.6090 -0.2701
 2886SOL     OW20290   1.079   0.940   0.042  0.1297  0.2386  0.3553
 2886SOL    HW120291   1.066   1.032   0.061  2.2614  0.8742 -1.2410
 2886SOL    HW220292   1.085   0.903   0.130  1.8471 -1.2495 -0.3805
 2887SOL     OW20293   0.939   1.387   2.550 -0.4548  0.0938  0.3367
 2887SOL    HW120294   1.003   1.343   2.606 -0.5947 -1.1159 -0.4446
 2887SOL    HW220295   0.930   1.327   2.476  0.9521  1.1107 -0.6484
 2888SOL     OW20296   2.287   2.426  17.527  0.0108 -0.8729  0.2436
 2888SOL    HW120297   2.337   2.397  17.451  1.0307  0.1685  0.5060
 2888SOL    HW220298   2.206   2.376  17.537 -2.0121  2.2064 -0.4798
 2889SOL     OW20299   2.254   4.253   7.200  0.2208  0.0363  0.4443
 2889SOL    HW120300   2.176   4.294   7.161 -0.2227  0.2349  1.5471
 2889SOL    HW220301   2.246   4.162   7.174  1.8977 -0.5462  1.9846
 2890SOL     OW20302   3.519   1.843  11.735  0.0018  0.6281  0.1085
 2890SOL    HW120303   3.553   1.933  11.732  0.4184  0.3545 -3.1917
 2890SOL    HW220304   3.434   1.853  11.693 -0.2305  0.1557  0.4729
 2891SOL     OW20305   1.762   1.343  12.214  0.4213 -0.6907 -0.1330
 2891SOL    HW120306   1.771   1.264  12.267  1.2340 -0.1708  0.4938
 2891SOL    HW220307   1.845   1.338  12.168 -0.0277 -0.2504 -0.9928
 2892SOL     OW20308   0.369   1.772   4.493 -0.0028  0.1666 -0.0702
 2892SOL    HW120309   0.342   1.863   4.503 -4.0818 -1.1212  1.0338
 2892SOL    HW220310   0.396   1.768   4.402  0.6864  1.6219  0.0770
 2893SOL     OW20311   1.534   2.468   4.697  0.0419  0.1012 -0.1306
 2893SOL    HW120312   1.478   2.544   4.714 -0.9445 -0.1247 -2.4859
 2893SOL    HW220313   1.482   2.395   4.731 -2.4834  1.7343 -0.5367
 2894SOL     OW20314   4.413   4.089  10.783  0.5184 -0.2055  0.2114
 2894SOL    HW120315   4.498   4.120  10.812  0.1192  0.7483  0.3583
 2894SOL    HW220316   4.445   4.000  10.766  0.7322 -0.1175  0.1503
 2895SOL     OW20317   3.528   3.053   4.435 -0.0882 -0.4327 -0.3731
 2895SOL    HW120318   3.524   2.958   4.445 -1.3800 -0.2385  1.0230
 2895SOL    HW220319   3.544   3.091   4.522 -0.9390 -0.8710 -0.0195
 2896SOL     OW20320   0.462   2.602  10.672 -0.2206  0.3839 -1.2661
 2896SOL    HW120321   0.412   2.527  10.640 -1.2295  0.7416 -0.5146
 2896SOL    HW220322   0.546   2.591  10.627 -0.2130 -1.2702 -0.8310
 2897SOL     OW20323   1.302   4.616   3.802  0.2958  0.7911  0.3542
 2897SOL    HW120324   1.348   4.700   3.805  0.3916  0.7437  0.2243
 2897SOL    HW220325   1.345   4.571   3.729 -1.6893 -0.1620 -0.2055
 2898SOL     OW20326   4.674   4.454   2.227 -0.4772 -0.1989 -0.2020
 2898SOL    HW120327   4.642   4.364   2.221 -0.0107 -0.4192  0.6468
 2898SOL    HW220328   4.656   4.483   2.137  0.4269  1.0177  0.0168
 2899SOL     OW20329   2.322   3.869  13.472  0.6196  0.1178  0.4831
 2899SOL    HW120330   2.358   3.953  13.444 -1.8623  1.5223  1.5401
 2899SOL    HW220331   2.250   3.864  13.410  1.3019 -2.2738 -0.1229
 2900SOL     OW20332   2.618   1.063   9.163  0.0662  0.3441 -0.1151
 2900SOL    HW120333   2.675   1.139   9.150  1.3408 -0.3267  1.4467
 2900SOL    HW220334   2.532   1.099   9.141  0.6393  0.5468 -2.0241
 2901SOL     OW20335   4.173   1.603   9.867  0.1910 -0.4966 -0.3083
 2901SOL    HW120336   4.104   1.627   9.928  0.9216  0.3399  0.1908
 2901SOL    HW220337   4.239   1.670   9.884  0.4058 -0.6260 -0.6319
 2902SOL     OW20338   0.454   1.535   8.778  0.0635  0.1158  0.2284
 2902SOL    HW120339   0.369   1.557   8.740 -0.0445 -1.6299 -0.5437
 2902SOL    HW220340   0.501   1.614   8.752 -0.7804  0.6545  0.3495
 2903SOL     OW20341   1.724   3.771   2.976 -0.1695  0.0374  0.6363
 2903SOL    HW120342   1.692   3.861   2.966  1.9102  0.8267  0.9749
 2903SOL    HW220343   1.719   3.767   3.071 -0.2405 -0.3640  0.6142
 2904SOL     OW20344   2.401   4.561   2.180  0.5128 -0.3143 -0.4978
 2904SOL    HW120345   2.328   4.574   2.120  0.9741 -0.9230 -1.2043
 2904SOL    HW220346   2.361   4.574   2.266 -0.9798 -0.5638 -1.1699
 2905SOL     OW20347   0.117   0.069   8.070 -0.1628  1.2193 -0.2635
 2905SOL    HW120348   0.072   4.722   8.082  2.1018  0.3698  2.4421
 2905SOL    HW220349   0.137   0.077   7.977  0.5996  0.5886 -0.1481
 2906SOL     OW20350   0.056   2.287   5.298  0.1151  0.4157 -0.4327
 2906SOL    HW120351   0.042   2.308   5.206 -0.4480 -0.3600 -0.5230
 2906SOL    HW220352   0.113   2.211   5.293  1.1896  1.1660  0.3343
 2907SOL     OW20353   4.572   3.624   7.723  0.3510 -0.2065 -0.1530
 2907SOL    HW120354   4.641   3.688   7.703  1.6211 -2.0584 -1.7541
 2907SOL    HW220355   4.620   3.565   7.781 -0.2308 -0.6040 -0.0842
 2908SOL     OW20356   3.469   1.759  15.586 -0.0982 -0.6309  0.0212
 2908SOL    HW120357   3.437   1.677  15.624 -3.0449 -0.2754 -1.6633
 2908SOL    HW220358   3.391   1.812  15.599  2.1047  2.4740  0.4093
 2909SOL     OW20359   4.052   0.957   1.915  0.3168  0.3836 -0.1762
 2909SOL    HW120360   4.009   0.975   1.831  0.3658 -0.2005 -0.3317
 2909SOL    HW220361   3.982   0.944   1.979 -1.1283 -2.1423 -2.2733
 2910SOL     OW20362   3.273   3.126   6.698 -0.6973  0.3628  0.4455
 2910SOL    HW120363   3.247   3.047   6.651  2.1978  0.3959 -1.2258
 2910SOL    HW220364   3.324   3.091   6.770 -1.5915 -1.4252  0.2151
 2911SOL     OW20365   0.046   2.432   6.304 -0.8171 -0.1919  0.0462
 2911SOL    HW120366   4.695   2.400   6.320 -0.1425 -1.5647  1.0252
 2911SOL    HW220367   0.027   2.522   6.277 -1.0332 -0.2369  0.0494
 2912SOL     OW20368   4.544   3.013   7.185  0.1630 -0.1592  0.1814
 2912SOL    HW120369   4.559   3.083   7.250  0.1991  1.1820 -1.2589
 2912SOL    HW220370   4.628   2.968   7.178  0.0633  0.1634 -3.2317
 2913SOL     OW20371   0.397   3.722   6.883  0.0670 -0.0592 -0.2818
 2913SOL    HW120372   0.332   3.701   6.816  1.1102 -0.1104 -1.2591
 2913SOL    HW220373   0.360   3.801   6.922  1.6261 -0.8268  2.7411
 2914SOL     OW20374   2.667   0.949   2.979  0.1769 -0.3494 -0.3090
 2914SOL    HW120375   2.667   0.978   2.888  0.8834 -0.1563 -0.2453
 2914SOL    HW220376   2.605   1.010   3.019 -0.1213 -1.6751  1.2469
 2915SOL     OW20377   1.039   2.019   2.533  0.2798 -0.1390  0.4541
 2915SOL    HW120378   0.975   2.005   2.462  1.7886 -0.1805 -0.8920
 2915SOL    HW220379   1.002   2.101   2.567  2.0246  1.3613 -1.2228
 2916SOL     OW20380   1.466   3.926   5.961  0.2873  0.1649 -0.1258
 2916SOL    HW120381   1.493   3.936   5.870 -2.2245  0.2680 -0.8841
 2916SOL    HW220382   1.377   3.962   5.955  0.2826  0.0604 -0.6386
 2917SOL     OW20383   1.194   4.543  10.962  0.5393 -0.0968  0.3337
 2917SOL    HW120384   1.253   4.468  10.978  0.2189 -0.7486 -1.6011
 2917SOL    HW220385   1.107   4.503  10.963 -1.2989  3.9326  1.4513
 2918SOL     OW20386   3.750   1.279   8.613  0.2788  0.3901 -0.6010
 2918SOL    HW120387   3.775   1.197   8.570  0.4508  0.5193 -0.7483
 2918SOL    HW220388   3.700   1.326   8.547  0.3335  0.8914 -0.2826
 2919SOL     OW20389   2.394   0.378  12.111 -0.4248 -0.4656  0.2640
 2919SOL    HW120390   2.402   0.471  12.133 -1.9606 -0.3501  0.3127
 2919SOL    HW220391   2.346   0.338  12.183  0.4181 -1.7217  0.1387
 2920SOL     OW20392   4.482   2.529   5.939 -0.1578 -0.2175  0.2518
 2920SOL    HW120393   4.495   2.535   5.844 -0.0535 -2.5610  0.0977
 2920SOL    HW220394   4.526   2.445   5.954  2.7137  1.4034  0.8512
 2921SOL     OW20395   1.541   3.274   5.492 -0.3091 -0.1306 -0.6915
 2921SOL    HW120396   1.469   3.307   5.437 -0.6559  0.8793  0.3827
 2921SOL    HW220397   1.490   3.236   5.564 -1.0765  0.3333 -0.9892
 2922SOL     OW20398   4.444   3.897   3.491  0.8567  0.0014  0.3486
 2922SOL    HW120399   4.399   3.819   3.459 -0.5687  1.1747 -0.5035
 2922SOL    HW220400   4.399   3.980   3.475 -1.0721 -1.3701 -1.3930
 2923SOL     OW20401   2.066   3.834   8.160 -0.4468  0.2004  0.2187
 2923SOL    HW120402   2.112   3.882   8.091 -1.1754  1.7024  0.7880
 2923SOL    HW220403   1.973   3.850   8.147 -0.0691  1.0156 -1.5421
 2924SOL     OW20404   2.283   3.631  13.627 -0.0868 -0.0754 -0.5046
 2924SOL    HW120405   2.265   3.723  13.605  2.0076  0.5212  0.2504
 2924SOL    HW220406   2.197   3.620  13.667 -0.4053  1.0054 -0.8839
 2925SOL     OW20407   2.715   0.301  17.221  0.7172  0.2297  0.4783
 2925SOL    HW120408   2.729   0.306  17.126  0.6133 -0.3712  0.4348
 2925SOL    HW220409   2.768   0.370  17.261 -0.3183 -0.0333  2.3015
 2926SOL     OW20410   1.024   0.666   6.980  0.1504  0.0176  0.0636
 2926SOL    HW120411   1.017   0.585   7.031  0.2274 -1.4241 -2.2194
 2926SOL    HW220412   0.955   0.712   7.029  1.6422  0.6621  1.5754
 2927SOL     OW20413   3.756   3.964   3.270  0.6553 -0.3667  0.1349
 2927SOL    HW120414   3.668   3.989   3.244  1.2236 -0.5683 -1.9531
 2927SOL    HW220415   3.734   3.927   3.356  0.9897 -0.5554  0.1408
 2928SOL     OW20416   1.202   1.315   2.827  0.4651 -0.1334 -0.5355
 2928SOL    HW120417   1.115   1.348   2.851  0.3544 -0.8186  0.0081
 2928SOL    HW220418   1.195   1.222   2.846 -0.9497 -0.1545 -1.1986
 2929SOL     OW20419   4.138   4.436   6.630  0.3534  0.4947  0.4755
 2929SOL    HW120420   4.191   4.427   6.710 -0.1899  1.0499  0.9052
 2929SOL    HW220421   4.143   4.344   6.607  1.1686  0.8533 -0.7390
 2930SOL     OW20422   1.290   2.758  11.750 -0.6666 -0.1179 -0.1096
 2930SOL    HW120423   1.357   2.770  11.683 -2.6563  0.2743 -2.0083
 2930SOL    HW220424   1.335   2.801  11.824 -0.9652 -0.7213  0.4266
 2931SOL     OW20425   3.935   2.718   8.935 -0.4836  0.2608 -0.2995
 2931SOL    HW120426   3.941   2.627   8.965 -0.4975 -0.1252 -1.4523
 2931SOL    HW220427   3.931   2.713   8.840 -2.4159  2.3166 -0.3172
 2932SOL     OW20428   2.639   0.331  10.356  0.4562  0.3220 -0.2412
 2932SOL    HW120429   2.712   0.346  10.416 -0.9127  2.0016  0.9991
 2932SOL    HW220430   2.596   0.415  10.339 -0.9759 -0.4147 -0.2514
 2933SOL     OW20431   1.505   4.203   7.652 -0.1417  0.6823 -0.3105
 2933SOL    HW120432   1.534   4.152   7.576  3.8008 -0.9370  2.2512
 2933SOL    HW220433   1.448   4.264   7.606 -0.0707  0.7617 -0.2938
 2934SOL     OW20434   2.937   1.647   2.553  0.0457 -0.2616 -0.1621
 2934SOL    HW120435   2.894   1.732   2.552 -0.0464 -0.3007  0.4656
 2934SOL    HW220436   2.898   1.601   2.478 -1.4917 -2.2059  1.8178
 2935SOL     OW20437   0.935   0.963   3.434  0.1679 -0.0292 -0.3262
 2935SOL    HW120438   0.858   0.932   3.387 -0.5071 -0.8914  1.3563
 2935SOL    HW220439   0.889   0.991   3.514 -0.8149  0.7816 -1.1703
 2936SOL     OW20440   3.283   2.864   3.310  0.1098 -0.3080  0.4031
 2936SOL    HW120441   3.226   2.787   3.304  1.7059 -1.6279  2.0610
 2936SOL    HW220442   3.369   2.830   3.286  0.1530  0.6620 -0.8032
 2937SOL     OW20443   3.692   2.502   4.969 -0.8092 -0.4357  0.1156
 2937SOL    HW120444   3.678   2.478   5.061 -1.6474  1.1857  0.4021
 2937SOL    HW220445   3.633   2.445   4.921 -2.5263  0.9639  0.5684
 2938SOL     OW20446   3.043   3.946   9.341 -0.6837  0.4318 -0.1431
 2938SOL    HW120447   2.972   3.919   9.282 -1.5931  2.1477  0.1543
 2938SOL    HW220448   3.108   3.876   9.336  0.4937  1.6308 -1.3098
 2939SOL     OW20449   3.058   2.709   0.196  0.5402 -0.5168  0.0376
 2939SOL    HW120450   3.098   2.751   0.272 -1.3563 -0.8960  1.2377
 2939SOL    HW220451   3.134   2.714   0.137 -0.6596  0.2240 -1.4500
 2940SOL     OW20452   3.661   4.109   2.643  0.0428 -0.2838  0.1861
 2940SOL    HW120453   3.693   4.038   2.587  0.0347  0.2946 -0.5331
 2940SOL    HW220454   3.742   4.142   2.683 -0.1773 -0.1712  0.5376
 2941SOL     OW20455   2.016   2.102   8.475 -0.4109 -0.3468  0.4420
 2941SOL    HW120456   1.971   2.059   8.402  1.5855 -1.1485 -0.3370
 2941SOL    HW220457   2.097   2.127   8.430 -1.6694  0.8355 -1.1607
 2942SOL     OW20458   4.466   4.274   1.322 -0.2655  0.5433  0.1423
 2942SOL    HW120459   4.395   4.313   1.374  0.5406  1.9928  0.1585
 2942SOL    HW220460   4.422   4.277   1.237 -0.3201  0.2663  0.1608
 2943SOL     OW20461   2.552   1.147   5.407 -0.2248 -0.4557 -0.0540
 2943SOL    HW120462   2.608   1.071   5.423 -0.4626 -0.3681  1.2077
 2943SOL    HW220463   2.503   1.121   5.329 -3.7747  0.5987  1.8497
 2944SOL     OW20464   0.080   3.457   7.013  0.8709  0.0200 -0.0468
 2944SOL    HW120465   0.064   3.401   7.089  0.1911  2.0557  1.3139
 2944SOL    HW220466   0.175   3.447   7.010  0.9970  1.0423  0.7433
 2945SOL     OW20467   0.473   0.923   8.306 -0.7857 -0.2739  0.0886
 2945SOL    HW120468   0.424   0.863   8.362  1.0152 -0.1468  1.8080
 2945SOL    HW220469   0.536   0.951   8.372  0.1221 -1.3016 -0.3406
 2946SOL     OW20470   4.646   0.159   5.406  0.2668  0.3080 -0.0343
 2946SOL    HW120471   4.556   0.133   5.388  0.0756  0.0818  1.2448
 2946SOL    HW220472   4.675   0.070   5.428 -1.6002 -0.2688  0.1192
 2947SOL     OW20473   0.093   1.710  17.147  0.1787  0.0033  0.1216
 2947SOL    HW120474   0.065   1.627  17.110  0.6399  0.5541 -1.4456
 2947SOL    HW220475   0.099   1.683  17.239 -0.4861  0.5559  0.3273
 2948SOL     OW20476   4.440   3.609  16.945 -0.5285 -0.0818 -0.7212
 2948SOL    HW120477   4.400   3.522  16.936 -0.4334 -0.3576  1.6374
 2948SOL    HW220478   4.374   3.664  16.986  0.7319 -0.2969  1.5693
 2949SOL     OW20479   1.750   2.582   8.606 -0.3685 -0.3239 -0.1306
 2949SOL    HW120480   1.736   2.488   8.605 -1.6735 -0.1203 -1.8193
 2949SOL    HW220481   1.714   2.610   8.521  0.2355  0.7245 -0.0522
 2950SOL     OW20482   0.839   0.914   7.961 -0.6152  0.2788 -0.0257
 2950SOL    HW120483   0.763   0.889   7.908 -0.0683  0.7416 -1.0266
 2950SOL    HW220484   0.837   1.009   7.952 -3.0033  0.3309  1.0224
 2951SOL     OW20485   4.136   4.338   4.446  0.0819  0.4115 -0.1041
 2951SOL    HW120486   4.072   4.346   4.375  1.2451 -0.2945 -1.2359
 2951SOL    HW220487   4.214   4.371   4.401  0.1086 -0.5615 -0.7686
 2952SOL     OW20488   3.542   2.802   6.748 -0.3245  0.3747  1.0275
 2952SOL    HW120489   3.531   2.764   6.835 -2.5480 -2.1771 -0.3758
 2952SOL    HW220490   3.482   2.749   6.696  0.1473  0.0664  0.7948
 2953SOL     OW20491   3.669   2.198   3.603  0.4688  0.2085 -0.2713
 2953SOL    HW120492   3.625   2.267   3.553 -1.9358 -0.6171  0.6899
 2953SOL    HW220493   3.757   2.197   3.564  0.7066 -1.2177  0.3285
 2954SOL     OW20494   3.718   2.561   7.244  0.0997 -0.1757  0.0429
 2954SOL    HW120495   3.756   2.600   7.165  0.1115  1.8949  1.0644
 2954SOL    HW220496   3.643   2.521   7.201 -0.4629  0.8598  0.0664
 2955SOL     OW20497   1.644   0.363   7.983 -0.3831 -0.0963 -0.2680
 2955SOL    HW120498   1.726   0.329   8.017  0.6059  1.5829 -0.9687
 2955SOL    HW220499   1.607   0.276   7.965  2.3071 -1.4002  0.6178
 2956SOL     OW20500   4.016   1.520   3.454 -0.2354 -0.7019  0.1579
 2956SOL    HW120501   3.997   1.479   3.538 -2.8988  0.0363 -0.1044
 2956SOL    HW220502   4.033   1.447   3.394  1.9463 -0.9294  1.0612
 2957SOL     OW20503   2.893   0.075  16.790 -0.7404  0.0031 -0.5040
 2957SOL    HW120504   2.967   0.134  16.799  0.4503 -1.1212 -2.7841
 2957SOL    HW220505   2.851   0.064  16.875 -0.5659  3.7787  0.0667
 2958SOL     OW20506   4.466   4.380   9.171 -0.2940 -0.5051 -0.6634
 2958SOL    HW120507   4.495   4.450   9.113  1.9046 -0.7064  0.1920
 2958SOL    HW220508   4.387   4.360   9.120 -1.0332  0.4285  0.1236
 2959SOL     OW20509   4.571   2.129   6.608 -0.1613 -0.4946 -0.0390
 2959SOL    HW120510   4.665   2.146   6.611 -0.5583  1.4449  1.6839
 2959SOL    HW220511   4.558   2.037   6.585  0.3330  0.3846 -3.8460
 2960SOL     OW20512   4.249   2.807   8.958 -0.0550  0.1941 -0.0426
 2960SOL    HW120513   4.159   2.785   8.934 -0.2092  0.1965  0.5259
 2960SOL    HW220514   4.259   2.734   9.019  2.0039 -1.9024 -2.9207
 2961SOL     OW20515   2.485   2.978   3.910 -0.8128 -0.2069 -0.3581
 2961SOL    HW120516   2.463   2.907   3.850 -1.3541 -0.6566  0.3707
 2961SOL    HW220517   2.418   3.042   3.886 -0.2498  1.2026  1.8218
 2962SOL     OW20518   3.894   2.547   1.948  0.3935 -0.1162  0.2378
 2962SOL    HW120519   3.968   2.601   1.975 -0.2027  0.6247  0.3789
 2962SOL    HW220520   3.867   2.571   1.859 -0.9540 -0.0345  0.6781
 2963SOL     OW20521   3.379   1.184   5.821 -0.2144  0.6108 -0.1911
 2963SOL    HW120522   3.293   1.158   5.787 -1.0331  0.7866  1.7674
 2963SOL    HW220523   3.348   1.260   5.870  1.9461 -0.3697  2.6573
 2964SOL     OW20524   2.771   4.344   4.689 -0.1005  0.8074 -0.5102
 2964SOL    HW120525   2.828   4.393   4.630  1.0628 -1.6800 -1.4541
 2964SOL    HW220526   2.696   4.337   4.629 -0.8106  1.5399  0.2983
 2965SOL     OW20527   0.687   3.992   6.447  0.3091  0.1872  0.7138
 2965SOL    HW120528   0.750   3.926   6.418  2.2098  2.7825 -1.0313
 2965SOL    HW220529   0.616   3.938   6.482  0.6941  0.9543  2.6655
 2966SOL     OW20530   0.787   1.773   2.435 -0.0235 -0.0107 -0.4453
 2966SOL    HW120531   0.816   1.827   2.362 -2.6556 -3.3302 -3.9119
 2966SOL    HW220532   0.698   1.750   2.410 -0.7979  1.8029  0.6470
 2967SOL     OW20533   1.020   1.607   5.494  0.4879  0.2679 -0.3948
 2967SOL    HW120534   0.926   1.615   5.480  0.2924  1.4094  1.5942
 2967SOL    HW220535   1.032   1.637   5.584  2.3982  0.4353 -0.6989
 2968SOL     OW20536   1.579   4.434   5.567 -0.2205  0.4398 -0.1968
 2968SOL    HW120537   1.561   4.365   5.503  2.9407  0.3352 -1.0068
 2968SOL    HW220538   1.602   4.511   5.514  1.5107 -0.4367 -0.7489
 2969SOL     OW20539   2.615   0.344   5.834 -0.2229 -0.2899 -0.3790
 2969SOL    HW120540   2.679   0.287   5.877  0.2424  1.9597  1.8917
 2969SOL    HW220541   2.567   0.388   5.904  0.7166 -0.7255  0.5410
 2970SOL     OW20542   0.073   2.232  17.531 -0.1523  0.2446 -0.6927
 2970SOL    HW120543   0.066   2.147  17.487  0.8675 -1.7294  2.9562
 2970SOL    HW220544   0.138   2.272  17.473 -1.7819  1.1051 -1.9156
 2971SOL     OW20545   2.416   1.772   8.958  0.0756 -0.2335  0.1320
 2971SOL    HW120546   2.358   1.846   8.942 -1.3502 -1.2332  0.6578
 2971SOL    HW220547   2.419   1.761   9.053 -1.8102 -1.6059  0.0395
 2972SOL     OW20548   2.614   2.943   9.441 -0.1427  0.1702  0.5616
 2972SOL    HW120549   2.703   2.976   9.430  0.8989 -1.9067  2.8862
 2972SOL    HW220550   2.616   2.856   9.481  0.9223  0.0019  0.1400
 2973SOL     OW20551   2.929   4.379   5.217 -0.2581 -0.1989 -0.4474
 2973SOL    HW120552   3.025   4.383   5.212 -0.2336 -0.4175 -0.1617
 2973SOL    HW220553   2.908   4.299   5.169 -0.7814 -0.7522  0.7009
 2974SOL     OW20554   3.753   2.170   5.029 -0.1407 -0.1864 -0.0247
 2974SOL    HW120555   3.697   2.238   4.991 -0.4695 -0.3749  0.1297
 2974SOL    HW220556   3.686   2.111   5.063 -0.4616  0.1129 -0.1353
 2975SOL     OW20557   0.100   4.683  11.410  0.0834 -0.3744  0.3633
 2975SOL    HW120558   0.081   0.006  11.338  1.9883 -0.9552 -0.6510
 2975SOL    HW220559   0.146   4.737  11.474 -1.6533 -0.9424  2.0624
 2976SOL     OW20560   1.207   2.901  13.222  0.1214 -0.5393 -0.0643
 2976SOL    HW120561   1.177   2.823  13.174 -1.6067 -0.2570  0.5354
 2976SOL    HW220562   1.267   2.949  13.164 -1.1842  0.2061 -0.8188
 2977SOL     OW20563   0.096   1.870   8.446 -0.0925  0.0974 -0.4338
 2977SOL    HW120564   0.091   1.934   8.376  0.0700  0.6239  0.0410
 2977SOL    HW220565   0.127   1.925   8.518  1.3157 -0.4157 -0.6478
 2978SOL     OW20566   1.198   0.349   2.969 -0.2701  0.1631  0.0624
 2978SOL    HW120567   1.189   0.397   2.887 -0.2898 -0.0617 -0.0669
 2978SOL    HW220568   1.199   0.258   2.940  1.2982 -0.8012  3.1192
 2979SOL     OW20569   4.644   0.626   6.834  0.0932  0.3881 -0.2310
 2979SOL    HW120570   4.670   0.648   6.744 -0.8250 -0.2146 -0.6433
 2979SOL    HW220571   4.717   0.568   6.856 -0.4356 -1.1729 -2.5911
 2980SOL     OW20572   2.929   4.389   2.525  0.6028  0.0997 -0.2591
 2980SOL    HW120573   2.845   4.401   2.570 -0.1488 -0.5196 -1.5112
 2980SOL    HW220574   2.928   4.442   2.445  0.0639  0.0776 -0.2711
 2981SOL     OW20575   1.612   1.155   9.377  0.3865 -0.1250  0.3761
 2981SOL    HW120576   1.681   1.177   9.439  2.2569  3.7620 -3.0860
 2981SOL    HW220577   1.631   1.062   9.360  1.6351  0.7281 -3.0343
 2982SOL     OW20578   1.273   3.752   8.230  0.1205  0.1142  0.4072
 2982SOL    HW120579   1.283   3.838   8.270  0.9654 -0.7454  2.0431
 2982SOL    HW220580   1.334   3.753   8.156  0.5008  0.5830  0.7213
 2983SOL     OW20581   1.053   1.415  15.747  0.3927  0.6019 -0.2525
 2983SOL    HW120582   1.111   1.380  15.679 -0.8020 -1.6980 -0.0618
 2983SOL    HW220583   1.110   1.422  15.824 -0.8083 -1.6757  0.8198
 2984SOL     OW20584   1.816   0.462  15.520  0.0364 -0.5760  0.0900
 2984SOL    HW120585   1.772   0.526  15.465  1.2017  0.5191  0.4325
 2984SOL    HW220586   1.773   0.470  15.605 -1.6827 -1.0622 -0.7381
 2985SOL     OW20587   2.960   3.110   4.620 -0.0144 -0.6961 -0.0628
 2985SOL    HW120588   2.953   3.120   4.715  0.2362  0.5306 -0.1764
 2985SOL    HW220589   3.042   3.060   4.618 -0.1038 -0.7793 -1.3772
 2986SOL     OW20590   1.143   3.789   7.337 -0.0300  0.6377  0.0059
 2986SOL    HW120591   1.144   3.857   7.404  1.0305  2.2085 -1.5873
 2986SOL    HW220592   1.156   3.835   7.254 -1.2726 -0.2491 -0.6693
 2987SOL     OW20593   4.449   1.922   7.318  0.0857  0.2928 -0.0716
 2987SOL    HW120594   4.376   1.897   7.375 -0.7352  0.8386 -0.8927
 2987SOL    HW220595   4.517   1.872   7.364  0.7227  0.2664 -1.0451
 2988SOL     OW20596   1.538   3.864  11.888  0.0019 -0.1112 -0.0452
 2988SOL    HW120597   1.504   3.934  11.943 -1.6589  0.3071 -1.6164
 2988SOL    HW220598   1.633   3.875  11.896  0.4094 -2.8714 -0.9065
 2989SOL     OW20599   4.302   2.362   6.964  0.1988  0.1396  0.2383
 2989SOL    HW120600   4.327   2.446   6.926 -1.0042  1.5020  2.4575
 2989SOL    HW220601   4.389   2.328   6.985  0.0078 -0.5033 -0.0210
 2990SOL     OW20602   4.724   0.482   3.028 -0.3747  0.8315  0.1195
 2990SOL    HW120603   0.016   0.543   2.960  1.4571 -0.7117 -0.4705
 2990SOL    HW220604   4.697   0.407   2.975 -1.9517  0.8265  0.9307
 2991SOL     OW20605   4.536   1.437   3.814  0.7933 -0.4976 -0.1851
 2991SOL    HW120606   4.564   1.403   3.729  0.7625  0.8816 -0.7308
 2991SOL    HW220607   4.552   1.367   3.878  2.1005 -0.1447 -0.1406
 2992SOL     OW20608   3.800   3.421  11.803  0.3059  0.2734 -0.3641
 2992SOL    HW120609   3.876   3.442  11.857  0.6811 -2.9696  0.3516
 2992SOL    HW220610   3.726   3.424  11.864 -0.0361 -0.4786 -0.7307
 2993SOL     OW20611   0.565   0.221  12.660 -0.4546 -0.4440  0.5030
 2993SOL    HW120612   0.602   0.204  12.747  0.4632  0.2513  0.2447
 2993SOL    HW220613   0.641   0.191  12.610 -0.6219 -0.4879  0.2757
 2994SOL     OW20614   2.217   4.339  14.317 -0.1195 -0.1560  0.0486
 2994SOL    HW120615   2.208   4.270  14.383 -3.7282  2.8545  2.6837
 2994SOL    HW220616   2.265   4.408  14.363 -1.6875  1.0981 -0.2315
 2995SOL     OW20617   3.859   3.894   5.095  0.1813 -0.3092  0.2641
 2995SOL    HW120618   3.925   3.913   5.030  0.7281 -1.1710  0.5645
 2995SOL    HW220619   3.920   3.840   5.145 -1.5447 -1.4818  1.1390
 2996SOL     OW20620   2.978   1.167  16.917 -0.1804 -0.2784  0.5878
 2996SOL    HW120621   2.991   1.074  16.899  1.0100  0.0497 -0.3065
 2996SOL    HW220622   3.026   1.215  16.849  1.6189 -0.7210  1.5531
 2997SOL     OW20623   1.467   2.654   3.229  0.4314 -0.2443 -0.0674
 2997SOL    HW120624   1.466   2.584   3.294 -1.6890  0.0903  0.2527
 2997SOL    HW220625   1.466   2.597   3.152  2.3758 -0.3274 -0.0522
 2998SOL     OW20626   4.083   0.732  10.110 -0.2341  0.6012  0.9708
 2998SOL    HW120627   4.105   0.653  10.158 -0.3668 -0.1065 -0.1436
 2998SOL    HW220628   4.075   0.804  10.172 -0.5751 -0.2055  1.8508
 2999SOL     OW20629   4.321   4.469   0.849 -0.1323  0.0976  0.1649
 2999SOL    HW120630   4.408   4.484   0.812  0.4243 -1.1410  0.9842
 2999SOL    HW220631   4.306   4.558   0.879 -1.3671  0.6019 -1.9131
 3000SOL     OW20632   1.177   0.790   6.799 -0.1021 -0.0290 -0.1566
 3000SOL    HW120633   1.131   0.726   6.853  1.7030 -1.2657 -0.0924
 3000SOL    HW220634   1.202   0.842   6.876 -0.0548 -1.0736  0.5301
 3001SOL     OW20635   3.891   2.409   7.350  0.3673  0.3422  0.4842
 3001SOL    HW120636   3.974   2.456   7.344 -0.3025  1.2892 -1.1333
 3001SOL    HW220637   3.827   2.478   7.333  0.7740  0.4142 -0.7315
 3002SOL     OW20638   3.231   2.306   7.112  0.5395 -0.1231  0.3374
 3002SOL    HW120639   3.237   2.219   7.151  1.1369 -1.4400 -2.6904
 3002SOL    HW220640   3.137   2.324   7.122 -0.1121 -3.4113  0.1827
 3003SOL     OW20641   3.271   2.911   5.779  0.1583 -0.1186  0.3848
 3003SOL    HW120642   3.331   2.984   5.767 -0.3029  0.2500  0.3308
 3003SOL    HW220643   3.235   2.908   5.690  2.6554  1.3895 -0.6622
 3004SOL     OW20644   4.425   2.832   5.221  0.7987  0.2363 -0.2440
 3004SOL    HW120645   4.486   2.903   5.240 -1.3129  1.5026  1.6584
 3004SOL    HW220646   4.481   2.759   5.192  1.3154  1.5347 -2.4735
 3005SOL     OW20647   1.006   3.996   6.168  0.3612  0.3936 -0.1202
 3005SOL    HW120648   1.091   4.040   6.176  0.7812 -0.1693 -1.4603
 3005SOL    HW220649   1.036   3.926   6.110 -2.5344  0.9641 -2.3405
 3006SOL     OW20650   2.840   2.100   5.469  0.2148 -0.8042  0.2590
 3006SOL    HW120651   2.821   2.065   5.556 -1.2519 -3.3863 -1.0880
 3006SOL    HW220652   2.909   2.043   5.434  0.6908  1.6052 -2.7369
 3007SOL     OW20653   2.312   2.765   6.788  0.3551  0.1437 -0.4587
 3007SOL    HW120654   2.379   2.776   6.721 -1.0613  2.4613 -1.4885
 3007SOL    HW220655   2.359   2.761   6.871 -0.8517  0.1620  0.2297
 3008SOL     OW20656   0.586   1.214  11.401 -0.4291  0.3923  0.5550
 3008SOL    HW120657   0.579   1.237  11.309  0.3794  0.3406  0.4785
 3008SOL    HW220658   0.649   1.278  11.434  0.2497  0.7277 -1.3946
 3009SOL     OW20659   4.456   1.739   4.500  0.1618  0.0282  0.2259
 3009SOL    HW120660   4.371   1.781   4.492 -0.0955 -0.4845  0.2150
 3009SOL    HW220661   4.465   1.697   4.414  2.1846  0.8041  0.0521
 3010SOL     OW20662   3.555   4.385  10.781  0.1425 -0.6563 -0.1825
 3010SOL    HW120663   3.582   4.295  10.765 -1.1461 -1.3727  1.6868
 3010SOL    HW220664   3.572   4.424  10.695 -0.5570 -1.6943 -0.8026
 3011SOL     OW20665   4.498   3.728  17.526 -0.5650  0.2639 -0.0833
 3011SOL    HW120666   4.542   3.782  17.592  1.4406 -0.9180 -0.4560
 3011SOL    HW220667   4.508   3.642  17.568  1.5667  1.7792  2.4852
 3012SOL     OW20668   3.296   3.354   6.561  0.2633  0.6565  0.2919
 3012SOL    HW120669   3.305   3.277   6.618 -1.8692  0.1545 -0.0165
 3012SOL    HW220670   3.375   3.403   6.579  1.5227 -1.2162 -0.1338
 3013SOL     OW20671   4.660   1.020   7.236 -0.3505  0.3188 -0.1038
 3013SOL    HW120672   4.581   1.039   7.185 -0.1253 -1.0457 -0.9641
 3013SOL    HW220673   4.688   1.111   7.235  2.0953 -0.4644 -2.4421
 3014SOL     OW20674   3.283   4.358  14.342 -0.9655  0.5549  0.2294
 3014SOL    HW120675   3.248   4.444  14.366 -0.9086  0.2841  1.2529
 3014SOL    HW220676   3.298   4.318  14.427  2.3650  0.4073 -0.4306
 3015SOL     OW20677   3.163   4.164  15.238 -0.1593 -0.5547  0.0562
 3015SOL    HW120678   3.179   4.070  15.231 -1.5055 -0.7152 -0.9719
 3015SOL    HW220679   3.073   4.169  15.270 -0.5634 -0.1672 -1.1275
 3016SOL     OW20680   4.184   2.101   3.077 -0.2776 -0.5311 -0.2057
 3016SOL    HW120681   4.174   2.193   3.053 -1.0006 -0.7903 -0.8675
 3016SOL    HW220682   4.094   2.075   3.096  0.2573 -2.4629 -0.3298
 3017SOL     OW20683   2.590   4.317   4.472  0.5127 -0.5421 -0.1340
 3017SOL    HW120684   2.570   4.347   4.384  0.5452 -0.5384 -0.1402
 3017SOL    HW220685   2.513   4.352   4.519  1.9680  1.2129  0.9661
 3018SOL     OW20686   1.735   0.321   5.139  0.4246  0.0556  0.3845
 3018SOL    HW120687   1.720   0.410   5.170  1.2700  0.2929  0.1146
 3018SOL    HW220688   1.662   0.307   5.078  0.0862 -0.5562  0.9289
 3019SOL     OW20689   1.713   0.805   6.212  0.0797  0.2173  0.2288
 3019SOL    HW120690   1.656   0.799   6.288 -0.3535 -2.4104 -0.3170
 3019SOL    HW220691   1.779   0.738   6.229  1.0263  0.8719 -0.7856
 3020SOL     OW20692   2.162   3.978   2.427 -0.0151 -0.1405 -0.0229
 3020SOL    HW120693   2.228   3.917   2.395 -0.2559  2.0808 -4.8914
 3020SOL    HW220694   2.217   4.057   2.431 -0.4685 -0.0263  3.5530
 3021SOL     OW20695   3.186   1.127   6.622 -0.1371 -0.2673  0.4456
 3021SOL    HW120696   3.133   1.126   6.702 -1.4375  1.2858 -0.3983
 3021SOL    HW220697   3.114   1.151   6.563  1.1802  0.2717 -0.9364
 3022SOL     OW20698   2.560   1.554   1.397  0.2693  0.0244 -0.9246
 3022SOL    HW120699   2.549   1.500   1.319  2.0133  1.0020 -1.8532
 3022SOL    HW220700   2.479   1.540   1.447  0.3991  0.5930 -0.5552
 3023SOL     OW20701   0.827   4.155   8.846 -0.4476  0.2589 -0.4609
 3023SOL    HW120702   0.863   4.088   8.789 -3.1239 -1.2106 -0.4131
 3023SOL    HW220703   0.817   4.116   8.933  0.1790  0.8755 -0.1102
 3024SOL     OW20704   3.146   2.287   8.342  0.3684 -0.0015 -0.1316
 3024SOL    HW120705   3.090   2.247   8.276 -2.5502  2.7354  0.7006
 3024SOL    HW220706   3.190   2.360   8.298  1.4053 -0.0177  0.8916
 3025SOL     OW20707   2.805   2.553   5.615 -0.3856  0.0331 -0.1883
 3025SOL    HW120708   2.761   2.539   5.699  0.9015 -2.9762 -0.0007
 3025SOL    HW220709   2.748   2.498   5.561 -1.1428  0.5895  0.0567
 3026SOL     OW20710   4.476   1.047  16.971 -0.6046 -1.0710 -0.2565
 3026SOL    HW120711   4.418   0.983  16.930  0.1974 -2.5117  0.8534
 3026SOL    HW220712   4.422   1.086  17.039  0.2992 -0.0719 -0.1283
 3027SOL     OW20713   1.955   4.205   3.537  0.5401 -0.5690  0.3166
 3027SOL    HW120714   1.931   4.285   3.584 -0.4926 -1.3409  1.0926
 3027SOL    HW220715   2.051   4.199   3.541  0.6254  0.3626 -0.3356
 3028SOL     OW20716   2.263   4.168   1.169 -0.2522  0.3749 -0.0854
 3028SOL    HW120717   2.300   4.205   1.088 -1.5008 -0.2863 -0.9581
 3028SOL    HW220718   2.295   4.078   1.171  1.8721  1.1886  1.7132
 3029SOL     OW20719   0.625   2.242   8.929 -0.3918  0.5085  0.1706
 3029SOL    HW120720   0.622   2.196   9.013 -0.2136 -1.1682 -0.7286
 3029SOL    HW220721   0.711   2.213   8.898 -1.6030 -0.3320 -2.4063
 3030SOL     OW20722   3.844   4.205   6.522  0.3732 -0.1340 -0.2488
 3030SOL    HW120723   3.834   4.300   6.514  2.3747  0.0080 -1.0265
 3030SOL    HW220724   3.845   4.184   6.615 -1.0437  1.9068  0.2355
 3031SOL     OW20725   0.429   2.616  11.370 -0.1088  0.5144 -0.2407
 3031SOL    HW120726   0.505   2.641  11.423 -2.0096  1.0305  2.2597
 3031SOL    HW220727   0.381   2.699  11.374  0.1633  0.6718 -0.2645
 3032SOL     OW20728   3.746   1.958  17.621 -0.0026 -0.0068  0.2276
 3032SOL    HW120729   3.751   1.868  17.654 -0.4639  0.0491  0.4532
 3032SOL    HW220730   3.658   1.984  17.648 -0.2014  1.1191 -1.5446
 3033SOL     OW20731   1.879   4.099   3.077  0.5022  0.1481 -0.3180
 3033SOL    HW120732   1.937   4.164   3.116 -0.2143  0.8125 -0.3516
 3033SOL    HW220733   1.907   4.109   2.986  0.6759 -0.7183 -0.3674
 3034SOL     OW20734   1.411   4.682   6.030 -0.1882  0.0007  0.4888
 3034SOL    HW120735   1.342   4.706   6.092  0.5864  0.0736  1.3218
 3034SOL    HW220736   1.476   4.688   6.101 -0.4263  0.8905  0.6361
 3035SOL     OW20737   2.094   0.355   4.503 -0.3278  0.7510 -0.1288
 3035SOL    HW120738   2.051   0.301   4.569  2.4387  1.2263  2.1078
 3035SOL    HW220739   2.163   0.397   4.555 -1.2599 -0.0196  1.7236
 3036SOL     OW20740   0.988   1.141  15.847  0.1042 -0.0723 -0.9860
 3036SOL    HW120741   0.910   1.185  15.882  0.1868 -3.0400  2.8561
 3036SOL    HW220742   1.025   1.215  15.798 -0.4819  0.2289 -0.9741
 3037SOL     OW20743   1.426   1.743   4.364  0.7937 -0.3164  0.1028
 3037SOL    HW120744   1.416   1.772   4.454 -0.0713  3.4849 -1.2181
 3037SOL    HW220745   1.336   1.745   4.333  0.3513  2.5531  1.5696
 3038SOL     OW20746   0.971   0.033   9.383  0.1115 -0.0051 -0.0649
 3038SOL    HW120747   0.885   4.729   9.391 -0.2580  0.8687  0.5611
 3038SOL    HW220748   0.941   0.121   9.407  2.9138  1.7235 -2.8767
 3039SOL     OW20749   0.371   1.900   3.140 -0.3659  0.5556  0.0755
 3039SOL    HW120750   0.430   1.826   3.132  1.1433  1.7454  0.1412
 3039SOL    HW220751   0.377   1.923   3.233  2.3204 -1.4627  0.3808
 3040SOL     OW20752   2.609   0.969   6.276 -0.5778 -0.1635  0.3391
 3040SOL    HW120753   2.520   0.933   6.282 -0.0865 -0.9791  2.5792
 3040SOL    HW220754   2.589   1.038   6.213  1.8950  1.6215  1.5335
 3041SOL     OW20755   1.487   1.087   2.515 -0.3905 -0.1099 -0.2364
 3041SOL    HW120756   1.496   1.017   2.578  2.0428 -0.0013 -0.4673
 3041SOL    HW220757   1.499   1.165   2.570 -0.6264 -0.8101  0.8018
 3042SOL     OW20758   1.732   0.068   4.756  0.3900  0.0313  0.0609
 3042SOL    HW120759   1.660   0.093   4.699  0.1937 -0.4509  0.0920
 3042SOL    HW220760   1.684   0.060   4.838  1.5725  1.8191  0.9028
 3043SOL     OW20761   1.019   0.492   4.581 -0.2130 -0.0214 -0.1740
 3043SOL    HW120762   1.043   0.496   4.674 -0.1854 -1.9841 -0.0958
 3043SOL    HW220763   1.093   0.544   4.549 -0.1468 -0.7564 -1.1976
 3044SOL     OW20764   0.555   1.957   1.295  0.2371  0.2613  0.2839
 3044SOL    HW120765   0.557   1.922   1.384 -1.9204  0.4183  0.3884
 3044SOL    HW220766   0.639   2.003   1.306 -0.3202  1.0568  1.1985
 3045SOL     OW20767   1.002   3.820   9.907  0.3863 -0.3577  0.0315
 3045SOL    HW120768   1.001   3.789   9.998 -0.6091 -2.1888 -0.6080
 3045SOL    HW220769   0.917   3.788   9.876  1.2214 -2.4010 -0.1135
 3046SOL     OW20770   0.055   0.363   3.829 -0.5060  0.7751 -0.4063
 3046SOL    HW120771   0.126   0.381   3.768 -0.4120 -1.5722 -0.9908
 3046SOL    HW220772   0.056   0.268   3.835 -1.8284  0.7186 -0.9697
 3047SOL     OW20773   0.891   2.798   4.747 -0.0033 -0.2507 -0.1365
 3047SOL    HW120774   0.800   2.776   4.768  0.0899 -1.0694 -0.5624
 3047SOL    HW220775   0.924   2.721   4.700 -0.3278 -2.0967  2.6091
 3048SOL     OW20776   1.875   2.214   9.529 -0.3209 -0.2978  0.5374
 3048SOL    HW120777   1.852   2.306   9.532  1.8797  0.2521  0.3617
 3048SOL    HW220778   1.793   2.172   9.503 -0.4546 -1.7001  3.1792
 3049SOL     OW20779   0.781   4.006   9.639  0.2236  0.2447 -0.2459
 3049SOL    HW120780   0.702   3.965   9.674 -0.0450  0.0834 -1.0475
 3049SOL    HW220781   0.816   4.052   9.715 -0.9321  1.3810 -0.3947
 3050SOL     OW20782   0.176   4.690   6.583  0.2186  0.0885  0.1320
 3050SOL    HW120783   0.266   4.659   6.580  0.6708  1.3990  0.2565
 3050SOL    HW220784   0.157   4.717   6.494  2.8640 -1.8955 -1.0286
 3051SOL     OW20785   1.053   2.053  11.912 -0.1979 -0.2786  0.7259
 3051SOL    HW120786   1.068   1.972  11.961  0.3227  0.3008  1.5318
 3051SOL    HW220787   0.961   2.037  11.890  0.0803  1.1075 -1.4364
 3052SOL     OW20788   2.951   1.647   3.869  0.0859 -0.5971  0.1384
 3052SOL    HW120789   3.003   1.612   3.797  0.1372  0.6747 -0.4397
 3052SOL    HW220790   2.968   1.740   3.852  0.6546 -0.6300  0.5292
 3053SOL     OW20791   4.409   0.760   5.278  0.0844  0.3304  0.1033
 3053SOL    HW120792   4.417   0.673   5.316 -3.4140  0.8513  2.1479
 3053SOL    HW220793   4.482   0.776   5.219 -0.1751 -0.6279 -0.4706
 3054SOL     OW20794   2.524   3.910   2.404 -0.3187 -0.2093 -0.0422
 3054SOL    HW120795   2.602   3.856   2.408  0.5510  1.1315  1.0185
 3054SOL    HW220796   2.496   3.884   2.316  0.3927 -2.2300  0.3300
 3055SOL     OW20797   3.049   1.676   9.041 -0.5527 -0.2112  0.3707
 3055SOL    HW120798   3.115   1.609   9.057 -0.7161 -0.7929 -1.3419
 3055SOL    HW220799   2.987   1.622   8.992 -1.3816  0.7141  0.3893
 3056SOL     OW20800   0.585   1.385   2.750  0.4644 -0.7817 -0.1942
 3056SOL    HW120801   0.532   1.351   2.678  1.7320  0.3717 -1.6608
 3056SOL    HW220802   0.644   1.310   2.764 -0.1111 -1.2744 -0.4270
 3057SOL     OW20803   2.944   0.300   2.809 -0.5136 -0.0107  0.5268
 3057SOL    HW120804   2.995   0.303   2.889 -0.4336  0.9104  0.4410
 3057SOL    HW220805   2.993   0.352   2.746 -1.2572 -1.3401 -1.1654
 3058SOL     OW20806   3.848   1.574   5.714  0.2328 -0.1925  0.6364
 3058SOL    HW120807   3.887   1.640   5.771  0.9894 -1.8002  2.0232
 3058SOL    HW220808   3.827   1.501   5.774  0.9626 -2.2720 -1.6312
 3059SOL     OW20809   0.577   2.534   0.747  0.3514 -0.0851  0.6035
 3059SOL    HW120810   0.496   2.540   0.798 -1.5430  2.0692 -2.6592
 3059SOL    HW220811   0.580   2.439   0.736  0.9992  0.3310 -2.7217
 3060SOL     OW20812   1.519   3.608   3.050 -0.0553 -0.0742  0.3027
 3060SOL    HW120813   1.596   3.656   3.019 -1.4583 -0.8082 -4.3256
 3060SOL    HW220814   1.469   3.688   3.060 -1.9061 -1.2650  0.5400
 3061SOL     OW20815   3.473   0.078   5.409 -0.0549  0.0393  0.3793
 3061SOL    HW120816   3.476   0.007   5.473  1.3425 -0.9170 -0.7577
 3061SOL    HW220817   3.506   0.034   5.331  0.3832 -1.4917  1.4398
 3062SOL     OW20818   0.722   0.886   0.984  0.4893  0.3695 -0.1696
 3062SOL    HW120819   0.751   0.796   0.970  1.7102  0.9184 -1.1897
 3062SOL    HW220820   0.747   0.891   1.076 -0.1595  1.7734 -0.0681
 3063SOL     OW20821   2.431   1.990   1.901  0.3045 -0.9773  0.6042
 3063SOL    HW120822   2.527   1.985   1.905  0.3054 -0.2370  1.5149
 3063SOL    HW220823   2.414   2.049   1.974 -1.5969 -1.2158  0.3666
 3064SOL     OW20824   4.720   3.707   5.545 -0.2349 -0.1636  0.6427
 3064SOL    HW120825   0.022   3.735   5.462  0.2108 -0.2695  0.8183
 3064SOL    HW220826   4.734   3.613   5.533  0.6105  0.3508 -2.3886
 3065SOL     OW20827   1.063   3.238   9.348  0.2521  0.2112 -0.3483
 3065SOL    HW120828   0.991   3.182   9.318  0.2111  0.5513 -0.8858
 3065SOL    HW220829   1.055   3.227   9.442  0.5523  0.5341 -0.2851
 3066SOL     OW20830   1.305   1.598   6.467  0.3059 -0.5844  0.2671
 3066SOL    HW120831   1.273   1.539   6.535 -1.4800  0.5042  0.3768
 3066SOL    HW220832   1.294   1.551   6.385 -0.0525  2.0783 -1.2073
 3067SOL     OW20833   0.194   3.440   8.148 -0.4759  0.2734 -0.0118
 3067SOL    HW120834   0.177   3.523   8.103 -1.4654  0.2853  0.3785
 3067SOL    HW220835   0.231   3.472   8.230 -0.1504 -0.8714  0.2923
 3068SOL     OW20836   0.301   1.852  17.048  0.8551 -0.0061  0.2003
 3068SOL    HW120837   0.258   1.916  16.992  0.1229 -0.4967  0.2120
 3068SOL    HW220838   0.220   1.808  17.076  3.0878 -3.2850  1.5891
 3069SOL     OW20839   2.455   2.792   8.925  0.6646 -0.4342  0.3064
 3069SOL    HW120840   2.376   2.779   8.976  0.0069  1.3765 -0.2526
 3069SOL    HW220841   2.474   2.701   8.901  3.2796  0.0257  0.5916
 3070SOL     OW20842   4.082   1.353   8.118  0.5517  0.3133  0.1974
 3070SOL    HW120843   4.103   1.328   8.208  2.9063  0.3956 -0.3142
 3070SOL    HW220844   4.129   1.286   8.068 -0.5273  0.8069 -1.4706
 3071SOL     OW20845   0.698   2.201  15.428  0.0093  0.1134 -0.2887
 3071SOL    HW120846   0.765   2.244  15.481 -1.4926 -0.1191  1.8077
 3071SOL    HW220847   0.692   2.114  15.468  1.1325 -0.6030 -1.6787
 3072SOL     OW20848   4.522   2.010   0.892  0.5844  0.2600 -0.0515
 3072SOL    HW120849   4.571   1.951   0.949 -1.4769 -1.3004  0.1237
 3072SOL    HW220850   4.527   2.085   0.951  3.0264  0.1903 -0.1653
 3073SOL     OW20851   2.442   1.033   4.818 -0.1809 -0.0292 -0.1801
 3073SOL    HW120852   2.423   1.125   4.796 -1.1171 -0.0170  0.6323
 3073SOL    HW220853   2.478   1.037   4.907 -1.9670  0.3654  0.5467
 3074SOL     OW20854   3.820   0.368   8.086  0.2818 -0.3285 -0.0620
 3074SOL    HW120855   3.799   0.453   8.046 -1.4883 -0.3282  0.8834
 3074SOL    HW220856   3.809   0.388   8.179  2.7185  1.9557 -0.2627
 3075SOL     OW20857   0.954   0.751  16.715  0.1345 -0.4095  0.0049
 3075SOL    HW120858   0.862   0.726  16.708 -0.2005  0.5228  1.1052
 3075SOL    HW220859   0.944   0.845  16.702 -2.0283 -0.4006  1.6224
 3076SOL     OW20860   1.090   3.247   1.428 -0.2826  0.0542 -0.2587
 3076SOL    HW120861   1.130   3.259   1.514 -0.5658  0.9885 -0.2561
 3076SOL    HW220862   1.035   3.170   1.441 -0.0236  0.1659  1.5224
 3077SOL     OW20863   2.662   1.705   5.985  0.8719  0.3101  0.3998
 3077SOL    HW120864   2.718   1.669   6.053 -1.4825 -1.5830  1.3464
 3077SOL    HW220865   2.577   1.714   6.029  0.6226  0.8333 -0.1846
 3078SOL     OW20866   2.502   2.535   8.937 -0.3729  0.2546 -0.5665
 3078SOL    HW120867   2.579   2.508   8.886 -0.0872 -0.4590  0.2331
 3078SOL    HW220868   2.454   2.453   8.952 -0.3403  0.4584  0.6882
 3079SOL     OW20869   4.202   4.080   8.807  0.5564  0.1654  0.3251
 3079SOL    HW120870   4.123   4.122   8.772 -0.6041 -0.6938  1.9199
 3079SOL    HW220871   4.273   4.136   8.774  1.8296 -0.6370  1.7023
 3080SOL     OW20872   4.527   0.261   3.160 -0.2260 -0.1286 -0.4062
 3080SOL    HW120873   4.604   0.308   3.191  0.1489 -0.9260 -0.1187
 3080SOL    HW220874   4.570   0.186   3.119 -0.6342 -1.7690  2.1460
 3081SOL     OW20875   4.460   2.357   6.364 -0.8775 -0.0506 -1.0584
 3081SOL    HW120876   4.421   2.271   6.370 -1.9151  0.4514 -0.6678
 3081SOL    HW220877   4.423   2.417   6.429  1.2335 -1.4036  1.3986
 3082SOL     OW20878   2.062   3.804  13.765  0.2370  0.2541 -0.3902
 3082SOL    HW120879   1.993   3.738  13.753  0.6238 -0.2342  0.0439
 3082SOL    HW220880   2.038   3.870  13.700  1.0430  1.1533  0.2464
 3083SOL     OW20881   3.455   3.804   5.163 -0.4094 -0.1697 -0.3923
 3083SOL    HW120882   3.362   3.824   5.164 -0.6346 -1.0065 -3.3682
 3083SOL    HW220883   3.461   3.795   5.258 -1.4926 -1.2487 -0.4257
 3084SOL     OW20884   0.561   3.038   7.855 -0.0914 -0.3425 -0.1621
 3084SOL    HW120885   0.493   2.993   7.903 -0.5629  1.9270  1.2856
 3084SOL    HW220886   0.544   3.125   7.890  0.0335 -0.6211  0.5763
 3085SOL     OW20887   2.973   1.387   6.705 -0.1037  0.4025 -0.4439
 3085SOL    HW120888   2.986   1.374   6.612 -1.5079 -1.0644 -0.4435
 3085SOL    HW220889   3.027   1.464   6.720 -2.1518  1.8353 -0.3834
 3086SOL     OW20890   4.215   3.868   4.283 -0.2042  0.0095  0.0567
 3086SOL    HW120891   4.267   3.802   4.328 -0.3903  0.0790  0.3762
 3086SOL    HW220892   4.206   3.933   4.352  0.2581  0.4629 -0.3145
 3087SOL     OW20893   3.240   4.291   3.237 -0.6908 -0.3778  0.2054
 3087SOL    HW120894   3.264   4.222   3.298  0.9823 -0.0617 -0.0722
 3087SOL    HW220895   3.330   4.319   3.218 -0.3201 -0.6060  1.5923
 3088SOL     OW20896   4.044   3.655   7.184 -0.0945  0.7934  0.3230
 3088SOL    HW120897   4.101   3.732   7.189  0.5319  0.4004 -0.5848
 3088SOL    HW220898   3.995   3.676   7.104 -0.1432 -0.9175 -0.0936
 3089SOL     OW20899   3.318   0.191   3.847 -0.0561 -0.4412 -0.1116
 3089SOL    HW120900   3.414   0.188   3.844 -0.0662 -0.7035 -0.1644
 3089SOL    HW220901   3.294   0.223   3.760  1.7064 -0.2481 -0.5238
 3090SOL     OW20902   3.162   2.180  15.470 -0.3535 -0.1561  0.0799
 3090SOL    HW120903   3.091   2.243  15.469  0.9713  1.3402  2.4063
 3090SOL    HW220904   3.233   2.236  15.438  0.3158 -1.4939 -0.8087
 3091SOL     OW20905   4.342   3.906   2.831 -0.5642  0.5796 -0.2741
 3091SOL    HW120906   4.397   3.841   2.875  0.6764  2.2141  0.6020
 3091SOL    HW220907   4.257   3.886   2.870 -1.3077  1.7569 -1.3114
 3092SOL     OW20908   2.272   3.907   6.065  0.5754 -0.1237 -0.7967
 3092SOL    HW120909   2.254   3.918   5.972  1.1757  2.4621 -0.5947
 3092SOL    HW220910   2.252   3.994   6.100 -2.2977 -1.4100  0.7342
 3093SOL     OW20911   2.204   3.514   2.705 -0.1182  0.1103  0.3072
 3093SOL    HW120912   2.188   3.514   2.610  2.0652  1.1656 -0.0533
 3093SOL    HW220913   2.116   3.508   2.741 -0.0419  0.7540  0.6031
 3094SOL     OW20914   2.278   1.632   1.519  0.0364  0.1825 -0.6556
 3094SOL    HW120915   2.277   1.700   1.451 -0.6609  3.0477  2.2351
 3094SOL    HW220916   2.188   1.615   1.547 -1.1007  1.9684 -3.1936
 3095SOL     OW20917   3.669   3.912   3.507  0.6388  0.9703  0.4591
 3095SOL    HW120918   3.692   3.849   3.576 -0.5147  1.5912  1.4176
 3095SOL    HW220919   3.581   3.923   3.542  0.5388 -1.6843  1.0607
 3096SOL     OW20920   0.296   0.292   4.016 -0.0542 -0.3780  0.5794
 3096SOL    HW120921   0.354   0.310   4.089 -0.1925  0.7795  0.3970
 3096SOL    HW220922   0.207   0.311   4.045  0.7065  0.4698  2.3100
 3097SOL     OW20923   3.138   3.337   5.022 -0.4351 -0.1333  0.0930
 3097SOL    HW120924   3.171   3.410   5.073  0.3218  0.5965 -1.4370
 3097SOL    HW220925   3.070   3.381   4.971 -0.8892 -1.9307 -0.8875
 3098SOL     OW20926   1.126   2.306  14.739 -0.0878  0.1156  0.0030
 3098SOL    HW120927   1.106   2.312  14.646 -1.1485  0.8976  0.2709
 3098SOL    HW220928   1.220   2.291  14.743 -0.1006  0.0098 -0.1146
 3099SOL     OW20929   2.826   0.986  15.935  0.6267  0.3308 -0.0309
 3099SOL    HW120930   2.760   1.052  15.913 -0.7275 -1.0466 -0.0467
 3099SOL    HW220931   2.770   0.910  15.948 -0.4278  0.9593 -0.8423
 3100SOL     OW20932   2.498   2.265   9.082 -0.0665  0.4376 -0.6661
 3100SOL    HW120933   2.431   2.260   9.150 -1.4342 -0.0711 -2.0471
 3100SOL    HW220934   2.571   2.224   9.128  1.1062  0.1558 -2.7929
 3101SOL     OW20935   2.241   2.671   4.676  0.2473 -0.4670  0.2954
 3101SOL    HW120936   2.274   2.718   4.600  1.0044 -0.4466  0.6373
 3101SOL    HW220937   2.165   2.729   4.686 -0.5706 -1.6784  1.1132
 3102SOL     OW20938   2.003   2.711   8.756  0.0392  0.3297  0.1252
 3102SOL    HW120939   1.912   2.686   8.740  0.8883 -1.4510 -1.8337
 3102SOL    HW220940   1.998   2.803   8.784  1.8073  0.4041  0.1989
 3103SOL     OW20941   1.628   3.992   6.410 -0.0381  0.4632 -0.4547
 3103SOL    HW120942   1.639   3.905   6.372 -2.5271 -0.7004  1.4661
 3103SOL    HW220943   1.586   4.035   6.335  1.0619  1.7485 -0.3353
 3104SOL     OW20944   4.375   0.456   5.020  0.9115  0.5633  0.4486
 3104SOL    HW120945   4.308   0.422   4.960 -0.2323 -0.6836  2.4321
 3104SOL    HW220946   4.425   0.513   4.963 -1.3468  1.8018 -0.3002
 3105SOL     OW20947   0.650   2.843   6.048 -0.4580  0.7466 -0.6225
 3105SOL    HW120948   0.638   2.748   6.053 -1.7585  0.8520 -1.9269
 3105SOL    HW220949   0.703   2.852   6.128  0.6376 -0.3840 -1.2260
 3106SOL     OW20950   4.566   1.129   8.982  0.1240 -0.2542  0.5981
 3106SOL    HW120951   4.510   1.186   8.930  1.4068 -2.0094 -2.7222
 3106SOL    HW220952   4.610   1.195   9.037 -2.8699  1.2114  1.2085
 3107SOL     OW20953   4.229   4.039   3.196  0.2079 -0.1465 -0.6700
 3107SOL    HW120954   4.298   4.082   3.248  2.3864 -4.0958 -0.3224
 3107SOL    HW220955   4.194   4.104   3.135 -0.6192  0.6572  0.6355
 3108SOL     OW20956   4.033   4.314  13.311  0.1724  0.2662 -0.1194
 3108SOL    HW120957   3.973   4.242  13.292  0.3869  0.8283 -2.9403
 3108SOL    HW220958   4.098   4.294  13.243 -0.7737  0.9728 -1.2209
 3109SOL     OW20959   4.267   3.836  15.465 -0.6401  0.6842  0.0050
 3109SOL    HW120960   4.206   3.785  15.519  0.8560 -1.1313 -0.0030
 3109SOL    HW220961   4.263   3.924  15.501  1.1064  0.2508  1.2881
 3110SOL     OW20962   3.208   2.831   8.625 -0.0812  0.6350 -0.2995
 3110SOL    HW120963   3.254   2.762   8.673 -0.0650 -0.8984 -2.4775
 3110SOL    HW220964   3.122   2.788   8.618 -0.8367  2.8177 -4.7478
 3111SOL     OW20965   1.969   0.983   6.438 -0.5926 -0.0819 -0.4075
 3111SOL    HW120966   1.997   0.934   6.360 -0.2431 -0.2461 -0.1808
 3111SOL    HW220967   2.046   0.957   6.488  0.8009  1.4243 -1.7452
 3112SOL     OW20968   1.541   4.226  10.753  0.2609  0.0532  0.6536
 3112SOL    HW120969   1.581   4.147  10.789 -1.1664 -1.0033 -0.0869
 3112SOL    HW220970   1.603   4.293  10.782  1.8102 -0.2426 -1.9672
 3113SOL     OW20971   0.984   1.021   6.584 -0.4142 -0.1272  0.3047
 3113SOL    HW120972   0.980   1.026   6.489 -0.4656 -0.1748  0.3041
 3113SOL    HW220973   1.041   0.944   6.591  0.5924  0.7164  1.3537
 3114SOL     OW20974   1.053   1.335  12.970 -0.1095  0.5748  0.2943
 3114SOL    HW120975   1.143   1.318  12.943 -0.7596 -2.4021  0.0034
 3114SOL    HW220976   1.035   1.422  12.934  0.1116  0.7471  0.6018
 3115SOL     OW20977   3.500   1.163  11.701 -0.1466  0.3091 -0.0639
 3115SOL    HW120978   3.573   1.109  11.733 -0.2403 -0.0324 -0.4245
 3115SOL    HW220979   3.535   1.250  11.683  3.9261 -1.1463  0.7125
 3116SOL     OW20980   1.363   3.843   7.989 -0.6851  0.5290 -0.0925
 3116SOL    HW120981   1.418   3.879   7.920 -0.3768  1.8907  0.8799
 3116SOL    HW220982   1.275   3.873   7.968 -0.0497  0.9692 -2.1080
 3117SOL     OW20983   0.531   0.042   8.871 -0.1474 -0.0952  0.4935
 3117SOL    HW120984   0.556   0.013   8.959 -2.1409 -0.5249  0.9192
 3117SOL    HW220985   0.464   4.713   8.855  0.0959 -0.1582 -0.2561
 3118SOL     OW20986   2.803   2.781   3.565  0.4900  0.1093  0.2224
 3118SOL    HW120987   2.801   2.755   3.473  1.9076  0.9342 -0.0367
 3118SOL    HW220988   2.839   2.870   3.563 -1.4136  0.8754 -0.0565
 3119SOL     OW20989   2.322   2.262   9.283  0.2798  0.2996 -0.0021
 3119SOL    HW120990   2.309   2.170   9.307 -0.5853  0.3116 -0.4194
 3119SOL    HW220991   2.241   2.308   9.305  0.7857  0.7398  0.9230
 3120SOL     OW20992   4.472   1.714   2.352 -0.3906  0.0039  0.3212
 3120SOL    HW120993   4.524   1.755   2.283 -0.8453  1.1171  0.6407
 3120SOL    HW220994   4.443   1.790   2.402 -1.3797 -1.7672  2.4413
 3121SOL     OW20995   0.937   1.022  11.517  0.4932 -0.3613  0.4079
 3121SOL    HW120996   0.855   0.973  11.524 -0.6952  1.3200 -1.5989
 3121SOL    HW220997   0.938   1.061  11.604 -2.3232  2.6753 -0.9069
 3122SOL     OW20998   0.914   2.194   4.581  0.0311  0.2016  0.1809
 3122SOL    HW120999   0.882   2.241   4.658 -1.4870  0.4881 -0.6109
 3122SOL    HW221000   0.985   2.138   4.611 -0.3262 -1.4283 -1.8994
 3123SOL     OW21001   3.746   1.101   9.332 -0.2108 -0.0721 -0.0091
 3123SOL    HW121002   3.763   1.165   9.263  1.1838 -1.2913 -0.8070
 3123SOL    HW221003   3.752   1.150   9.414  0.9640  0.0987 -0.1942
 3124SOL     OW21004   4.259   0.512   0.913  0.0100 -0.5164 -0.3260
 3124SOL    HW121005   4.293   0.597   0.885 -2.0692  0.6716  0.7581
 3124SOL    HW221006   4.306   0.514   0.996 -1.5962 -3.5795  0.6592
 3125SOL     OW21007   2.181   3.987   5.466 -0.1129 -0.0664  0.1818
 3125SOL    HW121008   2.242   4.001   5.394 -1.9352  2.2974 -0.8916
 3125SOL    HW221009   2.207   4.050   5.533 -1.1762  0.2660  0.2864
 3126SOL     OW21010   1.713   2.316  16.169 -0.1028 -0.4251 -0.6146
 3126SOL    HW121011   1.802   2.290  16.193 -0.3058 -2.0256 -1.6164
 3126SOL    HW221012   1.709   2.293  16.076  4.0755  2.0787 -1.3999
 3127SOL     OW21013   4.065   2.223  15.965 -0.6519  0.4184 -0.2999
 3127SOL    HW121014   4.085   2.239  15.873  1.3310 -1.3495 -0.1960
 3127SOL    HW221015   3.983   2.173  15.967  0.1055 -0.7655  1.4198
 3128SOL     OW21016   4.529   1.500   1.302 -0.0373 -0.8760 -0.6122
 3128SOL    HW121017   4.475   1.512   1.380  1.0658 -0.6424  0.1205
 3128SOL    HW221018   4.598   1.440   1.330 -0.9001 -1.7963 -0.4828
 3129SOL     OW21019   0.156   1.551   7.089 -0.5354  0.0486  0.2122
 3129SOL    HW121020   0.130   1.499   7.165 -0.0111  0.2231  0.5135
 3129SOL    HW221021   0.106   1.511   7.018 -1.7765  3.6541 -0.9636
 3130SOL     OW21022   1.242   3.379   7.518  0.1137 -0.3121 -0.4495
 3130SOL    HW121023   1.314   3.316   7.524 -0.7130 -1.3358 -1.1652
 3130SOL    HW221024   1.194   3.366   7.600 -0.3371 -0.1604 -0.6865
 3131SOL     OW21025   1.706   4.659   4.465  0.0461 -0.7110 -0.3327
 3131SOL    HW121026   1.769   4.731   4.465 -1.0985  0.3141  1.9441
 3131SOL    HW221027   1.649   4.664   4.388 -2.4524 -2.6943  1.3868
 3132SOL     OW21028   3.838   4.240   2.198  0.2920  0.0035  0.4175
 3132SOL    HW121029   3.881   4.257   2.113  0.9266  0.6796  0.8713
 3132SOL    HW221030   3.787   4.162   2.179  0.3258 -0.0342  0.4847
 3133SOL     OW21031   2.460   0.572   4.873 -0.5617  0.0930  0.3112
 3133SOL    HW121032   2.432   0.661   4.895  0.7071 -0.1248  2.7477
 3133SOL    HW221033   2.533   0.588   4.813  0.6426 -2.8934  1.0042
 3134SOL     OW21034   0.179   2.222  12.408  0.3221 -0.0287  0.1647
 3134SOL    HW121035   0.103   2.270  12.440  0.4277  0.3590 -0.1625
 3134SOL    HW221036   0.187   2.145  12.464 -0.3352  0.0977  0.4232
 3135SOL     OW21037   0.260   1.348   7.915  0.0986  0.2512 -0.1695
 3135SOL    HW121038   0.219   1.370   7.831 -0.4742 -1.2772 -0.2811
 3135SOL    HW221039   0.258   1.434   7.957  3.1804  0.1026  0.2953
 3136SOL     OW21040   4.360   4.719  11.668  0.0764 -0.0293  0.2888
 3136SOL    HW121041   4.376   4.627  11.651  0.3123  0.3757 -1.7808
 3136SOL    HW221042   4.265   4.714  11.682 -0.2893 -0.1461 -2.2015
 3137SOL     OW21043   2.345   0.232  11.456  0.2986  0.5197  0.2411
 3137SOL    HW121044   2.422   0.233  11.399 -0.8946 -0.1807 -1.3958
 3137SOL    HW221045   2.278   0.235  11.388  0.2779  0.6282  0.2662
 3138SOL     OW21046   1.895   1.090   1.947  0.1115  0.8279 -0.1319
 3138SOL    HW121047   1.804   1.091   1.919 -0.8922 -0.2839  3.0453
 3138SOL    HW221048   1.927   1.180   1.954  2.4932 -0.3432  4.3919
 3139SOL     OW21049   2.850   2.669  11.346  0.0039 -0.0531 -0.2197
 3139SOL    HW121050   2.800   2.736  11.391 -3.1690 -1.1720 -2.0620
 3139SOL    HW221051   2.909   2.641  11.416  0.8296  2.3343  0.0153
 3140SOL     OW21052   3.879   0.768   7.216  0.5061 -0.6321  0.2206
 3140SOL    HW121053   3.822   0.767   7.139  0.8183 -1.1499 -0.0071
 3140SOL    HW221054   3.816   0.731   7.278  1.7823  0.1652  1.9843
 3141SOL     OW21055   0.020   1.525   7.570  0.1854  0.1732 -0.1691
 3141SOL    HW121056   0.104   1.502   7.609 -0.6251 -0.5579  1.1275
 3141SOL    HW221057   4.701   1.473   7.627  0.6467  0.1008  0.2105
 3142SOL     OW21058   1.603   2.152   1.503 -0.5465  0.1330 -0.3203
 3142SOL    HW121059   1.645   2.236   1.522  1.7920 -1.0317 -0.2469
 3142SOL    HW221060   1.544   2.138   1.578  0.5518 -2.2509  0.1315
 3143SOL     OW21061   1.737   4.718   8.452  0.3857 -0.1448  0.3781
 3143SOL    HW121062   1.655   4.685   8.488 -0.1012  0.3120 -0.3055
 3143SOL    HW221063   1.779   0.000   8.536 -0.1407 -0.2349  0.6603
 3144SOL     OW21064   3.882   3.246   4.783 -0.1772  0.5760  0.2337
 3144SOL    HW121065   3.818   3.258   4.853 -1.4503  1.9992 -1.1604
 3144SOL    HW221066   3.885   3.152   4.769 -0.9341  0.4114  1.1645
 3145SOL     OW21067   1.378   0.632  11.630  0.2542  0.3545 -0.2043
 3145SOL    HW121068   1.303   0.580  11.602 -0.2787  1.2952 -0.5296
 3145SOL    HW221069   1.399   0.682  11.551  0.9841  1.2907  0.5729
 3146SOL     OW21070   4.632   3.969   9.087 -0.1434  0.4463 -0.3717
 3146SOL    HW121071   4.688   3.894   9.107  0.3227  1.2979  1.5805
 3146SOL    HW221072   4.551   3.926   9.061 -0.6003  0.4575  1.0015
 3147SOL     OW21073   1.766   1.092   0.341  0.3232  0.4365  0.1945
 3147SOL    HW121074   1.766   1.004   0.379  0.9613  0.9224  1.3360
 3147SOL    HW221075   1.855   1.096   0.307 -0.2049 -2.1032 -1.4641
 3148SOL     OW21076   3.099   3.569   3.823 -0.4559 -0.1416 -0.4530
 3148SOL    HW121077   3.070   3.644   3.875  1.1673 -0.6285  1.1444
 3148SOL    HW221078   3.193   3.582   3.815 -0.0698 -3.6326 -1.3693
 3149SOL     OW21079   3.960   0.912   9.168 -0.3750 -0.7235 -0.3031
 3149SOL    HW121080   3.866   0.912   9.148 -0.6583 -2.7735  1.0561
 3149SOL    HW221081   3.949   0.877   9.257  2.0296 -0.7447  0.0052
 3150SOL     OW21082   1.493   1.297   4.966 -0.3967  0.4319 -0.0406
 3150SOL    HW121083   1.437   1.305   4.889 -1.3863 -0.3819  0.5935
 3150SOL    HW221084   1.512   1.389   4.985 -1.6370  1.3883 -3.2977
 3151SOL     OW21085   3.759   0.965   8.162 -0.3332  0.0764  0.4673
 3151SOL    HW121086   3.694   0.986   8.095  1.0082 -0.3545 -0.9643
 3151SOL    HW221087   3.798   0.883   8.131 -1.6712 -0.6534  0.7353
 3152SOL     OW21088   4.166   2.490   7.449  0.0682  0.1864 -0.0419
 3152SOL    HW121089   4.187   2.408   7.403 -2.6934  0.6327 -2.1008
 3152SOL    HW221090   4.256   2.522   7.447  0.0864  0.2127  1.4252
 3153SOL     OW21091   0.931   2.905  10.813 -0.0634 -0.2119 -0.1717
 3153SOL    HW121092   0.841   2.878  10.796 -0.0971  0.3528 -0.8495
 3153SOL    HW221093   0.908   2.964  10.885  0.4179  0.5897 -0.6744
 3154SOL     OW21094   0.284   0.311   8.016  0.3237  0.8084 -0.0282
 3154SOL    HW121095   0.307   0.320   7.924  0.0521 -2.1179 -0.3775
 3154SOL    HW221096   0.223   0.238   8.008  0.1891  0.9331 -0.1388
 3155SOL     OW21097   0.134   4.143   2.519 -0.4879  0.6155 -0.5451
 3155SOL    HW121098   0.182   4.220   2.550  1.7491 -1.2534  0.6547
 3155SOL    HW221099   0.136   4.153   2.424  2.3988 -0.9566 -0.6506
 3156SOL     OW21100   2.401   2.044   9.586  0.2924 -0.8714  0.1287
 3156SOL    HW121101   2.437   2.034   9.674  2.8368  1.2521 -0.6815
 3156SOL    HW221102   2.319   2.001   9.609  0.6672 -1.0102  1.2069
 3157SOL     OW21103   1.744   3.698   3.222 -0.6869  0.2110  0.5541
 3157SOL    HW121104   1.816   3.732   3.275  0.7710 -2.5659  0.3425
 3157SOL    HW221105   1.767   3.608   3.201 -1.3604 -0.0350  0.8989
 3158SOL     OW21106   3.831   4.605   2.903  0.0996  0.0040 -0.2137
 3158SOL    HW121107   3.879   4.554   2.838 -1.7314  0.1686 -1.7173
 3158SOL    HW221108   3.755   4.547   2.907 -0.6827  1.1605  1.7667
 3159SOL     OW21109   3.436   3.239  13.769 -0.3823  0.4722 -0.1770
 3159SOL    HW121110   3.448   3.175  13.698  0.8117 -0.7185  1.1046
 3159SOL    HW221111   3.518   3.235  13.818 -0.7330 -2.8637  0.1210
 3160SOL     OW21112   4.019   2.735  16.991  0.5662 -0.4565 -0.5586
 3160SOL    HW121113   3.964   2.758  16.916  0.5031 -2.2901 -1.0698
 3160SOL    HW221114   4.024   2.641  16.976 -0.0321 -0.5095 -0.4305
 3161SOL     OW21115   2.716   3.266   9.874 -0.3039 -0.2511 -0.7480
 3161SOL    HW121116   2.748   3.355   9.854  1.0270 -0.5040  0.2016
 3161SOL    HW221117   2.672   3.273   9.959 -0.9086 -0.8997 -1.0124
 3162SOL     OW21118   0.064   2.855   2.163  0.3603  0.2885  0.0723
 3162SOL    HW121119   0.135   2.915   2.186  0.1354  1.2306 -1.6571
 3162SOL    HW221120   0.013   2.867   2.242  1.5791 -2.5166  1.2883
 3163SOL     OW21121   3.568   2.238   0.360  0.2246  0.2975  0.0466
 3163SOL    HW121122   3.599   2.247   0.450  1.2800 -1.1431 -0.1723
 3163SOL    HW221123   3.648   2.257   0.312 -2.4263  1.6355 -3.8236
 3164SOL     OW21124   4.351   1.776  14.222 -0.4298  0.1597 -0.2956
 3164SOL    HW121125   4.303   1.842  14.272  0.1934  0.0772  0.4020
 3164SOL    HW221126   4.412   1.837  14.179  0.5968 -0.0232  0.9013
 3165SOL     OW21127   1.558   4.152   2.712 -0.7665  0.0424  0.0102
 3165SOL    HW121128   1.592   4.203   2.785  0.3280 -0.5097 -0.1144
 3165SOL    HW221129   1.465   4.176   2.715 -1.3108 -2.0155  0.0984
 3166SOL     OW21130   2.453   0.274   9.228  0.0783  0.5792 -0.0709
 3166SOL    HW121131   2.413   0.302   9.310 -1.9082 -0.3090 -0.7362
 3166SOL    HW221132   2.519   0.343   9.218 -0.4206  1.0947  0.2069
 3167SOL     OW21133   1.267   1.600   2.872 -0.4009 -0.0042 -0.1266
 3167SOL    HW121134   1.180   1.575   2.842 -0.6460 -0.1628  0.7160
 3167SOL    HW221135   1.306   1.513   2.875 -2.4915 -1.0079 -2.2298
 3168SOL     OW21136   1.541   1.420  15.658  1.1400 -0.2913  0.4021
 3168SOL    HW121137   1.508   1.399  15.746 -0.0163 -0.7107 -0.1317
 3168SOL    HW221138   1.519   1.513  15.662 -1.8586 -0.9370 -0.9498
 3169SOL     OW21139   1.761   2.325   4.178 -0.2404  0.1234 -0.3452
 3169SOL    HW121140   1.738   2.261   4.111 -0.3999 -0.3680  0.1891
 3169SOL    HW221141   1.809   2.272   4.241 -0.7524  1.8007  1.4606
 3170SOL     OW21142   1.301   2.533   9.611  0.3903 -0.3174 -0.5096
 3170SOL    HW121143   1.364   2.500   9.547 -1.0496  0.2729 -2.2359
 3170SOL    HW221144   1.361   2.554   9.682 -1.3684  0.2246  0.8270
 3171SOL     OW21145   0.342   2.336   8.887 -0.4749 -0.0939  0.7096
 3171SOL    HW121146   0.433   2.308   8.895 -0.7178 -0.5298  1.9792
 3171SOL    HW221147   0.348   2.403   8.955  1.8988 -0.0846  0.5060
 3172SOL     OW21148   1.772   2.979   9.044 -0.1231 -0.3180 -0.2081
 3172SOL    HW121149   1.711   2.985   8.969  0.9165  0.2016 -1.0166
 3172SOL    HW221150   1.708   2.969   9.114  0.4533 -0.4432  0.2984
 3173SOL     OW21151   3.604   3.327   6.541  0.0407  0.1577  1.0080
 3173SOL    HW121152   3.628   3.243   6.580 -1.6435  0.0658  1.8715
 3173SOL    HW221153   3.646   3.393   6.595 -3.6633  2.9457  0.5049
 3174SOL     OW21154   3.574   2.949   7.213  0.2138 -0.2127  0.0150
 3174SOL    HW121155   3.579   2.977   7.304  1.8839 -0.0961 -0.1191
 3174SOL    HW221156   3.623   3.016   7.165  1.2366  0.3167  1.8314
 3175SOL     OW21157   0.595   1.108   0.810 -0.3379 -0.6847  0.0370
 3175SOL    HW121158   0.501   1.095   0.798 -0.1615 -1.0236 -1.0049
 3175SOL    HW221159   0.616   1.047   0.881  1.4210 -1.4653 -1.1472
 3176SOL     OW21160   0.161   0.778  15.349 -0.4963 -0.0012 -0.5044
 3176SOL    HW121161   0.167   0.850  15.411  0.1952 -1.4687  1.1498
 3176SOL    HW221162   0.165   0.823  15.264 -0.9382  1.5568  0.3075
 3177SOL     OW21163   4.123   2.733  14.110 -0.6851  0.4541  0.7565
 3177SOL    HW121164   4.109   2.706  14.019  1.5189 -0.7133  0.7529
 3177SOL    HW221165   4.209   2.697  14.133 -1.2937  1.6887  4.8562
 3178SOL     OW21166   2.749   2.432   6.753 -0.0318 -0.0737 -0.3670
 3178SOL    HW121167   2.836   2.451   6.790  0.1277 -1.6691  0.0652
 3178SOL    HW221168   2.698   2.510   6.776 -0.9030 -0.7596  0.0270
 3179SOL     OW21169   0.978   1.286   6.614  0.2461  0.0376 -0.4586
 3179SOL    HW121170   1.005   1.196   6.597  0.1570 -0.2171  0.8044
 3179SOL    HW221171   0.928   1.270   6.694 -0.8580  1.8498 -0.7655
 3180SOL     OW21172   3.354   3.547   3.811  0.0530  0.2114  0.0365
 3180SOL    HW121173   3.363   3.544   3.907  1.3479 -0.3341 -0.1092
 3180SOL    HW221174   3.437   3.506   3.786 -0.5216 -1.4608  0.8712
 3181SOL     OW21175   3.079   1.823   5.892 -0.4782 -0.4714 -0.2439
 3181SOL    HW121176   3.165   1.844   5.855 -0.3860 -0.2812  0.0845
 3181SOL    HW221177   3.100   1.823   5.985  0.5009 -2.2339 -0.4600
 3182SOL     OW21178   2.640   3.440   7.614  0.1806 -0.1558  0.3171
 3182SOL    HW121179   2.579   3.503   7.653 -0.0033 -0.2670  0.2075
 3182SOL    HW221180   2.588   3.360   7.611 -0.2841  0.1917 -1.1018
 3183SOL     OW21181   3.574   4.013   0.790 -0.1670 -0.1182  0.9071
 3183SOL    HW121182   3.551   4.084   0.730  1.4188  0.2541  0.7414
 3183SOL    HW221183   3.523   3.941   0.754 -4.1861  2.4913  1.3649
 3184SOL     OW21184   2.260   4.452  13.588 -0.1378 -0.0554  0.1409
 3184SOL    HW121185   2.275   4.455  13.683  0.4389 -3.0163  0.1459
 3184SOL    HW221186   2.317   4.526  13.567 -1.4548 -0.0822 -3.4447
 3185SOL     OW21187   3.259   2.400   3.508 -0.5669 -0.9997  0.6338
 3185SOL    HW121188   3.169   2.394   3.477 -0.8844  1.5593  0.9934
 3185SOL    HW221189   3.235   2.422   3.598 -4.1387  1.5714 -0.8970
 3186SOL     OW21190   2.627   3.723  10.449  0.3494 -0.0419  0.4409
 3186SOL    HW121191   2.690   3.699  10.517  1.6437 -2.1376 -1.4661
 3186SOL    HW221192   2.608   3.815  10.466  1.2296  0.1353  0.4975
 3187SOL     OW21193   2.407   4.710   8.569  0.2783  0.0993 -0.0808
 3187SOL    HW121194   2.426   0.032   8.641 -0.7973 -3.3576  3.0288
 3187SOL    HW221195   2.311   4.715   8.564  0.3100  0.0477 -0.8015
 3188SOL     OW21196   0.972   1.866   7.104 -0.3173 -0.1843  0.1857
 3188SOL    HW121197   0.925   1.896   7.026  0.1938  0.2335  0.0382
 3188SOL    HW221198   0.905   1.881   7.170 -0.4649 -4.4153  1.0200
 3189SOL     OW21199   0.183   4.251   7.554  0.5549 -0.2078 -0.6354
 3189SOL    HW121200   0.265   4.293   7.579  0.0837 -0.2874  1.0251
 3189SOL    HW221201   0.132   4.330   7.572 -0.7396 -0.8120 -1.6944
 3190SOL     OW21202   1.786   0.037   8.706 -0.6389 -0.4668  0.1204
 3190SOL    HW121203   1.779   0.117   8.759 -0.4480  0.2214 -0.9109
 3190SOL    HW221204   1.770   4.704   8.768  1.8352 -0.6568  0.5387
 3191SOL     OW21205   1.194   3.707  11.291 -0.3004  0.2891  0.2112
 3191SOL    HW121206   1.255   3.676  11.357  2.3995  0.6094 -2.1371
 3191SOL    HW221207   1.226   3.654  11.218 -2.1725  0.8476 -1.0139
 3192SOL     OW21208   3.625   4.717  13.292 -0.5505  0.0731  0.2229
 3192SOL    HW121209   3.540   0.013  13.322 -0.9634  1.3158 -2.3196
 3192SOL    HW221210   3.676   0.060  13.303 -0.4233  0.1884 -1.2544
 3193SOL     OW21211   2.014   1.684   6.705 -0.0048 -0.4538  0.0242
 3193SOL    HW121212   1.929   1.724   6.685  0.0424 -0.7250 -0.7181
 3193SOL    HW221213   1.992   1.592   6.719  0.9973 -0.9676 -1.7662
 3194SOL     OW21214   0.514   3.384   8.278  0.8209 -0.1325 -0.0175
 3194SOL    HW121215   0.451   3.336   8.331  0.9139  2.4548  2.3786
 3194SOL    HW221216   0.494   3.470   8.315 -1.0103 -1.4075  1.9144
 3195SOL     OW21217   1.604   1.946   2.321 -0.5484  0.2762 -0.0338
 3195SOL    HW121218   1.639   1.925   2.235 -1.1301  3.6221 -1.1100
 3195SOL    HW221219   1.590   1.858   2.355  2.8119 -0.2209  0.0514
 3196SOL     OW21220   1.768   1.029   6.069 -0.6390 -0.3073  0.7667
 3196SOL    HW121221   1.775   1.106   6.126  1.2872  0.5474 -0.5883
 3196SOL    HW221222   1.744   0.963   6.133 -3.9219 -0.5658 -0.7612
 3197SOL     OW21223   3.297   2.350   6.643 -0.9214 -0.2549  0.7106
 3197SOL    HW121224   3.218   2.376   6.691  0.1267  2.3403  1.0201
 3197SOL    HW221225   3.276   2.259   6.623  0.9497 -0.4130 -0.4896
 3198SOL     OW21226   4.241   1.938   5.605  0.1825  0.2187 -0.6041
 3198SOL    HW121227   4.329   1.903   5.611 -0.0983 -0.0860  1.7223
 3198SOL    HW221228   4.198   1.853   5.602 -0.4197  0.5560 -1.6717
 3199SOL     OW21229   0.301   0.952   6.970  0.1095  0.0490  0.0610
 3199SOL    HW121230   0.249   1.010   6.914  0.4420  0.8675  0.6005
 3199SOL    HW221231   0.232   0.930   7.033  2.1931 -0.0759  2.3000
 3200SOL     OW21232   1.545   1.983   9.765 -0.1187  0.5609 -0.4331
 3200SOL    HW121233   1.633   2.006   9.795 -0.8803  2.6449  0.1766
 3200SOL    HW221234   1.522   2.050   9.701  0.2735  2.6469  1.6172
 3201SOL     OW21235   4.215   3.012   7.631 -0.5478 -0.4619 -0.3394
 3201SOL    HW121236   4.156   2.956   7.681 -0.0018 -2.3087 -1.7727
 3201SOL    HW221237   4.163   3.092   7.624  1.7035  0.9242 -1.1381
 3202SOL     OW21238   1.002   3.318   0.727  0.5722  0.4666 -0.5382
 3202SOL    HW121239   1.028   3.241   0.676 -1.4429 -2.2243  2.4556
 3202SOL    HW221240   1.063   3.296   0.798 -0.4264 -2.4492 -0.5823
 3203SOL     OW21241   4.055   4.456  13.540  0.0988  0.9333  0.3084
 3203SOL    HW121242   4.108   4.391  13.586 -0.4075 -0.7100 -1.4028
 3203SOL    HW221243   4.034   4.399  13.466  1.5736  0.6499  0.1158
 3204SOL     OW21244   4.411   2.500  11.517  0.1421  0.2088  0.3360
 3204SOL    HW121245   4.348   2.552  11.466  2.1386  1.1794 -1.1269
 3204SOL    HW221246   4.488   2.505  11.460 -2.5100  0.5240 -3.2599
 3205SOL     OW21247   0.876   2.336  17.299  0.3030  0.1421  0.1922
 3205SOL    HW121248   0.920   2.410  17.259  1.2203 -1.0425 -1.0027
 3205SOL    HW221249   0.940   2.309  17.366  0.7070  1.1285  0.2002
 3206SOL     OW21250   4.147   0.488   8.136  0.1069 -0.4243 -0.0432
 3206SOL    HW121251   4.208   0.440   8.193  0.9363  2.0635  1.1828
 3206SOL    HW221252   4.108   0.421   8.080  1.6439 -0.2000 -1.3971
 3207SOL     OW21253   1.286   1.666  17.508 -0.5664  0.0387  0.3866
 3207SOL    HW121254   1.320   1.601  17.447 -1.1324 -0.9922  1.1602
 3207SOL    HW221255   1.191   1.666  17.499 -0.7878 -4.9570  2.6717
 3208SOL     OW21256   1.646   3.756   8.835  0.2152 -0.1197  0.1340
 3208SOL    HW121257   1.666   3.668   8.866  1.1505  0.4324  1.1150
 3208SOL    HW221258   1.610   3.794   8.916 -1.4847  1.2786 -1.2764
 3209SOL     OW21259   4.382   3.132   3.826 -0.5270 -0.1392  0.2284
 3209SOL    HW121260   4.318   3.196   3.857 -1.8377  0.0103 -2.7614
 3209SOL    HW221261   4.465   3.161   3.864 -0.9729  2.0801 -0.5341
 3210SOL     OW21262   1.562   2.291   8.956 -0.4244  0.2922 -0.1972
 3210SOL    HW121263   1.475   2.251   8.956  0.0405 -0.7617  1.8892
 3210SOL    HW221264   1.580   2.322   8.868 -1.6301 -0.1792 -0.6152
 3211SOL     OW21265   0.482   2.016   5.385  0.1921  0.1886  0.1395
 3211SOL    HW121266   0.525   1.932   5.375 -0.5580 -0.0205 -1.4230
 3211SOL    HW221267   0.396   1.985   5.355  0.8534 -1.8066  0.3333
 3212SOL     OW21268   0.628   0.382   5.008 -0.0829 -0.4585  0.3833
 3212SOL    HW121269   0.605   0.289   5.008  0.8375 -0.6865  0.9920
 3212SOL    HW221270   0.674   0.389   4.924  1.2653 -0.1621  1.1511
 3213SOL     OW21271   2.892   1.144   8.712 -0.0265  0.0599  0.3729
 3213SOL    HW121272   2.837   1.066   8.727  2.6428 -1.6848  1.1009
 3213SOL    HW221273   2.938   1.116   8.633  1.1111  0.1821  1.0040
 3214SOL     OW21274   3.681   4.673  13.969 -0.2553  0.2504 -0.2742
 3214SOL    HW121275   3.707   4.682  13.877 -0.2453  3.4077  0.0481
 3214SOL    HW221276   3.591   4.642  13.975 -0.2625  0.4809  0.7822
 3215SOL     OW21277   1.619   4.023   2.989  0.1563 -0.2314 -1.2315
 3215SOL    HW121278   1.708   4.058   2.996  0.3393 -0.9983  0.1602
 3215SOL    HW221279   1.566   4.102   2.992 -0.6971 -0.9070  1.2832
 3216SOL     OW21280   2.613   2.612   2.511  0.1856  0.3251 -0.6127
 3216SOL    HW121281   2.624   2.661   2.592 -3.8931  0.9258 -0.4369
 3216SOL    HW221282   2.538   2.558   2.535  0.0377  0.8377  0.0607
 3217SOL     OW21283   2.505   3.932   7.705  0.7654 -0.1504  0.1795
 3217SOL    HW121284   2.425   3.901   7.746  0.0972  0.2993 -0.7901
 3217SOL    HW221285   2.470   4.018   7.681  0.4685 -0.2915  0.1163
 3218SOL     OW21286   4.609   3.512   1.903  0.3616 -0.1064 -0.1624
 3218SOL    HW121287   4.589   3.444   1.838  0.2652  1.1446 -1.4499
 3218SOL    HW221288   4.680   3.467   1.949 -0.3612 -0.4365  0.6136
 3219SOL     OW21289   3.329   3.115   1.738  0.2765  0.4766 -0.9427
 3219SOL    HW121290   3.281   3.166   1.803  2.0490 -1.3342  1.8009
 3219SOL    HW221291   3.410   3.094   1.786 -0.6543 -2.9361 -0.8333
 3220SOL     OW21292   3.980   0.845  10.434  0.1851 -0.3447  0.0024
 3220SOL    HW121293   4.039   0.786  10.481  1.0233  0.8864  0.4869
 3220SOL    HW221294   4.037   0.921  10.445 -0.7295  0.5552 -1.4945
 3221SOL     OW21295   0.148   3.588   3.561  0.2670  0.1623 -0.0587
 3221SOL    HW121296   0.096   3.512   3.534  2.0299 -1.0021 -0.1704
 3221SOL    HW221297   0.181   3.632   3.483  0.6071  0.9743  0.5405
 3222SOL     OW21298   3.965   1.056   0.770 -0.1676 -0.2603 -0.6100
 3222SOL    HW121299   4.008   1.126   0.720 -2.2160  0.1190 -1.8718
 3222SOL    HW221300   3.995   1.081   0.857  1.3283  0.9227 -1.4519
 3223SOL     OW21301   1.988   3.301   3.461  0.0251 -0.0798 -0.0096
 3223SOL    HW121302   2.058   3.367   3.455 -1.7461  1.7206 -0.6611
 3223SOL    HW221303   1.911   3.357   3.465  1.1436  1.7329 -3.5276
 3224SOL     OW21304   2.506   4.702   7.393  0.5517  0.3205 -0.3454
 3224SOL    HW121305   2.413   4.683   7.383  1.0001 -0.7469 -2.4241
 3224SOL    HW221306   2.539   4.707   7.303  3.0434 -1.9672  0.4267
 3225SOL     OW21307   1.966   2.520  13.502 -0.1390  0.1124 -0.0115
 3225SOL    HW121308   2.022   2.495  13.429  1.2464 -1.0871  1.4545
 3225SOL    HW221309   1.924   2.434  13.499 -2.2460  1.1983 -1.2870
 3226SOL     OW21310   1.791   4.252   4.633  0.5314 -0.6076  0.8040
 3226SOL    HW121311   1.786   4.179   4.571  1.1404 -0.3614  0.4652
 3226SOL    HW221312   1.886   4.262   4.641  0.5763 -1.0050  0.7696
 3227SOL     OW21313   3.625   3.450   8.542 -0.0528  0.1543  0.0950
 3227SOL    HW121314   3.538   3.410   8.545 -1.1765  2.6520 -0.0152
 3227SOL    HW221315   3.649   3.434   8.633 -2.4250  0.7814  0.8224
 3228SOL     OW21316   0.453   1.919   1.028 -0.4515 -0.0405  0.2746
 3228SOL    HW121317   0.476   1.928   1.121  0.2232  0.2740  0.0763
 3228SOL    HW221318   0.381   1.982   1.028 -0.4432 -0.0304  0.6252
 3229SOL     OW21319   0.529   3.373  15.783  0.0067 -0.1794 -0.3804
 3229SOL    HW121320   0.621   3.357  15.803 -0.1303 -0.2128  0.2238
 3229SOL    HW221321   0.523   3.467  15.767 -0.9369 -0.0953  0.4428
 3230SOL     OW21322   4.625   3.379   8.734  0.4232  0.2780 -0.0285
 3230SOL    HW121323   4.613   3.460   8.784  2.3694 -0.4713  1.6505
 3230SOL    HW221324   4.535   3.368   8.704 -0.3890  2.3924  1.5164
 3231SOL     OW21325   2.106   1.274  13.571  0.3915 -0.0199 -0.0179
 3231SOL    HW121326   2.130   1.184  13.592 -0.5937 -0.3968 -0.5008
 3231SOL    HW221327   2.166   1.328  13.622 -0.2902  0.4042  0.3438
 3232SOL     OW21328   2.484   2.658   2.926  0.1143 -0.2621 -0.3512
 3232SOL    HW121329   2.410   2.676   2.867  0.6807 -0.2801 -1.0696
 3232SOL    HW221330   2.484   2.734   2.984  2.4201  1.3702 -2.4484
 3233SOL     OW21331   2.461   0.121   3.282 -0.1865 -0.5776 -0.4329
 3233SOL    HW121332   2.427   0.109   3.370  1.8092 -0.0022  0.4079
 3233SOL    HW221333   2.410   0.200   3.260  0.9127  0.9829  2.6847
 3234SOL     OW21334   1.214   0.671   0.464  0.3500  0.7866 -0.2724
 3234SOL    HW121335   1.276   0.602   0.443 -0.3997 -0.3844  1.3272
 3234SOL    HW221336   1.140   0.620   0.497  0.4316 -0.1915 -1.6048
 3235SOL     OW21337   1.322   1.897   1.733 -0.1127 -0.0349 -0.0925
 3235SOL    HW121338   1.392   1.870   1.673  0.6004 -1.4659  1.3762
 3235SOL    HW221339   1.347   1.988   1.752 -1.9023  0.4618 -0.1094
 3236SOL     OW21340   4.501   0.210   8.024 -0.3124 -0.1285 -0.3052
 3236SOL    HW121341   4.535   0.147   8.089 -0.4058  1.5266  1.3427
 3236SOL    HW221342   4.509   0.293   8.071  1.1861 -0.9784  0.9693
 3237SOL     OW21343   2.772   0.564   6.456  0.0329  0.1215  0.5937
 3237SOL    HW121344   2.714   0.561   6.380 -0.5319 -0.3947  1.0522
 3237SOL    HW221345   2.773   0.658   6.472 -0.1598 -0.0062  1.3451
 3238SOL     OW21346   3.233   2.615   7.626  0.6809  0.7413 -0.1328
 3238SOL    HW121347   3.322   2.647   7.642 -0.2280  1.9333  2.3671
 3238SOL    HW221348   3.229   2.533   7.676  1.1543  0.5159 -0.4648
 3239SOL     OW21349   0.958   2.518   3.031  0.0054  0.4560 -0.3178
 3239SOL    HW121350   0.944   2.579   2.959  0.9176 -0.6699 -1.4665
 3239SOL    HW221351   0.943   2.434   2.987 -0.1287 -0.6668  1.8770
 3240SOL     OW21352   2.476   2.291   4.847  0.2385 -0.0930  0.7953
 3240SOL    HW121353   2.398   2.338   4.819  2.1846  1.0101 -2.8822
 3240SOL    HW221354   2.536   2.310   4.775 -2.6833 -0.3789 -1.7078
 3241SOL     OW21355   2.023   2.105   1.915  0.5091 -0.1321 -0.3697
 3241SOL    HW121356   2.078   2.060   1.980 -0.0393 -2.3269 -1.4021
 3241SOL    HW221357   2.093   2.157   1.875  2.1838 -0.3878  2.2158
 3242SOL     OW21358   0.518   3.598  17.036  0.0009  0.1746  0.2481
 3242SOL    HW121359   0.504   3.657  17.111 -1.6563 -0.8768  0.7686
 3242SOL    HW221360   0.466   3.525  17.069  1.4006 -0.7114  0.4659
 3243SOL     OW21361   2.177   2.695   9.703  0.4495 -0.0186 -0.0700
 3243SOL    HW121362   2.196   2.702   9.610 -1.6129 -0.3056 -0.5049
 3243SOL    HW221363   2.254   2.643   9.727 -0.5586 -1.8793 -0.9432
 3244SOL     OW21364   2.585   3.189   8.618  0.4068  0.1903 -0.0682
 3244SOL    HW121365   2.609   3.114   8.671 -1.5421 -1.7388 -1.9110
 3244SOL    HW221366   2.492   3.178   8.638  0.3705 -2.4299 -1.6180
 3245SOL     OW21367   2.231   0.336   4.260  0.2435 -0.4208  0.8372
 3245SOL    HW121368   2.252   0.429   4.252 -2.9287  0.0718 -1.1844
 3245SOL    HW221369   2.175   0.337   4.338 -0.4566 -0.4615  0.3305
 3246SOL     OW21370   1.331   2.081   7.781  0.3664  0.6977  0.1026
 3246SOL    HW121371   1.357   2.133   7.705  0.4718 -0.2195 -0.4840
 3246SOL    HW221372   1.236   2.081   7.769  0.5633  2.0028 -1.4934
 3247SOL     OW21373   0.004   2.320   2.202 -0.2925  0.0611  0.1279
 3247SOL    HW121374   0.015   2.315   2.297  0.3693  0.4421  0.0679
 3247SOL    HW221375   4.669   2.377   2.178  0.6829  1.0116 -0.5496
 3248SOL     OW21376   0.409   2.675   2.566  0.1592 -0.5101  0.8429
 3248SOL    HW121377   0.388   2.593   2.521 -0.3662 -0.1650  0.4608
 3248SOL    HW221378   0.427   2.736   2.495  0.4118 -1.4738  0.0839
 3249SOL     OW21379   4.173   3.989   1.951 -0.2925 -0.1798 -0.7348
 3249SOL    HW121380   4.125   4.071   1.955 -0.6965 -0.4890  0.6988
 3249SOL    HW221381   4.110   3.929   1.911 -1.7081 -0.3797  1.7713
 3250SOL     OW21382   1.762   1.821  15.626  1.0226  0.5601 -0.1117
 3250SOL    HW121383   1.727   1.906  15.654  0.1485  0.0514  0.3399
 3250SOL    HW221384   1.732   1.775  15.705  0.9076  0.6242 -0.1179
 3251SOL     OW21385   3.946   3.700   1.495 -0.3607 -0.1560 -0.3462
 3251SOL    HW121386   3.919   3.684   1.405  0.7496 -2.4579 -0.2637
 3251SOL    HW221387   4.027   3.749   1.480 -1.6552  2.1136  0.0368
 3252SOL     OW21388   0.324   4.590  12.916  0.0592  0.5338 -0.1354
 3252SOL    HW121389   0.324   4.552  12.828  0.6772  0.6614 -0.1907
 3252SOL    HW221390   0.311   4.513  12.972  1.5713  0.6306  0.3559
 3253SOL     OW21391   2.428   3.599   8.663  0.2490  0.7466  0.3757
 3253SOL    HW121392   2.449   3.574   8.573  1.5265 -1.2632  1.2482
 3253SOL    HW221393   2.380   3.519   8.684  0.5604 -0.1132 -2.1354
 3254SOL     OW21394   4.641   0.164   7.790 -0.3550 -0.2257 -0.1558
 3254SOL    HW121395   4.590   0.159   7.871 -1.7736  0.3147 -1.0165
 3254SOL    HW221396   4.647   0.258   7.774  0.4380 -0.2651 -0.0536
 3255SOL     OW21397   4.636   2.140  14.527 -0.0842 -0.2372 -0.2399
 3255SOL    HW121398   4.587   2.078  14.582  0.8873 -1.1279 -0.3652
 3255SOL    HW221399   4.695   2.083  14.479 -0.5471 -1.1279  0.2335
 3256SOL     OW21400   3.906   0.936   5.866 -0.2456 -0.3605 -0.2947
 3256SOL    HW121401   3.894   0.842   5.878 -1.5555 -0.3033 -1.1645
 3256SOL    HW221402   3.856   0.969   5.941 -1.1730 -2.5218  0.0233
 3257SOL     OW21403   3.278   2.771   8.962  0.7591 -0.0772  0.2711
 3257SOL    HW121404   3.354   2.730   8.921 -1.3731 -0.1901 -3.4985
 3257SOL    HW221405   3.223   2.693   8.965  0.1442  0.3415 -0.2319
 3258SOL     OW21406   0.041   2.349   5.752 -0.6220 -0.3731 -0.1136
 3258SOL    HW121407   0.023   2.290   5.679 -0.0386 -0.7629  0.0547
 3258SOL    HW221408   0.129   2.373   5.724 -1.0131  0.6164 -0.4597
 3259SOL     OW21409   1.708   2.240   3.822 -0.4943  0.0203  0.6949
 3259SOL    HW121410   1.653   2.216   3.897 -0.9336  0.0801  0.3940
 3259SOL    HW221411   1.644   2.291   3.773 -1.1848 -1.6733 -0.1688
 3260SOL     OW21412   1.529   4.260   5.348 -0.6062  0.0624 -0.0127
 3260SOL    HW121413   1.443   4.273   5.308  0.1549 -0.0259 -1.6802
 3260SOL    HW221414   1.529   4.166   5.363  0.3476  0.1889  0.7814
 3261SOL     OW21415   4.588   0.405   5.197 -0.3123 -0.4957 -0.2336
 3261SOL    HW121416   4.600   0.318   5.236  1.0046  0.8176  2.2806
 3261SOL    HW221417   4.505   0.405   5.149  0.0465  0.9022 -0.8697
 3262SOL     OW21418   4.698   1.897   2.094 -0.1674 -0.2168 -0.1044
 3262SOL    HW121419   4.623   1.904   2.035  0.4116  0.2197 -0.7901
 3262SOL    HW221420   0.029   1.840   2.058  0.6727 -0.6006  2.0717
 3263SOL     OW21421   4.260   1.656   0.126  0.2334  0.3796 -0.2520
 3263SOL    HW121422   4.263   1.581   0.187  1.2046  0.8143  0.2439
 3263SOL    HW221423   4.330   1.710   0.165  1.9652 -1.8606 -0.2294
 3264SOL     OW21424   2.537   2.164  17.521  0.1074 -0.6603  0.2790
 3264SOL    HW121425   2.584   2.099  17.470  0.1078 -0.1710 -0.3464
 3264SOL    HW221426   2.464   2.186  17.464 -0.9026 -0.2104  1.7318
 3265SOL     OW21427   2.572   3.738  16.502 -0.1517 -0.1490 -0.6206
 3265SOL    HW121428   2.609   3.780  16.424  2.7296 -0.9000  0.3449
 3265SOL    HW221429   2.539   3.663  16.452  0.7892 -1.4588  0.7213
 3266SOL     OW21430   1.506   3.985   1.969 -0.3114 -0.0849 -0.5756
 3266SOL    HW121431   1.412   4.000   1.974 -0.4516 -0.4539 -2.1080
 3266SOL    HW221432   1.542   4.054   2.024  0.7373 -0.3587 -0.9016
 3267SOL     OW21433   3.310   3.465   1.771 -0.6283 -0.5235  0.7631
 3267SOL    HW121434   3.269   3.475   1.685  1.1056 -2.9052 -0.3261
 3267SOL    HW221435   3.262   3.392   1.809  0.8275 -2.1655 -0.5256
 3268SOL     OW21436   0.021   4.214   6.488 -0.0868  0.2094 -0.0811
 3268SOL    HW121437   0.087   4.281   6.469 -0.9960  1.3787  0.8447
 3268SOL    HW221438   0.034   4.201   6.583 -1.1958 -0.8346 -0.0774
 3269SOL     OW21439   3.680   0.426   5.305 -0.3854 -0.2041 -0.5214
 3269SOL    HW121440   3.668   0.335   5.329 -0.9798  0.2340  0.8478
 3269SOL    HW221441   3.770   0.424   5.272  0.5838 -0.1798  2.1010
 3270SOL     OW21442   3.418   2.563  12.802  0.3770  0.2875  0.3972
 3270SOL    HW121443   3.429   2.484  12.748  2.7298  1.1383 -0.3646
 3270SOL    HW221444   3.386   2.526  12.885 -1.5168 -0.3236 -0.6030
 3271SOL     OW21445   1.869   3.586   5.691 -0.3698  0.1318 -0.2941
 3271SOL    HW121446   1.917   3.647   5.747 -0.5596 -1.9094  2.0535
 3271SOL    HW221447   1.776   3.609   5.693 -0.4287  0.1603 -2.6261
 3272SOL     OW21448   1.205   3.554   8.015  0.1565  0.3529  0.2336
 3272SOL    HW121449   1.131   3.538   8.074  0.8751 -0.5666  0.8664
 3272SOL    HW221450   1.184   3.646   7.995 -1.6721 -0.3413 -1.0314
 3273SOL     OW21451   4.247   1.862   1.978 -0.0578 -0.0779 -1.1189
 3273SOL    HW121452   4.191   1.908   1.915 -0.4936  0.4217 -0.3653
 3273SOL    HW221453   4.214   1.772   1.977  2.1299 -0.8884 -0.4806
 3274SOL     OW21454   1.915   2.776  16.135  0.3953  0.0401  0.0385
 3274SOL    HW121455   2.008   2.796  16.149  0.4280 -0.0499 -0.0455
 3274SOL    HW221456   1.873   2.857  16.106 -1.3149  0.0685  2.6607
 3275SOL     OW21457   3.960   4.214   4.844  0.0262  0.5699  0.7711
 3275SOL    HW121458   3.996   4.297   4.812  2.9231 -0.8238  0.3716
 3275SOL    HW221459   3.916   4.241   4.924  1.3006 -1.0848  2.0240
 3276SOL     OW21460   2.917   0.405   9.122 -0.1253 -0.7822 -0.2211
 3276SOL    HW121461   2.962   0.331   9.080 -0.7710 -0.8927 -0.7085
 3276SOL    HW221462   2.988   0.469   9.125 -0.2863 -0.7766  2.8761
 3277SOL     OW21463   2.401   2.564  16.307  0.2571 -0.3422 -0.0982
 3277SOL    HW121464   2.443   2.650  16.311  1.4237 -0.9442  0.5690
 3277SOL    HW221465   2.366   2.553  16.395 -0.4136 -3.2176 -0.7022
 3278SOL     OW21466   2.262   0.448  11.718 -0.0978 -0.0305 -0.2224
 3278SOL    HW121467   2.177   0.464  11.760 -0.7287  0.8117 -1.8474
 3278SOL    HW221468   2.237   0.412  11.633 -0.1612 -3.0423  1.0859
 3279SOL     OW21469   2.582   0.566   4.381 -0.2371  0.2338  0.5541
 3279SOL    HW121470   2.525   0.496   4.347  1.7233  0.1969 -2.6042
 3279SOL    HW221471   2.611   0.609   4.301 -0.9858  1.0999  0.7446
 3280SOL     OW21472   0.538   1.112  17.422 -0.1896 -0.3024  0.4686
 3280SOL    HW121473   0.527   1.061  17.342 -0.5275 -1.5205  1.2932
 3280SOL    HW221474   0.532   1.199  17.382 -1.3980 -0.0633  1.1742
 3281SOL     OW21475   1.118   0.801   6.533  0.1563  0.5283  0.0413
 3281SOL    HW121476   1.097   0.711   6.508 -2.0510  0.6208  1.6045
 3281SOL    HW221477   1.151   0.785   6.621  0.1532  1.4295  0.1978
 3282SOL     OW21478   0.018   3.889  14.024 -0.1432 -0.2902 -0.2762
 3282SOL    HW121479   0.083   3.836  14.071  0.9800  1.2955 -0.0563
 3282SOL    HW221480   0.085   3.931  13.971 -0.8020  1.2008  0.0657
 3283SOL     OW21481   3.760   3.008   8.368 -0.1230  0.3502  0.2469
 3283SOL    HW121482   3.757   3.098   8.401 -3.3399  0.1680  0.5021
 3283SOL    HW221483   3.795   3.028   8.281 -0.1415 -0.2559  0.1021
 3284SOL     OW21484   4.183   4.685   6.873 -0.3301  0.2258  0.6025
 3284SOL    HW121485   4.108   4.688   6.933 -0.0048  0.8291  0.9906
 3284SOL    HW221486   4.216   4.599   6.898  0.4731  0.7158  1.2766
 3285SOL     OW21487   2.546   1.685  13.285  0.4275 -0.5502  0.4087
 3285SOL    HW121488   2.481   1.657  13.221  1.2343 -1.4588 -0.0032
 3285SOL    HW221489   2.536   1.613  13.347 -0.0621  0.9030  2.0178
 3286SOL     OW21490   3.343   4.053   7.508 -0.3287 -0.4041 -0.2408
 3286SOL    HW121491   3.412   4.037   7.443  0.6172 -0.6292  0.8071
 3286SOL    HW221492   3.335   4.148   7.497 -0.2298 -0.2707  0.8561
 3287SOL     OW21493   1.927   3.829  10.098 -0.8813  0.3600 -0.2269
 3287SOL    HW121494   1.987   3.879  10.154 -2.1977  2.0622 -0.3517
 3287SOL    HW221495   1.856   3.893  10.097 -1.0303  0.1737 -1.1327
 3288SOL     OW21496   0.636   0.970  11.499 -0.5158  0.4486  0.0473
 3288SOL    HW121497   0.621   1.050  11.448  0.5086  0.1422 -0.7215
 3288SOL    HW221498   0.547   0.936  11.492 -0.4438  0.0474  0.9641
 3289SOL     OW21499   0.946   1.684   9.162  0.1544 -0.3860  0.1319
 3289SOL    HW121500   0.989   1.751   9.215  1.7863  0.1447 -1.8671
 3289SOL    HW221501   1.015   1.618   9.148 -0.4569 -1.0964  0.4699
 3290SOL     OW21502   3.932   3.923   9.092  0.0660  0.0057 -0.4102
 3290SOL    HW121503   3.928   3.939   9.186  0.5154  0.0088 -0.3925
 3290SOL    HW221504   3.871   3.850   9.089  0.8616 -0.6509 -0.3946
 3291SOL     OW21505   2.079   2.507   8.391 -0.2807  0.7153 -0.0684
 3291SOL    HW121506   2.164   2.485   8.353 -1.0133  0.7876 -1.7546
 3291SOL    HW221507   2.041   2.553   8.316 -0.1891 -1.7416 -1.6074
 3292SOL     OW21508   2.379   3.623   0.867 -0.0890 -0.0404 -0.2304
 3292SOL    HW121509   2.468   3.640   0.835  0.4174 -1.3207  0.4964
 3292SOL    HW221510   2.383   3.688   0.937 -1.0965 -1.1992  0.9129
 3293SOL     OW21511   1.964   3.105   9.180 -0.0001 -0.0079 -0.2403
 3293SOL    HW121512   1.892   3.074   9.125 -1.0109  0.3274  0.8940
 3293SOL    HW221513   1.995   3.164   9.112  2.5225 -1.4053 -0.2894
 3294SOL     OW21514   2.772   0.588   8.063  0.0803 -0.3463 -0.3544
 3294SOL    HW121515   2.759   0.614   8.154 -0.9225 -0.1133 -0.5608
 3294SOL    HW221516   2.824   0.665   8.040  2.2321 -0.6691  3.4117
 3295SOL     OW21517   0.387   0.028   3.592 -0.3864  0.2804  0.4013
 3295SOL    HW121518   0.449   0.043   3.521 -0.3502 -1.9029 -0.0338
 3295SOL    HW221519   0.399   0.109   3.642 -0.6659  0.8732 -0.4941
 3296SOL     OW21520   3.982   2.321   5.975 -0.7294 -0.2435  0.3415
 3296SOL    HW121521   3.893   2.341   5.945  0.4228  1.4859 -1.9056
 3296SOL    HW221522   4.012   2.238   5.937  0.7864  0.6246 -0.3307
 3297SOL     OW21523   3.458   4.316   5.241  0.4486 -0.3815 -0.4341
 3297SOL    HW121524   3.370   4.330   5.275  1.3430 -0.4797  1.8772
 3297SOL    HW221525   3.504   4.284   5.319  0.3226  3.3833  1.1720
 3298SOL     OW21526   0.574   4.059   6.819  0.4074  0.2731 -0.1274
 3298SOL    HW121527   0.545   4.057   6.910 -1.9780  0.1093 -0.8873
 3298SOL    HW221528   0.511   4.124   6.788 -0.7363 -1.0934 -0.6867
 3299SOL     OW21529   3.273   3.660  11.550  0.6891 -0.3648  0.1658
 3299SOL    HW121530   3.224   3.722  11.604  0.1440  0.7755 -1.6317
 3299SOL    HW221531   3.261   3.577  11.596 -0.1226 -0.5696 -0.4248
 3300SOL     OW21532   2.752   1.774   8.533 -0.1544 -0.3420  0.2175
 3300SOL    HW121533   2.715   1.821   8.609 -0.1410 -0.8518  0.5372
 3300SOL    HW221534   2.739   1.836   8.462 -2.2515 -0.6524  0.3175
 3301SOL     OW21535   4.684   3.605  15.860 -0.3859 -0.2921  0.0645
 3301SOL    HW121536   4.692   3.571  15.949  0.8313  0.0408  0.0851
 3301SOL    HW221537   4.664   3.522  15.818 -1.9273  0.9717 -1.7145
 3302SOL     OW21538   4.310   3.803  17.343 -0.3394 -0.5238 -0.2831
 3302SOL    HW121539   4.373   3.778  17.411 -0.0189  0.6970 -0.1221
 3302SOL    HW221540   4.286   3.894  17.363 -0.6994 -0.8468  0.7578
 3303SOL     OW21541   1.561   3.979  17.008 -0.3756 -0.3168 -0.1813
 3303SOL    HW121542   1.571   3.953  16.917 -0.3053 -2.8805  0.5591
 3303SOL    HW221543   1.505   4.056  17.001  0.4917  0.4327  1.1576
 3304SOL     OW21544   1.508   4.283   1.024  0.2956  0.3096 -0.6927
 3304SOL    HW121545   1.561   4.361   1.040  1.1507 -0.3028 -0.5470
 3304SOL    HW221546   1.569   4.214   0.999 -0.5143 -0.9900  0.9068
 3305SOL     OW21547   3.314   0.661   3.841  0.0750 -0.3922 -0.2897
 3305SOL    HW121548   3.368   0.588   3.873  1.5109  0.5459 -0.5785
 3305SOL    HW221549   3.348   0.726   3.903  2.4810 -1.5863 -0.3353
 3306SOL     OW21550   1.252   2.861   6.104  0.1696 -0.5121  0.5251
 3306SOL    HW121551   1.283   2.774   6.079  0.7992 -0.1191 -0.0615
 3306SOL    HW221552   1.328   2.917   6.090 -0.3430  0.0694  0.0384
 3307SOL     OW21553   1.185   0.573   8.378 -0.2976  0.0357 -0.4760
 3307SOL    HW121554   1.234   0.490   8.374  1.6135  1.0714  1.7121
 3307SOL    HW221555   1.250   0.627   8.423  0.3242 -0.5697 -0.6368
 3308SOL     OW21556   0.712   3.216   6.424  0.4729  0.1207 -0.1081
 3308SOL    HW121557   0.803   3.219   6.451  0.6488 -0.1562 -0.6729
 3308SOL    HW221558   0.663   3.185   6.499 -0.2738  1.6343  0.0412
 3309SOL     OW21559   2.143   4.008   7.153  0.7897  0.2621 -0.4154
 3309SOL    HW121560   2.114   3.938   7.095  1.3815 -0.5476  0.2696
 3309SOL    HW221561   2.063   4.047   7.188  0.9570 -1.2060  1.5646
 3310SOL     OW21562   0.876   0.284   8.599 -0.1019  0.2752 -0.0719
 3310SOL    HW121563   0.946   0.225   8.570  0.4569  0.2416  1.3341
 3310SOL    HW221564   0.847   0.242   8.680 -1.6224 -0.7147 -1.1213
 3311SOL     OW21565   2.633   0.120  10.184  0.0219 -0.0337  0.6487
 3311SOL    HW121566   2.671   0.170  10.112  0.0200  2.0724  2.1064
 3311SOL    HW221567   2.648   0.176  10.261  0.0676  1.0812 -0.1823
 3312SOL     OW21568   2.159   1.950   5.662 -0.3791  0.5066  0.3612
 3312SOL    HW121569   2.110   1.954   5.580  1.4430  0.3824 -0.7467
 3312SOL    HW221570   2.082   1.928   5.714 -0.1573 -2.3130 -0.5566
 3313SOL     OW21571   1.622   1.314   6.173  0.3839  0.4225 -0.1500
 3313SOL    HW121572   1.653   1.282   6.258  1.7293  1.7211 -0.1489
 3313SOL    HW221573   1.660   1.402   6.167 -0.9717  1.0505  0.7021
 3314SOL     OW21574   1.019   1.470   2.239 -0.0776 -0.0763 -0.1658
 3314SOL    HW121575   0.978   1.383   2.233 -1.2731  0.4869 -0.2245
 3314SOL    HW221576   0.947   1.514   2.193 -1.1585 -1.0109  0.6330
 3315SOL     OW21577   3.879   0.617   1.832 -0.1879 -0.0402 -0.3852
 3315SOL    HW121578   3.933   0.663   1.768 -1.2151 -0.8055 -1.8017
 3315SOL    HW221579   3.905   0.529   1.805  0.8760 -0.4136  1.8293
 3316SOL     OW21580   4.388   3.923   7.047 -0.1449 -0.1199  0.3674
 3316SOL    HW121581   4.437   3.866   7.107 -0.4434  1.3175  1.9912
 3316SOL    HW221582   4.417   4.010   7.075 -0.4600  0.0601  0.1275
 3317SOL     OW21583   4.027   3.901  14.619 -0.3659  0.2948 -0.5589
 3317SOL    HW121584   3.984   3.903  14.534 -0.4063  0.8393 -0.5291
 3317SOL    HW221585   3.951   3.881  14.675  0.2097 -0.0772  0.0946
 3318SOL     OW21586   1.670   2.096   1.977 -0.7293  0.3419  0.2084
 3318SOL    HW121587   1.703   2.017   1.933 -0.5993 -0.2818  1.4342
 3318SOL    HW221588   1.690   2.159   1.907 -1.2726 -1.3893 -1.4948
 3319SOL     OW21589   1.651   4.396  12.979 -0.6483 -0.5679 -0.0687
 3319SOL    HW121590   1.600   4.392  13.061 -0.7837  0.2180 -0.1148
 3319SOL    HW221591   1.687   4.485  12.985 -2.8798  0.5721 -3.4043
 3320SOL     OW21592   1.510   1.559   4.944 -0.3551 -0.7330  0.2336
 3320SOL    HW121593   1.437   1.602   4.900  0.4458  2.0077  1.6215
 3320SOL    HW221594   1.500   1.597   5.031 -1.0561  2.0047 -1.0667
 3321SOL     OW21595   4.311   4.623   4.612  0.1373  0.0965 -0.1390
 3321SOL    HW121596   4.274   4.711   4.624 -1.8389 -0.5606 -1.3430
 3321SOL    HW221597   4.335   4.641   4.521 -0.6297 -1.6536 -0.6818
 3322SOL     OW21598   2.197   1.997  16.814  0.1707  0.1809 -0.4841
 3322SOL    HW121599   2.253   1.931  16.774  2.0600  1.2862  0.3331
 3322SOL    HW221600   2.108   1.967  16.795  0.6384 -1.9307  0.6625
 3323SOL     OW21601   2.183   2.882   8.445 -0.0898  0.6170  0.8485
 3323SOL    HW121602   2.108   2.823   8.441 -1.7793  2.5965  3.2066
 3323SOL    HW221603   2.149   2.971   8.449  0.3995  0.7510  1.9783
 3324SOL     OW21604   4.540   0.030   8.239 -0.4039  0.2882 -0.0562
 3324SOL    HW121605   4.504   4.686   8.205  0.7315  0.8441 -2.5853
 3324SOL    HW221606   4.460   0.080   8.251  0.4201  1.4504  0.6478
 3325SOL     OW21607   3.319   2.150   3.338  0.1263  0.1404 -0.2293
 3325SOL    HW121608   3.337   2.221   3.400  2.2979 -0.1119 -0.5720
 3325SOL    HW221609   3.253   2.200   3.291 -0.3151 -0.6129 -0.4046
 3326SOL     OW21610   1.400   0.755   3.931  0.0001 -0.4075  0.3754
 3326SOL    HW121611   1.482   0.771   3.884 -0.0954 -1.7026 -0.2447
 3326SOL    HW221612   1.439   0.722   4.012  0.8760 -1.2301 -0.3838
 3327SOL     OW21613   2.290   1.360   7.249  0.2801  0.1168  0.0501
 3327SOL    HW121614   2.383   1.348   7.269  0.0063 -0.4143  1.0349
 3327SOL    HW221615   2.254   1.274   7.272  1.5634 -0.8124 -1.3469
 3328SOL     OW21616   0.361   1.406   2.559 -0.2972  0.2199  0.3250
 3328SOL    HW121617   0.405   1.362   2.486  2.4130 -1.3385  2.8995
 3328SOL    HW221618   0.355   1.499   2.535 -0.0582 -0.1307 -1.0610
 3329SOL     OW21619   1.421   1.230   3.916  0.0761 -0.1210  0.0861
 3329SOL    HW121620   1.391   1.209   4.005  0.3412 -0.2005  0.1548
 3329SOL    HW221621   1.403   1.323   3.903 -1.0366  0.0251  2.6324
 3330SOL     OW21622   3.096   3.798   5.202  0.4268  0.2263 -0.1576
 3330SOL    HW121623   3.121   3.716   5.159  1.2582  0.6760 -0.5022
 3330SOL    HW221624   3.094   3.854   5.125  1.0016 -0.4641 -0.6671
 3331SOL     OW21625   2.706   0.669   8.311  0.2968  0.2397 -0.1813
 3331SOL    HW121626   2.772   0.666   8.381 -0.2180 -2.1435  0.2215
 3331SOL    HW221627   2.649   0.597   8.339  0.5799  1.7091  4.1514
 3332SOL     OW21628   3.841   4.060   8.157  0.4831 -0.4324  0.2847
 3332SOL    HW121629   3.759   4.102   8.183 -0.8969 -2.7091 -0.4531
 3332SOL    HW221630   3.887   4.133   8.115  0.1903 -0.3766  0.0566
 3333SOL     OW21631   3.170   4.560  10.128  0.3149  0.4268 -0.4331
 3333SOL    HW121632   3.255   4.603  10.138  0.2796  0.4395 -0.1652
 3333SOL    HW221633   3.101   4.626  10.120 -0.1852  0.1091  1.1943
 3334SOL     OW21634   2.125   2.901   3.988 -0.5698 -0.1012  0.3743
 3334SOL    HW121635   2.057   2.881   4.053 -0.0121 -0.0271  0.9805
 3334SOL    HW221636   2.202   2.868   4.034 -0.0139 -0.3637 -0.7455
 3335SOL     OW21637   3.631   4.732   9.130  0.4134 -0.1634 -0.1303
 3335SOL    HW121638   3.583   0.046   9.065 -0.1640 -2.2993 -1.3974
 3335SOL    HW221639   3.666   4.657   9.083 -2.1356 -0.7452 -1.0980
 3336SOL     OW21640   0.024   2.781   4.102  0.4638  0.1310  0.4100
 3336SOL    HW121641   0.011   2.812   4.192 -0.9818  1.3858 -0.2337
 3336SOL    HW221642   4.672   2.746   4.103  0.8214 -0.7898 -1.3017
 3337SOL     OW21643   1.265   0.597   2.404 -0.1744  0.2608  0.3184
 3337SOL    HW121644   1.350   0.635   2.425 -1.5077  1.8926  2.7508
 3337SOL    HW221645   1.210   0.674   2.389  0.4061  0.3540 -1.3645
 3338SOL     OW21646   0.216   2.011   7.112  0.0978 -0.3912  0.1759
 3338SOL    HW121647   0.212   1.975   7.200  1.1052  0.1200  0.4283
 3338SOL    HW221648   0.136   1.978   7.070  0.3802 -1.9237  0.8544
 3339SOL     OW21649   2.079   0.175   4.694  0.1239 -0.0947 -0.0569
 3339SOL    HW121650   2.037   0.089   4.685  0.6574 -0.2327 -1.1607
 3339SOL    HW221651   2.112   0.172   4.784 -1.6191  1.5351  0.6422
 3340SOL     OW21652   2.821   0.244   8.537 -0.0694  0.5812  0.1851
 3340SOL    HW121653   2.849   0.153   8.551 -3.0645 -0.3629  0.0209
 3340SOL    HW221654   2.843   0.265   8.446 -1.0975 -3.8153 -1.0733
 3341SOL     OW21655   2.557   3.176   6.883 -0.2365  0.1177 -0.5431
 3341SOL    HW121656   2.571   3.138   6.796  0.7905 -2.5325  0.7417
 3341SOL    HW221657   2.644   3.172   6.924  0.0002  0.7388 -0.9878
 3342SOL     OW21658   2.420   0.199  14.092  0.5476 -0.5538 -0.3204
 3342SOL    HW121659   2.397   0.265  14.157  0.1749 -0.4079 -0.5982
 3342SOL    HW221660   2.502   0.227  14.052  1.0567 -0.0838  1.0393
 3343SOL     OW21661   2.704   4.172   2.662  0.1968  0.1754  0.2111
 3343SOL    HW121662   2.617   4.136   2.646  0.1303 -0.3538  1.7829
 3343SOL    HW221663   2.674   4.259   2.689 -1.0940 -0.3298  0.3717
 3344SOL     OW21664   3.297   2.582   2.982  0.5431  0.3231 -0.1230
 3344SOL    HW121665   3.284   2.511   2.919  0.3293 -0.0162  0.3126
 3344SOL    HW221666   3.389   2.575   3.005  0.0784 -0.8678  1.3563
 3345SOL     OW21667   1.368   1.392   6.245 -0.1956 -1.0024 -0.6703
 3345SOL    HW121668   1.453   1.350   6.237  1.2568  2.0270 -1.0223
 3345SOL    HW221669   1.354   1.429   6.158  0.2521  0.3224 -0.1684
 3346SOL     OW21670   3.643   2.855  13.134  0.5098  0.5516  0.2243
 3346SOL    HW121671   3.607   2.851  13.046  0.7816 -0.0218  0.1350
 3346SOL    HW221672   3.723   2.809  13.109 -1.0943 -0.7296 -2.6142
 3347SOL     OW21673   1.321   1.231  11.612  0.2362  0.0387 -0.0830
 3347SOL    HW121674   1.400   1.273  11.579  0.7434  0.5274  1.7239
 3347SOL    HW221675   1.334   1.248  11.705  1.7956  2.4334 -0.7514
 3348SOL     OW21676   0.253   1.281   5.515  0.3673 -0.4557  0.4837
 3348SOL    HW121677   0.273   1.189   5.533  1.5141 -0.5967 -1.6171
 3348SOL    HW221678   0.282   1.300   5.426 -0.4077 -1.0873  0.0946
 3349SOL     OW21679   1.109   1.896   1.569 -0.1429  0.1176 -1.0713
 3349SOL    HW121680   1.199   1.897   1.600 -0.6433 -0.2300  0.4114
 3349SOL    HW221681   1.085   1.988   1.585 -2.8154 -0.9709  1.2428
 3350SOL     OW21682   0.181   3.827  11.079  0.3163 -0.2223 -0.0681
 3350SOL    HW121683   0.265   3.832  11.124  0.7988  2.8585 -1.3324
 3350SOL    HW221684   0.120   3.810  11.151  1.5132 -1.8576  0.5671
 3351SOL     OW21685   4.135   0.862   1.126 -0.3496 -0.3097 -0.7058
 3351SOL    HW121686   4.104   0.773   1.145 -0.9749 -0.6527 -3.2920
 3351SOL    HW221687   4.073   0.883   1.057 -0.8473 -2.0418 -0.8023
 3352SOL     OW21688   3.887   4.586   0.243  0.1331 -0.4990 -0.7977
 3352SOL    HW121689   3.920   4.671   0.273 -0.4904  0.0847 -1.8012
 3352SOL    HW221690   3.920   4.524   0.309 -0.7301 -1.0087 -0.8425
 3353SOL     OW21691   3.798   4.240   5.060 -0.1523  0.6356  0.3879
 3353SOL    HW121692   3.745   4.314   5.091 -1.6654 -0.8206  1.3108
 3353SOL    HW221693   3.798   4.172   5.127 -1.7710  0.7933  0.5432
 3354SOL     OW21694   0.180   1.907   9.404  0.1058 -0.0200  0.0071
 3354SOL    HW121695   0.150   1.816   9.401 -0.8391  0.3712 -2.8746
 3354SOL    HW221696   0.214   1.899   9.493 -1.0569  0.5855  0.5139
 3355SOL     OW21697   3.358   4.181   7.202  0.2799 -0.0482 -0.0859
 3355SOL    HW121698   3.372   4.246   7.133 -0.5467  0.5957  0.3609
 3355SOL    HW221699   3.449   4.166   7.227  0.3210 -1.1170 -0.8619
 3356SOL     OW21700   1.569   2.425   6.670 -0.4653  0.6040  0.3367
 3356SOL    HW121701   1.631   2.464   6.608 -3.1074  2.2734 -1.2280
 3356SOL    HW221702   1.518   2.503   6.687 -1.1572  0.4317 -0.9446
 3357SOL     OW21703   3.971   3.586   0.516 -0.6338  0.2877 -0.4898
 3357SOL    HW121704   3.950   3.667   0.469  0.0760  0.8294  0.1106
 3357SOL    HW221705   4.033   3.540   0.459 -1.0351 -1.9284  0.8662
 3358SOL     OW21706   0.569   2.047  16.931  0.5583 -0.2601 -0.0702
 3358SOL    HW121707   0.561   2.001  16.848  0.2983  0.0961 -0.2408
 3358SOL    HW221708   0.491   2.102  16.923  1.0739  0.2142 -1.9263
 3359SOL     OW21709   2.900   1.438   4.956  0.8698 -0.4143  0.3574
 3359SOL    HW121710   2.862   1.487   5.030 -0.6765 -2.1377  0.7099
 3359SOL    HW221711   2.825   1.396   4.914  2.0335  1.0121 -3.1215
 3360SOL     OW21712   4.319   0.450   8.341  0.4492 -0.7325 -0.3902
 3360SOL    HW121713   4.412   0.434   8.329  0.5446  0.5795 -1.3340
 3360SOL    HW221714   4.312   0.537   8.379 -0.1631 -1.0564  0.2496
 3361SOL     OW21715   1.927   2.631   7.805 -0.3923  0.6811 -0.3191
 3361SOL    HW121716   2.002   2.615   7.748  0.2359  1.0363  0.4038
 3361SOL    HW221717   1.852   2.593   7.759 -1.2223  0.9921  0.7542
 3362SOL     OW21718   0.880   2.504   5.546 -0.0271  0.4706 -0.0822
 3362SOL    HW121719   0.930   2.534   5.470 -2.5202  3.0550 -0.6878
 3362SOL    HW221720   0.843   2.587   5.576  0.6120  0.0787  1.7809
 3363SOL     OW21721   1.495   2.323  14.151  0.2268 -0.4025  0.6329
 3363SOL    HW121722   1.568   2.353  14.096  0.9511 -0.9343  1.3023
 3363SOL    HW221723   1.505   2.377  14.230  1.5760 -0.9713  0.8495
 3364SOL     OW21724   1.803   0.018   7.400 -0.1622  0.3018  0.3119
 3364SOL    HW121725   1.875   0.079   7.415 -0.5050  0.5903  0.7612
 3364SOL    HW221726   1.764   0.045   7.317  1.4566 -0.0932 -0.5893
 3365SOL     OW21727   4.057   4.262   8.253 -0.0361  0.4615  0.2325
 3365SOL    HW121728   4.077   4.335   8.195  0.6584  0.3451  0.3283
 3365SOL    HW221729   4.131   4.205   8.232 -0.0115  0.8290 -0.6721
 3366SOL     OW21730   1.206   0.647   4.421  0.2728 -0.2064  0.3339
 3366SOL    HW121731   1.197   0.583   4.351 -0.8495 -1.1142  1.3284
 3366SOL    HW221732   1.201   0.733   4.377  1.4949 -1.7785 -2.8629
 3367SOL     OW21733   2.975   0.078  13.400  0.1375 -0.1198  0.0546
 3367SOL    HW121734   3.026   0.154  13.426 -0.0790  0.5891 -1.5818
 3367SOL    HW221735   2.910   0.124  13.348 -0.9219 -0.5337  1.0272
 3368SOL     OW21736   2.163   0.782   8.372  0.2834 -0.2219 -0.2276
 3368SOL    HW121737   2.130   0.851   8.315  0.8755  0.1287 -0.1512
 3368SOL    HW221738   2.212   0.838   8.432  1.3787 -0.4880 -0.8618
 3369SOL     OW21739   1.838   4.439   4.319  0.6010  0.3246 -0.0383
 3369SOL    HW121740   1.806   4.501   4.253 -1.2908  0.4888  1.0394
 3369SOL    HW221741   1.751   4.406   4.343  1.3544 -0.2740  1.8745
 3370SOL     OW21742   2.912   1.915   2.554  0.2087  0.2287 -0.2037
 3370SOL    HW121743   3.003   1.896   2.576  0.7475  2.4866 -0.5001
 3370SOL    HW221744   2.884   1.944   2.641 -3.3161 -2.1834 -0.5351
 3371SOL     OW21745   0.589   1.022   8.526 -0.1025  0.2073 -0.5245
 3371SOL    HW121746   0.680   0.991   8.525 -0.1523  0.0609 -0.5225
 3371SOL    HW221747   0.558   1.010   8.615  0.8331 -1.6361 -0.4595
 3372SOL     OW21748   3.048   0.559  11.127 -0.0052  0.1849  0.1080
 3372SOL    HW121749   3.041   0.580  11.034  1.0533 -1.1953 -0.2839
 3372SOL    HW221750   3.096   0.479  11.103  0.6500  0.4946  0.3783
 3373SOL     OW21751   1.528   3.654   2.268 -0.2694 -0.5399  0.3008
 3373SOL    HW121752   1.561   3.600   2.340  3.1815  0.7736 -0.3043
 3373SOL    HW221753   1.593   3.639   2.200 -0.6889  0.4750 -0.3231
 3374SOL     OW21754   2.691   0.536   2.177 -0.2257 -0.2745 -0.1073
 3374SOL    HW121755   2.724   0.624   2.195 -0.9961  0.2468 -1.2312
 3374SOL    HW221756   2.605   0.557   2.138 -0.3081 -1.2986 -0.4828
 3375SOL     OW21757   0.694   3.456   6.796  0.6316  0.2319 -0.4109
 3375SOL    HW121758   0.611   3.497   6.820  1.7047  3.1479 -1.7203
 3375SOL    HW221759   0.690   3.470   6.701  1.2599 -3.2274 -0.9761
 3376SOL     OW21760   3.756   1.071   5.157  0.2546 -0.1007 -0.0225
 3376SOL    HW121761   3.794   1.110   5.236 -0.5361  1.4725 -0.4206
 3376SOL    HW221762   3.663   1.088   5.170 -0.2298 -0.4530 -2.9053
 3377SOL     OW21763   4.681   4.630  13.451 -0.9011  0.6686 -0.1697
 3377SOL    HW121764   0.014   4.676  13.404 -0.0970 -1.5379 -1.1178
 3377SOL    HW221765   4.653   4.557  13.396 -0.9235  0.3091  0.3173
 3378SOL     OW21766   3.497   0.801   6.210  0.3240 -0.4065  0.3521
 3378SOL    HW121767   3.588   0.782   6.234  0.7791  1.8406  0.4453
 3378SOL    HW221768   3.476   0.879   6.262  0.4732 -1.2073  1.6136
 3379SOL     OW21769   1.079   1.892  16.720  0.0735  0.4438 -0.1585
 3379SOL    HW121770   1.150   1.827  16.719 -0.8166 -0.5217 -1.0321
 3379SOL    HW221771   1.126   1.972  16.698 -0.6361  0.5642 -1.2344
 3380SOL     OW21772   2.818   3.043   7.690 -0.7284  1.2440 -0.1091
 3380SOL    HW121773   2.734   2.996   7.688  0.4555 -0.9113  0.9655
 3380SOL    HW221774   2.789   3.129   7.719 -3.6997  0.0138  0.6651
 3381SOL     OW21775   2.462   0.702   3.946 -0.2709  0.2144 -0.4284
 3381SOL    HW121776   2.540   0.670   3.901 -0.1589 -0.2811  0.1151
 3381SOL    HW221777   2.494   0.788   3.976  0.9802 -0.1893 -0.5971
 3382SOL     OW21778   4.397   0.644   7.602  0.4762 -0.2438  0.6615
 3382SOL    HW121779   4.416   0.736   7.618 -3.4138  0.8112 -0.9551
 3382SOL    HW221780   4.314   0.656   7.557 -0.5175 -2.4325  1.8994
 3383SOL     OW21781   1.984   4.631   7.066  0.3538 -0.1362  0.2186
 3383SOL    HW121782   1.898   4.606   7.034 -0.3703  2.1619  0.3727
 3383SOL    HW221783   2.011   4.545   7.098 -0.4543 -0.3658  0.2790
 3384SOL     OW21784   3.789   3.615   9.623 -0.3134  0.1586 -0.0262
 3384SOL    HW121785   3.798   3.708   9.644 -2.1367  0.4112 -0.3491
 3384SOL    HW221786   3.791   3.615   9.528  4.0738  1.3089  0.0716
 3385SOL     OW21787   2.938   0.477   3.272  0.4319 -0.0797 -0.5757
 3385SOL    HW121788   2.962   0.556   3.321 -0.9259 -1.1510  1.7550
 3385SOL    HW221789   2.851   0.497   3.238  0.5271 -1.4073 -1.5859
 3386SOL     OW21790   0.043   3.302   5.979  0.0332 -0.0122 -0.1429
 3386SOL    HW121791   0.001   3.226   6.019  0.3429 -0.3453 -0.4554
 3386SOL    HW221792   4.711   3.367   5.993 -0.4453 -0.3886 -0.7900
 3387SOL     OW21793   1.557   4.306   9.663  0.1233 -0.0820  0.2873
 3387SOL    HW121794   1.600   4.225   9.637  2.2521  0.0780  3.2715
 3387SOL    HW221795   1.519   4.272   9.744 -1.1296 -2.2889 -1.2183
 3388SOL     OW21796   1.051   1.827  10.780 -0.3948  0.2507 -0.1550
 3388SOL    HW121797   1.119   1.760  10.789 -2.7804 -2.3910 -1.6953
 3388SOL    HW221798   0.995   1.786  10.846 -0.8476  2.0301  0.5486
 3389SOL     OW21799   0.393   1.699   8.366  0.4677 -0.1029  0.0365
 3389SOL    HW121800   0.332   1.686   8.439 -0.3143  0.9952 -0.4208
 3389SOL    HW221801   0.469   1.653   8.401 -1.8607 -1.7361  2.8846
 3390SOL     OW21802   2.003   4.378  15.291  0.2432 -0.2811  0.1445
 3390SOL    HW121803   2.069   4.335  15.237 -1.0704 -1.9207 -0.1806
 3390SOL    HW221804   1.958   4.297  15.316 -0.0380 -0.5224 -1.1238
 3391SOL     OW21805   0.943   0.618   8.987  0.7980 -0.0803 -0.1008
 3391SOL    HW121806   1.025   0.598   9.032  1.1941  1.0651 -0.3131
 3391SOL    HW221807   0.895   0.537   9.003 -1.5492  1.2239 -0.5822
 3392SOL     OW21808   3.942   0.621  14.962 -0.5649  0.2594  0.1053
 3392SOL    HW121809   3.958   0.605  15.055  0.7329  0.9116 -0.0081
 3392SOL    HW221810   3.847   0.611  14.967 -0.5966  0.6556  0.2608
 3393SOL     OW21811   1.485   1.300  16.729  0.7047 -0.2406 -0.0798
 3393SOL    HW121812   1.540   1.375  16.704 -0.2239  0.2362 -0.7037
 3393SOL    HW221813   1.508   1.244  16.655  1.8271 -0.5958  0.5345
 3394SOL     OW21814   1.523   2.822  13.216 -0.7230 -0.3909  0.6775
 3394SOL    HW121815   1.451   2.781  13.167 -1.6758  1.2853  0.6662
 3394SOL    HW221816   1.505   2.913  13.191  2.0959  0.6821  2.5705
 3395SOL     OW21817   4.236   0.547   4.569 -0.4113  0.0414 -0.0269
 3395SOL    HW121818   4.279   0.632   4.578 -2.3125  0.8054  1.8609
 3395SOL    HW221819   4.187   0.570   4.491  0.5064  2.5719  0.1468
 3396SOL     OW21820   0.779   4.552   3.411 -0.3294 -0.4172  0.0897
 3396SOL    HW121821   0.863   4.518   3.377 -0.7065  0.6117 -1.8990
 3396SOL    HW221822   0.809   4.639   3.435 -2.6992  0.3498  0.2137
 3397SOL     OW21823   1.179   1.425   5.776  0.0452 -0.0480 -0.2709
 3397SOL    HW121824   1.229   1.364   5.828 -0.1739  0.6506  0.7653
 3397SOL    HW221825   1.103   1.367   5.768 -1.0477  1.3810 -0.4061
 3398SOL     OW21826   1.710   0.820   2.286  0.3621  0.1787 -0.6479
 3398SOL    HW121827   1.753   0.899   2.254  1.9347 -1.4596 -2.5449
 3398SOL    HW221828   1.740   0.761   2.217 -2.0982 -0.8489 -0.8542
 3399SOL     OW21829   2.335   2.795   6.152 -0.3167 -0.0757 -0.1800
 3399SOL    HW121830   2.338   2.722   6.214  3.2235 -1.4414 -1.9642
 3399SOL    HW221831   2.293   2.766   6.072 -0.4673  0.7230 -0.3954
 3400SOL     OW21832   1.615   3.946   7.004 -0.1043  0.1343 -0.2002
 3400SOL    HW121833   1.696   3.926   6.957 -0.0792  1.4488 -0.7342
 3400SOL    HW221834   1.611   3.868   7.059  1.4174  1.6847  2.0752
 3401SOL     OW21835   1.102   3.691   3.295 -0.2738 -0.0698 -0.0870
 3401SOL    HW121836   1.076   3.781   3.311  1.2964  0.6949 -1.7637
 3401SOL    HW221837   1.193   3.704   3.321 -1.6255  1.5130  3.8435
 3402SOL     OW21838   3.522   0.249   7.144 -0.2551 -0.2645 -0.4435
 3402SOL    HW121839   3.491   0.304   7.073 -1.9342  1.8999  1.9485
 3402SOL    HW221840   3.460   0.273   7.213 -1.4108  0.6542 -1.8237
 3403SOL     OW21841   0.121   0.295   5.488 -0.6278 -0.1988 -0.0666
 3403SOL    HW121842   0.137   0.374   5.437  0.3265  0.1744  0.8275
 3403SOL    HW221843   0.045   0.250   5.451 -1.0827  0.0619  0.5430
 3404SOL     OW21844   3.122   2.797   6.835 -0.3604 -0.2200  0.2253
 3404SOL    HW121845   3.176   2.830   6.763 -0.9858  0.2310 -0.0405
 3404SOL    HW221846   3.175   2.824   6.910 -1.6754  0.3062  0.9566
 3405SOL     OW21847   1.156   0.315   8.128  0.1525  0.1355  1.2263
 3405SOL    HW121848   1.086   0.369   8.091  0.1252 -0.9153 -0.2836
 3405SOL    HW221849   1.232   0.343   8.077 -1.6241  3.3948  0.3929
 3406SOL     OW21850   2.182   4.490   8.931  0.6092 -0.6186 -0.3849
 3406SOL    HW121851   2.173   4.426   9.002 -0.9710 -0.6288 -0.5909
 3406SOL    HW221852   2.099   4.487   8.883  0.4969 -2.3930 -0.0735
 3407SOL     OW21853   4.010   2.400   1.558  0.4967  0.6577 -0.2021
 3407SOL    HW121854   4.089   2.352   1.586 -0.4043 -1.9468 -2.0718
 3407SOL    HW221855   3.946   2.335   1.588 -0.0007  2.0357  1.7476
 3408SOL     OW21856   0.884   3.277   4.250  0.4337  0.0803  0.0811
 3408SOL    HW121857   0.846   3.320   4.174 -1.6664  0.3676  1.2945
 3408SOL    HW221858   0.922   3.198   4.210 -1.8132 -0.7241 -0.4767
 3409SOL     OW21859   3.562   0.028   6.375  0.1789  0.0173 -0.4354
 3409SOL    HW121860   3.480   0.073   6.396  0.6331  0.1926  0.9206
 3409SOL    HW221861   3.559   0.038   6.279  0.1505  0.2444 -0.4120
 3410SOL     OW21862   1.086   2.631   4.909  0.4356 -0.3781  0.1951
 3410SOL    HW121863   1.077   2.684   4.830  0.9433  0.0996  0.4615
 3410SOL    HW221864   1.166   2.663   4.950 -1.4673 -0.3503  3.9509
 3411SOL     OW21865   3.266   0.205  12.724 -0.0243 -0.1289 -0.2007
 3411SOL    HW121866   3.241   0.167  12.809  0.0915  0.0721 -0.0788
 3411SOL    HW221867   3.181   0.246  12.710 -0.9006 -2.1124 -0.7721
 3412SOL     OW21868   4.009   2.775  12.883  0.0806 -0.4622 -0.6446
 3412SOL    HW121869   3.999   2.715  12.809 -3.4029 -0.4059 -0.2520
 3412SOL    HW221870   3.924   2.767  12.928  0.6920 -0.1091  0.5745
 3413SOL     OW21871   3.240   3.757   4.403 -0.6204 -0.4104 -0.2945
 3413SOL    HW121872   3.321   3.773   4.452 -1.9369  2.6060  0.9096
 3413SOL    HW221873   3.179   3.808   4.456  0.5735 -0.4593  1.1408
 3414SOL     OW21874   2.225   1.328  15.689  0.0918  0.3274  0.3402
 3414SOL    HW121875   2.240   1.400  15.629  0.6206 -1.8292 -2.1269
 3414SOL    HW221876   2.264   1.251  15.646  1.7287  2.1276 -1.3835
 3415SOL     OW21877   0.809   2.964   6.654  0.1552 -0.6692  0.0001
 3415SOL    HW121878   0.722   3.003   6.664  1.0798  0.8594  1.8555
 3415SOL    HW221879   0.776   2.880   6.620 -0.8351 -0.3883  0.2614
 3416SOL     OW21880   1.225   4.221  11.870  0.5737 -0.6555 -0.5785
 3416SOL    HW121881   1.171   4.300  11.862  1.0095 -0.3683 -0.6611
 3416SOL    HW221882   1.188   4.193  11.954  1.8276 -0.9189 -0.1122
 3417SOL     OW21883   1.366   0.784  16.863 -0.2774 -0.5370 -0.2169
 3417SOL    HW121884   1.359   0.742  16.950 -0.0467 -2.0353 -0.9143
 3417SOL    HW221885   1.382   0.708  16.806  0.2498  1.0165 -2.1059
 3418SOL     OW21886   0.183   0.463   4.354  0.2718 -0.8042  0.1828
 3418SOL    HW121887   0.104   0.418   4.324  1.3294 -1.4940 -1.5515
 3418SOL    HW221888   0.248   0.392   4.353  1.0486 -0.0858  0.1074
 3419SOL     OW21889   0.197   1.154   4.946 -0.2246  0.3165  0.1392
 3419SOL    HW121890   0.284   1.121   4.922  0.4669  1.6755  0.7822
 3419SOL    HW221891   0.159   1.189   4.865 -2.0323 -1.4850  0.2065
 3420SOL     OW21892   0.602   0.253   7.729  0.0110 -0.0819  0.2882
 3420SOL    HW121893   0.552   0.332   7.710 -1.8548 -1.0551  1.2545
 3420SOL    HW221894   0.624   0.254   7.822 -2.3309 -2.9637  0.8841
 3421SOL     OW21895   1.452   1.960  16.231  0.0300 -0.3347 -0.2153
 3421SOL    HW121896   1.372   2.005  16.202 -0.9980 -2.0044  0.0309
 3421SOL    HW221897   1.463   1.999  16.318  2.5077 -1.1109 -0.1885
 3422SOL     OW21898   2.492   4.550   3.214  0.3057 -0.1215  0.2921
 3422SOL    HW121899   2.538   4.590   3.288  1.1009 -1.5450  0.5605
 3422SOL    HW221900   2.555   4.480   3.199 -0.3050 -0.9185  1.4143
 3423SOL     OW21901   1.908   3.925   5.037 -0.1819 -0.4436 -0.0187
 3423SOL    HW121902   1.836   3.873   5.000 -2.5181  1.1434  2.3261
 3423SOL    HW221903   1.912   3.881   5.122  1.5889  1.2464  0.7747
 3424SOL     OW21904   4.567   3.616   8.857  0.6782  0.3185  0.0767
 3424SOL    HW121905   4.576   3.698   8.808 -0.3655  0.0427 -0.5873
 3424SOL    HW221906   4.474   3.609   8.877  0.4042 -0.7211 -1.6116
 3425SOL     OW21907   2.558   2.624  11.273 -0.0827  0.0787 -0.0148
 3425SOL    HW121908   2.581   2.715  11.255 -1.2244  0.3001 -0.3141
 3425SOL    HW221909   2.562   2.576  11.190  0.1267  1.5188 -0.8366
 3426SOL     OW21910   3.024   1.721  11.786 -0.5465  0.1752 -0.6417
 3426SOL    HW121911   3.041   1.655  11.853 -0.5286 -1.5277 -2.3055
 3426SOL    HW221912   2.976   1.788  11.834  0.2521 -0.9038  1.6315
 3427SOL     OW21913   3.040   2.314  11.377  0.3269  0.0813 -0.1119
 3427SOL    HW121914   3.093   2.256  11.322  1.0655 -0.0817  0.7858
 3427SOL    HW221915   3.019   2.257  11.450  0.4158 -1.4112 -1.2526
 3428SOL     OW21916   2.658   0.964   0.762  0.1197  0.0968  1.1730
 3428SOL    HW121917   2.578   1.000   0.724  1.6084  3.0403  0.8347
 3428SOL    HW221918   2.660   1.026   0.835 -0.3727  1.1392  0.3000
 3429SOL     OW21919   3.029   2.551  11.515  0.2270  0.0425  0.4641
 3429SOL    HW121920   3.054   2.526  11.604  3.7380  0.3270 -0.4237
 3429SOL    HW221921   3.026   2.465  11.473 -2.2928 -0.1827  1.1151
 3430SOL     OW21922   4.242   0.370  11.708  0.0837 -0.1968  0.3514
 3430SOL    HW121923   4.166   0.316  11.687 -1.6962  1.7862  1.6420
 3430SOL    HW221924   4.305   0.318  11.759 -1.2545 -1.2814  0.8890
 3431SOL     OW21925   3.625   0.658   1.920  0.6937  0.5233  0.1835
 3431SOL    HW121926   3.590   0.575   1.888 -3.1591  1.8623  1.0035
 3431SOL    HW221927   3.715   0.651   1.889  0.3985  1.3478 -0.8764
 3432SOL     OW21928   0.024   0.311  15.903 -0.5223 -0.3687  0.1332
 3432SOL    HW121929   4.688   0.250  15.892 -2.0729  1.8381 -1.5440
 3432SOL    HW221930   0.084   0.265  15.845 -0.9544  0.2310 -0.7829
 3433SOL     OW21931   4.129   3.913   7.112  0.0684 -0.5516 -0.5712
 3433SOL    HW121932   4.076   3.967   7.053  0.0717  0.1713  0.0835
 3433SOL    HW221933   4.218   3.935   7.083  0.4870  0.2586  1.3544
 3434SOL     OW21934   1.785   2.243  17.581  0.1210  0.5667 -0.1556
 3434SOL    HW121935   1.791   2.161  17.630 -0.8329 -0.5859 -1.9755
 3434SOL    HW221936   1.756   2.295  17.657 -1.8718 -2.2654  0.9921
 3435SOL     OW21937   1.501   1.360   7.916  0.8947 -0.3160 -0.0676
 3435SOL    HW121938   1.479   1.305   7.991  0.9143 -0.2729 -0.0296
 3435SOL    HW221939   1.570   1.310   7.872  2.0852  0.5973  0.7536
 3436SOL     OW21940   3.299   0.197   7.924  0.0976 -0.4143 -0.3219
 3436SOL    HW121941   3.374   0.230   7.874  0.2221 -2.2661 -1.3707
 3436SOL    HW221942   3.263   0.141   7.856  0.4383  0.9261 -1.6092
 3437SOL     OW21943   3.704   2.789  16.978  0.3387  0.2279 -0.0576
 3437SOL    HW121944   3.648   2.866  16.989 -1.1394 -0.7799 -0.5690
 3437SOL    HW221945   3.757   2.787  17.058  0.1436 -2.5043  0.0223
 3438SOL     OW21946   0.462   1.760   9.419 -0.4726 -0.0636  0.1302
 3438SOL    HW121947   0.544   1.809   9.431  0.4785 -1.3996 -0.9296
 3438SOL    HW221948   0.412   1.795   9.493 -2.4693 -2.5074 -0.0866
 3439SOL     OW21949   2.231   0.740   5.615  0.2001 -0.1193 -0.6049
 3439SOL    HW121950   2.253   0.665   5.670 -1.7218 -1.0916 -1.1582
 3439SOL    HW221951   2.284   0.801   5.666  1.5275 -1.1156 -0.7717
 3440SOL     OW21952   3.226   4.647   0.866 -0.6651  0.5079  0.4794
 3440SOL    HW121953   3.186   4.605   0.790  1.0251 -0.0580 -0.0815
 3440SOL    HW221954   3.148   4.687   0.906 -0.6841  1.7908 -0.8240
 3441SOL     OW21955   2.406   1.731   4.352  0.0331  0.1059 -0.1331
 3441SOL    HW121956   2.317   1.745   4.385  0.4648  0.2241  0.9761
 3441SOL    HW221957   2.403   1.640   4.322  2.9877  0.8715 -2.8531
 3442SOL     OW21958   4.584   3.276   7.573 -0.1482 -0.6405 -0.2317
 3442SOL    HW121959   4.512   3.279   7.637 -0.3285 -1.0317 -0.4201
 3442SOL    HW221960   4.650   3.331   7.616 -1.9907  1.2353  0.2115
 3443SOL     OW21961   4.645   3.280  11.560  0.2387 -0.1991 -0.3268
 3443SOL    HW121962   4.550   3.292  11.563  0.5092  2.0384 -0.7399
 3443SOL    HW221963   4.671   3.301  11.650  0.8483 -0.2774 -0.4815
 3444SOL     OW21964   0.866   0.804   4.245  0.0616 -0.1813 -0.0378
 3444SOL    HW121965   0.864   0.727   4.188 -0.5391 -1.5025  1.7575
 3444SOL    HW221966   0.960   0.821   4.248 -0.0466  0.0175  2.0431
 3445SOL     OW21967   3.692   3.620   6.645  0.0460  0.0278 -0.4535
 3445SOL    HW121968   3.697   3.582   6.733  0.8055  1.7696  0.2642
 3445SOL    HW221969   3.782   3.642   6.622  0.3109 -1.6297 -1.0400
 3446SOL     OW21970   2.708   3.322   4.241  0.3118  0.2966 -0.7207
 3446SOL    HW121971   2.653   3.245   4.252  1.4522 -0.4296 -0.0907
 3446SOL    HW221972   2.749   3.321   4.328 -1.0861 -1.4544 -0.0841
 3447SOL     OW21973   3.137   4.159   5.550  0.4316  0.1173 -0.5281
 3447SOL    HW121974   3.116   4.144   5.642 -0.5578  2.4179 -0.3970
 3447SOL    HW221975   3.101   4.081   5.507  0.8020 -1.1983  1.5411
 3448SOL     OW21976   2.093   1.066  13.172  0.0314 -0.4420 -0.1543
 3448SOL    HW121977   2.098   1.010  13.095 -1.6052  1.0818 -1.3828
 3448SOL    HW221978   2.000   1.059  13.194 -0.2761  1.1504 -0.9055
 3449SOL     OW21979   3.457   1.002   1.472 -0.8932  0.5052 -0.5830
 3449SOL    HW121980   3.438   0.909   1.472  0.0245  0.3142 -0.3554
 3449SOL    HW221981   3.384   1.063   1.459 -3.2554 -3.1470 -4.6487
 3450SOL     OW21982   0.709   1.385   9.399 -0.0952  0.2234 -0.9093
 3450SOL    HW121983   0.615   1.376   9.383 -0.2568 -1.1119  0.8613
 3450SOL    HW221984   0.739   1.398   9.308  0.8955  1.1015 -0.4636
 3451SOL     OW21985   1.631   4.289   2.924  0.0288 -0.0208  0.2224
 3451SOL    HW121986   1.664   4.343   2.852 -2.1462  0.6522 -0.2635
 3451SOL    HW221987   1.610   4.361   2.984  2.1595  0.9397 -0.1488
 3452SOL     OW21988   4.234   3.307   8.493 -0.2337 -0.1674 -0.9571
 3452SOL    HW121989   4.241   3.319   8.587  2.7352 -1.7832 -0.9511
 3452SOL    HW221990   4.289   3.232   8.466 -1.4724 -1.6497  0.6506
 3453SOL     OW21991   2.829   0.142  17.744 -0.2367  0.1327 -0.6960
 3453SOL    HW121992   2.831   0.138   0.092  0.0169 -0.3223 -0.7193
 3453SOL    HW221993   2.774   0.215  17.718  2.9697  2.5796 -0.6242
 3454SOL     OW21994   2.970   3.171  13.701  0.3265 -0.6777 -0.8224
 3454SOL    HW121995   3.037   3.237  13.684 -1.6676  1.3389 -0.8118
 3454SOL    HW221996   2.946   3.193  13.791 -0.4794  1.2909 -1.5050
 3455SOL     OW21997   4.050   1.244  13.108  0.3294 -0.4042  0.6307
 3455SOL    HW121998   4.127   1.227  13.163 -0.7880 -2.2038  1.6433
 3455SOL    HW221999   4.053   1.339  13.114  0.7979 -0.4425  1.0625
 3456SOL     OW22000   4.594   1.586   6.832  0.5689 -0.1875  0.1501
 3456SOL    HW122001   4.606   1.603   6.925 -0.5092 -0.6028  0.3554
 3456SOL    HW222002   4.524   1.648   6.815 -0.2202 -1.2763 -0.6238
 3457SOL     OW22003   2.223   1.519   3.455 -0.1307 -0.6409  0.2159
 3457SOL    HW122004   2.164   1.514   3.379 -0.8236  0.6800  0.6508
 3457SOL    HW222005   2.171   1.539   3.533 -0.9300 -0.9487 -0.2325
 3458SOL     OW22006   1.435   3.221   6.762 -0.0264 -0.0522 -0.0886
 3458SOL    HW122007   1.404   3.288   6.822  0.2361  0.9076 -1.0311
 3458SOL    HW222008   1.361   3.160   6.760  1.0265 -1.4213  1.9399
 3459SOL     OW22009   0.092   1.438   4.091  0.4241  0.9589 -0.4815
 3459SOL    HW122010   0.120   1.355   4.053 -0.2889  0.5323 -0.0893
 3459SOL    HW222011   4.737   1.414   4.086  0.8847 -0.6054 -1.5157
 3460SOL     OW22012   3.952   3.171   5.479  0.1570 -0.3380 -0.2009
 3460SOL    HW122013   3.861   3.190   5.457  0.2248  0.4290  0.1992
 3460SOL    HW222014   4.001   3.200   5.402  2.4790 -3.0262  0.2320
 3461SOL     OW22015   0.877   3.236  12.276 -0.6433 -0.2389  0.4875
 3461SOL    HW122016   0.852   3.161  12.330  1.3246 -1.4016 -0.2501
 3461SOL    HW222017   0.885   3.299  12.348 -0.4837  0.7467 -0.3986
 3462SOL     OW22018   1.874   2.087   1.460 -0.5507  0.9489 -0.4764
 3462SOL    HW122019   1.782   2.110   1.470 -1.1035 -1.9770  1.1175
 3462SOL    HW222020   1.911   2.080   1.548  0.9282 -1.9514 -1.3177
 3463SOL     OW22021   2.940   3.365   8.015  0.0371  0.1771  0.4524
 3463SOL    HW122022   3.020   3.324   8.046 -0.1757 -2.0270 -1.9318
 3463SOL    HW222023   2.909   3.387   8.103 -2.1120 -0.3484 -0.1620
 3464SOL     OW22024   0.518   4.686   7.030 -0.5059  0.4851 -0.2767
 3464SOL    HW122025   0.600   4.678   6.981  0.0746 -0.0339  0.7811
 3464SOL    HW222026   0.487   0.036   7.007 -0.8915  0.0478 -1.3864
 3465SOL     OW22027   1.712   0.918   7.393  0.0984 -0.8871 -0.7624
 3465SOL    HW122028   1.757   0.862   7.329  0.8383 -1.2926  0.1199
 3465SOL    HW222029   1.671   0.863   7.459 -2.2426  0.3941 -1.1495
 3466SOL     OW22030   0.046   3.343   2.814  0.0890  0.3761 -0.8617
 3466SOL    HW122031   0.070   3.377   2.900 -0.2660  2.0929 -1.4366
 3466SOL    HW222032   0.131   3.318   2.778  0.6533  0.5654  0.3301
 3467SOL     OW22033   3.425   3.923   1.360  0.0734 -0.0811  0.2076
 3467SOL    HW122034   3.444   3.954   1.271  0.5753  0.1556  0.3993
 3467SOL    HW222035   3.406   3.831   1.342 -3.4174  0.3200  1.6647
 3468SOL     OW22036   2.783   3.283   7.783  0.0912  0.2744  0.3848
 3468SOL    HW122037   2.822   3.337   7.852  0.2431  0.4522  0.1627
 3468SOL    HW222038   2.767   3.352   7.718 -1.5191 -0.3943  0.0750
 3469SOL     OW22039   2.555   0.139   9.704  0.3994  0.0490  0.2108
 3469SOL    HW122040   2.572   0.232   9.688  0.0365  0.0006 -0.4662
 3469SOL    HW222041   2.551   0.112   9.612 -1.0700 -2.1166  0.8992
 3470SOL     OW22042   2.002   0.950   8.243  0.6095  0.1013 -0.1510
 3470SOL    HW122043   1.975   1.031   8.198 -0.4702 -0.6459 -0.8494
 3470SOL    HW222044   1.963   0.880   8.191 -0.9084 -0.9534  2.3967
 3471SOL     OW22045   0.433   4.569   7.895  0.8058  0.2540 -0.1151
 3471SOL    HW122046   0.459   4.621   7.972 -1.4416 -1.3963  1.7648
 3471SOL    HW222047   0.410   4.630   7.824  0.3514  0.8534  0.5411
 3472SOL     OW22048   4.541   3.396  10.561 -0.0143  0.2388  0.2307
 3472SOL    HW122049   4.482   3.445  10.619  0.4437 -0.7838  1.5461
 3472SOL    HW222050   4.621   3.436  10.596  0.3207  0.0098 -0.2719
 3473SOL     OW22051   1.173   0.817   7.522  0.1426  0.1272 -0.1521
 3473SOL    HW122052   1.187   0.911   7.528  1.3584 -0.1720  1.8079
 3473SOL    HW222053   1.245   0.795   7.464 -0.0939  0.7281 -0.6716
 3474SOL     OW22054   4.103   2.735   2.512  0.0983 -0.2570  0.4326
 3474SOL    HW122055   4.046   2.812   2.501  0.7186  0.3175  1.2606
 3474SOL    HW222056   4.178   2.786   2.543 -1.2818  1.7248  0.5058
 3475SOL     OW22057   4.608   2.347   1.749 -0.2828  0.1500 -0.5128
 3475SOL    HW122058   4.696   2.375   1.775 -0.9151  1.2302  0.4441
 3475SOL    HW222059   4.553   2.424   1.759  1.4949  1.2166  1.1402
 3476SOL     OW22060   3.210   1.380  10.441 -0.2117  0.0852 -0.1603
 3476SOL    HW122061   3.187   1.362  10.350  0.4921 -0.7426 -0.1780
 3476SOL    HW222062   3.142   1.446  10.452  1.4659  1.5443  1.4564
 3477SOL     OW22063   2.993   2.692   5.364 -0.3297  0.0263 -0.1414
 3477SOL    HW122064   3.044   2.627   5.317  2.3014  1.2735  1.0212
 3477SOL    HW222065   2.920   2.636   5.390  1.5016 -1.8460  0.9277
 3478SOL     OW22066   2.820   1.456   2.063 -0.3548 -0.5659 -0.3850
 3478SOL    HW122067   2.814   1.363   2.040  0.8103 -0.9033  0.6816
 3478SOL    HW222068   2.864   1.493   1.987 -0.1779 -1.6045 -0.7921
 3479SOL     OW22069   3.278   0.299   3.602  0.7749 -0.4303 -0.3178
 3479SOL    HW122070   3.310   0.382   3.568 -0.8698 -0.4519 -1.9317
 3479SOL    HW222071   3.194   0.290   3.556 -0.1876 -1.3231  1.6085
 3480SOL     OW22072   3.991   2.260  11.631  0.6402 -0.5361  0.1435
 3480SOL    HW122073   3.946   2.293  11.709 -0.0147  1.0595 -0.9075
 3480SOL    HW222074   4.068   2.318  11.633  1.1763 -1.2927  1.4893
 3481SOL     OW22075   4.145   4.397  11.678 -0.3152 -0.4697 -0.6005
 3481SOL    HW122076   4.201   4.359  11.610 -0.0908 -3.2949  1.1788
 3481SOL    HW222077   4.206   4.427  11.745 -0.0547 -2.2095 -0.0622
 3482SOL     OW22078   0.209   2.073  10.369  0.8471 -0.4835  0.3097
 3482SOL    HW122079   0.263   2.110  10.299 -0.2820  1.8958  0.7226
 3482SOL    HW222080   0.271   2.021  10.421 -0.0409  0.5979  2.4677
 3483SOL     OW22081   2.992   2.150  11.570 -0.4563 -0.3535  0.6083
 3483SOL    HW122082   3.009   2.169  11.662  0.3098  0.7871  0.2245
 3483SOL    HW222083   3.002   2.055  11.561 -1.0056 -0.4777  1.3087
 3484SOL     OW22084   0.839   4.422   7.031 -0.7326  0.0557  0.3508
 3484SOL    HW122085   0.865   4.470   6.952 -2.5606 -2.2369 -1.6304
 3484SOL    HW222086   0.905   4.450   7.094  0.1245  0.1420 -0.5880
 3485SOL     OW22087   0.895   0.395   4.370  0.1232 -0.6232 -0.0693
 3485SOL    HW122088   0.830   0.450   4.415 -0.4132 -3.3366  2.5281
 3485SOL    HW222089   0.975   0.422   4.414  0.1447  1.2315 -1.2698
 3486SOL     OW22090   1.802   1.574   3.484 -0.2669 -0.2768 -0.0299
 3486SOL    HW122091   1.828   1.492   3.443 -0.9773  0.5501 -2.1351
 3486SOL    HW222092   1.829   1.627   3.409 -0.0725  2.0772  1.6800
 3487SOL     OW22093   1.246   3.798   2.653  0.3970 -0.5018  0.1797
 3487SOL    HW122094   1.152   3.780   2.653  0.3478 -0.2583 -0.5429
 3487SOL    HW222095   1.273   3.735   2.719  0.3424 -1.2415 -0.5036
 3488SOL     OW22096   2.254   4.048   3.367  0.1053 -0.2367  0.0495
 3488SOL    HW122097   2.204   4.014   3.441  2.0826 -0.5601  1.2528
 3488SOL    HW222098   2.182   4.058   3.306  0.7066 -2.2429 -0.9949
 3489SOL     OW22099   0.325   4.351   3.906 -0.1138 -0.3166  1.1942
 3489SOL    HW122100   0.262   4.421   3.924 -0.1042  0.1737 -0.6209
 3489SOL    HW222101   0.267   4.311   3.841  0.3817  0.5325  0.2203
 3490SOL     OW22102   1.974   3.141   4.311 -0.5873  0.3600  0.1259
 3490SOL    HW122103   2.058   3.151   4.265  0.5840  3.0251  2.9080
 3490SOL    HW222104   1.918   3.205   4.266 -1.2399 -0.1129  0.2647
 3491SOL     OW22105   3.212   2.099   6.557 -0.0979 -0.0552  0.5287
 3491SOL    HW122106   3.125   2.123   6.587 -0.1447 -0.3836  0.6604
 3491SOL    HW222107   3.241   2.047   6.633  0.0920 -1.4570 -0.4995
 3492SOL     OW22108   0.684   1.687   7.705  0.2657 -0.0773 -0.0829
 3492SOL    HW122109   0.759   1.671   7.647  1.3135 -0.3867  1.3489
 3492SOL    HW222110   0.718   1.738   7.779  1.5448 -0.8760 -0.1122
 3493SOL     OW22111   1.264   2.551   8.967 -0.1753 -0.2968 -0.6817
 3493SOL    HW122112   1.193   2.498   8.931 -0.2906  0.0412 -0.9481
 3493SOL    HW222113   1.289   2.610   8.896 -2.5295  1.1567 -0.3004
 3494SOL     OW22114   1.253   1.683   9.271 -0.0176 -0.1585 -0.4849
 3494SOL    HW122115   1.225   1.775   9.273 -1.3266 -0.5814  1.4266
 3494SOL    HW222116   1.314   1.676   9.344 -2.0491  0.1159  1.2558
 3495SOL     OW22117   4.000   4.283   3.571 -0.8290  0.3261 -0.0446
 3495SOL    HW122118   4.096   4.283   3.571 -0.8277 -0.1970 -0.2838
 3495SOL    HW222119   3.977   4.303   3.480 -1.5202  1.0014  0.2704
 3496SOL     OW22120   0.233   2.450   4.548 -0.0208 -0.4255  0.2769
 3496SOL    HW122121   0.239   2.536   4.505 -1.2206  0.3705  1.6935
 3496SOL    HW222122   0.258   2.476   4.636 -0.2209 -1.5559  0.6592
 3497SOL     OW22123   3.096   1.467  16.294  0.6207 -0.2424 -0.2867
 3497SOL    HW122124   3.046   1.385  16.294 -0.5967  0.4876 -1.9399
 3497SOL    HW222125   3.107   1.483  16.200 -2.2743  1.3072 -0.3592
 3498SOL     OW22126   2.900   4.036   9.586 -0.2017  0.1832 -0.1669
 3498SOL    HW122127   2.990   4.051   9.558  0.0095 -0.0832  0.3794
 3498SOL    HW222128   2.870   3.970   9.523 -2.2891  0.9476  0.0199
 3499SOL     OW22129   2.053   3.788  16.028  0.1289  0.0741 -0.4494
 3499SOL    HW122130   2.029   3.790  16.121  2.5356  1.3947  0.1407
 3499SOL    HW222131   2.099   3.871  16.025 -1.6097  1.0307 -0.4218
 3500SOL     OW22132   2.878   1.987  12.085 -0.0260  0.5084 -0.7012
 3500SOL    HW122133   2.883   2.025  12.173 -0.3602 -2.4286  0.5721
 3500SOL    HW222134   2.797   2.020  12.047 -0.2534 -0.2180 -0.8346
 3501SOL     OW22135   4.459   1.240  16.056 -0.1101 -0.4535  0.2144
 3501SOL    HW122136   4.494   1.235  16.145 -2.1538  3.2643  1.2100
 3501SOL    HW222137   4.521   1.178  16.017 -1.1904 -1.5066  0.1896
 3502SOL     OW22138   1.444   4.466   5.887  0.6635 -0.3423  0.0606
 3502SOL    HW122139   1.486   4.511   5.814 -0.6426 -0.6560 -0.8701
 3502SOL    HW222140   1.422   4.539   5.945  0.8298 -0.8600  0.7810
 3503SOL     OW22141   2.076   0.749  13.861 -0.2987 -0.0218  0.1847
 3503SOL    HW122142   2.019   0.810  13.815  1.4475  0.7320 -0.9493
 3503SOL    HW222143   2.133   0.718  13.791  1.9029  1.1855  1.4587
 3504SOL     OW22144   2.694   0.280   3.173  0.1957 -0.4905  0.0179
 3504SOL    HW122145   2.679   0.302   3.081 -0.1042  2.7746  0.8232
 3504SOL    HW222146   2.609   0.239   3.191  0.4021 -0.9746 -0.1141
 3505SOL     OW22147   0.285   0.210   4.373 -0.0966 -0.0386  0.0892
 3505SOL    HW122148   0.327   0.176   4.294 -2.2907  1.2843 -1.6236
 3505SOL    HW222149   0.348   0.192   4.444 -0.5657  0.4444  0.6273
 3506SOL     OW22150   1.031   1.303  14.949 -0.4476  0.4385 -0.4319
 3506SOL    HW122151   1.004   1.234  14.889 -0.0197  0.5348 -0.7368
 3506SOL    HW222152   0.999   1.379  14.901  1.2234  0.4360 -1.5648
 3507SOL     OW22153   4.565   2.318  12.261 -0.3257  0.7349 -0.1490
 3507SOL    HW122154   4.487   2.351  12.216 -0.6698 -0.1683 -0.2197
 3507SOL    HW222155   4.607   2.277  12.186 -1.8490 -0.3268 -0.4174
 3508SOL     OW22156   1.264   1.405   7.777 -0.7494  0.3263 -0.1186
 3508SOL    HW122157   1.200   1.401   7.848  0.3502 -0.5093  0.8395
 3508SOL    HW222158   1.340   1.385   7.832  1.9718  0.0697 -3.9377
 3509SOL     OW22159   3.451   2.271   3.920 -0.2006  0.1220 -0.2774
 3509SOL    HW122160   3.542   2.280   3.890  0.1410  1.6166  1.1904
 3509SOL    HW222161   3.449   2.342   3.985 -0.6902 -0.4031  0.2760
 3510SOL     OW22162   0.775   1.890   6.933  0.4901 -0.5841  0.1597
 3510SOL    HW122163   0.792   1.849   6.848 -0.1166  1.0231 -0.7407
 3510SOL    HW222164   0.724   1.822   6.977  0.0131 -2.0086 -2.5556
 3511SOL     OW22165   1.911   3.982   5.464  0.0242  0.0295  0.4099
 3511SOL    HW122166   1.877   4.061   5.422 -3.4471 -1.3820  0.5228
 3511SOL    HW222167   2.001   4.008   5.479 -0.3248  2.2195 -1.3422
 3512SOL     OW22168   3.940   4.060  13.270  0.1051 -0.6186 -0.1335
 3512SOL    HW122169   3.908   4.003  13.339  0.8485  0.7156  1.3155
 3512SOL    HW222170   3.977   3.991  13.215  2.6336  0.1769  0.5376
 3513SOL     OW22171   0.729   1.168   8.986 -0.2446 -0.1321  0.0738
 3513SOL    HW122172   0.784   1.228   9.036 -0.1673  0.5066 -0.7754
 3513SOL    HW222173   0.639   1.192   9.006 -0.3879 -0.3946 -0.2405
 3514SOL     OW22174   1.520   1.774   5.422 -0.3204  0.1951  0.4607
 3514SOL    HW122175   1.459   1.836   5.462 -2.0231 -0.4828 -1.0524
 3514SOL    HW222176   1.593   1.829   5.393  0.2991 -0.6110  0.5057
 3515SOL     OW22177   3.005   3.912   8.097 -0.2111 -0.4212 -0.0030
 3515SOL    HW122178   2.929   3.971   8.095 -0.5797 -0.9537 -1.4877
 3515SOL    HW222179   3.071   3.944   8.037  0.6912 -0.9158  0.7271
 3516SOL     OW22180   1.392   1.573   1.401 -0.4714  0.0506 -0.2727
 3516SOL    HW122181   1.414   1.628   1.476 -0.2060 -0.2213 -0.1477
 3516SOL    HW222182   1.463   1.508   1.399 -1.7930 -1.3294 -1.9542
 3517SOL     OW22183   3.020   0.507   6.512  0.3893  0.5740  0.1264
 3517SOL    HW122184   3.043   0.533   6.423  0.1644  1.5070  0.3420
 3517SOL    HW222185   2.930   0.537   6.522  0.2511  0.6652 -1.3248
 3518SOL     OW22186   0.948   2.603  16.009 -0.0669 -0.2192 -0.0026
 3518SOL    HW122187   0.919   2.694  16.007  2.4113  0.5791 -0.1120
 3518SOL    HW222188   0.871   2.553  15.984 -0.8395  0.5463  0.8335
 3519SOL     OW22189   3.807   0.785   1.564  0.4054 -0.1981 -0.1472
 3519SOL    HW122190   3.839   0.774   1.475 -0.4759  0.2019 -0.5134
 3519SOL    HW222191   3.737   0.720   1.569 -0.5910  0.8516 -0.4254
 3520SOL     OW22192   0.992   3.090   5.202  0.1936  0.2117 -0.0327
 3520SOL    HW122193   1.057   3.021   5.190  1.1251  0.5650  3.1783
 3520SOL    HW222194   0.975   3.117   5.111 -1.0901  0.6542  0.3429
 3521SOL     OW22195   3.675   4.709   9.646  0.2156 -0.2605 -0.5823
 3521SOL    HW122196   3.683   4.711   9.551 -2.1214 -1.8937 -0.8216
 3521SOL    HW222197   3.584   4.682   9.660  0.6104 -2.9582 -3.2763
 3522SOL     OW22198   2.135   3.764   8.410  0.3702 -0.1992 -0.1271
 3522SOL    HW122199   2.230   3.775   8.417  0.3309  0.9994 -1.4766
 3522SOL    HW222200   2.115   3.812   8.329 -0.1326  1.5802  1.0651
 3523SOL     OW22201   4.587   1.188  14.284 -0.7718 -0.2204  0.6203
 3523SOL    HW122202   4.599   1.096  14.263 -2.2313 -0.3558  0.3622
 3523SOL    HW222203   4.493   1.183  14.305 -0.5928 -1.3283  1.1113
 3524SOL     OW22204   4.735   3.665   6.324 -0.4959 -0.1748  0.3216
 3524SOL    HW122205   4.669   3.690   6.260 -1.2386 -2.7737  0.0763
 3524SOL    HW222206   4.676   3.613   6.378  1.5102 -3.4203 -0.6165
 3525SOL     OW22207   1.840   3.329   8.837 -0.2560  0.5389 -0.0388
 3525SOL    HW122208   1.827   3.389   8.911  0.9573  0.0370  0.5931
 3525SOL    HW222209   1.933   3.316   8.858 -0.5489 -1.0785  0.2276
 3526SOL     OW22210   4.631   0.842  15.916  0.0620  0.1733  0.3128
 3526SOL    HW122211   4.623   0.936  15.902 -3.6149  0.0472  1.7966
 3526SOL    HW222212   4.726   0.831  15.927  0.0015 -0.5504  0.1154
 3527SOL     OW22213   3.689   2.659  12.691  0.1295 -0.3724 -0.0278
 3527SOL    HW122214   3.745   2.615  12.628 -0.1864  0.5328 -0.9430
 3527SOL    HW222215   3.651   2.734  12.644 -2.5632 -1.0944  0.9673
 3528SOL     OW22216   0.959   3.318   8.214 -0.2776  0.4110 -0.4933
 3528SOL    HW122217   0.917   3.350   8.293  1.6798  3.3086 -0.6139
 3528SOL    HW222218   1.018   3.394   8.206 -0.5691  0.7428  0.6221
 3529SOL     OW22219   1.862   0.399   3.715 -0.0204 -0.2692  0.5609
 3529SOL    HW122220   1.890   0.356   3.796  1.6488 -2.1432 -0.9893
 3529SOL    HW222221   1.941   0.391   3.662 -0.5471 -1.4547 -0.0335
 3530SOL     OW22222   2.918   3.560   8.588 -0.1128 -0.6155 -0.2807
 3530SOL    HW122223   2.874   3.644   8.592  0.9053 -0.0853 -0.2924
 3530SOL    HW222224   2.840   3.507   8.569  1.4612 -2.6525 -1.0397
 3531SOL     OW22225   2.596   3.085   1.909  0.0489  0.3564  0.4456
 3531SOL    HW122226   2.627   3.000   1.942 -0.4117 -0.9016 -2.3173
 3531SOL    HW222227   2.600   3.147   1.981  1.2239  0.1769  0.5447
 3532SOL     OW22228   3.230   4.401   8.878 -0.4277  0.1795 -0.1877
 3532SOL    HW122229   3.215   4.348   8.799  0.3728 -0.1848 -0.0928
 3532SOL    HW222230   3.325   4.391   8.882 -0.0474  3.1885 -1.4610
 3533SOL     OW22231   2.491   4.395   4.209  0.1611 -0.5079  0.0606
 3533SOL    HW122232   2.420   4.454   4.183  1.3413  0.4800 -0.9217
 3533SOL    HW222233   2.434   4.322   4.234 -1.5493  0.3654 -1.2808
 3534SOL     OW22234   2.599   2.649   6.419 -0.1530 -0.2850  0.4311
 3534SOL    HW122235   2.589   2.662   6.325 -0.2850 -1.0723  0.3393
 3534SOL    HW222236   2.694   2.665   6.424 -0.1202  0.1408 -1.6843
 3535SOL     OW22237   2.322   3.959   2.986  0.0243 -0.1091 -0.3989
 3535SOL    HW122238   2.266   3.890   2.950  0.0375 -0.1970 -0.2492
 3535SOL    HW222239   2.290   4.023   2.922 -0.6398  1.5639  1.6054
 3536SOL     OW22240   3.840   1.364   6.545  0.2785  0.1050  0.3669
 3536SOL    HW122241   3.919   1.324   6.582  1.1773  2.8810  1.3936
 3536SOL    HW222242   3.835   1.454   6.575  0.5808  1.0252 -2.3021
 3537SOL     OW22243   4.058   2.723   2.163  0.4135  0.0302 -0.0952
 3537SOL    HW122244   3.994   2.783   2.123  1.4046  0.6216 -0.7848
 3537SOL    HW222245   4.096   2.781   2.229  1.3242 -0.6667 -0.0149
 3538SOL     OW22246   3.039   0.380  10.724  0.5656 -0.0399 -0.2092
 3538SOL    HW122247   3.126   0.348  10.747  0.1577  0.8954  2.6192
 3538SOL    HW222248   3.045   0.473  10.747  1.3641 -0.7936  2.5624
 3539SOL     OW22249   3.307   1.919   5.696  0.2503  0.2153 -0.1628
 3539SOL    HW122250   3.247   1.870   5.640  1.6355  0.5739 -1.9546
 3539SOL    HW222251   3.264   2.004   5.680 -2.7177 -1.4928 -1.3092
 3540SOL     OW22252   3.090   0.083   8.131 -0.4643 -0.6047  0.7124
 3540SOL    HW122253   3.127   0.047   8.050  1.6078  0.8882  1.0095
 3540SOL    HW222254   3.041   0.006   8.161 -1.3594  0.1507  1.1719
 3541SOL     OW22255   3.166   0.357  10.978 -0.2640 -0.1008  0.0671
 3541SOL    HW122256   3.212   0.308  10.910 -1.5826  1.4348 -1.9103
 3541SOL    HW222257   3.107   0.291  11.015 -0.5099  0.9714  1.5879
 3542SOL     OW22258   3.395   3.540  13.559 -0.0234  0.2532  0.3773
 3542SOL    HW122259   3.304   3.544  13.530 -0.2172  0.3891  0.9897
 3542SOL    HW222260   3.380   3.545  13.654 -1.0087 -0.0168  0.2345
 3543SOL     OW22261   4.602   4.525   0.875 -0.4348 -0.2440  0.3640
 3543SOL    HW122262   4.601   4.620   0.872 -1.3718 -0.1500  3.4251
 3543SOL    HW222263   4.624   4.512   0.967 -0.5289 -1.1009  0.2683
 3544SOL     OW22264   3.938   0.464  11.653  0.4616  0.1541  0.4712
 3544SOL    HW122265   3.887   0.472  11.572  0.2396 -0.4125  0.5542
 3544SOL    HW222266   3.954   0.369  11.647  1.7777  0.4531 -0.6793
 3545SOL     OW22267   4.420   4.065   2.578  0.5343  0.1006 -0.1163
 3545SOL    HW122268   4.389   4.049   2.667  0.0420 -0.4781 -0.3915
 3545SOL    HW222269   4.455   3.981   2.551  0.1628 -0.6483  1.7404
 3546SOL     OW22270   0.561   2.099   2.006  0.0398 -0.1788 -0.1619
 3546SOL    HW122271   0.476   2.130   1.974  0.3494  0.9181  0.0774
 3546SOL    HW222272   0.535   2.007   2.007 -0.7498  0.0551  1.6172
 3547SOL     OW22273   4.210   3.293   0.143 -0.0150 -0.0283 -0.8618
 3547SOL    HW122274   4.276   3.228   0.167  0.1358 -0.0478 -1.3362
 3547SOL    HW222275   4.247   3.335   0.066 -0.0689 -0.5401 -1.1648
 3548SOL     OW22276   2.952   0.809   5.879  0.0177  0.2509  0.5253
 3548SOL    HW122277   3.034   0.774   5.844 -0.8536 -0.4993 -0.7535
 3548SOL    HW222278   2.891   0.745   5.842 -0.9009  1.3558  0.1419
 3549SOL     OW22279   1.094   4.286  17.472  0.1896 -0.3528  0.6390
 3549SOL    HW122280   1.151   4.224  17.518  0.4728 -0.8462 -0.3735
 3549SOL    HW222281   1.142   4.318  17.396  0.0675  0.9310  1.1053
 3550SOL     OW22282   3.440   3.764  12.409  0.2547 -0.8078 -0.2073
 3550SOL    HW122283   3.512   3.815  12.447 -2.2996  0.2489  3.1518
 3550SOL    HW222284   3.476   3.680  12.380  0.9292 -1.1267  1.6178
 3551SOL     OW22285   0.384   3.418   2.389 -0.2822  0.8016  0.3781
 3551SOL    HW122286   0.313   3.373   2.435 -1.2076  0.4180 -1.4513
 3551SOL    HW222287   0.364   3.511   2.385  1.5372  1.0436 -3.0269
 3552SOL     OW22288   4.712   2.276   8.782  0.9068 -0.4823  0.4492
 3552SOL    HW122289   4.724   2.317   8.868  0.5321 -0.5051  0.5096
 3552SOL    HW222290   4.674   2.190   8.799  0.0947 -0.4192 -1.0610
 3553SOL     OW22291   1.680   1.187   5.846 -0.1773  0.1424  0.2396
 3553SOL    HW122292   1.608   1.128   5.825  0.4754 -1.0017  1.2675
 3553SOL    HW222293   1.709   1.150   5.929  0.7869 -0.8552 -0.5396
 3554SOL     OW22294   1.703   1.286   4.141  0.4234 -0.4911  0.2000
 3554SOL    HW122295   1.777   1.313   4.086  0.6484  1.4477  1.4666
 3554SOL    HW222296   1.634   1.351   4.129  0.9778 -0.1842 -1.3621
 3555SOL     OW22297   0.438   1.840   1.947  0.6093 -0.6920  1.0366
 3555SOL    HW122298   0.496   1.775   1.906 -0.5402 -0.4771 -0.8988
 3555SOL    HW222299   0.381   1.859   1.874  1.1051  1.0120  1.0885
 3556SOL     OW22300   3.265   1.634  12.298  0.9303  0.0223 -0.3516
 3556SOL    HW122301   3.350   1.640  12.254  0.5460 -0.0688 -1.0895
 3556SOL    HW222302   3.205   1.660  12.229  2.2999  0.0021 -1.5407
 3557SOL     OW22303   2.696   0.365   7.285  0.2795  0.7457  0.1101
 3557SOL    HW122304   2.639   0.354   7.362  1.4799 -0.5814  0.8155
 3557SOL    HW222305   2.632   0.353   7.215  0.3639 -3.3779  0.7096
 3558SOL     OW22306   0.668   2.350   8.583 -0.9393 -0.3119  0.7945
 3558SOL    HW122307   0.679   2.404   8.661  0.0169 -1.2631  1.3095
 3558SOL    HW222308   0.592   2.385   8.536 -0.3548 -0.6924 -0.4277
 3559SOL     OW22309   0.354   3.234   8.457  0.4061 -0.0917 -0.0812
 3559SOL    HW122310   0.355   3.192   8.544  1.0731  0.1473  0.0205
 3559SOL    HW222311   0.259   3.237   8.445  0.5566  3.2914 -0.3469
 3560SOL     OW22312   1.794   2.807  12.281 -0.3231  0.6777  0.5252
 3560SOL    HW122313   1.821   2.879  12.338 -2.0093  2.2216 -0.6012
 3560SOL    HW222314   1.755   2.753  12.350  0.4525 -1.3371 -0.6290
 3561SOL     OW22315   0.790   1.242   8.134  0.3847  0.5288  0.1631
 3561SOL    HW122316   0.698   1.246   8.160 -0.0875 -1.4117 -1.1616
 3561SOL    HW222317   0.836   1.237   8.218 -1.6461  1.6809  1.3406
 3562SOL     OW22318   4.568   0.071   0.833 -0.0078  0.3971  0.1024
 3562SOL    HW122319   4.488   0.121   0.818 -0.3361 -0.5773 -1.3099
 3562SOL    HW222320   4.629   0.145   0.839 -1.7748  2.0779 -2.9562
 3563SOL     OW22321   0.155   3.769   2.999  0.3681  0.0672 -0.0261
 3563SOL    HW122322   0.070   3.783   2.959  0.5386 -0.5324 -0.5816
 3563SOL    HW222323   0.129   3.785   3.090 -0.8725 -0.4269 -0.2978
 3564SOL     OW22324   1.710   3.562   3.954 -0.8021 -0.0860  0.2852
 3564SOL    HW122325   1.653   3.581   4.029 -0.5011 -1.4468  0.8523
 3564SOL    HW222326   1.779   3.627   3.969  1.3565 -2.0789 -1.1745
 3565SOL     OW22327   0.334   0.945  11.515 -0.0951 -0.0644 -0.7804
 3565SOL    HW122328   0.266   0.945  11.582  0.6337 -0.0676 -0.0479
 3565SOL    HW222329   0.321   0.854  11.487  1.6567 -0.2681 -0.9408
 3566SOL     OW22330   0.358   4.224   6.688 -0.4841 -0.5198  0.5527
 3566SOL    HW122331   0.308   4.142   6.694 -1.7013  0.2199  0.6619
 3566SOL    HW222332   0.308   4.292   6.641 -2.5915 -0.1061  3.4305
 3567SOL     OW22333   1.251   3.459   6.836 -0.9294 -0.2977  0.0989
 3567SOL    HW122334   1.288   3.483   6.920  0.2604 -1.5572 -0.0671
 3567SOL    HW222335   1.164   3.498   6.846 -0.1205  2.2893 -2.8864
 3568SOL     OW22336   1.792   0.547  16.254  0.2834 -0.0489  0.2602
 3568SOL    HW122337   1.735   0.471  16.250 -0.8265  0.8133 -0.1251
 3568SOL    HW222338   1.812   0.537  16.161 -1.0843  3.2266 -0.3670
 3569SOL     OW22339   0.192   0.822   8.213 -0.4271 -0.0205  0.0704
 3569SOL    HW122340   0.241   0.863   8.141 -1.3960  0.8476 -0.1014
 3569SOL    HW222341   0.259   0.831   8.281  0.8980 -0.4658 -1.1835
 3570SOL     OW22342   2.816   4.475  11.674 -0.2318  0.7199  0.0467
 3570SOL    HW122343   2.733   4.523  11.673 -0.1479  0.8995  1.6217
 3570SOL    HW222344   2.870   4.538  11.721  0.8665 -1.3171  1.5124
 3571SOL     OW22345   1.382   0.370   8.342 -0.7446  0.3364  0.0638
 3571SOL    HW122346   1.471   0.335   8.336 -0.3268  1.0378  2.2681
 3571SOL    HW222347   1.349   0.314   8.272 -2.9517  1.6372  0.0394
 3572SOL     OW22348   3.064   0.808   6.910 -0.6992 -0.3137  0.0925
 3572SOL    HW122349   3.154   0.790   6.884 -0.7574 -1.0349  0.3770
 3572SOL    HW222350   3.071   0.878   6.975  1.5855 -0.6146  0.1641
 3573SOL     OW22351   0.615   4.327   8.542  0.1592  0.6646 -0.2827
 3573SOL    HW122352   0.695   4.341   8.492 -0.8070 -1.6023 -2.4730
 3573SOL    HW222353   0.645   4.347   8.630 -1.2685  2.0700 -0.1133
 3574SOL     OW22354   0.934   1.527   3.202  0.3629  0.5271  0.1233
 3574SOL    HW122355   0.946   1.472   3.278  0.8710  1.5213  0.7644
 3574SOL    HW222356   0.844   1.555   3.217  0.5728  0.8044  0.8363
 3575SOL     OW22357   0.219   2.378   0.522 -0.0378  0.1591 -0.0601
 3575SOL    HW122358   0.187   2.329   0.447  2.4346 -2.6717  0.7342
 3575SOL    HW222359   0.290   2.420   0.472 -1.1339  2.8703  0.6711
 3576SOL     OW22360   2.588   2.109   7.967  0.1006  0.5508 -0.0903
 3576SOL    HW122361   2.579   2.014   7.956 -2.1966  0.6258  1.1864
 3576SOL    HW222362   2.584   2.130   8.060 -1.6291  1.2870 -0.3291
 3577SOL     OW22363   1.735   3.400  14.100  0.8441 -0.9729  0.0920
 3577SOL    HW122364   1.668   3.351  14.148  0.5890 -1.1329 -0.4355
 3577SOL    HW222365   1.807   3.425  14.159  0.4633  1.9928 -0.7491
 3578SOL     OW22366   2.324   4.343   5.461  0.0786  0.0116 -0.1487
 3578SOL    HW122367   2.283   4.428   5.470 -0.1823  0.1710 -2.7214
 3578SOL    HW222368   2.411   4.371   5.432 -0.3362  0.5217 -0.9121
 3579SOL     OW22369   0.305   1.128   7.229  0.3919 -0.2735  0.0521
 3579SOL    HW122370   0.264   1.055   7.276  1.5715  1.1199  3.1970
 3579SOL    HW222371   0.231   1.141   7.169  1.6405  1.3058 -1.1413
 3580SOL     OW22372   4.582   2.334  17.227  0.0597  0.0279 -0.2296
 3580SOL    HW122373   4.644   2.277  17.273  0.8964  0.6860 -0.5552
 3580SOL    HW222374   4.583   2.290  17.142  0.8656 -1.4794  0.5548
 3581SOL     OW22375   1.985   0.971   7.892  0.1699 -0.1097  0.6933
 3581SOL    HW122376   1.921   0.928   7.949 -0.1511  0.1414  0.5260
 3581SOL    HW222377   2.065   0.977   7.945 -0.1580 -0.3761  1.2221
 3582SOL     OW22378   3.309   1.064   6.385  0.1118  0.0057  0.1467
 3582SOL    HW122379   3.235   1.005   6.366 -0.6252  0.8215  0.4768
 3582SOL    HW222380   3.271   1.101   6.464  1.6592 -0.3247  1.0443
 3583SOL     OW22381   3.537   0.441   9.779 -0.1530  0.1551 -0.3057
 3583SOL    HW122382   3.500   0.355   9.800  1.8826 -0.9048 -1.0554
 3583SOL    HW222383   3.631   0.426   9.788 -0.1686 -0.6847 -1.5121
 3584SOL     OW22384   4.325   0.053   7.441  0.2626 -0.1396 -0.5014
 3584SOL    HW122385   4.417   0.063   7.466  0.3254 -1.0015 -0.3762
 3584SOL    HW222386   4.330   4.737   7.362 -0.2172  2.0695 -2.0228
 3585SOL     OW22387   1.024   3.775  15.804 -0.0020 -0.4626 -0.1892
 3585SOL    HW122388   1.096   3.809  15.750 -1.5009  1.5506 -0.9085
 3585SOL    HW222389   1.053   3.803  15.891  0.9767 -1.4814 -0.1858
 3586SOL     OW22390   1.364   1.573   1.757 -0.1333 -0.1178 -0.0562
 3586SOL    HW122391   1.389   1.638   1.822  1.4677  0.9783 -1.7720
 3586SOL    HW222392   1.304   1.525   1.814 -1.3928  3.0099  1.2804
 3587SOL     OW22393   3.676   0.662  12.233  0.3549  0.2612  0.3645
 3587SOL    HW122394   3.750   0.724  12.236  1.7990 -1.4808  0.7415
 3587SOL    HW222395   3.685   0.634  12.141 -3.8097  0.7892 -0.1924
 3588SOL     OW22396   4.310   3.622   3.403  0.2473  0.1250  0.2354
 3588SOL    HW122397   4.270   3.542   3.370 -0.6620  1.0336 -0.8762
 3588SOL    HW222398   4.236   3.683   3.401  0.3512  0.2756  0.9853
 3589SOL     OW22399   0.962   0.162   7.987 -0.6763 -0.7697 -0.3981
 3589SOL    HW122400   1.008   0.222   7.927 -0.1284 -0.1841  0.6156
 3589SOL    HW222401   1.037   0.140   8.043 -1.9618 -0.9690  1.2202
 3590SOL     OW22402   1.116   3.761   5.436 -0.1753  0.6232  0.2514
 3590SOL    HW122403   1.180   3.758   5.364  1.7181 -2.2340  2.0568
 3590SOL    HW222404   1.108   3.856   5.436  1.2642  0.7257  2.3485
 3591SOL     OW22405   2.847   1.814   7.117  0.1098 -0.1293 -0.7542
 3591SOL    HW122406   2.768   1.849   7.077  0.0439  3.3327  2.4647
 3591SOL    HW222407   2.858   1.877   7.187 -0.1543  1.0931 -1.8233
 3592SOL     OW22408   3.239   1.897   0.436 -0.2956  0.0939  0.4318
 3592SOL    HW122409   3.268   1.976   0.482 -1.3580  0.1989  0.9362
 3592SOL    HW222410   3.165   1.929   0.384 -1.3351 -0.2847  1.6836
 3593SOL     OW22411   4.639   4.597   6.104 -0.4285  0.1847 -0.3928
 3593SOL    HW122412   4.661   4.613   6.196  0.3684 -0.5663 -0.4535
 3593SOL    HW222413   4.681   4.676   6.070  0.2622  0.3273  0.7927
 3594SOL     OW22414   4.641   1.778   0.493 -0.1457 -0.3752  0.4426
 3594SOL    HW122415   4.617   1.751   0.582 -1.5698 -0.7946 -0.0663
 3594SOL    HW222416   4.588   1.857   0.480 -0.8045 -0.8668  0.1174
 3595SOL     OW22417   0.151   4.318  16.092  0.1113 -0.0208 -0.0870
 3595SOL    HW122418   0.090   4.390  16.078 -0.5834 -0.5505  0.2239
 3595SOL    HW222419   0.203   4.354  16.164 -1.6662  0.5393  0.9176
 3596SOL     OW22420   0.116   1.696   0.913  0.1263  0.6526  0.3997
 3596SOL    HW122421   0.170   1.724   0.986  0.6881  1.5727 -0.3720
 3596SOL    HW222422   0.178   1.661   0.850 -1.1960  0.2310 -0.6703
 3597SOL     OW22423   3.460   3.328   8.858 -0.6273  0.3070 -0.2322
 3597SOL    HW122424   3.466   3.281   8.942 -2.5809 -0.4114 -0.4952
 3597SOL    HW222425   3.365   3.322   8.857 -0.3798 -3.0950 -2.2747
 3598SOL     OW22426   2.660   0.550   8.719  0.7731 -0.2684  0.6783
 3598SOL    HW122427   2.637   0.594   8.638  1.0999  0.1602  0.8176
 3598SOL    HW222428   2.585   0.565   8.777  1.4239  0.7689  1.2630
 3599SOL     OW22429   4.347   0.011   3.285  0.1852 -0.1932 -0.1680
 3599SOL    HW122430   4.363   0.085   3.226  2.5919 -1.2882 -0.8822
 3599SOL    HW222431   4.387   0.051   3.362 -0.4677  1.0942 -0.4822
 3600SOL     OW22432   1.379   4.449   2.405  0.5754  0.2126  0.2603
 3600SOL    HW122433   1.341   4.362   2.406 -1.7359  1.2140 -1.4676
 3600SOL    HW222434   1.367   4.471   2.313 -0.5574  1.0947  0.6156
 3601SOL     OW22435   2.873   3.328   2.308  0.5041 -0.5646  0.3061
 3601SOL    HW122436   2.929   3.402   2.334 -0.5134  0.3344 -0.0390
 3601SOL    HW222437   2.847   3.295   2.394  1.1867  2.3465  1.6421
 3602SOL     OW22438   1.032   2.349  15.783  0.0966 -0.1547  0.2488
 3602SOL    HW122439   0.937   2.353  15.772  0.2504 -1.0312 -1.4423
 3602SOL    HW222440   1.049   2.284  15.852  0.3595  0.1689  0.4888
 3603SOL     OW22441   1.574   3.357   3.780 -0.0529  0.9976  0.2884
 3603SOL    HW122442   1.502   3.402   3.826 -1.2108  0.8342 -1.3847
 3603SOL    HW222443   1.649   3.402   3.818  0.1712  0.2404  0.7424
 3604SOL     OW22444   2.661   3.592   0.782 -0.1824 -0.4887 -0.3298
 3604SOL    HW122445   2.752   3.568   0.764 -0.3107 -2.6133  2.0079
 3604SOL    HW222446   2.627   3.616   0.695 -0.8282 -0.6267 -0.1172
 3605SOL     OW22447   1.537   4.203   2.130  0.2845 -0.1862 -0.0578
 3605SOL    HW122448   1.517   4.263   2.058  0.3370  0.6096  0.5959
 3605SOL    HW222449   1.457   4.213   2.181 -0.6893 -1.3322 -1.3601
 3606SOL     OW22450   0.602   3.615   4.138 -0.0164  0.0468 -0.1596
 3606SOL    HW122451   0.537   3.549   4.163  1.7155 -1.4455  0.3483
 3606SOL    HW222452   0.557   3.629   4.055  0.7653 -2.1930 -0.9511
 3607SOL     OW22453   2.244   1.235   2.371  0.5867 -0.3484  0.6614
 3607SOL    HW122454   2.265   1.313   2.321 -1.9290  0.8426  1.4494
 3607SOL    HW222455   2.322   1.209   2.420 -0.5653 -1.6334  1.8362
 3608SOL     OW22456   1.422   0.602   6.868  0.1888  0.1968 -0.2723
 3608SOL    HW122457   1.378   0.678   6.906  3.4009  1.3367  1.1762
 3608SOL    HW222458   1.509   0.621   6.905 -0.7864  0.4193  1.9074
 3609SOL     OW22459   3.840   0.219   4.952  0.2334  0.0564 -0.4183
 3609SOL    HW122460   3.776   0.171   5.004  0.4536 -0.7176 -0.8569
 3609SOL    HW222461   3.862   0.148   4.892 -1.4286 -2.3435  1.7856
 3610SOL     OW22462   1.237   4.655   8.029  0.2240 -0.0026  0.0374
 3610SOL    HW122463   1.297   4.583   8.008 -2.4601 -2.3696  0.5797
 3610SOL    HW222464   1.158   4.621   7.988 -0.3662  2.1727 -0.6040
 3611SOL     OW22465   1.885   0.781  16.179  0.0048 -0.2067 -0.0412
 3611SOL    HW122466   1.870   0.700  16.230  2.0091 -0.4122  0.2280
 3611SOL    HW222467   1.795   0.814  16.172  0.0513 -0.3366 -1.2007
 3612SOL     OW22468   4.735   0.642   7.598 -0.0368 -0.7857 -0.3091
 3612SOL    HW122469   0.046   0.708   7.647  1.3356 -2.2879  0.3522
 3612SOL    HW222470   4.689   0.600   7.670  0.9715 -0.5757  0.4497
 3613SOL     OW22471   2.102   2.844   5.134 -0.0240 -0.4961 -0.4171
 3613SOL    HW122472   2.067   2.833   5.046 -0.3672  1.2483 -0.4973
 3613SOL    HW222473   2.191   2.832   5.102  0.5216  1.3016  0.4267
 3614SOL     OW22474   1.462   4.367   9.408 -0.0247  0.0598 -0.2547
 3614SOL    HW122475   1.466   4.315   9.488 -2.5543 -1.9019 -1.4036
 3614SOL    HW222476   1.461   4.455   9.445 -1.4228  0.1350 -0.4813
 3615SOL     OW22477   3.054   3.750   4.581 -0.1131 -0.0087 -0.2124
 3615SOL    HW122478   3.001   3.716   4.509 -3.3011 -0.4918  2.3680
 3615SOL    HW222479   2.992   3.808   4.626 -0.2895 -1.0793  0.9318
 3616SOL     OW22480   0.544   1.495   4.025  0.5896 -0.1424 -0.1445
 3616SOL    HW122481   0.570   1.567   3.967  0.0507  0.2976  0.1644
 3616SOL    HW222482   0.456   1.525   4.050  0.3222 -2.4223  1.6193
 3617SOL     OW22483   2.702   0.864  12.883  0.1676  0.3004 -0.1575
 3617SOL    HW122484   2.728   0.804  12.813 -0.4481  1.4666 -1.3743
 3617SOL    HW222485   2.764   0.935  12.867 -2.6749  2.3834 -1.8232
 3618SOL     OW22486   4.096   1.763   1.525 -0.2209  0.2338 -0.4101
 3618SOL    HW122487   4.012   1.746   1.483  0.1561 -4.5003  0.6808
 3618SOL    HW222488   4.080   1.782   1.617  0.7513  0.4514 -0.2773
 3619SOL     OW22489   0.094   0.573   4.984 -0.4934  0.0257 -0.0877
 3619SOL    HW122490   0.103   0.548   4.892 -0.8614  3.8790 -1.1530
 3619SOL    HW222491   0.115   0.491   5.028 -1.1436  1.8855  3.6880
 3620SOL     OW22492   4.541   1.703   6.419  0.4750 -0.4806 -0.2782
 3620SOL    HW122493   4.468   1.702   6.481 -0.7205 -0.6140 -1.6899
 3620SOL    HW222494   4.499   1.658   6.345  1.9459 -0.8454 -0.8974
 3621SOL     OW22495   2.069   4.483   5.207 -0.1379  0.7154 -0.4564
 3621SOL    HW122496   1.975   4.497   5.198 -0.4050 -2.2209 -2.4401
 3621SOL    HW222497   2.085   4.513   5.296  2.0423  0.5994 -0.8065
 3622SOL     OW22498   3.672   1.585  15.737  0.0020 -0.4807 -0.2496
 3622SOL    HW122499   3.707   1.643  15.670  0.1123 -1.3954 -0.9785
 3622SOL    HW222500   3.577   1.593  15.723 -0.3056 -0.4547  1.7980
 3623SOL     OW22501   2.977   3.018   2.024 -0.0141 -0.0861  0.6019
 3623SOL    HW122502   3.011   2.933   1.995  0.6720  0.6253 -0.6902
 3623SOL    HW222503   2.995   3.009   2.117 -1.5102  2.1306  1.0889
 3624SOL     OW22504   2.324   2.167  13.386  0.0799 -0.0050 -0.0376
 3624SOL    HW122505   2.248   2.136  13.336 -0.6258  1.7925 -0.0862
 3624SOL    HW222506   2.370   2.086  13.408  0.4335 -0.0889 -1.0808
 3625SOL     OW22507   3.538   0.921   3.761 -0.0147 -0.0706  0.1022
 3625SOL    HW122508   3.502   0.894   3.845  0.3077 -2.0260 -0.3810
 3625SOL    HW222509   3.533   0.837   3.716 -0.2160 -0.5054  0.9398
 3626SOL     OW22510   2.507   2.213   3.595  0.0953 -0.2332  0.3632
 3626SOL    HW122511   2.544   2.293   3.632 -1.9402 -0.1696  2.2610
 3626SOL    HW222512   2.495   2.155   3.670  0.1755  1.0554  1.3721
 3627SOL     OW22513   3.453   0.823   4.016 -0.3000 -0.6965 -0.2799
 3627SOL    HW122514   3.468   0.755   4.082  0.8354  1.4173  1.6053
 3627SOL    HW222515   3.386   0.881   4.054  1.4192 -0.0168  1.6884
 3628SOL     OW22516   0.504   3.970   3.494 -0.5543 -0.3777 -0.0479
 3628SOL    HW122517   0.474   4.059   3.479 -2.6516 -1.5159 -2.4026
 3628SOL    HW222518   0.580   3.963   3.436 -1.2790 -2.3582 -0.7331
 3629SOL     OW22519   4.351   0.490  16.878 -0.0825  0.1243 -0.4809
 3629SOL    HW122520   4.311   0.406  16.856 -1.5840 -0.0795  3.0284
 3629SOL    HW222521   4.393   0.468  16.961 -0.6170 -0.8398 -0.4703
 3630SOL     OW22522   3.124   3.448   7.645  0.6148  0.4238  0.6133
 3630SOL    HW122523   3.208   3.402   7.648 -0.6319 -1.9123  0.1864
 3630SOL    HW222524   3.110   3.449   7.740  0.3843  0.9093  0.5745
 3631SOL     OW22525   0.738   4.029  11.973  0.1670 -0.1246  0.1397
 3631SOL    HW122526   0.647   4.004  11.991  0.3150 -1.5134 -1.0332
 3631SOL    HW222527   0.761   4.086  12.047 -1.6100  0.0178  0.5886
 3632SOL     OW22528   1.606   2.650   6.925 -0.2540  0.1715  0.0689
 3632SOL    HW122529   1.695   2.622   6.944 -0.3594 -0.5936 -0.5983
 3632SOL    HW222530   1.613   2.746   6.924 -0.5528  0.2081  2.4441
 3633SOL     OW22531   2.472   3.624   6.845  0.4048  0.0357 -0.6955
 3633SOL    HW122532   2.528   3.556   6.806 -3.3682 -0.9120 -4.4497
 3633SOL    HW222533   2.496   3.697   6.787 -1.7905  0.5273 -0.9768
 3634SOL     OW22534   0.959   1.711   4.156 -0.0576 -0.2831 -0.3348
 3634SOL    HW122535   0.942   1.684   4.066 -1.1609 -0.8827  0.0622
 3634SOL    HW222536   0.872   1.736   4.187 -0.3730 -0.5744 -0.9782
 3635SOL     OW22537   3.370   1.535   6.477 -0.6289 -0.6572  0.0788
 3635SOL    HW122538   3.353   1.560   6.387  1.8158  0.6225  0.0041
 3635SOL    HW222539   3.437   1.468   6.469  0.7221  0.9501 -1.8780
 3636SOL     OW22540   3.398   4.581   4.937 -0.4537  0.2360  0.3030
 3636SOL    HW122541   3.401   4.498   4.889 -3.1009 -0.7622  1.8476
 3636SOL    HW222542   3.314   4.620   4.914 -0.1504  0.8272  0.2056
 3637SOL     OW22543   1.343   4.408   8.030 -0.0321 -0.1817  0.9184
 3637SOL    HW122544   1.430   4.447   8.037 -0.5956  1.5240 -1.6346
 3637SOL    HW222545   1.360   4.322   7.994  1.2891  0.7373 -0.6408
 3638SOL     OW22546   1.480   4.115   4.630  0.0901  0.3076  0.4883
 3638SOL    HW122547   1.441   4.195   4.665 -1.8606 -0.5658  0.3194
 3638SOL    HW222548   1.560   4.142   4.584 -0.5802 -1.3577 -1.6346
 3639SOL     OW22549   1.326   0.045  10.957 -0.0331 -0.1695 -0.1900
 3639SOL    HW122550   1.268   4.712  10.986 -0.4948  0.5140  0.5500
 3639SOL    HW222551   1.394   4.726  10.921 -0.3461 -0.9100  0.3619
 3640SOL     OW22552   0.788   4.711   3.891  0.8952 -0.1143  0.4849
 3640SOL    HW122553   0.764   4.619   3.878 -1.3404  0.7253 -1.2866
 3640SOL    HW222554   0.831   4.726   3.807  3.3967 -2.4129  1.3307
 3641SOL     OW22555   2.655   1.783   4.301 -0.1949  0.2410 -0.0863
 3641SOL    HW122556   2.563   1.757   4.295 -0.3707  1.3955 -2.2296
 3641SOL    HW222557   2.684   1.716   4.364  3.0667  2.3182  0.6312
 3642SOL     OW22558   1.354   3.299  16.399  0.3725 -0.2589  0.2374
 3642SOL    HW122559   1.269   3.316  16.358  0.4822  1.9996  0.9579
 3642SOL    HW222560   1.360   3.354  16.477  1.1507 -0.5221  0.3548
 3643SOL     OW22561   3.781   3.159   9.373 -0.7163  0.1835 -0.7221
 3643SOL    HW122562   3.725   3.235   9.384  2.2294  2.1689  0.8253
 3643SOL    HW222563   3.715   3.104   9.332 -0.6853 -1.4010  1.3769
 3644SOL     OW22564   4.621   1.619  14.739 -0.7212 -0.2819  0.8178
 3644SOL    HW122565   4.528   1.630  14.719 -0.4810 -0.8272 -0.5930
 3644SOL    HW222566   4.624   1.610  14.834  0.5701 -0.6359  0.7464
 3645SOL     OW22567   1.843   1.208   4.757  0.0642 -0.3162 -0.1263
 3645SOL    HW122568   1.793   1.264   4.816 -0.0218 -1.0971  0.5393
 3645SOL    HW222569   1.931   1.246   4.757  0.8427 -2.1640  1.8307
 3646SOL     OW22570   4.281   0.355  12.638  0.6693 -0.0954 -0.5382
 3646SOL    HW122571   4.217   0.284  12.639  1.2356 -0.6140 -0.9408
 3646SOL    HW222572   4.332   0.326  12.563  1.6222  1.0780 -0.3485
 3647SOL     OW22573   0.846   2.501   6.611  0.5285 -0.0136 -0.5545
 3647SOL    HW122574   0.876   2.445   6.683 -1.3934 -1.0084 -0.5416
 3647SOL    HW222575   0.933   2.518   6.575  0.5475 -0.2890 -0.6386
 3648SOL     OW22576   0.456   0.463   4.575  0.3834 -0.2699 -0.2180
 3648SOL    HW122577   0.420   0.549   4.556 -1.0261 -1.1135 -1.3047
 3648SOL    HW222578   0.431   0.468   4.667  1.1753 -0.3194  0.0068
 3649SOL     OW22579   4.067   3.404  11.982 -0.8299 -0.3788  0.5358
 3649SOL    HW122580   4.058   3.309  11.988  1.4026 -0.5998  0.5952
 3649SOL    HW222581   4.088   3.426  12.073 -2.3654  0.7620  0.6152
 3650SOL     OW22582   3.363   0.871  10.104 -1.0240  0.3434  0.8492
 3650SOL    HW122583   3.275   0.908  10.104 -0.9588  0.4838 -0.0579
 3650SOL    HW222584   3.409   0.912  10.032  0.6815 -0.3869  1.5214
 3651SOL     OW22585   0.207   2.462   5.052 -0.0947  0.6809 -0.5441
 3651SOL    HW122586   0.231   2.458   4.960  1.2566  1.1406 -0.1997
 3651SOL    HW222587   0.114   2.440   5.043  0.6869 -1.5451 -3.3777
 3652SOL     OW22588   2.909   4.521   8.986  0.0151  0.1735  0.2792
 3652SOL    HW122589   2.844   4.454   9.007  0.2227 -0.4960 -1.1748
 3652SOL    HW222590   2.856   4.600   8.994  0.3330  0.5626 -1.3607
 3653SOL     OW22591   2.824   3.174   6.902 -0.0546  0.5563 -0.1145
 3653SOL    HW122592   2.869   3.123   6.969 -2.5616 -0.9664  0.4141
 3653SOL    HW222593   2.889   3.238   6.875 -0.5438  1.7864  1.6046
 3654SOL     OW22594   3.909   2.180   3.454 -0.1966 -0.1885  0.2166
 3654SOL    HW122595   3.922   2.114   3.385 -1.8447 -3.0568  2.6636
 3654SOL    HW222596   3.996   2.200   3.489 -0.7242  0.2840  1.2400
 3655SOL     OW22597   2.829   1.173   5.276  0.4844 -0.2950  0.0608
 3655SOL    HW122598   2.827   1.254   5.327  0.2138 -1.0613  1.2726
 3655SOL    HW222599   2.894   1.122   5.322 -0.1438  0.5964  1.9515
 3656SOL     OW22600   3.627   4.525  10.555 -0.1717  0.0677  0.0197
 3656SOL    HW122601   3.602   4.602  10.505 -0.3392 -0.5130 -0.7839
 3656SOL    HW222602   3.693   4.487  10.497 -2.3139 -1.3318 -1.4920
 3657SOL     OW22603   2.124   2.529   3.832  0.0129 -0.0407 -0.4159
 3657SOL    HW122604   2.189   2.554   3.766 -0.2705  1.5659 -0.0921
 3657SOL    HW222605   2.087   2.454   3.784 -0.3286 -0.2423  0.1588
 3658SOL     OW22606   2.190   0.215   3.877  0.0408  0.0110 -0.5666
 3658SOL    HW122607   2.171   0.158   3.802  0.0049 -1.6739  0.7121
 3658SOL    HW222608   2.142   0.296   3.863  2.7178  1.9301  1.4419
 3659SOL     OW22609   2.094   0.493   5.721  0.0154  0.2664  0.1805
 3659SOL    HW122610   2.048   0.434   5.662  0.8815 -0.5851  0.3610
 3659SOL    HW222611   2.029   0.563   5.711 -1.8245 -1.4232  0.3651
 3660SOL     OW22612   0.992   0.630   4.054 -0.4566  0.0630 -0.0382
 3660SOL    HW122613   0.933   0.559   4.031 -0.0511 -0.2182 -0.2161
 3660SOL    HW222614   1.015   0.659   3.965 -0.5554  1.1358  0.2844
 3661SOL     OW22615   1.329   1.380   7.126  0.4404  0.0510  0.7773
 3661SOL    HW122616   1.252   1.387   7.182 -2.7133 -1.4306 -3.3570
 3661SOL    HW222617   1.317   1.452   7.064 -0.7921  0.5235  1.5654
 3662SOL     OW22618   4.591   3.542   7.339 -0.2523 -0.7424 -0.0490
 3662SOL    HW122619   4.646   3.472   7.304 -1.3340 -1.9284  0.6076
 3662SOL    HW222620   4.654   3.572   7.405 -1.1894  1.5485 -0.2238
 3663SOL     OW22621   3.597   0.937   2.598 -0.6483 -0.0191  0.1597
 3663SOL    HW122622   3.588   1.029   2.626 -0.1797 -0.2920  1.1874
 3663SOL    HW222623   3.515   0.890   2.615 -0.1971  0.3825  3.5658
 3664SOL     OW22624   3.573   3.250   7.863 -0.1321 -0.4850  0.2316
 3664SOL    HW122625   3.552   3.261   7.955  0.7537 -0.1831  0.4060
 3664SOL    HW222626   3.500   3.203   7.823 -1.1339  0.8932  0.4546
 3665SOL     OW22627   3.549   0.512   3.146  0.1884 -0.2631 -0.1414
 3665SOL    HW122628   3.585   0.455   3.077  2.4229  1.2328 -0.2111
 3665SOL    HW222629   3.617   0.579   3.140 -1.9737  1.9413  0.3451
 3666SOL     OW22630   3.156   0.407   8.207 -0.4966 -0.4900 -0.6752
 3666SOL    HW122631   3.225   0.342   8.197  1.3054  1.4715 -1.1481
 3666SOL    HW222632   3.114   0.411   8.121 -0.0311 -0.8161 -0.9219
 3667SOL     OW22633   1.212   0.790   5.143  0.0090 -0.1117  0.0939
 3667SOL    HW122634   1.285   0.752   5.192  0.3752  0.5401  0.0570
 3667SOL    HW222635   1.253   0.821   5.062 -2.1857  0.0769 -0.9476
 3668SOL     OW22636   2.999   4.480   3.255  0.0916 -0.4683 -0.4578
 3668SOL    HW122637   3.049   4.561   3.268 -1.5453  0.5021 -0.2211
 3668SOL    HW222638   3.057   4.422   3.206 -0.0450 -1.0189  0.0308
 3669SOL     OW22639   0.369   2.890   8.732 -0.1181 -0.2067 -0.3729
 3669SOL    HW122640   0.342   2.821   8.672 -1.3196 -0.6185  0.6300
 3669SOL    HW222641   0.411   2.836   8.798 -0.8021 -0.4725 -0.1581
 3670SOL     OW22642   4.141   4.253   2.866  0.2361 -0.4417 -0.1962
 3670SOL    HW122643   4.179   4.284   2.784 -0.9670  2.4720  0.3500
 3670SOL    HW222644   4.213   4.279   2.923 -0.2806 -0.2374  0.3653
 3671SOL     OW22645   2.041   1.986  17.238  0.6654  0.3538  0.0223
 3671SOL    HW122646   2.099   2.018  17.307  0.5718  0.7738 -0.0983
 3671SOL    HW222647   2.061   2.056  17.176 -0.5769  0.0047 -0.7867
 3672SOL     OW22648   3.491   1.067   3.509 -0.0084 -0.3770  0.4597
 3672SOL    HW122649   3.563   1.127   3.528  1.0646 -1.1041 -1.3454
 3672SOL    HW222650   3.478   1.030   3.597  1.4454 -3.2191 -0.5090
 3673SOL     OW22651   1.275   4.412   5.505 -0.4979  0.0820  0.2953
 3673SOL    HW122652   1.255   4.372   5.421 -0.1234  1.3893 -0.4063
 3673SOL    HW222653   1.188   4.390   5.538  0.4493 -1.8450  1.5645
 3674SOL     OW22654   1.099   0.470   9.783  0.1005 -0.2821  0.5338
 3674SOL    HW122655   1.134   0.548   9.740 -0.8324  0.9693  2.0414
 3674SOL    HW222656   1.019   0.500   9.827  0.8546  0.7611  1.2014
 3675SOL     OW22657   2.467   4.192   5.929 -0.6629  0.3689  0.2253
 3675SOL    HW122658   2.441   4.226   6.015 -2.2663  1.6552 -0.7824
 3675SOL    HW222659   2.507   4.270   5.890 -3.7045  3.4002  3.0620
 3676SOL     OW22660   3.649   1.544  12.474  0.1519 -0.2238  0.1890
 3676SOL    HW122661   3.710   1.575  12.408 -0.7494 -0.8299 -0.9356
 3676SOL    HW222662   3.576   1.606  12.472  1.0474  0.7860 -0.7000
 3677SOL     OW22663   2.053   1.366   4.504  0.4383  0.3867 -0.3072
 3677SOL    HW122664   2.064   1.423   4.427 -1.0714 -0.6350 -1.2645
 3677SOL    HW222665   2.048   1.433   4.572 -0.1852 -0.3742  0.3969
 3678SOL     OW22666   0.831   0.945   8.702 -0.4582  0.0853  0.2105
 3678SOL    HW122667   0.897   0.895   8.653 -1.7042 -1.3120 -0.0421
 3678SOL    HW222668   0.791   0.878   8.758 -1.7895  1.0254  0.3914
 3679SOL     OW22669   3.144   2.093   1.485 -0.6413  0.2915  0.1303
 3679SOL    HW122670   3.185   2.030   1.545  2.8830 -0.2447 -2.8328
 3679SOL    HW222671   3.117   2.163   1.544  1.4520 -0.4793  2.0253
 3680SOL     OW22672   1.777   3.390   4.474  0.0708 -0.2575  0.2031
 3680SOL    HW122673   1.693   3.360   4.509 -0.0471  0.5035  0.5880
 3680SOL    HW222674   1.786   3.475   4.519  0.4751 -0.4534  0.4820
 3681SOL     OW22675   1.349   0.287   7.800 -0.1608  0.0223 -0.9676
 3681SOL    HW122676   1.410   0.217   7.825 -0.5301 -0.0762 -0.3385
 3681SOL    HW222677   1.346   0.343   7.877 -0.9794 -0.6161 -0.5382
 3682SOL     OW22678   2.701   4.369   3.500  0.1967  0.0833 -0.6705
 3682SOL    HW122679   2.739   4.439   3.552 -1.2259  0.0138  0.4723
 3682SOL    HW222680   2.701   4.408   3.413 -0.6600  0.8170 -0.3495
 3683SOL     OW22681   3.604   2.764   3.582 -0.7399  0.1900 -0.5729
 3683SOL    HW122682   3.513   2.755   3.553 -0.7627 -1.2946 -0.0374
 3683SOL    HW222683   3.597   2.853   3.617 -1.0749 -0.0096 -0.1333
 3684SOL     OW22684   1.794   1.249  11.615 -0.0729 -0.3057  0.0638
 3684SOL    HW122685   1.830   1.160  11.605 -0.5505 -0.4865 -0.0595
 3684SOL    HW222686   1.872   1.304  11.612 -0.8744  0.6767 -2.5972
 3685SOL     OW22687   3.643   3.400  16.150 -0.0706  0.5844 -0.5800
 3685SOL    HW122688   3.660   3.320  16.201 -0.9606  0.1377 -0.9769
 3685SOL    HW222689   3.734   3.406  16.123 -0.2620  2.6672 -0.7677
 3686SOL     OW22690   2.429   0.809   5.271  0.5781 -0.2783  0.1784
 3686SOL    HW122691   2.416   0.720   5.303  1.6988 -0.6310 -0.3307
 3686SOL    HW222692   2.423   0.788   5.178 -1.7345  0.5854  0.1394
 3687SOL     OW22693   2.999   4.575   6.024  0.0991 -0.4873 -0.4823
 3687SOL    HW122694   2.951   4.494   6.039 -0.2802 -0.8868 -3.7962
 3687SOL    HW222695   3.038   4.580   6.111  0.5142 -2.2763 -0.5661
 3688SOL     OW22696   4.451   2.189   5.199 -0.4788 -0.2651  0.6063
 3688SOL    HW122697   4.455   2.123   5.130  0.8234 -0.2154  0.6253
 3688SOL    HW222698   4.359   2.189   5.225 -0.7989  1.0366 -0.5349
 3689SOL     OW22699   2.224   0.483  13.343 -0.5304 -0.0118  0.5261
 3689SOL    HW122700   2.198   0.405  13.293  0.9370  0.9463 -1.6995
 3689SOL    HW222701   2.273   0.537  13.282  0.5022  0.0015  1.3650
 3690SOL     OW22702   1.016   3.167   4.950  0.2757  0.4623  0.1925
 3690SOL    HW122703   1.074   3.136   4.881  0.1152  0.2739  0.1442
 3690SOL    HW222704   0.944   3.207   4.901  1.4423  1.0798 -1.0118
 3691SOL     OW22705   2.553   0.870   4.496  0.2712 -1.0704 -0.9179
 3691SOL    HW122706   2.563   0.786   4.540  1.0349  0.8239  2.5102
 3691SOL    HW222707   2.602   0.846   4.417  1.7665  1.7124 -0.8312
 3692SOL     OW22708   3.978   3.462   7.356 -0.3055  0.4956 -0.1259
 3692SOL    HW122709   4.004   3.500   7.440 -1.3678  3.6441 -1.2340
 3692SOL    HW222710   4.006   3.527   7.292  0.1063 -0.3087 -0.7727
 3693SOL     OW22711   1.259   2.363   6.981 -0.3148 -0.3272 -0.2233
 3693SOL    HW122712   1.283   2.311   7.058  1.1698  1.8192  0.7934
 3693SOL    HW222713   1.311   2.443   6.992  0.6327 -1.0550  0.6746
 3694SOL     OW22714   2.852   2.619   9.443  0.1833 -0.5446  0.6657
 3694SOL    HW122715   2.882   2.690   9.386 -2.3683  0.7071  0.9151
 3694SOL    HW222716   2.782   2.658   9.495  0.8480  1.4092  0.1050
 3695SOL     OW22717   3.474   2.004   5.479 -0.0098 -0.2648 -0.2577
 3695SOL    HW122718   3.481   1.996   5.575 -2.8723 -0.7254 -0.0998
 3695SOL    HW222719   3.497   1.915   5.453  2.2336  0.1757  0.1492
 3696SOL     OW22720   3.669   1.147   2.175 -0.9741  0.3243  0.0827
 3696SOL    HW122721   3.623   1.095   2.241 -0.3460  1.0963  1.1380
 3696SOL    HW222722   3.670   1.232   2.220 -1.7696  0.3759  0.0050
 3697SOL     OW22723   1.334   3.581  11.090  0.0393  0.1211  0.5481
 3697SOL    HW122724   1.291   3.515  11.145 -1.1952 -0.4507 -1.0876
 3697SOL    HW222725   1.335   3.535  11.006 -1.1711  0.3472  0.4040
 3698SOL     OW22726   2.759   1.142  14.351 -0.0130 -0.0538  0.2073
 3698SOL    HW122727   2.665   1.127  14.337  0.4244 -2.6946  0.0486
 3698SOL    HW222728   2.774   1.235  14.334 -0.7836  0.1181  0.4739
 3699SOL     OW22729   0.944   0.787   6.187 -0.1365 -0.4503 -0.3402
 3699SOL    HW122730   0.886   0.718   6.155 -0.6290 -1.4122  2.6647
 3699SOL    HW222731   0.891   0.856   6.228 -0.7449  0.5317 -2.7604
 3700SOL     OW22732   2.555   1.399   6.615  0.1796 -0.0004 -0.4629
 3700SOL    HW122733   2.623   1.417   6.551  0.5315  0.4277  0.0269
 3700SOL    HW222734   2.481   1.457   6.593  0.0681 -0.3838 -1.0682
 3701SOL     OW22735   3.500   4.297   8.976 -0.3987 -0.4858  0.3718
 3701SOL    HW122736   3.481   4.206   8.997 -2.4966  0.3456  2.1070
 3701SOL    HW222737   3.573   4.276   8.918 -0.9470  0.8892 -0.8488
 3702SOL     OW22738   3.202   2.711   9.411  0.0636  0.0479  0.2271
 3702SOL    HW122739   3.137   2.754   9.466 -0.4873 -2.0002  1.1877
 3702SOL    HW222740   3.190   2.619   9.437 -1.5346  0.5839  1.3696
 3703SOL     OW22741   3.541   2.414   3.490 -0.5362  0.8125  0.1432
 3703SOL    HW122742   3.448   2.413   3.470 -0.5462  2.3749  0.1484
 3703SOL    HW222743   3.583   2.476   3.431  2.6717 -1.8670 -0.4087
 3704SOL     OW22744   3.366   1.926   4.561 -0.1406  0.0915 -0.8117
 3704SOL    HW122745   3.324   1.948   4.478 -2.3860  2.0569  0.8583
 3704SOL    HW222746   3.332   1.836   4.563  1.2032 -0.3465  1.9036
 3705SOL     OW22747   1.250   0.462   0.706 -0.3899  0.1232  0.7788
 3705SOL    HW122748   1.262   0.437   0.614 -0.2274 -0.1436  0.8736
 3705SOL    HW222749   1.338   0.438   0.733  0.0106  3.7916  2.7168
 3706SOL     OW22750   0.299   4.156  16.661  0.0028 -0.1719  0.3775
 3706SOL    HW122751   0.353   4.213  16.715  1.3564 -0.0810 -1.0649
 3706SOL    HW222752   0.269   4.095  16.729 -0.0159  0.5298  0.9974
 3707SOL     OW22753   3.827   0.171   3.336 -0.2098 -0.1842 -0.0063
 3707SOL    HW122754   3.751   0.114   3.321  0.8119 -2.1963  2.5261
 3707SOL    HW222755   3.893   0.132   3.280 -0.0183 -0.8244  0.6728
 3708SOL     OW22756   3.250   0.001   5.785  0.4577 -0.3663  0.3532
 3708SOL    HW122757   3.284   4.675   5.847  0.4739  0.3295  1.0558
 3708SOL    HW222758   3.290   4.705   5.705  2.2644  0.6113  0.8403
 3709SOL     OW22759   1.769   2.520   5.617  0.5142  0.2595  0.3029
 3709SOL    HW122760   1.846   2.528   5.561  0.1710  2.0516  0.0994
 3709SOL    HW222761   1.720   2.597   5.590  0.2620 -0.1288 -0.3419
 3710SOL     OW22762   0.294   1.278   2.780 -0.5435 -0.2396  0.0109
 3710SOL    HW122763   0.298   1.194   2.733  0.2701 -0.5732  0.6726
 3710SOL    HW222764   0.320   1.339   2.711 -0.3351 -0.1692  0.1544
 3711SOL     OW22765   1.001   2.303  15.226 -0.5031 -0.2527  0.7298
 3711SOL    HW122766   0.954   2.385  15.216 -3.0872 -1.8546 -0.4724
 3711SOL    HW222767   1.003   2.285  15.320 -1.9058 -0.6715  0.6791
 3712SOL     OW22768   0.433   4.368   7.569  0.3425 -0.2641 -0.1067
 3712SOL    HW122769   0.496   4.387   7.500  0.3671  1.8444  0.5024
 3712SOL    HW222770   0.491   4.359   7.644 -0.7057  0.6344  0.8150
 3713SOL     OW22771   4.430   4.696  12.609 -0.8246  0.1167 -0.3776
 3713SOL    HW122772   4.363   0.027  12.615  0.0430  0.9439 -0.0410
 3713SOL    HW222773   4.414   4.645  12.688 -1.0057 -0.1371 -0.5799
 3714SOL     OW22774   1.595   0.256   2.920 -0.2589  0.0882  0.4735
 3714SOL    HW122775   1.525   0.257   2.985  1.0165 -0.0217  1.8447
 3714SOL    HW222776   1.568   0.336   2.875  0.4336 -1.4676 -2.6905
 3715SOL     OW22777   2.900   2.610   2.657 -0.2217 -0.1746  0.4393
 3715SOL    HW122778   2.854   2.526   2.662  0.4649 -0.6795 -1.6897
 3715SOL    HW222779   2.830   2.675   2.650 -0.9804 -0.8362  1.8285
 3716SOL     OW22780   0.844   0.959  15.700 -0.4984 -0.1716  0.1869
 3716SOL    HW122781   0.890   1.031  15.743 -0.1118 -0.6855  0.6360
 3716SOL    HW222782   0.780   1.021  15.662 -1.3517 -0.5443  1.0270
 3717SOL     OW22783   0.673   3.474   6.486  0.0745  0.3512  0.0741
 3717SOL    HW122784   0.705   3.478   6.396 -0.1337 -0.6623 -0.0457
 3717SOL    HW222785   0.691   3.382   6.504 -0.3642  0.5141  1.3323
 3718SOL     OW22786   0.048   0.925   6.698 -0.0129  0.6109 -0.5858
 3718SOL    HW122787   4.725   0.896   6.629  0.4175 -0.7082 -0.4219
 3718SOL    HW222788   0.065   0.841   6.741  2.9405  0.2307 -2.4164
 3719SOL     OW22789   3.015   0.062  10.109  0.1051 -0.0297  0.1762
 3719SOL    HW122790   2.949   0.112  10.062  2.2889  1.0892 -1.6888
 3719SOL    HW222791   3.015   0.101  10.197 -0.9685 -2.4440  1.2529
 3720SOL     OW22792   3.708   1.991   5.760 -0.2171 -0.5678 -0.0785
 3720SOL    HW122793   3.798   2.000   5.790 -0.0568 -1.1700 -0.3754
 3720SOL    HW222794   3.687   2.074   5.717  1.9456  0.3693  0.6488
 3721SOL     OW22795   1.727   2.387  13.973 -0.1547  0.4835  0.3614
 3721SOL    HW122796   1.706   2.475  13.942 -0.5886  0.3766  0.3434
 3721SOL    HW222797   1.699   2.333  13.900  0.6836 -1.0967  1.2235
 3722SOL     OW22798   3.614   0.579   1.600  0.3617 -0.0123 -0.7045
 3722SOL    HW122799   3.567   0.519   1.658 -1.5573  0.3656 -1.8484
 3722SOL    HW222800   3.543   0.632   1.563 -0.5440 -0.1991  0.7590
 3723SOL     OW22801   1.815   2.889  11.756  0.3196  0.0006  0.2524
 3723SOL    HW122802   1.774   2.827  11.816  0.3928 -1.1632 -0.8910
 3723SOL    HW222803   1.776   2.879  11.669  2.1413  0.8273 -0.6546
 3724SOL     OW22804   2.912   1.956  16.105 -0.1276  0.1606 -0.0085
 3724SOL    HW122805   2.923   1.947  16.010  0.9613  3.6750 -0.2105
 3724SOL    HW222806   2.999   1.942  16.142 -0.9433 -1.3383  1.3346
 3725SOL     OW22807   0.703   2.051  16.053 -0.2400  0.5653  0.7876
 3725SOL    HW122808   0.767   2.047  16.123  0.9322  0.4703 -0.3023
 3725SOL    HW222809   0.626   2.041  16.109  0.0566 -4.2454  0.2863
 3726SOL     OW22810   2.603   4.180  14.707 -0.3864  1.2010 -0.3467
 3726SOL    HW122811   2.615   4.087  14.727 -0.8522  0.9665 -1.1765
 3726SOL    HW222812   2.675   4.216  14.758  0.4296  0.9270 -1.3213
 3727SOL     OW22813   1.936   0.913   5.895 -0.3452  0.5032 -0.5366
 3727SOL    HW122814   1.955   0.996   5.853 -1.2778  0.7275 -0.5156
 3727SOL    HW222815   1.870   0.940   5.958 -1.0138  0.5415 -1.2603
 3728SOL     OW22816   0.451   0.739   8.707  0.4280 -0.1411 -0.4702
 3728SOL    HW122817   0.377   0.734   8.768 -0.3695  2.9591 -1.1505
 3728SOL    HW222818   0.489   0.827   8.719  1.2929 -0.2236 -2.6668
 3729SOL     OW22819   2.227   3.627   6.278  0.1759 -1.0296  0.0663
 3729SOL    HW122820   2.316   3.599   6.259 -0.1806 -2.7399  0.8751
 3729SOL    HW222821   2.213   3.575   6.357 -1.6033 -0.7768 -0.0683
 3730SOL     OW22822   4.351   1.260   8.783  0.4062 -0.0100  0.4312
 3730SOL    HW122823   4.410   1.325   8.746 -1.5021  0.1949 -2.2547
 3730SOL    HW222824   4.321   1.309   8.859  1.6090  0.7933  0.3850
 3731SOL     OW22825   3.841   3.842  17.000  0.0473  0.3653 -0.1033
 3731SOL    HW122826   3.887   3.922  17.026  1.4675 -0.4227 -0.1786
 3731SOL    HW222827   3.806   3.814  17.085  0.1813  0.6077  0.0351
 3732SOL     OW22828   2.328   2.695   2.710  0.8671  0.5215  0.7764
 3732SOL    HW122829   2.349   2.610   2.671  1.2945  0.8950  0.1875
 3732SOL    HW222830   2.291   2.744   2.637  0.3780 -2.0680 -0.7130
 3733SOL     OW22831   2.608   1.720   2.500 -0.0940 -0.0122  0.0109
 3733SOL    HW122832   2.630   1.634   2.465  0.2003  0.3661 -0.7386
 3733SOL    HW222833   2.624   1.765   2.417  1.2699  1.4501  1.0651
 3734SOL     OW22834   1.784   0.700   4.615 -0.1546 -0.7160  0.1464
 3734SOL    HW122835   1.791   0.616   4.659  4.1986 -0.2049  0.4478
 3734SOL    HW222836   1.879   0.702   4.598 -0.3021 -1.3649 -0.7378
 3735SOL     OW22837   2.233   2.949   5.827  0.5064 -0.7558 -0.2229
 3735SOL    HW122838   2.188   2.865   5.812 -0.8943 -0.0031 -0.2463
 3735SOL    HW222839   2.181   2.987   5.898  3.3117 -1.0646  1.9678
 3736SOL     OW22840   2.302   1.219   8.591  0.3366 -0.1263  0.0902
 3736SOL    HW122841   2.365   1.221   8.518 -0.9230  1.6669 -0.9598
 3736SOL    HW222842   2.242   1.287   8.559  2.1195  1.9050  1.0375
 3737SOL     OW22843   2.037   1.488   7.026 -0.1526  0.1895 -0.5723
 3737SOL    HW122844   2.050   1.396   7.004 -0.2247  0.1553 -0.4700
 3737SOL    HW222845   2.128   1.509   7.047  0.8096  0.2355 -4.9190
 3738SOL     OW22846   4.159   0.148   4.278 -0.1238  0.3769  0.0041
 3738SOL    HW122847   4.177   0.090   4.204 -1.6407  0.7846 -0.6944
 3738SOL    HW222848   4.112   0.092   4.340 -1.4244  0.7642 -0.6141
 3739SOL     OW22849   1.566   1.514   9.763  0.5023 -0.2207 -0.6437
 3739SOL    HW122850   1.661   1.522   9.757  0.5777 -0.6831 -0.0890
 3739SOL    HW222851   1.553   1.428   9.723 -2.8690  0.1561 -0.3414
 3740SOL     OW22852   0.922   3.581  17.300 -0.7519  0.3701 -0.3256
 3740SOL    HW122853   0.966   3.557  17.219  0.9454  2.0144  0.1138
 3740SOL    HW222854   0.881   3.666  17.287  1.3163  1.4288  0.0501
 3741SOL     OW22855   4.534   2.489  13.380 -0.2536 -0.7374  0.3368
 3741SOL    HW122856   4.591   2.448  13.445 -1.5463 -0.8194  1.4255
 3741SOL    HW222857   4.494   2.410  13.344  0.3996 -1.1815  0.5899
 3742SOL     OW22858   0.290   4.065  15.875  0.1339 -0.3301 -0.3741
 3742SOL    HW122859   0.216   4.011  15.847  0.3760 -1.3944  1.0460
 3742SOL    HW222860   0.255   4.112  15.951  0.8385 -1.3913  0.5928
 3743SOL     OW22861   4.564   4.646   3.859  0.4729 -0.3727  0.0586
 3743SOL    HW122862   4.479   4.602   3.860  0.5531 -0.5126  0.9171
 3743SOL    HW222863   4.608   4.594   3.790 -0.7489 -1.5592  0.1705
 3744SOL     OW22864   3.618   1.684   2.148  0.1556  0.3809  0.4183
 3744SOL    HW122865   3.536   1.730   2.165 -0.8656 -1.3933  0.3432
 3744SOL    HW222866   3.624   1.635   2.230  0.4015  0.3583  0.3878
 3745SOL     OW22867   4.465   4.031  13.604 -0.5197 -0.1687 -0.0725
 3745SOL    HW122868   4.488   3.992  13.520  2.0748  0.3960  0.3518
 3745SOL    HW222869   4.455   4.123  13.581 -1.7109 -0.0875  0.7437
 3746SOL     OW22870   4.283   1.033   8.623  0.2807  0.5836  0.1022
 3746SOL    HW122871   4.288   1.105   8.685 -1.7188  2.8580 -2.3874
 3746SOL    HW222872   4.367   0.991   8.639  0.7370  1.5659  0.2697
 3747SOL     OW22873   2.534   4.590  13.279 -0.2502 -0.2661 -0.1054
 3747SOL    HW122874   2.510   4.538  13.356 -0.7396 -0.2100 -0.2198
 3747SOL    HW222875   2.619   4.616  13.315  0.7742 -0.4595 -2.3929
 3748SOL     OW22876   2.931   2.626   8.819  0.2195  0.1144  0.0763
 3748SOL    HW122877   2.919   2.662   8.907 -3.2406  1.5426 -1.0032
 3748SOL    HW222878   2.995   2.557   8.836  1.2875  0.7909 -1.1599
 3749SOL     OW22879   4.388   3.333   2.374 -0.0854  0.8641  0.0864
 3749SOL    HW122880   4.391   3.428   2.374  0.9666  0.8388 -0.2063
 3749SOL    HW222881   4.295   3.319   2.355  0.5475 -3.8326  0.4906
 3750SOL     OW22882   0.261   2.373   6.774 -0.0083 -0.0910  0.8775
 3750SOL    HW122883   0.236   2.413   6.690  1.7345  2.4855  1.5820
 3750SOL    HW222884   0.295   2.450   6.821 -0.3200  0.7872 -0.3373
 3751SOL     OW22885   0.697   3.637  15.261 -0.1678 -0.4207 -0.1186
 3751SOL    HW122886   0.787   3.606  15.250 -0.2047 -0.2621 -0.8405
 3751SOL    HW222887   0.685   3.688  15.181 -2.4775  0.8989  1.0622
 3752SOL     OW22888   3.500   0.413   1.809  0.2353  0.3500 -0.3411
 3752SOL    HW122889   3.413   0.440   1.839  0.6332  1.8188 -0.4869
 3752SOL    HW222890   3.465   0.355   1.742 -1.6686  1.6523 -0.4881
 3753SOL     OW22891   3.955   2.647   5.924 -0.3118  0.0786  0.2137
 3753SOL    HW122892   3.955   2.639   5.829 -0.5642  1.9612  0.0443
 3753SOL    HW222893   3.952   2.559   5.960 -0.2266  0.0946  0.2609
 3754SOL     OW22894   2.330   0.013   7.723 -0.2472  0.3902  0.0949
 3754SOL    HW122895   2.297   4.662   7.703 -0.9276  0.6338  0.1339
 3754SOL    HW222896   2.422   4.724   7.713 -0.1341  0.8977 -0.1496
 3755SOL     OW22897   0.871   2.576   0.759 -0.1409 -0.4529 -0.1909
 3755SOL    HW122898   0.872   2.626   0.677  0.8801 -2.1176 -1.2014
 3755SOL    HW222899   0.778   2.572   0.779 -0.3212  1.6156 -0.6228
 3756SOL     OW22900   1.866   0.384   3.986  0.4071  0.4992 -0.0907
 3756SOL    HW122901   1.824   0.430   4.059  0.0388  1.1390 -0.7145
 3756SOL    HW222902   1.955   0.404   4.014  0.7271  0.6200 -1.2252
 3757SOL     OW22903   4.706   0.333   6.188 -0.1371  0.1552  0.6322
 3757SOL    HW122904   4.614   0.355   6.174  0.0821 -0.8838 -2.2698
 3757SOL    HW222905   4.721   0.302   6.099 -0.6901 -3.7293  1.9102
 3758SOL     OW22906   1.140   4.363  10.005 -0.1176  0.4050 -0.0570
 3758SOL    HW122907   1.135   4.312  10.086 -0.9564 -0.8259 -0.8754
 3758SOL    HW222908   1.099   4.445  10.033 -1.4383 -0.2617 -0.0401
 3759SOL     OW22909   2.616   4.447   8.551  0.3449 -0.1466 -0.0298
 3759SOL    HW122910   2.572   4.420   8.470 -1.7136  1.0737  0.6898
 3759SOL    HW222911   2.543   4.449   8.612 -0.0728  2.1365 -0.6341
 3760SOL     OW22912   1.087   0.533   6.480 -0.0889  0.4435 -0.1728
 3760SOL    HW122913   1.137   0.484   6.414 -0.8766 -0.4606 -0.1161
 3760SOL    HW222914   0.996   0.516   6.455 -0.0198 -1.5504  0.9279
 3761SOL     OW22915   2.241   3.409   7.318  0.0469  0.1452 -0.1854
 3761SOL    HW122916   2.327   3.368   7.319 -1.1090 -2.2343 -0.4328
 3761SOL    HW222917   2.269   3.497   7.291  1.1735 -0.9445 -2.5820
 3762SOL     OW22918   0.730   4.206   3.467 -0.2490  0.3033  0.3459
 3762SOL    HW122919   0.726   4.265   3.392 -0.8754 -0.9435 -0.6007
 3762SOL    HW222920   0.816   4.165   3.468 -0.8982 -1.0677  0.3383
 3763SOL     OW22921   0.791   2.823   6.334  0.2980 -0.0806  0.0513
 3763SOL    HW122922   0.708   2.869   6.343 -0.8406 -2.0289 -0.5228
 3763SOL    HW222923   0.857   2.877   6.378  0.3450 -0.3268  0.2763
 3764SOL     OW22924   1.046   3.569   6.210  0.0398  0.4383 -0.4316
 3764SOL    HW122925   1.140   3.553   6.200 -0.3307 -0.9636 -1.6429
 3764SOL    HW222926   1.006   3.509   6.147  0.1896 -2.6211  2.3598
 3765SOL     OW22927   2.908   4.346   1.568  0.0281 -0.7134 -0.0968
 3765SOL    HW122928   2.827   4.296   1.558 -0.3905 -0.4391  1.7645
 3765SOL    HW222929   2.980   4.295   1.532  1.2124  0.6101  0.3778
 3766SOL     OW22930   2.198   2.841   2.496  0.7436  0.0874  0.8147
 3766SOL    HW122931   2.106   2.847   2.523  0.2743  1.9999 -1.1994
 3766SOL    HW222932   2.183   2.812   2.406  1.7581  2.2027 -0.0317
 3767SOL     OW22933   2.265   3.285   6.125 -0.7823  0.7097 -0.4748
 3767SOL    HW122934   2.356   3.271   6.153 -1.4465 -2.8914 -0.1312
 3767SOL    HW222935   2.265   3.369   6.079 -1.8407  0.6592 -0.5469
 3768SOL     OW22936   2.243   0.958   2.252 -0.7335 -0.1622 -0.2637
 3768SOL    HW122937   2.269   0.888   2.312 -0.3142 -0.5542 -0.9138
 3768SOL    HW222938   2.247   1.035   2.309 -0.8037 -0.0790 -0.3703
 3769SOL     OW22939   3.986   0.098   8.674 -0.1201 -0.3969 -0.1520
 3769SOL    HW122940   4.017   0.009   8.688 -2.9213 -0.9550  2.3689
 3769SOL    HW222941   3.891   0.088   8.684 -0.1508  0.1697  0.0818
 3770SOL     OW22942   3.138   0.411  16.132 -0.1303 -0.5525  0.2194
 3770SOL    HW122943   3.052   0.402  16.172 -0.2917  1.8307  0.4008
 3770SOL    HW222944   3.117   0.495  16.091 -0.6566 -1.3009 -1.0471
 3771SOL     OW22945   1.671   3.864   4.601  0.0147 -0.2427  0.4985
 3771SOL    HW122946   1.762   3.892   4.609 -0.3793  0.3013  3.0761
 3771SOL    HW222947   1.657   3.867   4.696  4.4559 -0.4560  1.1459
 3772SOL     OW22948   2.811   0.232  13.226 -0.3686  0.8938  0.2686
 3772SOL    HW122949   2.811   0.303  13.161 -0.8433  0.3683 -0.3047
 3772SOL    HW222950   2.716   0.221  13.228  0.0166 -2.7807 -1.2379
 3773SOL     OW22951   3.645   3.586   7.659  0.1780  0.1413 -0.1145
 3773SOL    HW122952   3.630   3.677   7.681  0.6844 -0.4536  2.6139
 3773SOL    HW222953   3.673   3.603   7.569  1.0471 -0.5979  0.0171
 3774SOL     OW22954   2.339   1.148   9.107  0.4712  0.1611  0.5399
 3774SOL    HW122955   2.301   1.061   9.124 -3.1409  1.6861  0.1085
 3774SOL    HW222956   2.304   1.158   9.019 -0.9913 -1.7238  0.9018
 3775SOL     OW22957   0.107   0.819   3.868  0.2799 -0.2158 -0.9340
 3775SOL    HW122958   0.186   0.872   3.860  0.6814 -0.6883 -0.0680
 3775SOL    HW222959   0.103   0.787   3.777 -0.1611 -0.3843 -0.8563
 3776SOL     OW22960   4.284   3.928   7.641  0.1859 -0.5025  1.0287
 3776SOL    HW122961   4.262   3.967   7.556  0.7882 -2.7993 -0.1947
 3776SOL    HW222962   4.202   3.906   7.684 -0.1240 -0.0871  0.6570
 3777SOL     OW22963   1.956   0.463   6.932  0.1776  0.4672 -0.3685
 3777SOL    HW122964   2.047   0.436   6.946 -0.1425 -0.2905  0.2370
 3777SOL    HW222965   1.908   0.416   7.000 -0.1835 -0.2687 -1.1383
 3778SOL     OW22966   4.729   3.088   6.245 -0.1749 -0.3356  0.2682
 3778SOL    HW122967   4.724   3.010   6.300  1.8936 -0.9731 -0.4507
 3778SOL    HW222968   0.071   3.069   6.195 -0.8973  1.0862 -1.4364
 3779SOL     OW22969   1.847   1.343   3.368 -0.0922 -0.2570 -0.1831
 3779SOL    HW122970   1.913   1.312   3.306  0.4113  0.6188 -0.0819
 3779SOL    HW222971   1.821   1.257   3.401 -0.3692  0.1494  0.6764
 3780SOL     OW22972   4.075   4.329   9.625  0.1174  0.6596 -0.7334
 3780SOL    HW122973   4.088   4.253   9.681  0.8672  0.0620 -1.7107
 3780SOL    HW222974   3.995   4.307   9.578 -0.8096  0.2504  1.0442
 3781SOL     OW22975   0.513   3.952  16.653 -0.3177 -0.9486  0.0122
 3781SOL    HW122976   0.424   3.980  16.633 -1.3595 -2.6184  2.2037
 3781SOL    HW222977   0.524   3.876  16.597 -1.0052 -1.3367  0.4111
 3782SOL     OW22978   4.326   0.195  15.527 -0.5493 -0.1483  0.3768
 3782SOL    HW122979   4.236   0.214  15.500 -0.5906 -0.5663  0.2187
 3782SOL    HW222980   4.377   0.176  15.448 -0.2903 -0.1927  0.5565
 3783SOL     OW22981   0.088   4.521   4.361 -0.2728  0.4481 -0.3987
 3783SOL    HW122982   0.103   4.427   4.367 -0.4741  0.5176  0.9921
 3783SOL    HW222983   0.030   4.527   4.284 -1.3835  0.7637  0.4619
 3784SOL     OW22984   0.536   1.000   7.365 -0.0199  0.1090  0.0753
 3784SOL    HW122985   0.608   1.061   7.378 -0.0020  0.0825  0.1005
 3784SOL    HW222986   0.459   1.056   7.379  0.0956  0.5269 -0.9756
 3785SOL     OW22987   3.945   4.101  17.155  0.3708 -0.2568 -0.0705
 3785SOL    HW122988   3.881   4.157  17.198  1.7138  0.8134  0.5417
 3785SOL    HW222989   3.991   4.065  17.231  0.5947 -0.5423 -0.3405
 3786SOL     OW22990   3.887   0.471   7.401  0.0864  0.6233 -0.4837
 3786SOL    HW122991   3.936   0.389   7.396 -0.6127 -0.0102  3.0865
 3786SOL    HW222992   3.908   0.504   7.488 -2.3195  1.2569 -0.1511
 3787SOL     OW22993   1.183   0.118   3.582  0.6108 -0.3666  0.2955
 3787SOL    HW122994   1.095   0.082   3.572  0.5874  0.1362 -1.2740
 3787SOL    HW222995   1.167   0.209   3.557  4.7079 -0.1883 -1.6867
 3788SOL     OW22996   2.385   0.520  10.479  0.1318 -0.4148  0.1581
 3788SOL    HW122997   2.386   0.586  10.409  1.9867  0.7383  1.2581
 3788SOL    HW222998   2.296   0.523  10.514  0.7947  0.4280  1.7580
 3789SOL     OW22999   0.892   4.132  17.373  0.0525  0.1510 -0.3212
 3789SOL    HW123000   0.980   4.156  17.404  0.0990  0.4228 -0.6575
 3789SOL    HW223001   0.851   4.147  17.458  0.8372  1.0120 -0.0832
 3790SOL     OW23002   1.689   2.152   5.876 -0.0728  0.0387 -0.3451
 3790SOL    HW123003   1.610   2.136   5.928 -0.6123  0.3054 -1.0760
 3790SOL    HW223004   1.675   2.107   5.793  1.5718  0.0214 -0.6072
 3791SOL     OW23005   2.334   3.210   8.357  0.1698 -0.3897 -0.2952
 3791SOL    HW123006   2.373   3.288   8.319 -2.4142  0.9540 -0.2420
 3791SOL    HW223007   2.408   3.151   8.364  0.0753 -0.3425  1.0685
 3792SOL     OW23008   0.595   2.441   3.120  0.1919  0.0328  0.6815
 3792SOL    HW123009   0.669   2.394   3.157  1.3532  0.6156 -0.8952
 3792SOL    HW223010   0.555   2.372   3.068 -2.1075  0.6494  1.6468
 3793SOL     OW23011   1.516   3.389  16.875  0.0571 -0.6186  0.1446
 3793SOL    HW123012   1.587   3.361  16.933  0.7629 -0.6031 -0.7120
 3793SOL    HW223013   1.543   3.474  16.840 -0.4467  0.3944  2.2426
 3794SOL     OW23014   2.971   2.367   6.101  0.6766 -0.3824 -0.1445
 3794SOL    HW123015   3.059   2.405   6.097 -0.1860  2.0200  3.3047
 3794SOL    HW223016   2.983   2.274   6.085  0.9372  0.2040 -3.3746
 3795SOL     OW23017   2.778   0.240   3.699  0.5727  0.7029  0.2214
 3795SOL    HW123018   2.764   0.240   3.604  2.0294  3.1617  0.0060
 3795SOL    HW223019   2.697   0.193   3.720  1.7632 -0.9305  1.0999
 3796SOL     OW23020   2.905   0.893  12.506 -0.1664 -0.4808 -0.4028
 3796SOL    HW123021   2.936   0.830  12.441  0.7440  0.6718 -1.0726
 3796SOL    HW223022   2.965   0.965  12.487 -0.1071 -0.6813 -0.9788
 3797SOL     OW23023   2.633   2.847  11.137  0.3332  0.6104 -0.1691
 3797SOL    HW123024   2.649   2.938  11.159  0.2686  0.6692 -0.3705
 3797SOL    HW223025   2.716   2.800  11.136 -0.7654 -1.3782  0.1294
 3798SOL     OW23026   4.587   3.169   2.887  0.1405 -0.3676 -0.0103
 3798SOL    HW123027   4.647   3.238   2.860 -1.5985  0.8886 -0.7187
 3798SOL    HW223028   4.511   3.224   2.908  0.2623 -1.9305  4.5547
 3799SOL     OW23029   0.815   3.063   5.583  0.0551 -0.0298 -0.1976
 3799SOL    HW123030   0.757   3.131   5.547 -0.9124 -0.2947  0.8552
 3799SOL    HW223031   0.808   3.078   5.677  1.3869 -2.1791  0.2398
 3800SOL     OW23032   2.970   0.876   2.658 -0.3709 -0.3557  0.0755
 3800SOL    HW123033   2.910   0.834   2.720  0.8846  2.1859  3.0315
 3800SOL    HW223034   3.050   0.878   2.711  0.6548 -0.9583 -1.4557
 3801SOL     OW23035   2.433   0.283  16.296 -0.2936  0.0860 -0.1738
 3801SOL    HW123036   2.520   0.305  16.262  0.2061  0.3397  1.2937
 3801SOL    HW223037   2.442   0.199  16.341 -2.2195 -0.5003 -0.8806
 3802SOL     OW23038   2.112   1.219   6.937 -0.0446 -0.6494 -0.3852
 3802SOL    HW123039   2.207   1.236   6.931 -0.7181  2.0608 -3.5295
 3802SOL    HW223040   2.114   1.165   7.015 -0.4972 -0.3478 -0.1688
 3803SOL     OW23041   1.290   2.024   8.057  0.0459 -0.4225 -0.1833
 3803SOL    HW123042   1.323   2.070   7.980  0.7331 -0.2587  0.2111
 3803SOL    HW223043   1.265   1.940   8.017 -2.2232  0.4630 -0.6278
 3804SOL     OW23044   2.517   0.527  17.059 -0.3727  0.7250 -0.1608
 3804SOL    HW123045   2.455   0.477  17.111 -0.5087  1.3484  0.2679
 3804SOL    HW223046   2.579   0.459  17.031  1.3718  1.8444  1.0063
 3805SOL     OW23047   0.149   1.323   6.266  0.0376  0.2062  0.2815
 3805SOL    HW123048   0.132   1.238   6.226  0.0077  0.5489 -0.4371
 3805SOL    HW223049   0.175   1.289   6.352 -2.3946 -1.0023  0.5302
 3806SOL     OW23050   2.043   3.697   9.845 -0.0399 -0.4767 -0.0974
 3806SOL    HW123051   2.071   3.772   9.792 -2.1243  0.7280  0.5098
 3806SOL    HW223052   2.019   3.738   9.928  2.1316 -0.0566  0.3447
 3807SOL     OW23053   1.831   0.196   2.201  1.3731  0.5910  0.2816
 3807SOL    HW123054   1.779   0.253   2.257  0.1045 -1.3989  1.1466
 3807SOL    HW223055   1.794   0.110   2.220  3.4566 -0.1313  1.1048
 3808SOL     OW23056   0.438   3.285   6.476  0.2779 -0.0437 -0.3758
 3808SOL    HW123057   0.355   3.239   6.462  0.0211  0.5987 -0.9081
 3808SOL    HW223058   0.408   3.369   6.510  0.0377 -0.1844 -0.2382
 3809SOL     OW23059   4.144   3.846   8.897  0.5973  0.0031  0.8431
 3809SOL    HW123060   4.079   3.876   8.961 -0.8891 -1.0145 -0.2000
 3809SOL    HW223061   4.169   3.932   8.864 -2.2577  0.5701  0.1159
 3810SOL     OW23062   4.393   1.024  11.736  0.0366 -0.2339  0.0431
 3810SOL    HW123063   4.347   1.092  11.687 -0.7798  0.5680  1.8999
 3810SOL    HW223064   4.322   0.960  11.738 -0.2121  0.0387  0.0135
 3811SOL     OW23065   0.526   2.365   2.126 -0.7816 -0.4186 -0.2945
 3811SOL    HW123066   0.540   2.283   2.077  2.0794 -0.1402  0.0158
 3811SOL    HW223067   0.476   2.336   2.202  3.1435  0.3063  2.5396
 3812SOL     OW23068   0.029   4.116   5.675 -0.3891 -0.1412 -0.3419
 3812SOL    HW123069   0.030   4.060   5.752  0.1795  0.9393  0.4387
 3812SOL    HW223070   4.674   4.110   5.651 -0.1659 -1.4611 -0.8662
 3813SOL     OW23071   0.363   3.162   9.206  0.0431  0.3269 -0.2204
 3813SOL    HW123072   0.338   3.086   9.153 -1.9577 -0.1326  1.4071
 3813SOL    HW223073   0.344   3.232   9.143 -3.2732 -1.3171 -1.0452
 3814SOL     OW23074   2.096   1.034   4.881 -0.5939  0.4839  0.6659
 3814SOL    HW123075   2.007   1.009   4.855 -0.1320 -0.8726  0.4023
 3814SOL    HW223076   2.126   1.081   4.804  1.2197 -0.1615  0.9833
 3815SOL     OW23077   3.417   0.725   9.179  0.0059  0.8015 -0.4080
 3815SOL    HW123078   3.505   0.692   9.162  0.3202  1.4599 -0.0695
 3815SOL    HW223079   3.423   0.775   9.260  0.6025 -0.0505  0.0655
 3816SOL     OW23080   2.001   1.764   7.317  1.2701 -0.8617 -0.0141
 3816SOL    HW123081   2.033   1.695   7.375  3.4213 -1.3610 -1.7864
 3816SOL    HW223082   2.081   1.804   7.282 -0.2539  1.4819 -0.7650
 3817SOL     OW23083   3.930   2.986   2.862  0.2569 -0.3596 -0.3770
 3817SOL    HW123084   3.909   2.897   2.835 -0.4552  0.0479 -1.1557
 3817SOL    HW223085   3.866   2.993   2.933 -0.6456 -0.1148 -1.2124
 3818SOL     OW23086   4.384   3.338  11.696 -0.1119  0.8140  0.1655
 3818SOL    HW123087   4.311   3.371  11.749 -1.0877  0.9406 -1.2873
 3818SOL    HW223088   4.372   3.245  11.715  1.3165  0.9524  1.7862
 3819SOL     OW23089   2.738   0.294   1.089  0.2641  0.1073 -0.0447
 3819SOL    HW123090   2.760   0.331   1.003 -0.5906  1.5411  0.3464
 3819SOL    HW223091   2.675   0.361   1.116  2.1178  1.5822  0.6161
 3820SOL     OW23092   0.367   1.046   2.612 -0.0669 -0.0561  0.2084
 3820SOL    HW123093   0.371   1.006   2.526  3.0830 -0.0524  0.3464
 3820SOL    HW223094   0.459   1.057   2.636  0.4388  0.0362 -1.7730
 3821SOL     OW23095   4.385   3.687   4.419 -0.2338 -0.7547  0.0936
 3821SOL    HW123096   4.359   3.595   4.405  0.2524 -0.9890  0.7448
 3821SOL    HW223097   4.475   3.681   4.449 -0.1998 -0.0472  0.1203
 3822SOL     OW23098   2.756   1.727   3.052 -0.3004 -0.0344 -0.1559
 3822SOL    HW123099   2.827   1.751   3.110 -1.8898  0.7262  1.4673
 3822SOL    HW223100   2.683   1.739   3.112  0.0650 -0.1406  0.3099
 3823SOL     OW23101   3.725   2.461   8.784 -0.5362 -0.0816 -0.0655
 3823SOL    HW123102   3.783   2.387   8.764 -0.1748  0.0696  0.4218
 3823SOL    HW223103   3.786   2.534   8.775  1.3677 -1.6561 -0.2588
 3824SOL     OW23104   3.756   4.658   7.319 -0.0415 -0.1436 -0.2982
 3824SOL    HW123105   3.739   4.686   7.408  0.3188  1.7517 -0.8076
 3824SOL    HW223106   3.684   4.690   7.264  0.7313  2.2041  0.0285
 3825SOL     OW23107   3.328   0.489   2.853 -0.3864 -0.7287  0.4494
 3825SOL    HW123108   3.323   0.566   2.909  0.8469  0.3884 -0.9834
 3825SOL    HW223109   3.402   0.457   2.904 -0.7989  1.8329  2.6461
 3826SOL     OW23110   3.654   4.004   2.137 -0.2126  0.2472 -0.1338
 3826SOL    HW123111   3.592   3.974   2.204 -2.7310  2.1926 -1.5793
 3826SOL    HW223112   3.704   3.926   2.114  0.3591  0.5967 -0.0784
 3827SOL     OW23113   2.901   3.759   1.061  0.3153 -0.4019  0.1096
 3827SOL    HW123114   2.972   3.821   1.074  0.5361 -0.5373 -0.4488
 3827SOL    HW223115   2.907   3.727   1.151 -0.8054 -0.3769  0.1977
 3828SOL     OW23116   1.363   4.491   4.326  0.1984  0.1437  0.3532
 3828SOL    HW123117   1.293   4.427   4.321  0.1888  0.2948 -1.4857
 3828SOL    HW223118   1.389   4.489   4.234  2.1053 -0.4720  0.9011
 3829SOL     OW23119   0.643   4.145   4.004  0.3555  0.4131  0.0873
 3829SOL    HW123120   0.738   4.146   4.011  0.3677 -0.6851  0.1287
 3829SOL    HW223121   0.629   4.164   3.911  0.0828  0.9893  0.2453
 3830SOL     OW23122   3.903   4.410   7.604 -0.0505 -0.0824 -0.4069
 3830SOL    HW123123   3.829   4.408   7.544 -0.5119  0.6962  0.1437
 3830SOL    HW223124   3.880   4.326   7.644 -0.1233 -0.2386 -0.7783
 3831SOL     OW23125   2.309   3.665   7.267  0.0300  0.4553  0.5883
 3831SOL    HW123126   2.337   3.647   7.177  0.9809  2.5178  0.4790
 3831SOL    HW223127   2.216   3.685   7.250 -0.3037 -1.3763  0.2299
 3832SOL     OW23128   4.047   0.283   1.676 -0.1757  0.1367 -0.0826
 3832SOL    HW123129   4.013   0.257   1.761 -0.9264  1.1805 -0.0596
 3832SOL    HW223130   3.961   0.309   1.643 -0.5682 -0.7102  0.2831
 3833SOL     OW23131   0.233   1.170  12.327  0.0570 -0.4929  0.0207
 3833SOL    HW123132   0.214   1.094  12.273 -2.4928 -0.6694  1.1551
 3833SOL    HW223133   0.321   1.189  12.293 -0.5226 -1.5986 -2.0561
 3834SOL     OW23134   4.318   4.278   5.626 -0.1319 -0.4638  0.1112
 3834SOL    HW123135   4.254   4.323   5.681  0.0794  0.1781 -0.1714
 3834SOL    HW223136   4.304   4.293   5.532 -0.4259  0.1849  0.2578
 3835SOL     OW23137   4.117   1.384   7.502 -0.6884 -0.7054  0.3350
 3835SOL    HW123138   4.072   1.466   7.483 -0.3826  0.3426  4.0560
 3835SOL    HW223139   4.187   1.377   7.437 -0.7624  1.6735  0.0118
 3836SOL     OW23140   2.532   3.714   6.359  0.3046 -0.3945  0.0624
 3836SOL    HW123141   2.542   3.724   6.265  0.1102 -0.7065  0.0061
 3836SOL    HW223142   2.617   3.675   6.382  0.1275 -1.1093 -0.5103
 3837SOL     OW23143   1.578   4.733   7.654 -0.3591  0.1602 -0.0127
 3837SOL    HW123144   1.512   4.669   7.680  1.3189 -1.9324 -0.9904
 3837SOL    HW223145   1.618   4.693   7.577  0.1136 -0.5173  0.5904
 3838SOL     OW23146   1.323   3.505   3.410  0.7468 -0.5964  0.4039
 3838SOL    HW123147   1.382   3.502   3.485  0.9119  3.9404  0.4552
 3838SOL    HW223148   1.355   3.583   3.365  1.5348 -0.9186  0.4072
 3839SOL     OW23149   1.546   2.903   9.597 -0.2815 -0.0927  0.9690
 3839SOL    HW123150   1.516   2.900   9.687 -0.7882 -1.0890  0.7662
 3839SOL    HW223151   1.619   2.966   9.603 -0.0043 -0.1867 -1.1137
 3840SOL     OW23152   1.796   3.520   3.495  0.1529  0.2562 -0.1937
 3840SOL    HW123153   1.725   3.455   3.488 -0.9484  1.5101 -0.6189
 3840SOL    HW223154   1.747   3.594   3.532 -1.2063 -0.3305 -0.7851
 3841SOL     OW23155   0.838   2.005   7.617  0.3748 -0.2519  0.2040
 3841SOL    HW123156   0.800   2.050   7.542  0.4992 -1.4670 -0.5672
 3841SOL    HW223157   0.886   1.929   7.585  0.5486 -0.2899  0.5495
 3842SOL     OW23158   3.884   0.512   8.784 -0.0919 -0.2281 -0.2526
 3842SOL    HW123159   3.911   0.564   8.859  2.0575  0.7212 -1.6648
 3842SOL    HW223160   3.971   0.484   8.753  0.1174  1.2827 -1.0242
 3843SOL     OW23161   4.226   2.107   6.841  0.1775 -0.0488  0.2733
 3843SOL    HW123162   4.289   2.099   6.769 -1.1487  0.1997 -0.9322
 3843SOL    HW223163   4.246   2.200   6.855  1.9584 -0.7197  2.1392
 3844SOL     OW23164   2.187   4.358   7.480 -0.1098  0.1098 -0.1015
 3844SOL    HW123165   2.258   4.346   7.417  1.7261  1.5388  1.6806
 3844SOL    HW223166   2.146   4.272   7.492 -0.6311  0.2010 -1.1990
 3845SOL     OW23167   3.714   2.054   8.237 -0.1193  0.2258  0.2260
 3845SOL    HW123168   3.779   1.994   8.272 -0.6522 -0.0155  0.7996
 3845SOL    HW223169   3.705   2.031   8.144 -1.5304 -0.4613  0.5378
 3846SOL     OW23170   2.506   3.356  16.438  0.1046 -0.7563 -0.1027
 3846SOL    HW123171   2.554   3.411  16.501  0.5621 -0.4874 -0.6834
 3846SOL    HW223172   2.472   3.417  16.372 -0.3797  1.1232  1.8837
 3847SOL     OW23173   2.125   0.450   9.591 -0.2627  0.0690  0.1170
 3847SOL    HW123174   2.108   0.543   9.606  0.4432  0.2698 -0.3071
 3847SOL    HW223175   2.071   0.417   9.663  2.7364 -0.1931  2.2556
 3848SOL     OW23176   3.837   0.401   8.352  0.0427  0.0525 -0.1009
 3848SOL    HW123177   3.913   0.346   8.329 -0.2309  0.6382 -2.2933
 3848SOL    HW223178   3.863   0.406   8.445  0.0009 -3.2516  0.1051
 3849SOL     OW23179   4.684   3.259  15.979  0.7763  0.0180  0.0320
 3849SOL    HW123180   4.639   3.328  16.028  1.4146 -0.1868  0.9193
 3849SOL    HW223181   4.685   3.293  15.890  1.8841  0.6673  0.2839
 3850SOL     OW23182   3.124   4.195   7.371 -0.3939 -0.7013 -0.0822
 3850SOL    HW123183   3.208   4.212   7.327 -0.6647 -1.9580 -1.0625
 3850SOL    HW223184   3.119   4.100   7.376  1.4303 -0.8750 -1.7120
 3851SOL     OW23185   0.419   1.645   6.406 -0.2762  0.7505 -0.1162
 3851SOL    HW123186   0.353   1.686   6.350 -1.6732 -2.0067 -0.4857
 3851SOL    HW223187   0.427   1.562   6.358 -2.0359  1.0980 -1.0184
 3852SOL     OW23188   3.870   2.907  13.635 -0.3167  0.0271  0.4089
 3852SOL    HW123189   3.897   2.998  13.648  0.1249 -0.5558  3.5260
 3852SOL    HW223190   3.835   2.913  13.546 -1.2564 -1.4885  0.6733
 3853SOL     OW23191   0.611   2.566   6.084  0.0179 -0.1558 -0.2228
 3853SOL    HW123192   0.539   2.505   6.065 -1.4557  1.2688  0.8422
 3853SOL    HW223193   0.682   2.502   6.085  0.0684 -0.1050 -0.4478
 3854SOL     OW23194   3.179   0.082   0.017 -0.0597 -0.0855  0.1147
 3854SOL    HW123195   3.242   0.058   0.085 -1.2566 -0.4822  1.0918
 3854SOL    HW223196   3.105   0.040   0.061  1.9493 -4.0156 -0.3066
 3855SOL     OW23197   1.777   1.584  10.470 -0.2602  0.6804  0.2398
 3855SOL    HW123198   1.740   1.500  10.445  1.8715 -0.2748  0.2907
 3855SOL    HW223199   1.698   1.638  10.473 -2.1207 -1.9435 -1.7035
 3856SOL     OW23200   4.198   1.503   5.348 -0.0446  0.8515  0.1824
 3856SOL    HW123201   4.126   1.531   5.404 -0.9910 -0.1445 -0.5299
 3856SOL    HW223202   4.238   1.443   5.411 -4.4197  0.9312  3.0340
 3857SOL     OW23203   0.496   1.853   6.086  0.2720  0.1275  0.0301
 3857SOL    HW123204   0.425   1.917   6.090 -0.7277 -0.8487 -2.6077
 3857SOL    HW223205   0.531   1.850   6.175  1.4497  0.0406 -0.4283
 3858SOL     OW23206   2.648   3.377  11.361  0.4214 -0.1412 -0.3476
 3858SOL    HW123207   2.689   3.426  11.432  0.3667  0.2560 -0.5877
 3858SOL    HW223208   2.682   3.420  11.282 -0.2159  0.4930 -0.2800
 3859SOL     OW23209   3.667   4.438   4.160 -0.5400 -0.0258  0.4373
 3859SOL    HW123210   3.659   4.509   4.096  0.1567 -1.7583 -1.5534
 3859SOL    HW223211   3.579   4.401   4.170 -0.2760 -0.9944 -0.7307
 3860SOL     OW23212   4.283   2.217   8.398  0.3138 -0.8029 -0.1895
 3860SOL    HW123213   4.357   2.217   8.460  0.8675 -0.0685 -0.8443
 3860SOL    HW223214   4.310   2.141   8.345 -3.2237 -1.8950 -0.3925
 3861SOL     OW23215   4.175   1.437   7.785 -0.1467 -0.7591  0.3478
 3861SOL    HW123216   4.101   1.431   7.846  1.1646 -0.7027  1.9399
 3861SOL    HW223217   4.132   1.429   7.699 -0.0688  0.2758  0.2088
 3862SOL     OW23218   4.413   4.272  13.505 -0.1249  0.1585  0.5317
 3862SOL    HW123219   4.415   4.305  13.415 -3.3430 -0.3780  0.2593
 3862SOL    HW223220   4.320   4.267  13.527  0.4705 -0.9488  2.8611
 3863SOL     OW23221   1.111   1.071   3.262 -0.4046  0.2756 -0.0187
 3863SOL    HW123222   1.041   1.047   3.323  2.9873  0.1452  3.8335
 3863SOL    HW223223   1.137   1.148   3.313 -1.0543  0.8355 -0.5359
 3864SOL     OW23224   3.297   4.501   9.469 -0.3673  0.1704 -0.3755
 3864SOL    HW123225   3.376   4.540   9.432  1.6122 -1.5807  1.9927
 3864SOL    HW223226   3.232   4.545   9.414  0.6913  1.7853 -0.3508
 3865SOL     OW23227   2.555   3.976   9.144 -0.0877  0.3718  0.0182
 3865SOL    HW123228   2.502   3.984   9.065 -0.2913  0.2791  0.1440
 3865SOL    HW223229   2.529   4.063   9.175  0.6180  1.0006 -1.1614
 3866SOL     OW23230   4.530   4.208   6.349 -0.0815  0.6520  0.0975
 3866SOL    HW123231   4.566   4.195   6.262  0.8117  0.3550  0.5142
 3866SOL    HW223232   4.594   4.182   6.416  0.6747 -0.1746 -0.9561
 3867SOL     OW23233   4.116   0.624   7.206 -0.5213 -0.2271 -0.2093
 3867SOL    HW123234   4.100   0.541   7.162  0.2025 -1.2874  1.5005
 3867SOL    HW223235   4.039   0.677   7.190 -0.8370 -0.5088  0.3775
 3868SOL     OW23236   3.173   2.279  12.102  0.3692  0.5850  0.0505
 3868SOL    HW123237   3.195   2.319  12.186 -0.0273 -0.5833  0.7255
 3868SOL    HW223238   3.094   2.325  12.076  0.6780  2.1866  1.9455
 3869SOL     OW23239   0.835   0.943   6.811 -0.5098  0.2301 -0.2708
 3869SOL    HW123240   0.768   0.998   6.771  0.4247 -0.1556 -2.3483
 3869SOL    HW223241   0.891   0.944   6.734 -2.2992  2.3016 -1.5171
 3870SOL     OW23242   3.313   3.067   2.231 -0.2303 -0.2954 -0.5930
 3870SOL    HW123243   3.254   3.025   2.293 -0.9360  2.0295  0.2949
 3870SOL    HW223244   3.304   3.154   2.270  0.4372 -0.6841  0.4316
 3871SOL     OW23245   2.243   0.883   4.615  0.0764 -0.1513 -0.1982
 3871SOL    HW123246   2.338   0.894   4.620  0.2254 -0.7758 -1.4241
 3871SOL    HW223247   2.212   0.973   4.624  1.2026  0.0398  1.7946
 3872SOL     OW23248   1.225   1.294   3.445  0.2259 -0.6516 -0.1033
 3872SOL    HW123249   1.249   1.248   3.526  1.6576  1.7473  0.8288
 3872SOL    HW223250   1.168   1.364   3.474  0.1601 -0.0825 -1.6203
 3873SOL     OW23251   2.986   1.621   3.369 -0.0992 -0.4849  0.3164
 3873SOL    HW123252   2.936   1.686   3.319  0.6690  0.0591  0.2524
 3873SOL    HW223253   3.068   1.624   3.321 -0.5867  1.5791 -0.3777
 3874SOL     OW23254   1.617   3.551   4.230 -0.7395  0.1180  0.5225
 3874SOL    HW123255   1.544   3.606   4.257  0.0484 -0.1426  3.2742
 3874SOL    HW223256   1.590   3.467   4.268  0.4475 -0.4345  0.1515
 3875SOL     OW23257   3.301   3.028  13.475 -0.1721  0.0391 -0.3342
 3875SOL    HW123258   3.330   2.986  13.395  2.0947 -0.2034  0.6115
 3875SOL    HW223259   3.372   3.004  13.535 -0.4629  0.0592  0.0195
 3876SOL     OW23260   3.170   0.451   1.861  1.1613  0.0736  0.4511
 3876SOL    HW123261   3.107   0.498   1.806  0.8922 -1.1607 -0.3157
 3876SOL    HW223262   3.149   0.360   1.837  1.4327 -0.0411  0.6570
 3877SOL     OW23263   2.231   1.798   7.131 -0.3099 -0.7723  0.2983
 3877SOL    HW123264   2.298   1.804   7.199  2.0003 -0.8721 -1.9719
 3877SOL    HW223265   2.223   1.889   7.102  1.1098 -0.2905  1.4121
 3878SOL     OW23266   0.813   3.813   6.018 -0.1955  0.0012  0.4891
 3878SOL    HW123267   0.907   3.825   6.003 -0.6868 -0.0020 -2.4783
 3878SOL    HW223268   0.818   3.773   6.105  0.6378  0.7250  0.7795
 3879SOL     OW23269   0.455   4.501   5.809  0.0396  0.3288  0.2933
 3879SOL    HW123270   0.419   4.428   5.859 -1.0717  0.7325  0.0780
 3879SOL    HW223271   0.534   4.463   5.768  0.4098 -0.8400  2.0906
 3880SOL     OW23272   0.244   0.610   3.307  0.5324  0.0966  0.0211
 3880SOL    HW123273   0.220   0.538   3.249 -0.8063  0.5407  0.0321
 3880SOL    HW223274   0.329   0.586   3.344  0.6553  1.3678  0.5679
 3881SOL     OW23275   1.027   3.862   8.340  0.2639 -0.5996 -0.2056
 3881SOL    HW123276   1.114   3.827   8.320  0.7698  1.6284 -1.8314
 3881SOL    HW223277   0.987   3.862   8.253 -1.6885 -0.2610  0.6833
 3882SOL     OW23278   2.728   0.121   6.656 -0.1360  0.0460 -0.4682
 3882SOL    HW123279   2.686   0.174   6.723  1.0731 -1.9316  1.8340
 3882SOL    HW223280   2.696   0.166   6.577 -2.1768  0.4470  0.5980
 3883SOL     OW23281   4.568   2.583   2.854 -1.2616  0.5630 -0.0695
 3883SOL    HW123282   4.650   2.564   2.807 -1.2064  0.2821  0.1373
 3883SOL    HW223283   4.581   2.677   2.862  0.8602  0.1850  0.9452
 3884SOL     OW23284   2.202   4.383   2.958  0.1567  0.5185 -0.0027
 3884SOL    HW123285   2.231   4.464   2.917  0.4817  0.7709  0.7152
 3884SOL    HW223286   2.284   4.334   2.953 -0.0179  0.2551 -0.2768
 3885SOL     OW23287   1.651   4.415   5.052  0.1090 -0.2807 -0.4906
 3885SOL    HW123288   1.682   4.327   5.033  1.5313  0.5448 -2.0097
 3885SOL    HW223289   1.604   4.429   4.970  0.7829  2.2625 -0.4526
 3886SOL     OW23290   0.542   4.426  12.524 -0.5498 -1.5419 -0.4073
 3886SOL    HW123291   0.470   4.364  12.531 -1.1950 -0.6068  1.2361
 3886SOL    HW223292   0.531   4.466  12.611 -1.8972 -0.6097 -1.0135
 3887SOL     OW23293   4.262   1.084   4.292  0.4024  0.0181  0.1563
 3887SOL    HW123294   4.254   1.171   4.251 -0.9476  0.2990  1.0208
 3887SOL    HW223295   4.248   1.031   4.213 -0.3845  0.8954 -0.2944
 3888SOL     OW23296   3.989   2.835  16.394  0.1186  0.2533 -0.2835
 3888SOL    HW123297   3.904   2.792  16.389  0.4194 -0.3967  0.1736
 3888SOL    HW223298   4.029   2.795  16.471 -0.8951  0.2509  0.2407
 3889SOL     OW23299   1.733   2.163   6.805 -0.2885  0.4760 -0.0326
 3889SOL    HW123300   1.735   2.205   6.720 -0.1772 -0.7315 -0.6252
 3889SOL    HW223301   1.684   2.228   6.855 -1.9887  0.2559 -1.4057
 3890SOL     OW23302   1.201   3.432   3.687  0.9290  0.3474  0.1572
 3890SOL    HW123303   1.287   3.453   3.723  1.1114  0.3902 -0.3069
 3890SOL    HW223304   1.202   3.500   3.620  0.0583  1.9741  1.7842
 3891SOL     OW23305   3.489   2.125   6.805 -0.1311 -1.3066 -0.1144
 3891SOL    HW123306   3.455   2.214   6.802  0.4591 -1.0004  1.7467
 3891SOL    HW223307   3.488   2.092   6.715  0.5045  1.2804 -1.0714
 3892SOL     OW23308   2.317   1.325   5.165 -0.0667 -0.1769 -0.5111
 3892SOL    HW123309   2.230   1.330   5.205  0.8915 -0.1378  1.5648
 3892SOL    HW223310   2.350   1.238   5.188  2.1495  1.8850  4.1001
 3893SOL     OW23311   0.998   2.760  16.636  0.0641  0.0722  0.1669
 3893SOL    HW123312   0.903   2.771  16.644  0.0343 -0.3768  0.4470
 3893SOL    HW223313   1.034   2.795  16.717  0.6772 -1.6490  0.6497
 3894SOL     OW23314   4.340   0.136   8.958  0.1815  0.0439  0.3186
 3894SOL    HW123315   4.407   0.101   8.899  1.3209  2.3225  0.2964
 3894SOL    HW223316   4.283   0.178   8.893 -0.6689 -1.3725  0.1251
 3895SOL     OW23317   2.898   2.976   4.390 -0.0745 -0.0897 -0.5241
 3895SOL    HW123318   2.892   3.049   4.451  0.9334  0.4340 -1.0645
 3895SOL    HW223319   2.920   3.027   4.313  1.3466 -0.6785 -0.5087
 3896SOL     OW23320   4.305   2.441   2.151 -0.2967  0.9541 -0.5929
 3896SOL    HW123321   4.351   2.516   2.113 -0.5057  1.4943  0.2174
 3896SOL    HW223322   4.380   2.405   2.199 -0.7230  1.3377  0.3645
 3897SOL     OW23323   2.289   1.461   4.887 -0.1785  0.1884  0.7473
 3897SOL    HW123324   2.226   1.533   4.886 -1.5844 -1.0082  1.9591
 3897SOL    HW223325   2.272   1.424   4.974  1.7113  0.2146  1.1226
 3898SOL     OW23326   0.736   2.179  12.114 -0.6296 -0.2612 -0.1604
 3898SOL    HW123327   0.650   2.143  12.137 -0.0261 -1.4498  0.2104
 3898SOL    HW223328   0.763   2.108  12.056  0.3998 -0.5757  0.7081
 3899SOL     OW23329   0.378   2.055   8.123  0.0472 -0.1496 -0.1333
 3899SOL    HW123330   0.357   2.121   8.190  0.2678  0.0252 -0.2332
 3899SOL    HW223331   0.395   2.105   8.043  1.4065  0.8476  0.7751
 3900SOL     OW23332   0.717   2.724   6.583 -0.3392  0.5925 -0.5509
 3900SOL    HW123333   0.751   2.643   6.621  2.2371  2.6038  1.4318
 3900SOL    HW223334   0.739   2.706   6.492  0.6818 -1.2443  0.0600
 3901SOL     OW23335   1.860   2.140   4.367  1.1959  0.2607  0.7875
 3901SOL    HW123336   1.888   2.179   4.450  0.4875  2.6092 -0.0843
 3901SOL    HW223337   1.771   2.114   4.391  1.3932 -1.1729 -0.0563
 3902SOL     OW23338   0.898   0.815  10.687  0.6921 -0.4705  0.1430
 3902SOL    HW123339   0.930   0.811  10.777 -2.6083 -0.4724  1.3072
 3902SOL    HW223340   0.912   0.906  10.661 -0.2251 -0.5093 -0.5031
 3903SOL     OW23341   3.322   4.631   6.917 -0.6433  0.5712  0.0093
 3903SOL    HW123342   3.354   4.541   6.919 -1.9799  0.1037  0.5586
 3903SOL    HW223343   3.399   4.683   6.894 -0.9098  1.3405  0.8737
 3904SOL     OW23344   1.713   2.115   7.785  0.0239 -0.0308 -0.1507
 3904SOL    HW123345   1.644   2.058   7.752  0.2670 -0.8980  0.8403
 3904SOL    HW223346   1.766   2.125   7.705 -0.1061 -0.9884 -0.3655
 3905SOL     OW23347   0.595   3.204   7.581 -0.1244  0.2692  0.0533
 3905SOL    HW123348   0.505   3.185   7.556 -0.3724  2.3905 -0.6436
 3905SOL    HW223349   0.623   3.134   7.640 -0.7192 -0.7841 -0.9094
 3906SOL     OW23350   1.022   1.644   2.485 -0.0662  0.1859 -0.2263
 3906SOL    HW123351   0.932   1.667   2.462 -0.6830 -2.3900 -0.3563
 3906SOL    HW223352   1.008   1.550   2.490  1.4911 -0.0158  0.4726
 3907SOL     OW23353   2.850   1.510   8.876  0.3334  0.5914  0.5202
 3907SOL    HW123354   2.860   1.548   8.789 -0.2857  1.3050  0.7655
 3907SOL    HW223355   2.756   1.518   8.894 -0.0251 -1.3404 -0.4817
 3908SOL     OW23356   2.714   3.959   6.333 -0.0677  0.0060 -0.5206
 3908SOL    HW123357   2.639   3.955   6.393  0.8933  0.8198  0.7212
 3908SOL    HW223358   2.681   3.914   6.255  0.7856  0.5416 -1.1994
 3909SOL     OW23359   2.804   1.874  16.693 -0.3570 -0.6307 -0.3742
 3909SOL    HW123360   2.851   1.951  16.726  2.1937 -2.0161 -0.7848
 3909SOL    HW223361   2.711   1.883  16.715 -0.3968 -1.9784  0.0345
 3910SOL     OW23362   0.848   3.056   7.901  0.3417 -0.1117 -0.0927
 3910SOL    HW123363   0.782   3.024   7.964  0.1256  0.2025 -0.1611
 3910SOL    HW223364   0.779   3.068   7.836 -0.4187 -0.8763  0.5481
 3911SOL     OW23365   0.644   1.115   6.761 -0.5277 -0.0617 -0.7443
 3911SOL    HW123366   0.595   1.130   6.842  0.1249  2.3896 -0.7963
 3911SOL    HW223367   0.591   1.043   6.727  0.8982  1.1458 -5.4980
 3912SOL     OW23368   3.737   3.657  13.333  0.2338 -0.4729 -0.6809
 3912SOL    HW123369   3.815   3.710  13.348 -0.5147 -0.0398  1.6010
 3912SOL    HW223370   3.748   3.631  13.241 -1.1547 -0.5943 -0.8229
 3913SOL     OW23371   4.618   3.012   6.637  0.0374  0.1727  0.0772
 3913SOL    HW123372   4.565   3.060   6.574  0.7044  1.2129  0.3142
 3913SOL    HW223373   4.588   2.923   6.619  2.5144 -0.6966  0.2407
 3914SOL     OW23374   1.134   4.696   3.171 -0.0081 -0.0814  0.2802
 3914SOL    HW123375   1.193   4.697   3.246 -0.6837 -2.0469  0.8171
 3914SOL    HW223376   1.186   4.692   3.091  0.6290  0.8914  0.6437
 3915SOL     OW23377   3.804   0.302   2.572  0.2009  0.1449 -0.1047
 3915SOL    HW123378   3.768   0.371   2.629  0.5454 -0.6794  1.1162
 3915SOL    HW223379   3.898   0.316   2.586 -0.0654  0.8872  0.9758
 3916SOL     OW23380   1.775   1.474   7.282 -0.3418  0.5357  0.0118
 3916SOL    HW123381   1.818   1.451   7.364  0.0065  0.0699 -0.3048
 3916SOL    HW223382   1.737   1.391   7.254  1.3756  0.1505 -1.2149
 3917SOL     OW23383   2.493   2.010   9.351 -0.1648  0.7453 -0.2412
 3917SOL    HW123384   2.580   2.035   9.382 -1.7054  2.0784  3.0121
 3917SOL    HW223385   2.447   2.018   9.435  1.1495  1.1803  0.4390
 3918SOL     OW23386   3.969   0.115   3.819 -0.3232 -0.0108  0.0498
 3918SOL    HW123387   3.952   0.175   3.891  0.5319  0.6221 -0.2769
 3918SOL    HW223388   3.916   0.164   3.755  0.4456  1.4714  0.5448
 3919SOL     OW23389   4.218   3.687   5.553 -0.2946  0.1279 -0.0725
 3919SOL    HW123390   4.272   3.721   5.482  2.2337 -2.5997  0.5422
 3919SOL    HW223391   4.283   3.653   5.613  0.8351  0.4968 -1.0822
 3920SOL     OW23392   0.304   2.658   4.393  0.4166  0.5380  0.7398
 3920SOL    HW123393   0.372   2.725   4.403  1.6409 -0.8081  1.5504
 3920SOL    HW223394   0.322   2.612   4.311 -1.0451 -2.0589  1.8517
 3921SOL     OW23395   4.560   0.468   7.746 -0.4466  0.5087  0.2308
 3921SOL    HW123396   4.520   0.546   7.707  3.6657  2.6402  0.2910
 3921SOL    HW223397   4.506   0.460   7.824 -1.8961  1.3052 -0.6921
 3922SOL     OW23398   3.714   3.082   3.469 -0.1366  0.1975  0.0755
 3922SOL    HW123399   3.623   3.111   3.465  0.1814  0.9021 -2.0216
 3922SOL    HW223400   3.688   3.004   3.519 -0.4151  1.2511  1.5636
 3923SOL     OW23401   1.086   0.788   7.245  0.2454  0.0421  0.4473
 3923SOL    HW123402   1.154   0.806   7.180  0.8606  0.6998  1.2645
 3923SOL    HW223403   1.023   0.859   7.229  0.3906  0.4103  1.4941
 3924SOL     OW23404   2.343   1.208  15.256 -0.0637  0.5916  0.0150
 3924SOL    HW123405   2.272   1.185  15.196 -0.0971 -0.5796  0.5206
 3924SOL    HW223406   2.318   1.146  15.324 -0.0874  0.4499 -0.1241
 3925SOL     OW23407   4.332   2.423   2.938  0.1030 -0.5747 -0.2600
 3925SOL    HW123408   4.317   2.479   3.014  0.0737  0.2434 -0.8642
 3925SOL    HW223409   4.407   2.468   2.898  0.4159 -1.9734 -1.2615
 3926SOL     OW23410   4.261   3.324   8.752  0.2028  0.0484  0.6590
 3926SOL    HW123411   4.304   3.409   8.740  0.3819 -0.3126 -1.2059
 3926SOL    HW223412   4.188   3.348   8.809 -0.3186  1.5399 -0.6325
 3927SOL     OW23413   4.691   0.952   8.098 -0.3699 -0.3346 -0.5678
 3927SOL    HW123414   4.727   0.864   8.089 -1.7562 -1.0623  0.7920
 3927SOL    HW223415   0.029   1.010   8.101 -1.1886  0.8369 -2.9362
 3928SOL     OW23416   1.038   4.311   1.950 -0.1061  0.5308 -0.3814
 3928SOL    HW123417   0.967   4.272   2.001 -0.5684  0.0389 -1.4049
 3928SOL    HW223418   0.995   4.373   1.891  0.1427  1.1527  0.0914
 3929SOL     OW23419   4.330   0.806  14.576  0.2953  0.3434 -0.3257
 3929SOL    HW123420   4.412   0.852  14.558  1.3470 -0.8621  1.5138
 3929SOL    HW223421   4.339   0.768  14.663  0.9488 -0.2351 -0.6516
 3930SOL     OW23422   1.077   0.805   3.594 -0.3040  0.3220 -0.0048
 3930SOL    HW123423   1.041   0.873   3.537  1.2185  0.3686 -0.9295
 3930SOL    HW223424   1.088   0.859   3.672  2.0297 -0.6957  0.3632
 3931SOL     OW23425   2.013   4.013   3.745  0.0980  0.0829  0.2108
 3931SOL    HW123426   2.077   3.976   3.685  0.9693  0.4189  0.9211
 3931SOL    HW223427   2.056   4.098   3.758 -0.2686  0.1863  0.7520
 3932SOL     OW23428   0.934   0.770   2.173 -0.0869 -0.2373  0.2214
 3932SOL    HW123429   0.964   0.700   2.116 -1.2796 -1.3898  1.0197
 3932SOL    HW223430   1.009   0.788   2.230  1.3484 -1.4628 -1.2817
 3933SOL     OW23431   2.535   0.951   4.004  0.5257  1.0992  0.0198
 3933SOL    HW123432   2.458   1.001   4.035  0.3039  1.1392 -0.6014
 3933SOL    HW223433   2.606   0.991   4.055  0.5484  0.0795  0.7722
 3934SOL     OW23434   4.470   3.977   4.530  0.0842  0.1169  0.1269
 3934SOL    HW123435   4.437   3.923   4.457  0.3509 -0.2112  0.2461
 3934SOL    HW223436   4.526   3.913   4.574  0.0220  0.5566  0.8255
 3935SOL     OW23437   3.823   0.924  15.490 -0.2697 -0.1261  0.7365
 3935SOL    HW123438   3.860   0.838  15.508  0.4657 -0.0546 -0.3948
 3935SOL    HW223439   3.861   0.949  15.406  0.2202  0.6887  1.1951
 3936SOL     OW23440   3.556   1.091   3.180  0.7759  0.3014 -0.9489
 3936SOL    HW123441   3.590   1.006   3.209 -1.2463  0.3318  1.4973
 3936SOL    HW223442   3.485   1.094   3.245  1.9252  2.4057  0.2007
 3937SOL     OW23443   3.275   1.971   4.314  0.2359 -0.0809  0.1586
 3937SOL    HW123444   3.314   2.010   4.235  1.0780 -0.0606  0.5903
 3937SOL    HW223445   3.225   1.899   4.275 -1.8107  2.4926 -2.0277
 3938SOL     OW23446   2.542   0.120   5.710 -0.1960 -0.3708  0.4419
 3938SOL    HW123447   2.553   0.201   5.760  0.6706  0.7619 -1.6131
 3938SOL    HW223448   2.626   0.076   5.725  0.0251 -0.2983 -0.6335
 3939SOL     OW23449   2.368   4.301  14.786  0.2443  0.5593  0.7396
 3939SOL    HW123450   2.451   4.259  14.766  0.2177  0.1558  1.4495
 3939SOL    HW223451   2.375   4.311  14.881  0.3455 -1.4912  0.9628
 3940SOL     OW23452   1.765   1.740   3.001 -0.1582  0.1124 -0.1253
 3940SOL    HW123453   1.802   1.666   2.953 -0.1518  1.0325 -1.5621
 3940SOL    HW223454   1.832   1.770   3.062 -0.7728  0.2506  0.4758
 3941SOL     OW23455   0.038   2.837   6.314 -0.0236  0.4868  0.3454
 3941SOL    HW123456   4.710   2.777   6.277  0.1622  0.9011 -0.6478
 3941SOL    HW223457   0.117   2.784   6.304 -0.2672  0.8366 -3.3490
 3942SOL     OW23458   1.967   1.771   8.158 -0.0058 -0.2944  0.0866
 3942SOL    HW123459   1.972   1.744   8.250  0.7749  2.7875  0.9433
 3942SOL    HW223460   1.962   1.681   8.126  0.7121 -0.3592  0.1521
 3943SOL     OW23461   0.532   2.031  16.617 -0.9661  0.1823  0.7492
 3943SOL    HW123462   0.622   2.001  16.634 -1.5214 -1.8640  0.1017
 3943SOL    HW223463   0.481   1.956  16.586 -0.4709  0.7157 -1.3381
 3944SOL     OW23464   0.366   3.609   7.686  0.7693 -0.5416  0.4301
 3944SOL    HW123465   0.403   3.638   7.603 -1.1758 -1.1822 -0.6667
 3944SOL    HW223466   0.425   3.650   7.749  1.8402  0.1043 -0.9998
 3945SOL     OW23467   1.339   1.346   5.565  0.0564  0.5544  0.0204
 3945SOL    HW123468   1.306   1.424   5.521 -2.4974  0.4470  1.7403
 3945SOL    HW223469   1.273   1.350   5.634 -0.5850 -0.4425 -0.5474
 3946SOL     OW23470   2.364   0.459   3.570 -0.1142 -0.0285  0.0558
 3946SOL    HW123471   2.448   0.497   3.545 -0.4072  0.2097 -0.5504
 3946SOL    HW223472   2.387   0.368   3.591 -0.2355 -0.4907 -1.8722
 3947SOL     OW23473   3.910   4.108  14.004  0.2119  0.0193  0.2566
 3947SOL    HW123474   3.820   4.138  14.008 -0.0062 -0.7254  1.0261
 3947SOL    HW223475   3.906   4.040  14.071 -1.4945 -0.0000  0.1344
 3948SOL     OW23476   2.447   1.230   2.120 -0.1404 -0.5964  0.3522
 3948SOL    HW123477   2.485   1.145   2.139 -0.3255 -0.2809  2.0983
 3948SOL    HW223478   2.511   1.264   2.057 -0.7695 -0.5465 -0.2639
 3949SOL     OW23479   0.890   1.815  12.513 -0.0414 -0.2375  0.1814
 3949SOL    HW123480   0.936   1.898  12.510 -0.3342 -0.0664  0.3986
 3949SOL    HW223481   0.864   1.810  12.605  2.4487 -0.6646  0.8448
 3950SOL     OW23482   1.434   1.763   2.712  0.2094  0.5505 -0.4906
 3950SOL    HW123483   1.356   1.787   2.662 -0.0977  0.5857  0.0010
 3950SOL    HW223484   1.394   1.744   2.797 -2.9145 -0.7415 -2.2988
 3951SOL     OW23485   4.026   4.627   7.329 -0.4613  0.2117  0.3035
 3951SOL    HW123486   4.044   4.653   7.238 -0.9115  1.9817  0.7274
 3951SOL    HW223487   3.931   4.634   7.327 -0.4337  0.7902  1.0256
 3952SOL     OW23488   0.432   4.331   2.876 -0.3328  0.2321 -0.0762
 3952SOL    HW123489   0.357   4.326   2.817  0.2092  3.3611 -1.0171
 3952SOL    HW223490   0.414   4.246   2.917 -1.3718  0.0813 -0.8477
 3953SOL     OW23491   4.675   2.352  12.504 -0.4881  0.3906  0.4896
 3953SOL    HW123492   4.628   2.324  12.426  0.5628 -1.6320  0.6037
 3953SOL    HW223493   4.682   2.447  12.494  0.6575  0.2214 -0.2687
 3954SOL     OW23494   0.945   3.299   6.811 -0.2167  0.2264  0.3566
 3954SOL    HW123495   0.970   3.372   6.868  0.4724 -0.6989  1.2483
 3954SOL    HW223496   0.855   3.323   6.792  0.0265  0.9215  0.0944
 3955SOL     OW23497   3.134   3.639   8.395  0.0293  0.3523 -0.5741
 3955SOL    HW123498   3.066   3.577   8.422 -0.3099  0.5801 -0.9228
 3955SOL    HW223499   3.106   3.721   8.434  0.1343  0.4116 -0.6237
 3956SOL     OW23500   2.206   3.083   6.614  0.0771 -0.3409  0.1176
 3956SOL    HW123501   2.225   3.052   6.525 -3.3299 -1.6262 -0.1767
 3956SOL    HW223502   2.263   3.159   6.625 -0.2897 -0.2387  1.3232
 3957SOL     OW23503   2.287   1.770   8.276 -0.5158  0.4079 -0.0086
 3957SOL    HW123504   2.316   1.721   8.199  0.3264 -0.7156  0.9951
 3957SOL    HW223505   2.236   1.703   8.322 -1.6906  1.3434  0.0395
 3958SOL     OW23506   1.555   0.064   3.534 -0.0998 -0.2319 -0.0772
 3958SOL    HW123507   1.547   4.706   3.533  3.4562 -0.5504 -0.4486
 3958SOL    HW223508   1.634   0.083   3.483 -1.7530 -1.6451 -3.1121
 3959SOL     OW23509   1.041   1.598   9.723  0.3677 -0.8845  0.1964
 3959SOL    HW123510   1.130   1.565   9.737  0.5740  0.4673  2.1038
 3959SOL    HW223511   1.048   1.632   9.634 -1.7850  0.3891  0.5141
 3960SOL     OW23512   2.497   3.991   5.521 -0.0484  0.3285  0.0380
 3960SOL    HW123513   2.423   4.009   5.579 -0.3293 -2.0183  0.4177
 3960SOL    HW223514   2.560   4.058   5.546  0.0721  0.7662 -1.4467
 3961SOL     OW23515   1.893   4.079  10.870 -0.6773 -0.6082 -0.2141
 3961SOL    HW123516   1.807   4.076  10.912 -1.1782  1.5872 -1.1109
 3961SOL    HW223517   1.870   4.044  10.783  0.6085  0.9201 -1.1665
 3962SOL     OW23518   3.304   1.420  11.203  0.0636 -0.4906 -0.1640
 3962SOL    HW123519   3.333   1.475  11.130 -0.5738 -0.1504 -0.1632
 3962SOL    HW223520   3.216   1.454  11.214  0.1388  0.1532 -1.5094
 3963SOL     OW23521   2.448   4.201   3.239 -0.3957  0.1753 -0.4093
 3963SOL    HW123522   2.427   4.176   3.149 -1.1761  0.1716 -0.2220
 3963SOL    HW223523   2.404   4.133   3.290  0.0654  0.8457  0.8724
 3964SOL     OW23524   1.354   1.776  17.213  0.5713 -0.1410 -0.2996
 3964SOL    HW123525   1.416   1.817  17.154  1.3573  1.1815  1.4647
 3964SOL    HW223526   1.391   1.695  17.249  0.7988 -0.0366 -0.2973
 3965SOL     OW23527   4.065   3.623  16.857 -0.0934 -0.3504 -0.2387
 3965SOL    HW123528   4.056   3.688  16.788  0.0523  3.1025  3.0469
 3965SOL    HW223529   4.102   3.667  16.933  3.1414  0.0855 -2.0752
 3966SOL     OW23530   3.070   2.072  14.634 -0.6279  0.0999 -0.3550
 3966SOL    HW123531   3.071   2.124  14.554 -2.8380  2.1326  0.9301
 3966SOL    HW223532   3.158   2.034  14.633 -0.6958 -0.1530  2.5967
 3967SOL     OW23533   2.995   2.519   6.831  0.4638 -0.0171  0.5174
 3967SOL    HW123534   3.022   2.468   6.907  0.6719  0.3569  0.6915
 3967SOL    HW223535   3.039   2.603   6.845 -0.7802  0.3365  2.2008
 3968SOL     OW23536   2.131   3.888  13.274 -0.8316  0.4650 -0.5835
 3968SOL    HW123537   2.077   3.955  13.317 -2.1146 -0.5119 -0.6650
 3968SOL    HW223538   2.124   3.928  13.187 -1.0531 -2.9636 -2.1399
 3969SOL     OW23539   2.345   1.770  16.772  0.2094 -0.2118  0.5368
 3969SOL    HW123540   2.294   1.690  16.785  0.0934  0.0536  1.6851
 3969SOL    HW223541   2.413   1.741  16.711  0.9346  2.0313  0.3068
 3970SOL     OW23542   1.870   3.966   8.876 -0.2863 -0.5932  0.0088
 3970SOL    HW123543   1.807   4.037   8.890  0.6922  0.5835 -1.6213
 3970SOL    HW223544   1.813   3.889   8.870 -0.6627 -0.1268 -2.6577
 3971SOL     OW23545   1.702   3.901   3.751 -0.3564  0.0702 -0.1096
 3971SOL    HW123546   1.796   3.894   3.770 -0.5355 -0.4182  0.6005
 3971SOL    HW223547   1.706   3.979   3.696 -2.4495 -0.1346 -0.5462
 3972SOL     OW23548   0.056   0.154  11.228  0.7182 -0.4041  0.6156
 3972SOL    HW123549   0.028   0.202  11.150 -1.1541 -1.4718  0.6054
 3972SOL    HW223550   4.729   0.180  11.294 -1.8156 -0.5868 -1.7628
 3973SOL     OW23551   2.831   1.273   4.715 -0.4521 -0.1051 -0.7408
 3973SOL    HW123552   2.781   1.201   4.678 -1.4981  0.5363 -0.5793
 3973SOL    HW223553   2.770   1.344   4.696 -1.5308 -0.4582  1.3008
 3974SOL     OW23554   4.161   2.971   3.225 -0.0644 -0.4274  0.1615
 3974SOL    HW123555   4.143   2.877   3.231 -1.2541 -0.4076 -3.0611
 3974SOL    HW223556   4.086   2.998   3.278 -1.9388 -1.0003 -2.2515
 3975SOL     OW23557   4.371   4.477   3.548  0.3214 -0.0824  0.1091
 3975SOL    HW123558   4.316   4.524   3.485  0.0797 -0.9794 -0.3461
 3975SOL    HW223559   4.452   4.510   3.508  0.7112 -3.7696 -2.0911
 3976SOL     OW23560   3.707   1.391   1.631  0.2173 -0.0149 -0.1253
 3976SOL    HW123561   3.777   1.341   1.672  0.6297 -0.9524 -2.0108
 3976SOL    HW223562   3.693   1.333   1.557  2.9818  2.0793 -2.3184
 3977SOL     OW23563   0.111   2.402  17.149  0.2199 -0.0788 -0.2903
 3977SOL    HW123564   0.091   2.453  17.071  0.1263 -1.3973 -1.1391
 3977SOL    HW223565   0.093   2.311  17.124  0.9699 -0.2002 -0.4014
 3978SOL     OW23566   0.696   1.099   4.486 -0.4026  0.3269  0.1930
 3978SOL    HW123567   0.662   1.023   4.439 -0.4380  0.9191 -0.7382
 3978SOL    HW223568   0.650   1.161   4.429 -0.6293  1.1869  1.3203
 3979SOL     OW23569   0.420   3.995   4.945 -1.0930 -0.0744  0.0735
 3979SOL    HW123570   0.342   4.044   4.972  0.8831  2.6016  0.9813
 3979SOL    HW223571   0.455   3.969   5.031 -1.8388 -3.0151 -0.5355
 3980SOL     OW23572   1.230   3.543   7.298 -0.5471  0.2460 -0.4207
 3980SOL    HW123573   1.221   3.502   7.384  1.6760  0.0744 -0.2755
 3980SOL    HW223574   1.202   3.634   7.308 -2.2119 -0.3056 -0.0974
 3981SOL     OW23575   3.305   1.072   8.441 -0.0213 -0.3893 -0.5068
 3981SOL    HW123576   3.296   1.082   8.535  1.0623 -1.2539 -0.3081
 3981SOL    HW223577   3.398   1.051   8.427 -0.0868 -0.4899 -0.7849
 3982SOL     OW23578   4.674   3.791  10.571 -0.7770 -0.1011  0.0025
 3982SOL    HW123579   4.614   3.824  10.638  1.2263  0.8822  1.3348
 3982SOL    HW223580   4.680   3.702  10.606  0.2644  0.3120  0.8818
 3983SOL     OW23581   3.833   2.609   8.226  0.6040  0.0940 -0.2662
 3983SOL    HW123582   3.829   2.514   8.215 -1.5959  0.1004  0.5171
 3983SOL    HW223583   3.911   2.621   8.281  1.5585  1.4210 -1.9255
 3984SOL     OW23584   2.523   4.633   5.133 -0.4319  0.2262  0.6113
 3984SOL    HW123585   2.563   4.583   5.061  1.5120  0.7490  1.3091
 3984SOL    HW223586   2.573   4.715   5.122  0.7049 -0.3917  1.2032
 3985SOL     OW23587   2.126   2.516   6.617 -0.7539  0.0390  0.4084
 3985SOL    HW123588   2.170   2.454   6.560  0.1905 -0.9079  2.1759
 3985SOL    HW223589   2.173   2.499   6.698 -0.7718  0.6162  0.5417
 3986SOL     OW23590   0.820   0.288  10.566  0.2533 -0.1643  0.4952
 3986SOL    HW123591   0.823   0.280  10.661  0.7218  0.2758  0.5190
 3986SOL    HW223592   0.870   0.368  10.553 -0.4115  0.5047  2.1198
 3987SOL     OW23593   2.088   2.732   1.563 -0.1598 -0.8738  0.3128
 3987SOL    HW123594   2.056   2.643   1.577  0.6964 -1.4219 -1.1695
 3987SOL    HW223595   2.120   2.726   1.473  0.8511  1.2211  0.5222
 3988SOL     OW23596   4.598   3.862   4.133 -0.0621 -0.2630 -0.1166
 3988SOL    HW123597   4.506   3.860   4.105  0.0431 -0.5492 -0.4411
 3988SOL    HW223598   4.599   3.956   4.154  3.0017 -0.2701 -0.2280
 3989SOL     OW23599   4.063   0.319   5.041  0.6518 -0.0914 -0.2615
 3989SOL    HW123600   3.999   0.262   5.000 -1.2608  0.4184  2.0416
 3989SOL    HW223601   4.050   0.404   4.999 -0.5507 -0.0903  0.1287
 3990SOL     OW23602   3.337   0.954   2.154 -0.4047 -0.0716 -0.2109
 3990SOL    HW123603   3.401   0.970   2.085  1.2428 -1.5676  0.9502
 3990SOL    HW223604   3.387   0.971   2.234  1.6314 -0.4212 -1.4080
 3991SOL     OW23605   3.439   3.781   5.436 -0.1209  0.0876  0.0426
 3991SOL    HW123606   3.455   3.859   5.490 -0.2049  0.3540 -0.3095
 3991SOL    HW223607   3.402   3.725   5.504 -1.9582 -1.5765 -2.3217
 3992SOL     OW23608   3.532   3.489  17.057 -0.0552 -0.4342  0.1123
 3992SOL    HW123609   3.585   3.540  16.996 -1.1017 -1.6064 -1.7562
 3992SOL    HW223610   3.571   3.516  17.140 -0.6819  1.3302 -0.1690
 3993SOL     OW23611   2.208   0.568   0.090 -0.1716 -0.1398  0.5450
 3993SOL    HW123612   2.153   0.509   0.142 -0.5593 -0.6545 -0.4604
 3993SOL    HW223613   2.158   0.589   0.011  1.0720  1.7298  0.2785
 3994SOL     OW23614   3.520   2.263   3.024  0.6600 -0.1720 -0.0257
 3994SOL    HW123615   3.522   2.280   2.930  0.1962 -0.3505 -0.0689
 3994SOL    HW223616   3.448   2.199   3.025  0.5146 -0.0193 -1.4037
 3995SOL     OW23617   1.229   1.576   5.323 -0.4100 -0.0022 -0.5287
 3995SOL    HW123618   1.218   1.484   5.300 -0.5195 -0.0398 -0.3185
 3995SOL    HW223619   1.149   1.595   5.371 -1.3681 -2.2543 -1.2397
 3996SOL     OW23620   3.359   3.652   1.259  0.5515  0.0410 -0.5950
 3996SOL    HW123621   3.290   3.587   1.248 -0.8346  1.3962  0.0526
 3996SOL    HW223622   3.429   3.603   1.303  1.5747  1.3437 -0.7513
 3997SOL     OW23623   1.062   3.744  17.507 -0.2024 -0.2041  0.0810
 3997SOL    HW123624   1.125   3.778  17.444 -0.6968  1.0809  0.2824
 3997SOL    HW223625   1.000   3.698  17.449  1.4784 -1.4539 -0.7201
 3998SOL     OW23626   0.836   0.985   4.884  0.1578  0.1376 -0.0666
 3998SOL    HW123627   0.926   0.953   4.878  0.2362  0.4444 -0.4761
 3998SOL    HW223628   0.820   1.035   4.804  1.4499 -0.4841 -0.7127
 3999SOL     OW23629   2.085   0.287  11.318  0.1194 -0.5029 -0.2105
 3999SOL    HW123630   2.075   0.298  11.223 -4.5054 -1.9816  0.0898
 3999SOL    HW223631   2.118   0.372  11.345 -2.7219  1.5122 -3.0643
 4000SOL     OW23632   3.035   1.697  14.554  0.8778  0.5138 -0.6754
 4000SOL    HW123633   3.069   1.616  14.515 -1.1202 -0.5442 -0.2072
 4000SOL    HW223634   3.035   1.659  14.642  0.0090  0.8926 -0.5195
 4001SOL     OW23635   2.968   4.143   3.909 -0.2402  0.1890 -0.2183
 4001SOL    HW123636   2.892   4.136   3.967  1.4726 -2.6741  1.6597
 4001SOL    HW223637   3.021   4.073   3.947 -2.2498 -1.6871 -0.9021
 4002SOL     OW23638   2.727   3.161   2.158 -0.2044 -0.0561 -0.0755
 4002SOL    HW123639   2.739   3.087   2.217  0.0459  0.0524  0.0117
 4002SOL    HW223640   2.781   3.226   2.203  1.0358 -1.2258  0.1240
 4003SOL     OW23641   3.527   3.539   1.439  0.1654  0.2302 -0.2268
 4003SOL    HW123642   3.565   3.602   1.501  0.3529  2.0017 -2.1362
 4003SOL    HW223643   3.461   3.498   1.495  0.4589 -0.6226 -0.5117
 4004SOL     OW23644   0.829   1.661  11.899  0.1166  0.3659  0.6782
 4004SOL    HW123645   0.830   1.600  11.973 -0.3749  0.4009  0.7175
 4004SOL    HW223646   0.761   1.630  11.839  0.3401  2.3227 -0.5974
 4005SOL     OW23647   2.165   1.923   5.153  0.1090  0.1193  0.3202
 4005SOL    HW123648   2.255   1.929   5.121  0.2917 -1.1764  0.5552
 4005SOL    HW223649   2.122   1.955   5.074  1.3716  1.4256  0.1728
 4006SOL     OW23650   2.222   0.662   2.702 -0.0829  0.1569 -0.1514
 4006SOL    HW123651   2.200   0.670   2.610 -0.6718  1.6856  0.1163
 4006SOL    HW223652   2.219   0.754   2.732  1.5117  0.1750 -0.0565
 4007SOL     OW23653   0.578   4.028   9.277  0.1309 -0.2353  0.5318
 4007SOL    HW123654   0.611   4.104   9.323 -1.0977  0.8753 -0.4060
 4007SOL    HW223655   0.592   3.948   9.327 -0.6380 -0.1504  0.8953
 4008SOL     OW23656   1.614   0.516   1.932  0.6605  0.4591  0.4505
 4008SOL    HW123657   1.587   0.529   1.841  0.6941  0.4594  0.4405
 4008SOL    HW223658   1.689   0.459   1.919  0.7001  0.5857  0.1106
 4009SOL     OW23659   1.825   3.835   3.484  0.2454 -0.5506 -0.5866
 4009SOL    HW123660   1.897   3.883   3.445  0.8161 -1.4220 -0.6017
 4009SOL    HW223661   1.861   3.762   3.534 -0.1579 -0.6858 -0.4884
 4010SOL     OW23662   2.366   3.732   3.875 -0.0934  0.3639 -0.0341
 4010SOL    HW123663   2.387   3.823   3.893 -2.3306  0.8222  0.2267
 4010SOL    HW223664   2.373   3.728   3.779 -0.6329  0.3495 -0.0704
 4011SOL     OW23665   3.363   3.635   5.650  0.2583  0.0098 -0.2429
 4011SOL    HW123666   3.390   3.627   5.741 -3.1905 -0.4295  0.7512
 4011SOL    HW223667   3.267   3.636   5.654  0.2438  0.4251 -0.7065
 4012SOL     OW23668   4.023   1.898   2.308  0.0726 -0.4789 -0.1961
 4012SOL    HW123669   4.037   1.983   2.266  1.5105  0.7291  2.7222
 4012SOL    HW223670   3.942   1.874   2.263 -0.6734 -0.4025  1.1118
 4013SOL     OW23671   4.642   1.117   6.839 -0.2181 -0.5498  0.2139
 4013SOL    HW123672   4.624   1.201   6.797  0.4822 -1.3898 -1.7398
 4013SOL    HW223673   4.681   1.065   6.770 -2.3863 -3.8768  1.4997
 4014SOL     OW23674   2.333   1.231  12.550  0.2030 -0.5298  0.3054
 4014SOL    HW123675   2.413   1.179  12.552 -0.4153 -1.4144  2.3905
 4014SOL    HW223676   2.367   1.311  12.590  0.7322 -0.9250  0.6627
 4015SOL     OW23677   0.436   3.082   6.859  0.3322 -0.0886 -0.0310
 4015SOL    HW123678   0.367   3.056   6.920  1.1008 -1.5043  0.2371
 4015SOL    HW223679   0.516   3.060   6.907  0.5161  1.2165  0.2553
 4016SOL     OW23680   3.241   0.665   2.059 -0.1078  0.1046 -0.0376
 4016SOL    HW123681   3.262   0.581   2.018  2.5243  1.3094 -1.1851
 4016SOL    HW223682   3.275   0.656   2.148  0.8511 -2.3414 -0.6649
 4017SOL     OW23683   3.431   4.239   9.531 -0.2861 -0.1627  0.1045
 4017SOL    HW123684   3.431   4.200   9.443 -1.5357 -0.6864  0.3434
 4017SOL    HW223685   3.404   4.328   9.512 -0.1436 -0.5360 -1.9464
 4018SOL     OW23686   2.312   1.820   4.940 -0.4393  0.6183  0.0212
 4018SOL    HW123687   2.393   1.778   4.966  0.6681  1.4876 -2.0118
 4018SOL    HW223688   2.353   1.897   4.899 -0.3161  1.4449  1.6911
 4019SOL     OW23689   2.369   0.072   9.051  0.2449 -0.0465  0.1957
 4019SOL    HW123690   2.435   0.009   9.080  0.2490  0.2671  0.8775
 4019SOL    HW223691   2.390   0.142   9.113  0.1364 -0.4472  0.6892
 4020SOL     OW23692   1.692   3.596   5.148  0.0198 -0.4735 -0.2897
 4020SOL    HW123693   1.751   3.640   5.209 -0.5185  0.5917 -0.5371
 4020SOL    HW223694   1.726   3.636   5.068  1.4480  1.0798  1.0875
 4021SOL     OW23695   2.847   3.038   8.299 -0.0138  0.2997 -0.3746
 4021SOL    HW123696   2.831   3.026   8.205  4.5756  1.2846 -1.2505
 4021SOL    HW223697   2.891   3.122   8.313 -0.6873  0.5397  0.3307
 4022SOL     OW23698   1.917   2.841   3.469 -0.1620 -0.2323  0.4579
 4022SOL    HW123699   1.956   2.905   3.409  0.8263 -0.1515  1.1793
 4022SOL    HW223700   1.985   2.836   3.536 -1.3346 -1.7083  1.5475
 4023SOL     OW23701   4.363   2.756   3.828 -0.1052  0.2351  0.2715
 4023SOL    HW123702   4.445   2.779   3.870  1.3397 -1.7859 -1.4614
 4023SOL    HW223703   4.390   2.766   3.736  1.6787 -1.1590  0.6501
 4024SOL     OW23704   1.217   1.781   4.158  0.5885 -0.3458  0.6259
 4024SOL    HW123705   1.223   1.847   4.089  0.8608 -0.4818  0.5168
 4024SOL    HW223706   1.122   1.768   4.168  0.3457  1.9709  1.1953
 4025SOL     OW23707   3.951   0.235   1.912 -0.2259  0.5699 -0.6112
 4025SOL    HW123708   3.969   0.151   1.955  0.3365  0.4292 -1.1147
 4025SOL    HW223709   3.921   0.275   1.993  1.3092 -0.1111  0.2860
 4026SOL     OW23710   2.393   0.705   7.968  0.2895  0.0120  0.0761
 4026SOL    HW123711   2.356   0.682   8.053  0.1438 -0.7971 -0.2118
 4026SOL    HW223712   2.348   0.651   7.904  0.0347 -0.3472  0.5589
 4027SOL     OW23713   4.373   3.906  16.887 -0.0319  0.8915  0.1116
 4027SOL    HW123714   4.365   3.815  16.859 -0.0696  2.2832 -4.4141
 4027SOL    HW223715   4.469   3.906  16.886 -0.0627 -4.1365 -1.8170
 4028SOL     OW23716   0.531   1.716   5.597 -0.2170 -0.1396  0.3445
 4028SOL    HW123717   0.506   1.756   5.680 -1.8684 -0.9561  0.2382
 4028SOL    HW223718   0.458   1.657   5.579  0.1946 -1.1104  1.9143
 4029SOL     OW23719   3.835   3.245   9.023  0.3182  0.2349  0.1332
 4029SOL    HW123720   3.858   3.259   9.115  0.2495  0.6024  0.0926
 4029SOL    HW223721   3.839   3.150   9.038  1.2010  0.2998  0.3463
 4030SOL     OW23722   3.457   1.514  10.154 -0.4117  0.3740 -0.1355
 4030SOL    HW123723   3.413   1.510  10.239  2.3024 -1.5212  1.1882
 4030SOL    HW223724   3.539   1.553  10.186 -0.4159  0.7698 -0.6021
 4031SOL     OW23725   0.277   1.452  11.724 -0.2552 -0.2805 -0.4596
 4031SOL    HW123726   0.299   1.378  11.667 -1.4795 -1.6173  0.8037
 4031SOL    HW223727   0.218   1.416  11.790 -0.1858  1.9051  0.7636
 4032SOL     OW23728   2.386   2.535   3.680 -0.4734  0.2831 -0.0186
 4032SOL    HW123729   2.447   2.609   3.682  0.0013 -0.0888 -0.8683
 4032SOL    HW223730   2.432   2.477   3.741 -2.6219 -2.8370 -1.3862
 4033SOL     OW23731   4.206   4.615   3.094 -0.5269  0.3244 -0.1482
 4033SOL    HW123732   4.238   4.643   3.180  0.7746 -0.2885 -0.4250
 4033SOL    HW223733   4.210   4.520   3.106 -1.4864  0.4821  1.4034
 4034SOL     OW23734   0.213   0.611   1.936 -0.1354 -0.3032  0.7782
 4034SOL    HW123735   0.124   0.648   1.940  1.1213  2.5946  2.2219
 4034SOL    HW223736   0.225   0.594   2.029 -1.3827  0.2309  1.0367
 4035SOL     OW23737   2.834   1.808  16.422 -0.1068 -0.0205 -0.1235
 4035SOL    HW123738   2.851   1.846  16.508  1.9028  1.0484 -0.9883
 4035SOL    HW223739   2.818   1.717  16.448  0.0587  0.4230  1.5367
 4036SOL     OW23740   3.263   4.487   7.317  0.7326  0.1543  0.1035
 4036SOL    HW123741   3.304   4.572   7.303 -0.1525  0.4738 -0.5363
 4036SOL    HW223742   3.182   4.514   7.362 -2.1806 -2.3114 -3.6548
 4037SOL     OW23743   2.102   3.627   8.774 -0.1878  0.0705  0.6668
 4037SOL    HW123744   2.149   3.548   8.747 -0.9628 -0.8206  1.9242
 4037SOL    HW223745   2.106   3.625   8.870  1.3633  0.6013  0.5998
 4038SOL     OW23746   4.264   1.933  16.632  0.0645 -0.2194  0.0856
 4038SOL    HW123747   4.181   1.890  16.654 -0.6408  0.2901 -1.5466
 4038SOL    HW223748   4.241   1.969  16.547  1.5313 -1.2146 -0.7357
 4039SOL     OW23749   0.299   3.227  14.777  0.5622  1.0268 -0.4960
 4039SOL    HW123750   0.238   3.156  14.758 -0.2320  1.4164  0.5620
 4039SOL    HW223751   0.252   3.300  14.738  0.6482  0.8615 -0.9013
 4040SOL     OW23752   0.248   0.400   3.634  0.5095  0.4790 -0.1748
 4040SOL    HW123753   0.272   0.362   3.549 -2.3606  0.4845 -0.9847
 4040SOL    HW223754   0.308   0.354   3.693 -2.1387  0.7203  2.7323
 4041SOL     OW23755   2.677   1.777   0.961 -0.4559 -0.0874  0.0902
 4041SOL    HW123756   2.754   1.801   0.909 -3.0316  1.1965 -3.0755
 4041SOL    HW223757   2.707   1.823   1.039  1.3152 -1.2951  0.1348
 4042SOL     OW23758   4.135   2.082   7.183 -0.1664  0.1803  0.8790
 4042SOL    HW123759   4.091   2.083   7.098 -2.0555  0.9895  1.8754
 4042SOL    HW223760   4.138   1.989   7.206 -1.0655  0.3313  1.6347
 4043SOL     OW23761   1.055   3.899   2.175  0.4149 -0.2238  0.3931
 4043SOL    HW123762   1.143   3.872   2.200  0.8714  0.7384 -0.1518
 4043SOL    HW223763   1.066   3.920   2.082  1.4653 -4.0408 -0.3437
 4044SOL     OW23764   4.217   2.553   6.597 -0.3461 -0.2427 -0.2539
 4044SOL    HW123765   4.267   2.582   6.521 -0.6914  1.2808  0.0943
 4044SOL    HW223766   4.275   2.576   6.669  0.7316 -2.3555 -0.4467
 4045SOL     OW23767   2.717   0.290   4.533 -0.3819  0.3621  0.1459
 4045SOL    HW123768   2.807   0.260   4.545  0.0483  2.1079  1.2348
 4045SOL    HW223769   2.723   0.356   4.465  4.3200 -0.1887  0.0498
 4046SOL     OW23770   0.374   2.240   7.910 -0.0997 -0.0318 -0.3330
 4046SOL    HW123771   0.392   2.258   7.817 -2.2941 -2.3556 -1.1958
 4046SOL    HW223772   0.278   2.233   7.911 -0.1220  0.3341 -0.0117
 4047SOL     OW23773   3.862   0.380  15.262 -0.6249 -0.1416  0.3133
 4047SOL    HW123774   3.943   0.412  15.223 -0.1367 -1.9725 -0.1387
 4047SOL    HW223775   3.880   0.360  15.354 -0.2277 -0.9968  0.0455
 4048SOL     OW23776   4.381   2.989   1.643  0.1389  0.0906  0.1844
 4048SOL    HW123777   4.354   2.987   1.552 -0.8316 -2.2041  0.5184
 4048SOL    HW223778   4.465   2.943   1.644 -0.2511 -0.6872 -3.3276
 4049SOL     OW23779   4.418   1.358   7.930 -0.1778  0.6859  0.3616
 4049SOL    HW123780   4.361   1.347   7.854  2.0300  0.8139 -1.3042
 4049SOL    HW223781   4.371   1.426   7.978  0.5877  1.4801 -0.0130
 4050SOL     OW23782   0.717   0.039   7.906 -0.2053 -0.4200 -0.2397
 4050SOL    HW123783   0.651   0.102   7.937  0.1979 -1.9648  3.6936
 4050SOL    HW223784   0.798   0.080   7.935 -0.9760  1.8066 -1.2534
 4051SOL     OW23785   0.118   3.535  13.197  0.2605  0.4934 -0.5547
 4051SOL    HW123786   0.185   3.468  13.184  0.6289  0.6805  0.4464
 4051SOL    HW223787   0.043   3.490  13.235  1.4213  0.8149  2.0608
 4052SOL     OW23788   3.414   2.367   7.388 -0.3449 -0.0351 -0.4180
 4052SOL    HW123789   3.327   2.406   7.390 -0.5768 -0.4920 -2.0704
 4052SOL    HW223790   3.453   2.409   7.311 -1.5924  1.3031 -0.3172
 4053SOL     OW23791   2.927   0.973   8.210  0.0582 -0.4145 -0.5658
 4053SOL    HW123792   2.900   0.962   8.302  1.3421  2.0957  0.1069
 4053SOL    HW223793   2.959   0.884   8.196 -0.8742 -1.0189  1.1180
 4054SOL     OW23794   2.183   0.296   2.104 -0.1175  0.4681  0.4642
 4054SOL    HW123795   2.182   0.261   2.193 -0.8502  0.5310  0.4805
 4054SOL    HW223796   2.267   0.264   2.071 -1.2531 -1.9964 -0.0625
 4055SOL     OW23797   3.397   0.539   6.422 -0.3031  0.2302 -0.1109
 4055SOL    HW123798   3.386   0.612   6.362 -0.8538 -1.2762 -1.8485
 4055SOL    HW223799   3.335   0.566   6.490 -1.2177 -1.1780 -0.3693
 4056SOL     OW23800   4.223   4.056  10.979  0.0452 -0.1503  0.5767
 4056SOL    HW123801   4.290   4.043  11.047  1.5618  1.8412 -0.5230
 4056SOL    HW223802   4.273   4.083  10.902  0.9274  0.2849  1.2967
 4057SOL     OW23803   0.631   2.540   2.684  0.1832 -0.0084  0.1622
 4057SOL    HW123804   0.564   2.586   2.634  1.4171  1.9813  0.3743
 4057SOL    HW223805   0.594   2.451   2.679  2.0501 -0.7517 -0.2160
 4058SOL     OW23806   2.042   3.794   9.471 -0.3432  0.1227  0.2597
 4058SOL    HW123807   2.046   3.828   9.561  2.3165 -1.1406  0.6392
 4058SOL    HW223808   2.037   3.700   9.490 -1.2672 -0.2070 -1.6155
 4059SOL     OW23809   1.499   2.196   7.573 -0.9464 -0.2797 -0.2871
 4059SOL    HW123810   1.459   2.162   7.494 -1.3653  0.2682 -0.3120
 4059SOL    HW223811   1.570   2.242   7.529 -0.7259 -0.2500  0.0940
 4060SOL     OW23812   3.083   3.501   2.773  0.3711  0.0438 -0.3061
 4060SOL    HW123813   3.086   3.564   2.845 -1.9911  1.0363 -1.0795
 4060SOL    HW223814   3.159   3.444   2.790  0.6544  1.7038  4.0613
 4061SOL     OW23815   4.241   2.244   1.975 -0.1266  0.2806 -0.1749
 4061SOL    HW123816   4.265   2.310   2.040 -2.8220  1.1301 -0.0269
 4061SOL    HW223817   4.222   2.309   1.907 -0.7821  0.1629 -0.1064
 4062SOL     OW23818   3.291   1.165   2.907 -0.5216  0.2336 -0.0107
 4062SOL    HW123819   3.242   1.152   2.826 -1.3761 -0.3676  0.5937
 4062SOL    HW223820   3.227   1.172   2.978 -1.1669  1.1083 -0.6782
 4063SOL     OW23821   4.181   0.075  12.321  0.3085  0.0018  0.1373
 4063SOL    HW123822   4.187   0.067  12.226  1.2594 -2.1440  0.3671
 4063SOL    HW223823   4.178   0.170  12.332  0.5834  0.2415 -1.8504
 4064SOL     OW23824   0.348   4.497   5.025  0.7611  0.1926 -0.2286
 4064SOL    HW123825   0.347   4.560   5.097  0.3958  1.2884 -1.1970
 4064SOL    HW223826   0.309   4.420   5.066  0.8645  1.1195  1.6374
 4065SOL     OW23827   2.439   2.491   1.574  0.5317  0.3910  0.0996
 4065SOL    HW123828   2.442   2.558   1.506  0.1569 -0.3322 -0.6239
 4065SOL    HW223829   2.490   2.418   1.540  0.1645  0.3809 -0.4380
 4066SOL     OW23830   1.746   1.300   2.964 -0.3113  0.2565 -0.2191
 4066SOL    HW123831   1.765   1.372   3.023  0.2973  0.4551 -0.6561
 4066SOL    HW223832   1.744   1.341   2.877  0.8534  3.2860  1.2027
 4067SOL     OW23833   2.766   2.994   2.802 -0.3950  0.2703 -0.8222
 4067SOL    HW123834   2.840   3.003   2.862 -0.4052 -0.3906 -0.7088
 4067SOL    HW223835   2.713   3.072   2.815 -0.8332 -0.1499 -0.0693
 4068SOL     OW23836   4.015   1.617   8.708 -0.0415 -0.0528  0.3504
 4068SOL    HW123837   4.068   1.668   8.769  1.3392  1.0760 -1.7984
 4068SOL    HW223838   3.927   1.655   8.708 -0.7765 -1.7485 -0.9374
 4069SOL     OW23839   2.665   2.638  12.208 -0.5030  0.0338 -0.3689
 4069SOL    HW123840   2.631   2.653  12.296  2.2135  0.6869  0.5762
 4069SOL    HW223841   2.636   2.723  12.174 -1.3087 -0.4147 -0.7936
 4070SOL     OW23842   0.612   0.926   4.288  0.1565 -0.0580  0.2394
 4070SOL    HW123843   0.700   0.893   4.268  0.1895 -0.5283  1.1815
 4070SOL    HW223844   0.595   0.976   4.208 -2.1502 -1.5392 -0.1788
 4071SOL     OW23845   0.736   4.279   2.506  0.3979 -0.3392  0.2367
 4071SOL    HW123846   0.687   4.327   2.439  1.6403  2.3004  1.1898
 4071SOL    HW223847   0.778   4.209   2.456 -2.2657 -1.1305 -0.8804
 4072SOL     OW23848   2.395   3.601   6.010 -0.2944 -0.0079 -0.6560
 4072SOL    HW123849   2.478   3.553   6.016 -0.0621  0.5916  1.0523
 4072SOL    HW223850   2.420   3.690   5.986  1.7840 -0.3545  0.1427
 4073SOL     OW23851   1.394   0.634   6.150 -0.2624  0.5555  0.0539
 4073SOL    HW123852   1.428   0.701   6.091  0.0285 -0.3498 -0.8254
 4073SOL    HW223853   1.321   0.683   6.187 -1.2335 -0.2730 -0.7722
 4074SOL     OW23854   1.992   2.889   9.553 -0.6917  0.8364 -0.5742
 4074SOL    HW123855   2.050   2.888   9.477  0.5511  1.0075  0.3677
 4074SOL    HW223856   1.999   2.979   9.586 -0.9973  0.3944  0.6912
 4075SOL     OW23857   1.898   3.783   5.274 -0.0586 -0.4909 -0.1753
 4075SOL    HW123858   1.946   3.721   5.329  0.4826 -0.6871 -0.8720
 4075SOL    HW223859   1.898   3.851   5.341 -1.2557 -0.9349  0.2779
 4076SOL     OW23860   4.555   1.220   8.507  0.0981  0.5289  0.4685
 4076SOL    HW123861   4.528   1.134   8.541  0.6678  0.0321 -0.3439
 4076SOL    HW223862   4.553   1.275   8.585 -2.7369 -0.3945  1.0384
 4077SOL     OW23863   2.811   4.127   5.696 -0.1344 -0.0244 -0.0312
 4077SOL    HW123864   2.724   4.166   5.707 -0.1387  0.2371 -0.9526
 4077SOL    HW223865   2.841   4.160   5.611 -0.9798  1.3216  0.1858
 4078SOL     OW23866   0.674   3.531  16.838 -0.3556  0.1249  0.3337
 4078SOL    HW123867   0.615   3.555  16.910 -1.6745  0.7243 -0.9266
 4078SOL    HW223868   0.728   3.459  16.870  0.0958  0.6417  0.7301
 4079SOL     OW23869   2.713   3.041  12.976 -0.1098 -0.7569  0.6036
 4079SOL    HW123870   2.650   3.108  13.002  0.8170  0.6473 -0.7782
 4079SOL    HW223871   2.698   2.976  13.044 -0.4512  0.5745  1.8200
 4080SOL     OW23872   4.731   3.910   4.911 -0.6795 -0.3195 -0.4569
 4080SOL    HW123873   0.060   3.844   4.932 -1.0378 -1.0738 -1.7208
 4080SOL    HW223874   0.039   3.993   4.898 -1.0643 -0.0348  0.0094
 4081SOL     OW23875   3.311   2.341   8.681  0.2787  0.1907 -0.2030
 4081SOL    HW123876   3.320   2.310   8.591 -1.0928  2.5368 -1.1444
 4081SOL    HW223877   3.331   2.269   8.742 -1.0034 -1.8616 -2.2055
 4082SOL     OW23878   3.742   1.791   2.550 -0.0208  0.4134 -0.2389
 4082SOL    HW123879   3.798   1.754   2.618 -1.8463 -4.1225 -1.1586
 4082SOL    HW223880   3.773   1.881   2.550 -0.6884  0.6416  0.0179
 4083SOL     OW23881   4.315   4.034  14.405  0.5395 -0.5827  0.5308
 4083SOL    HW123882   4.303   3.960  14.465 -1.5824 -1.9170 -1.5076
 4083SOL    HW223883   4.252   4.013  14.336  0.8210  1.9260 -0.4616
 4084SOL     OW23884   1.969   4.296   8.726  0.2110  0.0523 -0.5155
 4084SOL    HW123885   1.884   4.339   8.722 -0.4711 -1.3488 -1.1106
 4084SOL    HW223886   1.935   4.207   8.737 -1.0612  0.4354 -1.4115
 4085SOL     OW23887   3.904   4.596  13.743  0.4574  0.7529 -0.2043
 4085SOL    HW123888   3.977   4.582  13.803  2.2341  3.9702 -1.6237
 4085SOL    HW223889   3.926   4.544  13.665  0.2742 -2.9473  2.1909
 4086SOL     OW23890   4.315   3.598   1.420  0.0924 -0.1901 -0.1935
 4086SOL    HW123891   4.267   3.678   1.395  1.2703 -0.0122 -1.8683
 4086SOL    HW223892   4.354   3.566   1.339  0.7218  2.4069 -0.9107
 4087SOL     OW23893   1.309   2.221   5.259  0.6037 -0.1221 -0.6949
 4087SOL    HW123894   1.253   2.262   5.324 -0.0600  1.9285 -2.5477
 4087SOL    HW223895   1.334   2.288   5.195  2.4605  0.1567  0.3225
 4088SOL     OW23896   1.860   1.011  12.179  0.4468  0.0058 -0.2143
 4088SOL    HW123897   1.908   0.929  12.166  2.7322  1.1939  0.7608
 4088SOL    HW223898   1.868   1.053  12.093 -0.8107  1.3567  0.3380
 4089SOL     OW23899   2.045   1.317   9.004  0.0841  0.2100 -0.1299
 4089SOL    HW123900   1.958   1.286   8.980  0.8626 -0.8450 -1.5560
 4089SOL    HW223901   2.096   1.264   8.942 -0.9521 -0.5892 -0.2924
 4090SOL     OW23902   3.165   0.362   4.459 -0.6661  0.0356  0.0299
 4090SOL    HW123903   3.197   0.391   4.545  1.8947 -0.8629 -0.6234
 4090SOL    HW223904   3.253   0.348   4.424 -0.0833  0.4379  1.3158
 4091SOL     OW23905   1.625   1.326   5.623 -0.5688 -0.3267  0.0770
 4091SOL    HW123906   1.531   1.312   5.613 -0.6483  0.4643 -0.2986
 4091SOL    HW223907   1.649   1.268   5.694  2.2093 -1.7065 -1.9963
 4092SOL     OW23908   3.552   2.478   7.893  0.2704 -0.6621 -0.1594
 4092SOL    HW123909   3.578   2.454   7.804 -0.9900  2.1250 -1.2766
 4092SOL    HW223910   3.471   2.523   7.870 -0.8684 -2.5609  0.1421
 4093SOL     OW23911   1.972   0.556   4.382  0.4973 -0.4821 -0.3206
 4093SOL    HW123912   2.030   0.493   4.424  0.9219  0.8764  1.1017
 4093SOL    HW223913   1.980   0.635   4.435  2.6339 -0.7349 -0.2564
 4094SOL     OW23914   2.903   4.698   6.800  0.1387 -0.0551  0.1501
 4094SOL    HW123915   2.878   4.605   6.808 -1.4418  0.3417 -0.1326
 4094SOL    HW223916   2.821   4.731   6.763 -0.1547 -0.7400  0.1738
 4095SOL     OW23917   0.541   3.703   7.850  0.0454  0.3725  0.0574
 4095SOL    HW123918   0.561   3.766   7.920 -1.3030 -1.4022  2.0475
 4095SOL    HW223919   0.616   3.645   7.840  0.8527  1.1458  1.4503
 4096SOL     OW23920   4.721   4.604   8.638 -0.5532 -0.4210  0.4001
 4096SOL    HW123921   0.056   4.656   8.672 -0.0659  0.8046 -2.5182
 4096SOL    HW223922   4.728   4.628   8.546  2.1814 -2.2176  0.1223
 4097SOL     OW23923   3.631   0.877   3.368  0.2668 -0.1601  0.5276
 4097SOL    HW123924   3.635   0.785   3.393 -4.1543 -0.3639  0.4237
 4097SOL    HW223925   3.577   0.914   3.438  0.7119  0.9126  0.3045
 4098SOL     OW23926   2.768   2.244   8.697 -0.7846 -0.4428  0.2532
 4098SOL    HW123927   2.813   2.234   8.780  0.6304  0.0499 -0.4595
 4098SOL    HW223928   2.680   2.217   8.723 -1.0113 -2.0406 -2.0960
 4099SOL     OW23929   2.902   2.124   0.958 -0.1549  0.1243  0.2536
 4099SOL    HW123930   2.917   2.218   0.961  2.6017 -0.2802 -0.3415
 4099SOL    HW223931   2.816   2.125   1.000 -0.7947 -0.0982 -1.0486
 4100SOL     OW23932   2.146   2.001  13.773 -1.0215 -0.1617 -0.0115
 4100SOL    HW123933   2.218   1.977  13.831  0.4765 -2.7296 -2.9516
 4100SOL    HW223934   2.160   1.937  13.703  2.3317 -1.0593  1.5011
 4101SOL     OW23935   4.612   2.480  11.014  0.2208  0.0672  0.3503
 4101SOL    HW123936   4.638   2.568  11.039  2.5352 -0.2462 -0.9577
 4101SOL    HW223937   4.558   2.506  10.939 -0.7931 -0.7418  0.8010
 4102SOL     OW23938   2.365   3.522   5.102  0.0167  0.2682  0.4024
 4102SOL    HW123939   2.278   3.512   5.140  1.0091 -3.3010  1.7621
 4102SOL    HW223940   2.422   3.481   5.166  1.7387 -0.3032 -1.4906
 4103SOL     OW23941   0.968   0.322  14.929 -0.1890 -0.8881  0.0436
 4103SOL    HW123942   0.880   0.360  14.928  0.1586 -0.1104 -2.5965
 4103SOL    HW223943   1.013   0.365  15.001 -0.7182 -1.1305  0.5209
 4104SOL     OW23944   4.034   3.462  15.271  0.5365  0.2478 -0.6460
 4104SOL    HW123945   4.079   3.525  15.214  1.5780 -0.4093 -0.5398
 4104SOL    HW223946   4.061   3.386  15.219  0.7954 -0.4298  0.4963
 4105SOL     OW23947   3.778   3.690   8.460  0.2810 -0.1343 -0.4448
 4105SOL    HW123948   3.710   3.751   8.488 -0.0465 -0.2986 -0.8977
 4105SOL    HW223949   3.732   3.611   8.435  1.1009 -1.2919  1.6525
 4106SOL     OW23950   0.239   4.283   5.154  0.3612 -0.5512  0.3233
 4106SOL    HW123951   0.314   4.251   5.203  0.6518  1.1833  1.0113
 4106SOL    HW223952   0.179   4.262   5.226 -0.6827  1.5750  0.0856
 4107SOL     OW23953   3.778   2.483  14.471 -0.1986 -0.0218  0.1150
 4107SOL    HW123954   3.866   2.458  14.500 -0.8911 -1.9535  0.5703
 4107SOL    HW223955   3.801   2.532  14.392  0.7662  1.1073  1.1095
 4108SOL     OW23956   2.050   4.361   7.063  0.0512 -0.0754 -0.2533
 4108SOL    HW123957   2.088   4.403   6.986 -0.5779  0.8908 -0.0440
 4108SOL    HW223958   2.012   4.286   7.018 -2.8020  1.4287 -0.4178
 4109SOL     OW23959   1.195   2.826   7.150  0.6645  0.3206  0.2931
 4109SOL    HW123960   1.127   2.761   7.133  1.5297  0.3001 -2.9786
 4109SOL    HW223961   1.270   2.775   7.120 -1.7764 -1.3414 -2.9526
 4110SOL     OW23962   1.867   0.276   8.142  0.6589 -0.2785 -0.6194
 4110SOL    HW123963   1.851   0.186   8.170 -1.7393  0.9451  1.9703
 4110SOL    HW223964   1.856   0.326   8.223  0.3751 -1.5711  0.1370
 4111SOL     OW23965   2.961   1.351  12.367 -0.4325  0.0654  0.3246
 4111SOL    HW123966   2.943   1.398  12.286  3.7658  0.3893 -0.4063
 4111SOL    HW223967   3.046   1.385  12.396 -0.3568 -1.2388  1.6162
 4112SOL     OW23968   3.169   1.008   1.802 -0.5204 -0.6760 -0.0059
 4112SOL    HW123969   3.222   1.048   1.733 -2.5907  0.3869 -0.9678
 4112SOL    HW223970   3.242   0.985   1.860  0.3329 -1.3492 -1.3319
 4113SOL     OW23971   3.915   3.421   4.113 -0.1122  0.6952 -0.7578
 4113SOL    HW123972   3.920   3.442   4.206 -0.5842 -1.4481 -0.2317
 4113SOL    HW223973   3.821   3.405   4.107  0.0774 -0.6760 -0.1854
 4114SOL     OW23974   0.709   4.263  11.589  0.2072  0.1784 -0.2543
 4114SOL    HW123975   0.783   4.309  11.549  1.5775 -0.2262  1.8549
 4114SOL    HW223976   0.750   4.186  11.627  2.1108  0.6314 -1.3848
 4115SOL     OW23977   2.194   1.211   6.024 -0.4905  0.2228 -0.2484
 4115SOL    HW123978   2.138   1.222   6.101  0.1954  0.7393  0.1786
 4115SOL    HW223979   2.136   1.223   5.949  0.3423  0.8721 -0.7947
 4116SOL     OW23980   4.258   3.152   7.996  0.0055  0.0261 -0.3199
 4116SOL    HW123981   4.171   3.154   7.956  0.6302  2.4613 -1.5681
 4116SOL    HW223982   4.244   3.181   8.086  1.8638  1.1315 -0.3738
 4117SOL     OW23983   2.451   1.140   5.810 -0.0438 -0.0312  0.1779
 4117SOL    HW123984   2.539   1.146   5.774 -0.2754  0.7279 -0.2694
 4117SOL    HW223985   2.428   1.232   5.822 -1.4509 -0.2301 -1.0901
 4118SOL     OW23986   2.192   4.195  16.960 -0.3529  0.0846  0.5963
 4118SOL    HW123987   2.190   4.101  16.942 -1.7420  0.2106  0.0416
 4118SOL    HW223988   2.201   4.232  16.871 -0.6756  1.0206  0.9481
 4119SOL     OW23989   2.758   3.393   6.482  0.7356 -0.6280  0.1480
 4119SOL    HW123990   2.843   3.388   6.438  0.5891 -2.3256  0.0442
 4119SOL    HW223991   2.722   3.323   6.428 -0.6464  0.7008 -0.6631
 4120SOL     OW23992   2.564   3.102   6.621 -0.6308  0.2866  0.0269
 4120SOL    HW123993   2.520   3.022   6.595  0.8003 -0.5473  0.1960
 4120SOL    HW223994   2.502   3.168   6.589 -1.7720 -1.6726 -1.7431
 4121SOL     OW23995   0.509   4.276   9.066  0.6324  0.3033 -0.6585
 4121SOL    HW123996   0.551   4.272   8.980 -0.4745  0.1484 -1.1964
 4121SOL    HW223997   0.419   4.295   9.039  1.0981  2.9215 -0.3471
 4122SOL     OW23998   4.680   3.860   4.666 -0.1936  0.5462  0.3920
 4122SOL    HW123999   0.022   3.899   4.630 -2.2768  2.0128 -2.5599
 4122SOL    HW224000   4.700   3.857   4.760  0.3518  2.5328  0.3351
 4123SOL     OW24001   0.677   0.243   4.008 -0.0084  0.4990  0.0132
 4123SOL    HW124002   0.646   0.244   4.098 -0.2162 -0.0357 -0.0571
 4123SOL    HW224003   0.700   0.153   3.986 -1.8922 -0.1571  0.7382
 4124SOL     OW24004   1.401   1.881   4.605  0.0440  0.2914 -0.5494
 4124SOL    HW124005   1.471   1.842   4.656 -1.8655 -1.1171  1.0142
 4124SOL    HW224006   1.370   1.947   4.666 -0.5441 -0.7892  0.3319
 4125SOL     OW24007   3.693   4.705   9.379  0.3146  0.2833  0.2894
 4125SOL    HW124008   3.780   4.685   9.343  0.6120  0.0115  1.1563
 4125SOL    HW224009   3.652   0.006   9.301 -0.6588  1.0994  1.2057
 4126SOL     OW24010   3.037   0.925  13.533 -0.2470  0.2509  0.0276
 4126SOL    HW124011   2.970   0.882  13.587 -0.1164  1.0840  0.8394
 4126SOL    HW224012   3.074   0.980  13.602  0.6801 -0.7693  0.3471
 4127SOL     OW24013   1.210   2.318  16.312  0.4185  0.1115  0.1206
 4127SOL    HW124014   1.169   2.401  16.289 -1.1088 -0.4159  0.9977
 4127SOL    HW224015   1.171   2.289  16.393 -1.9076 -2.5644 -1.9686
 4128SOL     OW24016   4.333   4.097   4.114 -0.3807  0.0546  0.1513
 4128SOL    HW124017   4.241   4.116   4.095  0.0285  1.6593 -0.2629
 4128SOL    HW224018   4.326   4.003   4.095 -0.8946  0.1126  0.0421
 4129SOL     OW24019   0.397   0.938   8.055 -0.0474  0.2792  0.3374
 4129SOL    HW124020   0.455   0.978   7.991 -1.1432 -0.0227 -0.8354
 4129SOL    HW224021   0.443   0.968   8.134  3.0751 -3.1226 -0.1947
 4130SOL     OW24022   2.246   3.127   4.558 -0.3772 -0.3430 -0.2069
 4130SOL    HW124023   2.201   3.210   4.572 -1.0961 -0.7879  0.1134
 4130SOL    HW224024   2.337   3.150   4.575  0.4579 -2.9533 -1.1525
 4131SOL     OW24025   0.540   0.564   5.185 -0.0176  0.1188 -0.1609
 4131SOL    HW124026   0.568   0.497   5.122 -0.9272  0.5882 -1.0553
 4131SOL    HW224027   0.623   0.593   5.223 -0.9264  0.0787  1.8237
 4132SOL     OW24028   1.951   1.856   6.320 -0.7051  0.0171 -0.1669
 4132SOL    HW124029   2.005   1.778   6.313 -0.0556  0.2234  2.6698
 4132SOL    HW224030   1.893   1.842   6.245  1.7132  1.6434 -2.3515
 4133SOL     OW24031   1.128   2.776  16.875 -0.4760  0.9036 -0.0162
 4133SOL    HW124032   1.190   2.703  16.873 -0.7699  0.6853 -1.1691
 4133SOL    HW224033   1.187   2.847  16.900  1.4402  0.8197 -4.1915
 4134SOL     OW24034   2.547   3.530  14.068 -0.5623  0.1059  0.0126
 4134SOL    HW124035   2.499   3.511  13.988 -1.6181 -2.5451  1.2773
 4134SOL    HW224036   2.482   3.575  14.122  1.2738  1.6342  0.9660
 4135SOL     OW24037   2.797   0.952   0.513 -0.0169  0.3490 -0.6952
 4135SOL    HW124038   2.881   0.993   0.538  1.0731 -1.9999 -0.5143
 4135SOL    HW224039   2.745   0.979   0.589 -0.8100 -0.4195 -0.9777
 4136SOL     OW24040   0.076   0.657   2.850  0.2187  0.2211  0.3354
 4136SOL    HW124041   0.163   0.672   2.812  0.3016 -2.9572 -0.7576
 4136SOL    HW224042   0.021   0.733   2.831  0.1843 -0.4756 -2.4864
 4137SOL     OW24043   3.299   3.400   1.497 -0.5431  0.3723  0.1049
 4137SOL    HW124044   3.252   3.439   1.423 -2.4343 -0.5004  0.8653
 4137SOL    HW224045   3.277   3.307   1.495 -0.8032  0.4055  2.1306
 4138SOL     OW24046   1.257   1.384   6.625 -0.0028 -0.1570  0.4359
 4138SOL    HW124047   1.300   1.323   6.566 -0.3556 -0.3738  0.4015
 4138SOL    HW224048   1.166   1.353   6.631 -0.2584  0.8321  1.8589
 4139SOL     OW24049   2.700   3.552   9.575 -0.2554 -0.0318 -0.1312
 4139SOL    HW124050   2.743   3.631   9.608  0.2823 -1.4888  2.6454
 4139SOL    HW224051   2.610   3.571   9.601 -0.0190 -3.2258  2.8892
 4140SOL     OW24052   1.216   1.058  13.711 -0.0266 -0.2537  0.0615
 4140SOL    HW124053   1.166   1.121  13.763  2.1281  1.1634  0.4159
 4140SOL    HW224054   1.265   1.113  13.650 -0.3204 -1.8085 -1.5745
 4141SOL     OW24055   0.433   3.058  16.259 -0.0363 -0.2628 -0.4185
 4141SOL    HW124056   0.369   3.010  16.207 -0.1172 -1.8137  1.1098
 4141SOL    HW224057   0.404   3.054  16.350 -1.4612 -1.5603 -0.9220
 4142SOL     OW24058   4.319   2.062   4.669  0.1031  0.2947 -0.8071
 4142SOL    HW124059   4.242   2.007   4.682 -0.4547  1.3742  0.5165
 4142SOL    HW224060   4.288   2.125   4.603 -2.0123  1.9657  1.7992
 4143SOL     OW24061   3.406   4.477  17.642 -0.2454  0.6506  0.1771
 4143SOL    HW124062   3.340   4.539  17.610 -0.9725 -0.9284 -1.4077
 4143SOL    HW224063   3.375   4.451  17.728 -0.1391  1.3550  0.4217
 4144SOL     OW24064   0.641   1.787  17.652  0.2273 -0.1290 -0.2519
 4144SOL    HW124065   0.724   1.817  17.614  0.4477  0.6442  0.8410
 4144SOL    HW224066   0.613   1.758  17.565  0.6557  2.7766 -1.3322
 4145SOL     OW24067   2.303   1.612   6.720 -0.0711  0.0249  0.6532
 4145SOL    HW124068   2.210   1.625   6.739  0.8849  0.2775  5.1068
 4145SOL    HW224069   2.293   1.584   6.629  0.4241 -0.8430  0.8697
 4146SOL     OW24070   2.837   3.359   5.600 -0.6396 -0.3188 -0.1951
 4146SOL    HW124071   2.795   3.440   5.628 -0.2543 -0.8988  2.0694
 4146SOL    HW224072   2.920   3.371   5.645 -1.3892  1.2414  0.7374
 4147SOL     OW24073   4.475   4.146   7.880 -0.5061 -0.4943 -0.0703
 4147SOL    HW124074   4.492   4.219   7.820 -1.7254 -0.8604 -0.8608
 4147SOL    HW224075   4.540   4.078   7.862  2.2755  2.3956 -1.0924
 4148SOL     OW24076   3.126   3.844   1.197 -0.2481  0.0746  0.1821
 4148SOL    HW124077   3.106   3.892   1.277 -0.6891  0.0383  0.0923
 4148SOL    HW224078   3.183   3.771   1.223  1.0574  0.9197 -0.2817
 4149SOL     OW24079   2.729   3.806  16.875 -0.8860  0.0580  0.1211
 4149SOL    HW124080   2.773   3.815  16.960  1.1645 -0.5153 -0.8834
 4149SOL    HW224081   2.804   3.816  16.816 -0.6773 -0.2750  0.3262
 4150SOL     OW24082   3.613   0.795   7.455  0.3563 -0.6212  0.3455
 4150SOL    HW124083   3.604   0.859   7.384  1.5713  0.1436  0.8792
 4150SOL    HW224084   3.582   0.720   7.404  2.5426 -0.1171 -1.7414
 4151SOL     OW24085   3.463   2.645   9.563  0.1308 -0.3459 -0.1338
 4151SOL    HW124086   3.381   2.597   9.558 -0.0347  0.1527 -2.6134
 4151SOL    HW224087   3.479   2.640   9.657  1.0308 -1.8543 -0.3737
 4152SOL     OW24088   1.016   4.454   3.285 -0.1639 -0.1539 -0.0133
 4152SOL    HW124089   1.055   4.540   3.266 -1.4622  0.4820  0.1611
 4152SOL    HW224090   1.085   4.403   3.242 -0.3630 -1.2779  1.0162
 4153SOL     OW24091   0.196   1.686   2.702 -0.2021 -0.3985  0.5024
 4153SOL    HW124092   0.287   1.690   2.731 -0.0174  1.7826 -0.3085
 4153SOL    HW224093   0.206   1.679   2.607 -1.1555  1.9534  0.2099
 4154SOL     OW24094   2.361   4.310   6.197  0.0821  0.3920  0.6406
 4154SOL    HW124095   2.369   4.291   6.290 -1.4633 -1.0578  0.4775
 4154SOL    HW224096   2.283   4.259   6.173 -0.3200  1.1286  0.3791
 4155SOL     OW24097   3.745   3.475   5.602  0.7010 -0.2523 -0.3678
 4155SOL    HW124098   3.705   3.388   5.596  0.6916 -0.3050  0.4533
 4155SOL    HW224099   3.700   3.525   5.534  0.3793  2.4226  1.8143
 4156SOL     OW24100   1.585   3.585  14.325  0.0061  0.9353 -0.3767
 4156SOL    HW124101   1.582   3.500  14.369  2.4158  1.4535  0.7613
 4156SOL    HW224102   1.665   3.617  14.367  0.5399 -0.4130 -0.3582
 4157SOL     OW24103   3.627   0.862   6.883 -0.2219  1.1215  0.4104
 4157SOL    HW124104   3.584   0.868   6.798  2.0157 -0.7591 -0.8498
 4157SOL    HW224105   3.584   0.783   6.917  2.4746 -0.6122 -0.2194
 4158SOL     OW24106   2.320   2.380  14.964 -0.1927 -0.0033  0.2159
 4158SOL    HW124107   2.405   2.370  14.921  1.1139  2.0827  2.2935
 4158SOL    HW224108   2.333   2.341  15.050 -0.0294 -0.5933 -0.0796
 4159SOL     OW24109   1.683   0.517   7.739  0.0987  0.0879 -0.3607
 4159SOL    HW124110   1.652   0.473   7.818  0.5678 -0.0370 -0.2467
 4159SOL    HW224111   1.684   0.433   7.694 -2.6094 -0.6023  0.8672
 4160SOL     OW24112   3.477   1.597   3.981  0.7735  0.3669 -0.5761
 4160SOL    HW124113   3.442   1.602   4.069 -0.9259  0.7075 -1.2631
 4160SOL    HW224114   3.429   1.663   3.929 -1.5600 -0.7085  0.1929
 4161SOL     OW24115   4.088   1.579   0.631 -0.1712  0.0497 -0.1839
 4161SOL    HW124116   4.116   1.519   0.561  0.8422  1.7563 -1.2496
 4161SOL    HW224117   4.142   1.552   0.705 -2.9321 -2.1309  1.0447
 4162SOL     OW24118   0.832   3.325   3.595 -0.0976  0.1624 -0.2800
 4162SOL    HW124119   0.793   3.391   3.537 -0.5791  0.5886  0.5188
 4162SOL    HW224120   0.910   3.311   3.542  0.7434  1.8664  0.5050
 4163SOL     OW24121   4.543   1.012   5.481 -0.0779 -0.1425 -0.1819
 4163SOL    HW124122   4.584   1.058   5.554 -3.0026  0.6297  0.9723
 4163SOL    HW224123   4.531   0.921   5.509 -1.8874  0.4011  0.8411
 4164SOL     OW24124   4.688   3.438   4.243 -0.0467 -0.0735  0.0629
 4164SOL    HW124125   0.009   3.366   4.269  0.3591  0.6529  1.1612
 4164SOL    HW224126   0.000   3.520   4.247 -0.9850  0.5636 -1.4846
 4165SOL     OW24127   0.653   2.789   5.016  0.1250 -0.1492  0.0114
 4165SOL    HW124128   0.662   2.884   5.004  1.4384 -0.3322 -0.4303
 4165SOL    HW224129   0.730   2.762   5.066  0.9789 -0.1151 -1.2926
 4166SOL     OW24130   1.304   2.945   8.985 -0.3509  0.3221 -0.1970
 4166SOL    HW124131   1.384   2.894   8.972 -0.5696 -0.1033  0.1575
 4166SOL    HW224132   1.324   3.026   8.936  3.2113  1.0834  2.4817
 4167SOL     OW24133   4.374   4.362   5.122  0.5386 -0.2624 -0.3126
 4167SOL    HW124134   4.387   4.456   5.104 -0.7181 -0.0993 -0.3850
 4167SOL    HW224135   4.370   4.335   5.031  0.9508  2.1807 -1.0734
 4168SOL     OW24136   0.547   0.171  13.749  0.6533 -0.3052  0.3639
 4168SOL    HW124137   0.590   0.104  13.803 -1.7161 -1.3280  1.0068
 4168SOL    HW224138   0.616   0.237  13.741  0.5393 -0.2968 -0.5600
 4169SOL     OW24139   2.482   3.115   9.037  0.3517  0.3762  0.7252
 4169SOL    HW124140   2.449   3.174   9.104  0.6352  1.7421 -0.3158
 4169SOL    HW224141   2.399   3.090   8.996  2.2367  0.4250 -3.1442
 4170SOL     OW24142   3.072   3.984  13.055 -0.4303  0.6509 -0.4561
 4170SOL    HW124143   3.125   4.051  13.012  1.7540  0.1149  1.4292
 4170SOL    HW224144   3.115   3.901  13.037 -0.8681  0.6584 -1.5154
 4171SOL     OW24145   2.707   3.393   8.514  0.1340 -0.1818 -0.5653
 4171SOL    HW124146   2.636   3.434   8.465  0.4383  1.1131  0.0854
 4171SOL    HW224147   2.657   3.318   8.548 -0.1820  0.4073  0.2875
 4172SOL     OW24148   3.465   2.279   5.427  0.6796 -0.4258 -0.4955
 4172SOL    HW124149   3.555   2.254   5.450  0.9521 -0.1394 -1.2693
 4172SOL    HW224150   3.429   2.193   5.405  0.5253 -0.7922  1.1585
 4173SOL     OW24151   1.855   2.889   8.356  0.3280  0.4814  0.4591
 4173SOL    HW124152   1.767   2.889   8.394  1.1884 -1.3579  2.3970
 4173SOL    HW224153   1.859   2.979   8.325 -0.5410 -0.4920 -2.4616
 4174SOL     OW24154   1.471   2.879   3.447 -0.0739  0.1761 -0.0748
 4174SOL    HW124155   1.564   2.859   3.437 -0.1599  0.1628 -0.8718
 4174SOL    HW224156   1.433   2.823   3.379 -1.2364  0.7951  0.0585
 4175SOL     OW24157   0.979   1.038   2.456 -0.4715  0.0748  0.0883
 4175SOL    HW124158   1.020   1.043   2.542 -2.9571 -0.7960  1.3102
 4175SOL    HW224159   0.892   1.010   2.484  0.3794 -2.5621  0.1178
 4176SOL     OW24160   4.114   3.834   9.459  0.3649 -0.1076 -0.1867
 4176SOL    HW124161   4.181   3.895   9.492  1.4893 -1.6967  0.4680
 4176SOL    HW224162   4.106   3.771   9.530 -1.1680  2.2502  1.7625
 4177SOL     OW24163   0.430   1.445   5.773 -0.7802  0.1264 -0.2448
 4177SOL    HW124164   0.425   1.457   5.678  1.5861  2.5985 -0.0734
 4177SOL    HW224165   0.361   1.380   5.781 -1.4471  0.8807  0.0839
 4178SOL     OW24166   4.562   2.864   2.941  0.3729 -0.0965  0.6179
 4178SOL    HW124167   4.531   2.922   3.010 -3.0278 -0.8764 -0.2604
 4178SOL    HW224168   4.655   2.882   2.958  1.0381 -1.4026 -1.5767
 4179SOL     OW24169   3.657   3.023   3.042 -0.4272 -0.3610 -0.6520
 4179SOL    HW124170   3.601   3.072   3.103 -0.2052 -1.7259  0.6549
 4179SOL    HW224171   3.606   2.973   2.979 -0.3478  1.4730 -2.1823
 4180SOL     OW24172   0.873   2.074   5.042 -0.2852 -0.2402  0.6769
 4180SOL    HW124173   0.881   2.126   5.123  3.7496 -0.3500  0.3698
 4180SOL    HW224174   0.841   1.994   5.084  4.5259 -2.3580  0.3027
 4181SOL     OW24175   1.535   3.000   5.837 -0.6494  0.2156  0.2143
 4181SOL    HW124176   1.532   2.907   5.819  0.1598  0.2007  0.1441
 4181SOL    HW224177   1.534   2.997   5.933  0.9096  0.4228  0.2402
 4182SOL     OW24178   0.828   2.563  17.564 -0.6096 -0.1069  0.0798
 4182SOL    HW124179   0.824   2.513  17.482 -0.6180  0.5598 -0.3265
 4182SOL    HW224180   0.900   2.515  17.606  0.6179  1.5893 -0.0761
 4183SOL     OW24181   0.538   3.257   5.411 -0.2939  0.0334  0.2428
 4183SOL    HW124182   0.566   3.191   5.348  2.4498 -0.3700  1.8990
 4183SOL    HW224183   0.622   3.297   5.431  1.2375 -2.6699 -0.8366
 4184SOL     OW24184   2.499   0.203   8.247 -0.1182 -0.2505 -0.2657
 4184SOL    HW124185   2.507   0.240   8.335  1.3686  0.0758 -0.5443
 4184SOL    HW224186   2.496   0.281   8.191 -0.7856  1.3595  2.0094
 4185SOL     OW24187   4.109   0.938   2.704  0.0214  0.9016 -0.1374
 4185SOL    HW124188   4.138   1.022   2.669 -2.2881  1.7036 -0.1498
 4185SOL    HW224189   4.107   0.961   2.797 -2.8687 -0.0551  0.0191
 4186SOL     OW24190   0.673   2.157  17.246 -0.4968 -0.2422 -0.0500
 4186SOL    HW124191   0.758   2.201  17.235 -1.5927  1.7645 -0.5310
 4186SOL    HW224192   0.695   2.070  17.213  3.1146  0.1628  1.2146
 4187SOL     OW24193   3.604   3.536   5.365  0.2224 -0.2039  0.5150
 4187SOL    HW124194   3.550   3.614   5.378  0.4461  0.0685 -0.1711
 4187SOL    HW224195   3.605   3.522   5.270  1.3786 -0.6542  0.5995
 4188SOL     OW24196   2.975   4.398   3.822  0.0903  0.8232  0.3033
 4188SOL    HW124197   2.980   4.305   3.844 -1.2784  0.8250  0.6184
 4188SOL    HW224198   2.959   4.435   3.909 -1.4955 -2.0185  1.2149
 4189SOL     OW24199   4.009   1.500   1.351  0.2986  0.2087 -0.1979
 4189SOL    HW124200   3.945   1.565   1.381 -0.1215 -0.6921  0.9136
 4189SOL    HW224201   4.086   1.547   1.383  0.4811  0.3415 -0.8313
 4190SOL     OW24202   4.358   0.788  16.907  0.4561 -0.6434 -0.3881
 4190SOL    HW124203   4.275   0.765  16.949  0.5898  0.4145  0.4472
 4190SOL    HW224204   4.380   0.705  16.864 -1.2095 -1.2491 -0.0566
 4191SOL     OW24205   3.236   4.325   8.108 -0.0052  0.2317 -0.1588
 4191SOL    HW124206   3.194   4.315   8.194 -2.7607  0.6195 -1.4801
 4191SOL    HW224207   3.160   4.323   8.051  0.0106  1.5031 -0.2209
 4192SOL     OW24208   4.301   2.764   3.046 -0.5365 -0.0710 -0.1618
 4192SOL    HW124209   4.388   2.767   3.006  0.2911 -1.0025  1.5818
 4192SOL    HW224210   4.295   2.856   3.073 -2.5170  0.2839 -1.8298
 4193SOL     OW24211   1.098   1.843   4.732 -0.2683  0.3809  0.3651
 4193SOL    HW124212   1.063   1.855   4.643  0.5237  0.3464  0.0406
 4193SOL    HW224213   1.095   1.935   4.757  0.9365  0.2519  0.9909
 4194SOL     OW24214   2.125   3.267   4.009 -0.3777  0.0866 -0.0559
 4194SOL    HW124215   2.054   3.273   3.945 -0.5496 -0.2043  0.1068
 4194SOL    HW224216   2.159   3.355   4.023  0.5255 -0.2698 -0.0282
 4195SOL     OW24217   2.950   1.483   1.804 -0.2216 -0.3636 -0.1550
 4195SOL    HW124218   2.945   1.392   1.772  1.9433 -0.4629 -0.2172
 4195SOL    HW224219   3.044   1.498   1.811 -0.4697  1.6392 -1.1523
 4196SOL     OW24220   4.158   2.478   4.789 -0.1549 -0.4210  0.3874
 4196SOL    HW124221   4.083   2.432   4.751 -0.4187 -0.6451  1.1840
 4196SOL    HW224222   4.217   2.459   4.716 -0.1045  1.7696 -0.1313
 4197SOL     OW24223   2.291   4.726   1.847 -0.0638  0.0051 -0.5140
 4197SOL    HW124224   2.301   0.044   1.924 -0.2376 -1.5015  0.5994
 4197SOL    HW224225   2.207   0.012   1.808 -1.3467 -1.1358  1.5546
 4198SOL     OW24226   1.997   1.242   3.184  0.0811 -0.0729 -0.0517
 4198SOL    HW124227   2.063   1.184   3.223  0.5296  1.6989  1.8650
 4198SOL    HW224228   1.949   1.183   3.127  0.5993 -0.8619  0.3224
 4199SOL     OW24229   3.566   3.591   1.778 -0.0291  0.8175 -0.1123
 4199SOL    HW124230   3.548   3.628   1.864  0.5281  1.5973 -0.3291
 4199SOL    HW224231   3.485   3.541   1.773  0.7291 -0.3643 -0.6091
 4200SOL     OW24232   2.780   0.884   7.862  0.0853  0.6377  0.4668
 4200SOL    HW124233   2.760   0.826   7.789  1.8084  1.8175 -0.9353
 4200SOL    HW224234   2.693   0.913   7.890 -0.9062 -0.7504 -1.1911
 4201SOL     OW24235   3.673   3.887   9.367 -0.5359 -0.3759  0.3642
 4201SOL    HW124236   3.640   3.942   9.438 -0.3727 -0.2797  0.3646
 4201SOL    HW224237   3.766   3.909   9.364  0.0419 -2.9871 -0.5622
 4202SOL     OW24238   4.641   1.690   3.882 -0.0311 -0.6045 -0.5377
 4202SOL    HW124239   4.589   1.612   3.866 -1.3069  0.1330  0.0344
 4202SOL    HW224240   4.600   1.748   3.818 -0.5878  1.4636  1.6927
 4203SOL     OW24241   0.634   4.118  12.198  0.3776 -0.3344 -0.3628
 4203SOL    HW124242   0.711   4.174  12.210  0.1247  0.0290 -0.4484
 4203SOL    HW224243   0.594   4.111  12.285  1.2171  0.6388  0.0928
 4204SOL     OW24244   1.443   4.166   7.967 -0.9126  0.0354 -0.0237
 4204SOL    HW124245   1.488   4.170   7.883  1.4401  1.4057  1.3082
 4204SOL    HW224246   1.521   4.166   8.023 -0.0720  0.9759 -1.2054
 4205SOL     OW24247   1.488   1.189   8.133  0.1713  0.0967 -0.2919
 4205SOL    HW124248   1.471   1.157   8.222  0.5065  2.9351  0.7912
 4205SOL    HW224249   1.498   1.104   8.091 -0.9136 -0.7863  1.2555
 4206SOL     OW24250   4.526   1.443   5.207  0.0855 -0.5572 -0.0768
 4206SOL    HW124251   4.552   1.360   5.247 -0.0274 -0.1626  0.8116
 4206SOL    HW224252   4.432   1.428   5.196 -0.2447  0.8391  0.7847
 4207SOL     OW24253   2.925   3.565   1.910  0.8587  0.1183  0.1742
 4207SOL    HW124254   3.011   3.579   1.951 -0.0627  0.0024  2.1168
 4207SOL    HW224255   2.932   3.492   1.848  1.1694 -1.1644  1.6930
 4208SOL     OW24256   1.040   1.842  16.378 -0.6166 -0.0786 -0.5326
 4208SOL    HW124257   1.108   1.892  16.424 -0.3390 -0.3865 -0.6020
 4208SOL    HW224258   1.063   1.763  16.427  0.0994 -0.3987 -1.3753
 4209SOL     OW24259   4.157   0.275   6.504 -0.0593  0.3370 -0.3520
 4209SOL    HW124260   4.065   0.259   6.482  0.3788 -2.9587  0.1508
 4209SOL    HW224261   4.205   0.192   6.503  3.1068  2.1820 -2.0551
 4210SOL     OW24262   4.421   2.956   0.768  0.0766  0.5415  0.3256
 4210SOL    HW124263   4.364   2.973   0.843 -2.7674  1.7353 -2.0942
 4210SOL    HW224264   4.482   3.029   0.777  0.7769  0.0868 -0.7370
 4211SOL     OW24265   4.292   4.089   8.242  0.2286  0.0676  0.2416
 4211SOL    HW124266   4.366   4.110   8.299  1.0283  1.9570 -1.4983
 4211SOL    HW224267   4.309   3.998   8.219 -0.9275 -0.1182  0.1084
 4212SOL     OW24268   1.267   0.805  16.438  0.3583 -0.1497 -0.2051
 4212SOL    HW124269   1.273   0.730  16.497 -0.5884 -1.6344 -1.9841
 4212SOL    HW224270   1.263   0.879  16.498 -2.0804 -0.0151 -0.5278
 4213SOL     OW24271   2.272   3.015   6.319 -0.1984 -0.1995  0.0061
 4213SOL    HW124272   2.252   2.926   6.292 -0.3470 -0.4205  0.8326
 4213SOL    HW224273   2.367   3.002   6.324  0.0782  1.8062  0.0911
 4214SOL     OW24274   2.862   4.111   1.328 -0.7430 -0.5814 -0.1016
 4214SOL    HW124275   2.925   4.041   1.343  0.3102  0.5487  0.7776
 4214SOL    HW224276   2.822   4.110   1.415 -1.9760  2.7600 -0.6242
 4215SOL     OW24277   3.433   3.061   3.509 -0.0211  0.8322  0.1746
 4215SOL    HW124278   3.402   3.144   3.474 -0.6135  1.4774  2.2095
 4215SOL    HW224279   3.356   3.005   3.494  2.4771 -2.2715 -0.9880
 4216SOL     OW24280   2.950   0.208   4.350  0.4079  0.7992 -0.2953
 4216SOL    HW124281   3.034   0.238   4.383  0.1974  0.6125  0.4061
 4216SOL    HW224282   2.936   0.275   4.283  0.5502 -0.2546 -1.3878
 4217SOL     OW24283   1.626   2.433   9.789  0.3656 -0.5261  0.2722
 4217SOL    HW124284   1.720   2.441   9.807  0.1625 -2.0144  2.0993
 4217SOL    HW224285   1.604   2.358   9.845  1.4801 -0.4783  0.7674
 4218SOL     OW24286   2.750   3.130   8.967 -0.0581 -0.1370  0.6162
 4218SOL    HW124287   2.733   3.075   8.891  1.4716  2.1215 -1.3576
 4218SOL    HW224288   2.666   3.136   9.014 -1.4236 -2.4158 -1.5515
 4219SOL     OW24289   0.195   1.201   6.521 -0.1719  0.1447 -0.4142
 4219SOL    HW124290   0.145   1.126   6.552  0.2276 -0.4140 -1.1401
 4219SOL    HW224291   0.242   1.233   6.598 -2.7225  0.2915  1.0874
 4220SOL     OW24292   0.678   0.188   3.158 -0.1935 -0.2893 -0.1624
 4220SOL    HW124293   0.757   0.158   3.114 -0.0041 -0.8718  0.5636
 4220SOL    HW224294   0.608   0.169   3.095  0.8624 -2.2911 -0.7539
 4221SOL     OW24295   0.535   3.327   6.196  0.2690 -0.3872 -0.0807
 4221SOL    HW124296   0.536   3.240   6.156  2.9605 -1.3064  1.9731
 4221SOL    HW224297   0.503   3.302   6.282  1.6995  1.8269  1.1089
 4222SOL     OW24298   1.606   1.291   3.644 -0.1707 -0.1946 -0.1884
 4222SOL    HW124299   1.518   1.278   3.680 -0.5037 -0.7329 -1.1986
 4222SOL    HW224300   1.631   1.371   3.691 -1.2025 -1.1658  2.0571
 4223SOL     OW24301   3.037   0.104  13.009  0.5846  0.6041  0.9497
 4223SOL    HW124302   3.054   0.191  13.045 -1.0336  0.7655  1.3361
 4223SOL    HW224303   2.943   0.103  13.026  0.1647 -1.4345 -1.4908
 4224SOL     OW24304   2.766   2.879  10.439  0.3375 -0.0094  0.4658
 4224SOL    HW124305   2.738   2.969  10.424 -0.8255 -0.0714  2.2168
 4224SOL    HW224306   2.744   2.860  10.530  0.3378  0.5986  0.5882
 4225SOL     OW24307   0.125   3.104   1.448  0.4180 -0.0137 -0.0142
 4225SOL    HW124308   0.075   3.025   1.427  0.4129 -0.5001  1.8402
 4225SOL    HW224309   0.176   3.111   1.367  0.3764  0.1375 -0.0270
 4226SOL     OW24310   0.695   3.524   3.476  0.0999  0.4945 -0.0639
 4226SOL    HW124311   0.714   3.613   3.444  1.7459  0.0871 -0.2388
 4226SOL    HW224312   0.617   3.506   3.424 -0.3242  0.2255  0.6646
 4227SOL     OW24313   1.142   0.301   3.358 -0.3840 -0.0233 -0.2454
 4227SOL    HW124314   1.129   0.390   3.390 -1.1257 -0.4009  0.5097
 4227SOL    HW224315   1.099   0.318   3.275  0.9032  0.7701 -0.7450
 4228SOL     OW24316   3.966   0.611   4.986  0.0188  0.0237  0.1264
 4228SOL    HW124317   3.902   0.657   5.042 -1.0857 -0.5611 -0.6592
 4228SOL    HW224318   4.052   0.625   5.027  0.3412  1.1557 -0.9543
 4229SOL     OW24319   3.223   1.480   1.819  0.0600 -0.4530 -0.1939
 4229SOL    HW124320   3.256   1.425   1.748  0.0629  1.2927 -1.5470
 4229SOL    HW224321   3.257   1.441   1.900  1.2078 -1.4540 -1.1578
 4230SOL     OW24322   1.480   1.125  16.173 -0.5032  0.0340  0.0972
 4230SOL    HW124323   1.517   1.055  16.226  0.3029 -0.3176 -0.9400
 4230SOL    HW224324   1.474   1.083  16.088 -4.0467  0.3952  0.1773
 4231SOL     OW24325   3.176   2.889   2.434  0.0585  0.0473  0.5382
 4231SOL    HW124326   3.143   2.811   2.390 -1.2660  0.8353  0.1555
 4231SOL    HW224327   3.188   2.878   2.528 -0.2371  2.1400  0.8115
 4232SOL     OW24328   2.921   2.220  11.850  0.1477 -0.1379  0.3376
 4232SOL    HW124329   2.966   2.292  11.894  0.5746 -0.6561  0.7406
 4232SOL    HW224330   2.835   2.230  11.890  0.7849  1.5915  1.2686
 4233SOL     OW24331   3.819   1.785   8.607 -0.3159 -0.1898 -0.1221
 4233SOL    HW124332   3.867   1.860   8.641  0.1180 -0.4015 -0.2719
 4233SOL    HW224333   3.821   1.808   8.514  0.3893 -0.2816 -0.1288
 4234SOL     OW24334   3.166   2.903   0.372 -1.0036 -0.7316  0.9051
 4234SOL    HW124335   3.219   2.850   0.431 -1.7902 -1.2280  1.1506
 4234SOL    HW224336   3.206   2.990   0.365  0.5444 -1.4709  0.6529
 4235SOL     OW24337   0.625   4.459   7.396 -0.1241 -0.0839  0.0259
 4235SOL    HW124338   0.706   4.506   7.413 -0.0696  0.1388 -0.8883
 4235SOL    HW224339   0.573   4.532   7.363  0.2632 -0.0728 -0.5690
 4236SOL     OW24340   3.219   3.787   2.562  0.0646 -0.0631 -0.0928
 4236SOL    HW124341   3.257   3.741   2.488  0.7692 -2.4654  1.7570
 4236SOL    HW224342   3.128   3.757   2.562  0.5747 -1.6148  0.7946
 4237SOL     OW24343   3.855   0.764   3.787  0.5860 -0.0666 -0.2235
 4237SOL    HW124344   3.936   0.749   3.836  0.1904 -0.2519  0.3830
 4237SOL    HW224345   3.805   0.829   3.837  0.0651 -0.7744  0.1818
 4238SOL     OW24346   3.565   0.371  12.530  0.4406 -0.3330  0.3491
 4238SOL    HW124347   3.545   0.282  12.501  1.0572  0.3519 -2.1673
 4238SOL    HW224348   3.550   0.361  12.624  3.0168  0.2441  0.8082
 4239SOL     OW24349   3.010   4.123   2.507 -0.2036  0.3120  0.1261
 4239SOL    HW124350   3.071   4.113   2.580  1.1286 -1.0757 -1.1681
 4239SOL    HW224351   2.989   4.216   2.510  0.5199  0.5509 -2.0869
 4240SOL     OW24352   0.178   2.463  12.984  0.3966 -0.2102  0.1289
 4240SOL    HW124353   0.096   2.430  13.021 -1.5280  1.7890 -2.2975
 4240SOL    HW224354   0.234   2.387  12.997  0.1140 -0.4648 -0.1623
 4241SOL     OW24355   0.212   2.055   2.398 -0.4375 -0.1642  0.1836
 4241SOL    HW124356   0.120   2.047   2.372 -0.0069 -2.7781 -0.4982
 4241SOL    HW224357   0.195   2.056   2.492  0.1463 -1.7061  0.3117
 4242SOL     OW24358   0.435   3.976  13.174  0.4362 -0.1663  0.4133
 4242SOL    HW124359   0.462   3.888  13.201 -1.6135 -1.0348 -0.3549
 4242SOL    HW224360   0.511   4.007  13.125  0.6682 -1.2603  0.0817
 4243SOL     OW24361   0.435   2.818   8.287  0.5790 -0.9136 -0.6234
 4243SOL    HW124362   0.490   2.893   8.264 -0.0226 -0.1977  0.2690
 4243SOL    HW224363   0.370   2.829   8.218 -1.0189 -1.3056  0.8216
 4244SOL     OW24364   1.364   2.510   5.403 -0.4620  0.1660 -0.4073
 4244SOL    HW124365   1.372   2.437   5.465 -0.9057  0.5288  0.0812
 4244SOL    HW224366   1.457   2.526   5.391  0.0017 -1.9070  0.3678
 4245SOL     OW24367   0.360   1.335   1.388 -0.2256 -0.5447 -0.1400
 4245SOL    HW124368   0.419   1.290   1.448 -2.9437 -1.5003  1.8372
 4245SOL    HW224369   0.380   1.287   1.307 -0.8453 -0.9440 -0.0595
 4246SOL     OW24370   3.631   3.001   3.728 -0.2885  0.6809 -0.0577
 4246SOL    HW124371   3.552   3.054   3.718 -0.0684  1.1775  0.8444
 4246SOL    HW224372   3.646   3.000   3.823  0.0785  1.2241 -0.1099
 4247SOL     OW24373   0.682   2.286  14.971  0.0360  0.0414  1.1105
 4247SOL    HW124374   0.748   2.329  14.917 -0.5297 -1.6642 -0.9438
 4247SOL    HW224375   0.695   2.195  14.944 -2.4220  0.4446 -1.4086
 4248SOL     OW24376   2.790   2.086   1.488  0.2090 -0.2368 -0.2652
 4248SOL    HW124377   2.838   2.100   1.406  0.5814 -0.4093 -0.0759
 4248SOL    HW224378   2.736   2.011   1.465  1.1149 -1.2717  0.9908
 4249SOL     OW24379   0.452   0.016  15.667 -0.0228  0.3702  0.2865
 4249SOL    HW124380   0.448   4.711  15.752  0.0389 -2.8712 -1.3080
 4249SOL    HW224381   0.447   4.682  15.603  0.6702  0.3591  0.2389
 4250SOL     OW24382   4.314   1.411  10.114 -0.1921 -0.1253 -0.0231
 4250SOL    HW124383   4.313   1.474  10.043  0.3730 -1.6974 -1.4119
 4250SOL    HW224384   4.267   1.467  10.176 -0.0380 -1.3018  1.1584
 4251SOL     OW24385   3.871   0.260   9.560 -0.1902 -0.4492  0.0012
 4251SOL    HW124386   3.860   0.247   9.655  1.4465  1.2027  0.4162
 4251SOL    HW224387   3.865   0.169   9.532  0.2371 -0.9785  1.6010
 4252SOL     OW24388   2.336   2.488   1.942  0.0228  0.6003 -0.4880
 4252SOL    HW124389   2.303   2.429   2.010  0.9280 -1.1585 -1.5770
 4252SOL    HW224390   2.295   2.571   1.964  0.9128  0.0633  3.1131
 4253SOL     OW24391   3.872   0.033  14.132  0.3403 -0.2031 -0.4410
 4253SOL    HW124392   3.806   4.730  14.075 -1.2607 -0.3455  1.5316
 4253SOL    HW224393   3.887   0.117  14.090 -1.4478  0.0269 -0.6126
 4254SOL     OW24394   3.074   4.607   7.025 -0.3109 -0.0126 -0.5052
 4254SOL    HW124395   3.164   4.603   6.992 -0.4278 -1.7011 -0.6403
 4254SOL    HW224396   3.033   4.544   6.965 -1.3291  1.1456 -1.0178
 4255SOL     OW24397   0.452   1.258   8.502 -0.1602 -0.5950  0.1502
 4255SOL    HW124398   0.504   1.178   8.496 -0.3843 -0.9886  3.0993
 4255SOL    HW224399   0.477   1.270   8.594  0.4146 -1.9323  0.1762
 4256SOL     OW24400   1.591   2.922   6.906 -0.1813 -0.0346 -0.0511
 4256SOL    HW124401   1.546   3.004   6.888  0.5944  0.4267  0.1297
 4256SOL    HW224402   1.674   2.946   6.866 -0.0389  1.9003  1.4017
 4257SOL     OW24403   3.129   1.749   5.526  0.7201 -0.4525  0.2835
 4257SOL    HW124404   3.161   1.704   5.448  1.1091 -2.1838  1.4600
 4257SOL    HW224405   3.041   1.713   5.528  0.1476  0.8416 -1.6718
 4258SOL     OW24406   3.248   2.064   7.215  0.7177 -0.2168  0.1885
 4258SOL    HW124407   3.280   1.973   7.222 -2.5503 -1.3908 -0.2936
 4258SOL    HW224408   3.183   2.050   7.147  0.1740 -0.1740  0.7053
 4259SOL     OW24409   1.534   1.906   7.721  0.2331 -0.2053  0.2198
 4259SOL    HW124410   1.465   1.972   7.727  0.8879  0.3902  1.0640
 4259SOL    HW224411   1.570   1.915   7.809  0.1928  0.2183  0.1909
 4260SOL     OW24412   2.235   3.947   4.968 -0.0779  0.2157 -0.4236
 4260SOL    HW124413   2.142   3.950   4.990 -0.0419  3.5707 -0.8094
 4260SOL    HW224414   2.256   4.028   4.921  2.1160 -3.1066 -5.2210
 4261SOL     OW24415   1.717   1.069  15.985 -0.0190  0.4099  0.7945
 4261SOL    HW124416   1.639   1.029  15.947 -0.8144  1.9519  0.8078
 4261SOL    HW224417   1.777   0.999  15.960  3.4030  2.8688  2.1075
 4262SOL     OW24418   4.340   3.451   1.879  0.2059  0.0953 -0.3695
 4262SOL    HW124419   4.431   3.450   1.908  0.9465 -1.3671 -2.7135
 4262SOL    HW224420   4.342   3.367   1.833 -1.1767 -1.0311  1.6558
 4263SOL     OW24421   0.208   2.982   6.112  0.2096  0.3502  1.1598
 4263SOL    HW124422   0.202   2.915   6.180 -0.7707  0.7986  1.5122
 4263SOL    HW224423   0.232   2.916   6.047 -0.5381  0.4421  0.7938
 4264SOL     OW24424   2.989   4.023   0.623 -0.2000 -0.0512 -0.2440
 4264SOL    HW124425   3.075   4.058   0.604 -0.4473  0.1541 -0.9694
 4264SOL    HW224426   3.008   3.945   0.675  1.4798  1.1794  0.9752
 4265SOL     OW24427   2.430   2.938  10.441  0.4971 -0.2559  0.3004
 4265SOL    HW124428   2.488   2.874  10.398  0.9389 -1.0576  2.0891
 4265SOL    HW224429   2.476   2.952  10.524  3.5251 -2.3950 -1.0064
 4266SOL     OW24430   1.079   1.845  12.091 -0.0666  0.2231 -0.5867
 4266SOL    HW124431   1.056   1.754  12.106 -0.1857 -0.2387 -3.6476
 4266SOL    HW224432   1.127   1.862  12.172 -1.8019  1.1401  0.2423
 4267SOL     OW24433   3.115   1.998   1.808 -0.2738 -0.3154  0.1441
 4267SOL    HW124434   3.130   1.905   1.791 -1.1267 -0.7263  1.5898
 4267SOL    HW224435   3.021   2.005   1.792 -0.3933  1.0949  1.4480
 4268SOL     OW24436   3.554   2.089   8.973 -0.5136  0.4415 -0.3033
 4268SOL    HW124437   3.490   2.115   8.907 -0.8718 -0.9455 -0.5099
 4268SOL    HW224438   3.555   1.998   8.942 -3.0204  0.2013  0.3269
 4269SOL     OW24439   0.752   4.593   9.415 -0.0436 -0.4238  0.1406
 4269SOL    HW124440   0.708   4.526   9.364 -1.8665  0.4626  0.5505
 4269SOL    HW224441   0.780   4.542   9.491 -2.1606  0.8696  1.7936
 4270SOL     OW24442   3.015   0.306  11.947 -0.4111  0.7741 -0.3446
 4270SOL    HW124443   2.984   0.268  11.865 -0.6350 -0.3986  0.2766
 4270SOL    HW224444   3.061   0.389  11.932  0.2776  0.7516  1.6736
 4271SOL     OW24445   3.550   2.797  12.904  0.3359 -0.1994 -0.0422
 4271SOL    HW124446   3.600   2.763  12.830 -0.0566 -0.0076 -0.3961
 4271SOL    HW224447   3.473   2.742  12.889 -0.6615  1.7456 -2.1394
 4272SOL     OW24448   2.688   0.641   7.176 -0.1022  0.0512  0.0644
 4272SOL    HW124449   2.643   0.565   7.139 -0.3852 -0.0300  0.5765
 4272SOL    HW224450   2.744   0.596   7.240  0.0951 -1.6811 -1.3160
 4273SOL     OW24451   2.640   2.872   4.343  0.0451  0.5640  0.3072
 4273SOL    HW124452   2.603   2.945   4.292  0.3424  2.5990  3.0187
 4273SOL    HW224453   2.728   2.905   4.364 -0.4077  1.0240  1.4560
 4274SOL     OW24454   2.683   0.669   3.678 -0.1779 -0.3086 -0.3632
 4274SOL    HW124455   2.601   0.717   3.666  0.5315  1.1336  0.4853
 4274SOL    HW224456   2.738   0.738   3.716 -1.0198 -0.0120  0.3246
 4275SOL     OW24457   1.714   1.515   5.831  0.0366  0.2843  0.3460
 4275SOL    HW124458   1.677   1.427   5.820 -0.6309  0.4598  1.2040
 4275SOL    HW224459   1.724   1.514   5.926  0.5326 -0.6095  0.2951
 4276SOL     OW24460   3.086   1.103  12.479 -0.0843  0.4050  0.2104
 4276SOL    HW124461   3.034   1.183  12.475  1.8955  1.6207 -1.0053
 4276SOL    HW224462   3.174   1.132  12.500  0.4104 -1.2653  0.4256
 4277SOL     OW24463   4.315   2.334   0.404 -0.2759 -0.3724  0.4953
 4277SOL    HW124464   4.358   2.365   0.324 -2.0363  1.0869  0.1129
 4277SOL    HW224465   4.232   2.296   0.375  0.3398 -2.1427  1.0457
 4278SOL     OW24466   1.659   1.033   8.483  0.1609 -0.1954  0.1306
 4278SOL    HW124467   1.645   1.066   8.572  0.2220  1.0877 -0.3331
 4278SOL    HW224468   1.746   0.996   8.495  1.0065  2.6447  2.8775
 4279SOL     OW24469   0.488   2.970   4.770 -0.4391  0.0431 -0.0324
 4279SOL    HW124470   0.483   3.040   4.705  2.4824  0.3593  0.0929
 4279SOL    HW224471   0.465   2.901   4.707  3.2431 -1.2465  0.0766
 4280SOL     OW24472   3.497   3.418   4.666 -0.2232  0.1754 -0.1273
 4280SOL    HW124473   3.411   3.445   4.633 -0.4015 -2.4906 -1.8725
 4280SOL    HW224474   3.494   3.324   4.683  1.2419  0.0467 -0.5589
 4281SOL     OW24475   3.827   4.429   7.212 -0.5364  0.5788  0.0290
 4281SOL    HW124476   3.789   4.506   7.253  1.6655  1.5342  0.2892
 4281SOL    HW224477   3.749   4.385   7.180 -0.0040  1.3444 -2.2869
 4282SOL     OW24478   1.401   2.639   6.032  0.3385 -0.5158  0.2944
 4282SOL    HW124479   1.441   2.677   5.953 -0.5157  0.3225  0.2690
 4282SOL    HW224480   1.471   2.581   6.062 -0.4838 -2.1044 -0.8999
 4283SOL     OW24481   0.155   4.272   2.915 -0.4290  0.5697 -0.1877
 4283SOL    HW124482   0.159   4.350   2.859  0.5920 -0.4603 -1.5314
 4283SOL    HW224483   0.095   4.212   2.872  1.1813 -0.5275 -0.8679
 4284SOL     OW24484   0.365   2.222  16.938  0.2492 -0.1178  0.2495
 4284SOL    HW124485   0.349   2.291  16.875  0.6572 -0.1553  0.1086
 4284SOL    HW224486   0.274   2.205  16.963  0.4893  1.6386  2.3553
 4285SOL     OW24487   3.432   1.438   9.876 -0.3315  0.0712 -0.5093
 4285SOL    HW124488   3.351   1.388   9.892 -1.0684  1.9632  1.6452
 4285SOL    HW224489   3.432   1.492   9.955 -1.6189  0.4712 -0.7925
 4286SOL     OW24490   1.306   2.661   4.628 -0.4862  0.1246  0.2599
 4286SOL    HW124491   1.297   2.743   4.581  0.4704 -0.2414 -0.5449
 4286SOL    HW224492   1.219   2.624   4.613 -0.2753  1.0916 -3.2926
 4287SOL     OW24493   1.908   2.770   2.527 -0.7489 -0.1597 -0.4446
 4287SOL    HW124494   1.877   2.699   2.583 -1.2906 -1.4937 -2.4639
 4287SOL    HW224495   1.955   2.724   2.458 -0.4994 -0.0094 -0.3776
 4288SOL     OW24496   1.018   1.872   6.729 -0.5540  0.1573  0.3212
 4288SOL    HW124497   0.950   1.820   6.687  0.9512 -0.5674 -1.2432
 4288SOL    HW224498   1.080   1.870   6.656 -0.8613  0.7220  0.0473
 4289SOL     OW24499   2.069   3.730   3.111  0.4710 -0.4051 -0.2894
 4289SOL    HW124500   2.101   3.744   3.021 -2.1745  2.5050 -0.7921
 4289SOL    HW224501   2.050   3.636   3.109  0.5002 -0.4573  2.9996
 4290SOL     OW24502   2.702   1.340   8.611 -0.1357 -0.0001 -0.2330
 4290SOL    HW124503   2.731   1.432   8.614  0.9479 -0.2561 -2.5870
 4290SOL    HW224504   2.786   1.294   8.613  0.1816  0.6242  1.1647
 4291SOL     OW24505   0.997   0.107   7.399 -0.1437  0.3676  0.0825
 4291SOL    HW124506   1.051   0.084   7.323 -0.2257  2.2862 -0.5466
 4291SOL    HW224507   0.934   0.163   7.356  0.3221  0.4661 -0.4759
 4292SOL     OW24508   0.408   0.395   5.504  0.0405  0.3313  0.0469
 4292SOL    HW124509   0.429   0.488   5.518  0.1495  0.4322 -0.7433
 4292SOL    HW224510   0.392   0.362   5.592  1.1895 -0.7032 -0.1474
 4293SOL     OW24511   1.235   2.030  15.192 -0.1076 -0.4726 -0.5614
 4293SOL    HW124512   1.169   2.043  15.260  1.4196  2.9772  0.2739
 4293SOL    HW224513   1.184   2.031  15.111 -0.5963  0.8809 -0.2306
 4294SOL     OW24514   0.240   3.750  14.727  0.4730  0.8844 -0.0238
 4294SOL    HW124515   0.242   3.656  14.746 -2.1421  0.5607 -1.3204
 4294SOL    HW224516   0.165   3.760  14.786  0.9653  0.2888  0.6982
 4295SOL     OW24517   3.627   2.723   7.458 -0.0030  0.4749 -0.2101
 4295SOL    HW124518   3.656   2.813   7.466 -1.0728  0.6397  2.0944
 4295SOL    HW224519   3.680   2.684   7.389 -0.5041  0.4946 -0.6024
 4296SOL     OW24520   1.617   0.391  13.569 -0.1159  0.2089  0.2126
 4296SOL    HW124521   1.547   0.355  13.624  0.9808 -1.5624  0.4438
 4296SOL    HW224522   1.615   0.486  13.580 -0.5465  0.4957 -2.3969
 4297SOL     OW24523   3.922   4.717   8.300  0.2645  0.1753  0.1138
 4297SOL    HW124524   3.948   0.028   8.221  0.3345  2.9137  1.7887
 4297SOL    HW224525   3.837   4.682   8.275  1.1122 -1.7449 -0.0710
 4298SOL     OW24526   2.150   1.665   4.041 -0.0316 -0.5756 -0.4703
 4298SOL    HW124527   2.177   1.753   4.067 -2.6180 -0.1200  0.6794
 4298SOL    HW224528   2.117   1.682   3.952 -0.0377  0.3891 -0.2859
 4299SOL     OW24529   1.260   0.593   7.640 -0.3037  0.1469  0.3512
 4299SOL    HW124530   1.302   0.633   7.717 -0.0534  1.6146 -0.5453
 4299SOL    HW224531   1.221   0.673   7.605  0.3230  0.7872  1.0934
 4300SOL     OW24532   1.761   1.491   8.484 -0.9447 -0.4663  0.1318
 4300SOL    HW124533   1.737   1.419   8.541  1.6387 -1.5660 -0.2007
 4300SOL    HW224534   1.740   1.558   8.549  0.0687  1.5519 -1.6326
 4301SOL     OW24535   4.391   1.636   6.187 -0.0888 -0.5155  0.3793
 4301SOL    HW124536   4.407   1.637   6.092  0.1082  1.3304  0.4304
 4301SOL    HW224537   4.297   1.620   6.184 -0.1165 -0.2201 -0.6638
 4302SOL     OW24538   0.058   1.082   1.454 -0.0077  0.6697  0.5243
 4302SOL    HW124539   0.086   0.994   1.479 -0.8472 -0.6883 -3.4259
 4302SOL    HW224540   0.089   1.123   1.536 -0.2627  0.0481  0.9311
 4303SOL     OW24541   0.335   3.153   3.258  0.4984  0.7830  0.4588
 4303SOL    HW124542   0.405   3.092   3.279 -0.0440 -0.8005 -2.4805
 4303SOL    HW224543   0.397   3.224   3.242 -0.2816  0.9928 -1.6684
 4304SOL     OW24544   2.183   2.118  17.049 -0.7110 -0.1644  0.1530
 4304SOL    HW124545   2.243   2.069  17.105  0.6093  0.0016 -1.1333
 4304SOL    HW224546   2.183   2.073  16.964 -0.4074 -0.5375  0.3520
 4305SOL     OW24547   2.966   0.163   3.157  0.4143  0.5506  0.1102
 4305SOL    HW124548   3.032   0.219   3.117 -0.2131  1.7050  0.7000
 4305SOL    HW224549   2.899   0.231   3.159 -0.2109 -0.0246 -1.0980
 4306SOL     OW24550   2.261   3.097   3.845  0.1891  0.1706  0.5011
 4306SOL    HW124551   2.206   3.028   3.882 -2.1924  1.2716 -0.9339
 4306SOL    HW224552   2.234   3.167   3.905 -1.4125  0.2289 -0.2651
 4307SOL     OW24553   2.995   1.447   7.634  0.4742 -0.5251 -0.3248
 4307SOL    HW124554   2.968   1.505   7.562  0.7003 -1.2634 -0.9974
 4307SOL    HW224555   2.993   1.512   7.705 -1.7686  0.1346 -0.9845
 4308SOL     OW24556   0.850   2.136   6.517 -0.3259  0.5322 -0.2714
 4308SOL    HW124557   0.834   2.063   6.457 -3.0605  0.8070  0.1177
 4308SOL    HW224558   0.924   2.178   6.472 -0.1774 -1.1833 -1.6339
 4309SOL     OW24559   1.408   4.168  10.319  0.2963  0.1431 -0.1426
 4309SOL    HW124560   1.439   4.230  10.253 -0.3067  1.2765  0.6212
 4309SOL    HW224561   1.374   4.222  10.391  0.6886  0.6675 -0.3468
 4310SOL     OW24562   2.151   1.498   6.151  0.4853 -0.2276  0.0666
 4310SOL    HW124563   2.164   1.415   6.197  2.1640 -0.3996 -0.7072
 4310SOL    HW224564   2.176   1.560   6.220 -0.7208 -0.3141  0.5857
 4311SOL     OW24565   2.755   2.553   9.881 -0.0166 -0.0714 -0.7218
 4311SOL    HW124566   2.674   2.586   9.920 -0.8394  1.5203 -3.8064
 4311SOL    HW224567   2.817   2.622   9.904 -0.5883  0.2060 -0.0291
 4312SOL     OW24568   0.669   0.710   4.886 -0.0166 -0.0420 -0.2948
 4312SOL    HW124569   0.703   0.625   4.858 -0.3224 -0.5237  0.8171
 4312SOL    HW224570   0.756   0.749   4.898 -0.1495 -0.2336  1.3094
 4313SOL     OW24571   0.538   2.169  11.789  0.4656  0.3733 -0.2969
 4313SOL    HW124572   0.521   2.241  11.849 -2.0085  0.1797 -0.7658
 4313SOL    HW224573   0.612   2.201  11.738  0.4312 -0.9400 -1.1791
 4314SOL     OW24574   3.585   0.164   0.630 -0.5197  0.1696  0.7846
 4314SOL    HW124575   3.533   0.240   0.601 -1.1770 -0.8234 -0.6242
 4314SOL    HW224576   3.621   0.145   0.544 -3.5516 -1.1837 -0.2062
 4315SOL     OW24577   0.777   4.721  10.795 -0.2036 -0.8105  0.6328
 4315SOL    HW124578   0.708   0.009  10.855  0.4541 -0.2843  1.1739
 4315SOL    HW224579   0.776   4.626  10.803  2.4334 -0.9854 -1.1013
 4316SOL     OW24580   4.403   2.748   3.547  0.2581  0.6729 -0.9818
 4316SOL    HW124581   4.462   2.724   3.475 -1.8079 -1.0875 -2.1262
 4316SOL    HW224582   4.375   2.837   3.526 -0.7724 -0.4672 -4.4334
 4317SOL     OW24583   4.343   3.491  15.766 -0.2385  0.4692  0.0388
 4317SOL    HW124584   4.374   3.578  15.792 -1.2758  0.7714  0.2757
 4317SOL    HW224585   4.406   3.470  15.697 -1.5639 -2.2828 -0.3256
 4318SOL     OW24586   0.399   1.125  10.523  0.7543  0.0553 -0.1790
 4318SOL    HW124587   0.388   1.056  10.589  1.2042  1.9842  1.9193
 4318SOL    HW224588   0.307   1.154  10.519  0.6901 -0.3901 -2.0130
 4319SOL     OW24589   3.693   2.806   9.003 -0.9260 -0.0157  0.0914
 4319SOL    HW124590   3.778   2.769   8.979  0.5594  2.6337  1.3529
 4319SOL    HW224591   3.672   2.850   8.921  0.5892 -1.5247 -1.1017
 4320SOL     OW24592   0.255   2.144  11.754  0.4217  0.3559 -0.3022
 4320SOL    HW124593   0.230   2.057  11.725 -1.0355  1.1616 -1.4815
 4320SOL    HW224594   0.338   2.126  11.799  0.6668  0.0614 -0.8731
 4321SOL     OW24595   3.987   4.538   1.526 -0.1455  0.5269  0.2936
 4321SOL    HW124596   4.020   4.608   1.583  0.0467 -0.1742  1.0325
 4321SOL    HW224597   3.901   4.575   1.506  0.0869  0.6855 -0.4004
 4322SOL     OW24598   0.474   2.327   0.898 -0.2201  0.4257  0.1006
 4322SOL    HW124599   0.403   2.283   0.851 -0.0114  1.1022 -0.8442
 4322SOL    HW224600   0.545   2.304   0.839  0.0389  2.6622 -0.4550
 4323SOL     OW24601   1.388   2.369   2.092 -0.0882 -0.2985 -0.2037
 4323SOL    HW124602   1.370   2.283   2.055 -3.0422  0.0672  0.4413
 4323SOL    HW224603   1.363   2.357   2.184  1.5706  1.2827  0.4712
 4324SOL     OW24604   2.156   3.145   5.369 -0.4448 -0.4464 -0.2434
 4324SOL    HW124605   2.135   3.128   5.460  0.7919 -2.4772 -0.3210
 4324SOL    HW224606   2.182   3.057   5.340  1.1450 -0.4825  1.2898
 4325SOL     OW24607   1.611   0.800   3.715  0.5554 -0.3506  0.5032
 4325SOL    HW124608   1.673   0.858   3.760  1.4661 -1.0552  0.1486
 4325SOL    HW224609   1.647   0.716   3.740 -1.8777 -1.3089  0.8172
 4326SOL     OW24610   1.367   0.262  12.108 -0.0886 -0.5672  0.2696
 4326SOL    HW124611   1.271   0.257  12.111 -0.3000  1.9639 -2.3659
 4326SOL    HW224612   1.393   0.306  12.027 -0.5473  2.6339  1.8437
 4327SOL     OW24613   0.313   2.447   5.939 -0.2588 -0.7081 -0.6495
 4327SOL    HW124614   0.350   2.505   5.873 -0.4770  1.1244  0.8430
 4327SOL    HW224615   0.352   2.364   5.911  0.0854 -0.7406 -0.0610
 4328SOL     OW24616   4.005   2.475   7.657 -0.3402  0.1542  0.1105
 4328SOL    HW124617   3.968   2.393   7.625 -1.7009  0.7917  0.0577
 4328SOL    HW224618   4.079   2.475   7.595  0.4544 -1.2678  1.0727
 4329SOL     OW24619   2.524   2.010   5.172  0.5758  0.3494 -0.1593
 4329SOL    HW124620   2.591   2.020   5.103  0.0162 -0.7684 -0.8715
 4329SOL    HW224621   2.496   1.919   5.157  2.6381 -0.0954 -1.3829
 4330SOL     OW24622   0.428   0.631  11.975  0.2821 -0.0432  0.2580
 4330SOL    HW124623   0.440   0.721  12.004  1.6177 -0.6615  1.6144
 4330SOL    HW224624   0.365   0.611  12.044  0.6699 -2.8190 -0.1559
 4331SOL     OW24625   0.116   2.527   8.207  0.4944 -0.6269 -0.1160
 4331SOL    HW124626   0.119   2.620   8.230  1.3233 -0.2482 -1.8141
 4331SOL    HW224627   0.207   2.502   8.190  0.4375 -1.5235  0.8464
 4332SOL     OW24628   0.030   1.862  14.774  0.2610  0.4539  0.3946
 4332SOL    HW124629   4.711   1.789  14.751 -0.2380 -0.0041  3.1056
 4332SOL    HW224630   4.715   1.906  14.842  1.5379  0.1648  1.5635
 4333SOL     OW24631   3.042   0.318   8.680 -0.1992 -0.1654  0.0945
 4333SOL    HW124632   2.972   0.300   8.618 -1.0563  0.8928  0.7495
 4333SOL    HW224633   2.992   0.365   8.747  0.8991  0.7146  0.3097
 4334SOL     OW24634   1.246   4.268   3.822 -0.8060  0.2532 -0.1292
 4334SOL    HW124635   1.284   4.204   3.761  0.5723 -0.1997  1.2278
 4334SOL    HW224636   1.311   4.280   3.891 -1.5018 -0.1199  0.5929
 4335SOL     OW24637   3.189   0.401  13.247  0.3112  0.4814 -0.0625
 4335SOL    HW124638   3.130   0.373  13.317  0.8709  4.0537  1.8567
 4335SOL    HW224639   3.206   0.493  13.268  2.3250 -0.4355  2.2826
 4336SOL     OW24640   4.310   1.981   2.211 -0.0521 -0.4840  0.0033
 4336SOL    HW124641   4.254   1.907   2.233  1.4802 -2.4987 -3.0456
 4336SOL    HW224642   4.292   1.992   2.118 -2.9951  1.0757  0.7370
 4337SOL     OW24643   3.980   3.662   8.182  0.1946 -0.0259  0.0085
 4337SOL    HW124644   3.924   3.718   8.127 -2.1512 -2.5355 -0.2057
 4337SOL    HW224645   3.951   3.571   8.171 -1.1794  0.3240  0.7020
 4338SOL     OW24646   4.394   4.413  10.861  0.6825 -0.3027  0.4313
 4338SOL    HW124647   4.337   4.394  10.786  2.9159 -0.1264 -1.2907
 4338SOL    HW224648   4.439   4.493  10.835 -1.1824  0.6568  0.1232
 4339SOL     OW24649   2.719   4.569   0.040  0.3169 -0.1929 -0.1244
 4339SOL    HW124650   2.648   4.544   0.099  1.6295 -2.3104  0.5312
 4339SOL    HW224651   2.667   4.621  17.726  0.8193 -1.9434 -2.0127
 4340SOL     OW24652   2.044   3.689   7.256 -0.4695  0.5178  0.3862
 4340SOL    HW124653   1.978   3.687   7.326 -1.2806  0.8359 -0.3648
 4340SOL    HW224654   1.988   3.681   7.178 -0.8809  0.7966  0.6485
 4341SOL     OW24655   0.843   2.257   2.639  0.0048  0.2504 -0.1823
 4341SOL    HW124656   0.774   2.191   2.638  0.1333  0.1078  2.7055
 4341SOL    HW224657   0.819   2.297   2.555  0.4211  0.2274 -0.3087
 4342SOL     OW24658   1.067   4.511   7.177 -0.5733 -0.8275  0.2066
 4342SOL    HW124659   1.127   4.442   7.206 -1.7679 -1.7754  0.4077
 4342SOL    HW224660   1.115   4.547   7.103 -3.4619 -1.6880 -2.0622
 4343SOL     OW24661   4.547   3.288  12.455  0.5142 -0.2742  0.5188
 4343SOL    HW124662   4.618   3.344  12.422 -0.2968  0.7627  0.5550
 4343SOL    HW224663   4.533   3.328  12.540 -1.2676  0.1337  0.0259
 4344SOL     OW24664   3.832   3.014   4.970 -0.1248 -0.4316 -0.3368
 4344SOL    HW124665   3.811   2.923   4.948  0.8511 -0.5435 -0.8286
 4344SOL    HW224666   3.901   3.011   5.036  0.0781 -0.7933 -0.5640
 4345SOL     OW24667   1.301   2.808   1.220 -0.4508  0.0257  0.2937
 4345SOL    HW124668   1.238   2.772   1.282 -0.3198  1.8777  1.4843
 4345SOL    HW224669   1.341   2.879   1.270  1.4344  0.3170 -1.5966
 4346SOL     OW24670   0.547   3.866  10.323  0.3804 -0.2841 -0.8157
 4346SOL    HW124671   0.615   3.871  10.256  0.4370  0.8260 -0.6693
 4346SOL    HW224672   0.539   3.770  10.325  1.2806 -0.3256  0.2838
 4347SOL     OW24673   3.712   1.710   5.224  0.4099  0.6505 -0.5955
 4347SOL    HW124674   3.806   1.699   5.231  0.0964 -1.9205 -0.3986
 4347SOL    HW224675   3.690   1.618   5.205  1.8739  0.1677  0.0412
 4348SOL     OW24676   0.300   2.397   2.591  0.2208 -0.2192 -0.8738
 4348SOL    HW124677   0.271   2.342   2.518 -1.9797  1.0091 -0.9041
 4348SOL    HW224678   0.284   2.343   2.668 -1.5711  0.1790 -0.9810
 4349SOL     OW24679   3.622   0.997   5.479 -0.4504  0.2299  0.4048
 4349SOL    HW124680   3.592   0.913   5.516  0.2092 -0.0901  0.2152
 4349SOL    HW224681   3.559   0.998   5.406  2.0794  1.7103 -1.7528
 4350SOL     OW24682   2.170   2.290   2.550 -0.8398 -0.0164  0.3252
 4350SOL    HW124683   2.094   2.347   2.537  0.4637  1.0966 -2.3538
 4350SOL    HW224684   2.173   2.214   2.492 -0.3527 -1.8176  2.6907
 4351SOL     OW24685   4.039   3.687   4.958 -0.0768  0.0955  0.3154
 4351SOL    HW124686   4.033   3.778   4.931 -1.4499 -0.6634 -1.9073
 4351SOL    HW224687   4.028   3.643   4.874  0.7181  1.7005 -0.6360
 4352SOL     OW24688   1.284   0.869   7.069  0.5555  0.2278  1.0329
 4352SOL    HW124689   1.345   0.858   7.141 -1.0438 -0.6814  2.2523
 4352SOL    HW224690   1.293   0.960   7.041 -1.3848  0.5714  1.5254
 4353SOL     OW24691   2.760   4.712   5.554 -0.0405 -0.8378 -0.1673
 4353SOL    HW124692   2.813   4.705   5.474  1.8093  0.9759  0.9015
 4353SOL    HW224693   2.686   0.018   5.512  0.7637  0.1297 -0.5997
 4354SOL     OW24694   2.329   4.582   4.076 -0.2495 -0.4985 -0.5061
 4354SOL    HW124695   2.244   4.538   4.074  0.2690 -1.4780 -0.7736
 4354SOL    HW224696   2.299   4.670   4.099 -1.2875 -0.4333 -2.0859
 4355SOL     OW24697   3.850   0.250   6.744  0.4237 -0.2945 -0.7421
 4355SOL    HW124698   3.853   0.231   6.651  0.3213  0.2779 -0.8665
 4355SOL    HW224699   3.781   0.316   6.754 -0.8605 -1.6219 -0.8528
 4356SOL     OW24700   1.615   0.546   9.152 -0.1313  0.4569 -0.0182
 4356SOL    HW124701   1.612   0.514   9.243  1.4357 -0.5952 -0.3249
 4356SOL    HW224702   1.572   0.475   9.105  0.8032 -0.5607  0.6491
 4357SOL     OW24703   3.731   0.266   0.843 -0.3864 -0.3089 -0.0144
 4357SOL    HW124704   3.782   0.217   0.779 -1.7080 -0.2567 -1.1085
 4357SOL    HW224705   3.646   0.233   0.812 -0.6432  1.1234 -0.7892
 4358SOL     OW24706   1.510   1.757  16.043  0.6956  0.2880  0.3566
 4358SOL    HW124707   1.488   1.684  16.101  0.0212  1.0905  1.1197
 4358SOL    HW224708   1.490   1.819  16.113 -2.6195  1.7238 -1.8425
 4359SOL     OW24709   0.658   1.566   3.058  0.1722 -0.1362 -0.1363
 4359SOL    HW124710   0.597   1.493   3.060  0.1553 -0.1749 -3.5094
 4359SOL    HW224711   0.627   1.627   2.991  1.0406 -0.6041 -0.9519
 4360SOL     OW24712   0.079   2.995   2.767 -0.7161 -0.4455  0.8294
 4360SOL    HW124713   0.170   2.966   2.771 -0.1456  1.4182  1.0852
 4360SOL    HW224714   0.068   3.081   2.806 -0.0534 -0.0704  0.1916
 4361SOL     OW24715   1.034   3.971   9.227 -0.1764  0.0749 -0.2898
 4361SOL    HW124716   1.048   3.934   9.314  0.7971 -0.6655 -0.7639
 4361SOL    HW224717   0.974   3.903   9.195  0.0756 -0.5199  0.4780
 4362SOL     OW24718   0.697   3.027   4.919 -0.2087 -0.0755  0.1133
 4362SOL    HW124719   0.626   2.991   4.865 -0.9780  1.2475  0.2328
 4362SOL    HW224720   0.738   3.084   4.854 -0.9475  1.5886  1.0918
 4363SOL     OW24721   1.974   2.005  14.878  0.3618  0.2847 -0.1574
 4363SOL    HW124722   1.993   2.085  14.927  1.7717 -0.5681  0.7017
 4363SOL    HW224723   2.057   1.981  14.836  0.1884 -0.2311 -0.2079
 4364SOL     OW24724   3.472   1.808  17.200  0.1660 -0.1574  0.1481
 4364SOL    HW124725   3.422   1.889  17.210  1.2083  0.4880  0.1120
 4364SOL    HW224726   3.543   1.832  17.260 -0.9507  2.3122  0.4959
 4365SOL     OW24727   0.405   0.771   3.914  0.1384 -0.0879  0.5663
 4365SOL    HW124728   0.478   0.710   3.926  1.3193  0.8306 -1.9384
 4365SOL    HW224729   0.373   0.769   4.004  1.2820  1.7282  1.0050
 4366SOL     OW24730   2.934   0.793  13.739  0.6671 -0.0668  0.4578
 4366SOL    HW124731   2.954   0.781  13.832  1.0848  1.8109  0.6017
 4366SOL    HW224732   2.851   0.838  13.752 -0.6060 -2.4901  0.7573
 4367SOL     OW24733   1.833   2.679   9.247 -0.1311 -0.2577 -0.0699
 4367SOL    HW124734   1.907   2.728   9.210  0.8298  0.4525  2.8015
 4367SOL    HW224735   1.808   2.742   9.315 -1.3535 -1.9213  0.9970
 4368SOL     OW24736   2.233   0.710  13.565 -0.5241 -0.2216  0.4222
 4368SOL    HW124737   2.237   0.634  13.506 -1.8939  0.1164 -0.0913
 4368SOL    HW224738   2.138   0.716  13.573 -0.2577  1.2838  2.4524
 4369SOL     OW24739   2.910   2.861   5.767  0.8277  0.0172 -0.3444
 4369SOL    HW124740   2.984   2.858   5.706  0.2433  1.4698 -1.1354
 4369SOL    HW224741   2.837   2.872   5.706  1.2699  1.1687 -0.6725
 4370SOL     OW24742   2.300   1.031  15.480 -0.4069 -0.1288  0.1767
 4370SOL    HW124743   2.289   0.939  15.454 -0.9516  0.0339 -0.1688
 4370SOL    HW224744   2.372   1.024  15.543  1.2123  0.8904 -1.5384
 4371SOL     OW24745   2.260   3.056   7.464  0.4136  0.0019  0.2661
 4371SOL    HW124746   2.249   3.147   7.491  0.6840  0.0390  0.2513
 4371SOL    HW224747   2.347   3.054   7.422  1.0407  0.4550  1.5409
 4372SOL     OW24748   3.345   1.444   6.813  0.1511  0.2539  0.1529
 4372SOL    HW124749   3.278   1.475   6.753 -0.0905  0.8493  0.7286
 4372SOL    HW224750   3.295   1.441   6.895 -1.0853  1.1613 -0.5720
 4373SOL     OW24751   2.996   1.126   0.571 -0.3669 -0.0158  0.0838
 4373SOL    HW124752   3.043   1.124   0.654 -2.5726 -1.3607  1.3016
 4373SOL    HW224753   3.061   1.131   0.501 -0.7969  0.6356 -0.2706
 4374SOL     OW24754   3.516   1.587  12.158  0.1233  0.2586 -0.0842
 4374SOL    HW124755   3.598   1.555  12.196 -1.3648 -2.9519  0.3761
 4374SOL    HW224756   3.547   1.620  12.074 -0.2677  0.5422 -0.1181
 4375SOL     OW24757   0.674   0.758   2.769 -0.1168  0.0834  0.2146
 4375SOL    HW124758   0.634   0.672   2.779  0.2642 -0.1498 -0.3049
 4375SOL    HW224759   0.611   0.818   2.809 -0.6545  0.2518 -0.8958
 4376SOL     OW24760   1.519   2.025  14.084  0.4527 -0.4579  0.1224
 4376SOL    HW124761   1.444   2.026  14.023 -0.8345  0.3093  1.7223
 4376SOL    HW224762   1.524   2.115  14.114 -2.1248  0.1575 -1.3009
 4377SOL     OW24763   2.448   3.066   2.577 -0.2237  0.2499 -0.3541
 4377SOL    HW124764   2.406   3.118   2.646 -1.9170 -1.6908  0.0506
 4377SOL    HW224765   2.380   3.006   2.548 -1.3035 -0.5715  3.8910
 4378SOL     OW24766   3.155   1.391  11.988  0.6009 -0.1483 -0.0607
 4378SOL    HW124767   3.198   1.461  11.938  0.1125  0.3215  0.1770
 4378SOL    HW224768   3.189   1.312  11.946 -0.0110 -0.6388  0.3830
 4379SOL     OW24769   0.171   1.855   2.974 -0.0982  0.2308 -0.2520
 4379SOL    HW124770   0.211   1.772   2.948  1.9350  1.6793 -1.6924
 4379SOL    HW224771   0.246   1.900   3.012  0.1429 -0.7437  0.4479
 4380SOL     OW24772   3.868   0.981   2.537  0.5085 -0.0733  0.4354
 4380SOL    HW124773   3.786   0.937   2.558  0.3602 -0.5797 -1.1936
 4380SOL    HW224774   3.925   0.949   2.607  1.5099  0.5718 -0.0869
 4381SOL     OW24775   1.578   1.291   9.069 -0.0666 -0.4861  0.2651
 4381SOL    HW124776   1.546   1.205   9.095 -1.2611 -0.0790  0.1664
 4381SOL    HW224777   1.498   1.322   9.025 -0.3009  0.4544  1.3651
 4382SOL     OW24778   1.708   2.887   8.071 -0.0922  0.9663  0.1074
 4382SOL    HW124779   1.686   2.801   8.036 -2.8419  1.8403 -0.2847
 4382SOL    HW224780   1.803   2.884   8.060 -0.1397 -2.6165  0.7166
 4383SOL     OW24781   1.801   4.436   6.605 -0.2430 -0.6897  0.2747
 4383SOL    HW124782   1.722   4.397   6.642  0.9682 -1.4531  2.0613
 4383SOL    HW224783   1.868   4.368   6.615  1.6473  0.8457 -2.1048
 4384SOL     OW24784   1.240   2.118  12.439  0.1687 -0.1008 -0.0288
 4384SOL    HW124785   1.304   2.157  12.497 -1.0011  1.4262  0.2335
 4384SOL    HW224786   1.168   2.182  12.446  0.2949  0.0089  0.2466
 4385SOL     OW24787   4.519   3.392   6.054  0.4643  0.1343  0.2778
 4385SOL    HW124788   4.542   3.485   6.047  0.8348 -0.2266 -3.0646
 4385SOL    HW224789   4.438   3.399   6.105 -0.3216  0.4352 -0.9977
 4386SOL     OW24790   2.527   2.756  10.896 -0.0991 -0.2294  0.5835
 4386SOL    HW124791   2.588   2.685  10.918 -0.7868 -1.5566 -1.8401
 4386SOL    HW224792   2.533   2.812  10.973 -0.7843 -0.5083  0.8336
 4387SOL     OW24793   0.988   2.845   4.302 -0.3241 -0.1647  0.1647
 4387SOL    HW124794   1.080   2.832   4.279 -0.5199  1.0766 -1.3289
 4387SOL    HW224795   0.991   2.924   4.355  1.2679 -1.1776  1.5672
 4388SOL     OW24796   2.738   3.891   9.350  0.2570  1.0242 -0.3895
 4388SOL    HW124797   2.785   3.813   9.323 -1.1025 -0.2085  0.8063
 4388SOL    HW224798   2.702   3.917   9.265  0.3090  1.6367 -0.2292
 4389SOL     OW24799   3.874   4.358   6.203 -0.4035 -0.1513  0.3299
 4389SOL    HW124800   3.852   4.449   6.224  0.3193  0.2965 -0.8550
 4389SOL    HW224801   3.964   4.350   6.233 -0.1963  0.2002 -0.2075
 4390SOL     OW24802   0.051   0.634   3.594 -0.2210  0.1568  0.4686
 4390SOL    HW124803   0.125   0.573   3.602  1.3200  1.1650 -5.6350
 4390SOL    HW224804   0.109   0.710   3.586  1.8504 -1.2687  1.8011
 4391SOL     OW24805   0.147   3.470   5.549  0.0430  0.4367  0.2204
 4391SOL    HW124806   0.205   3.421   5.491  0.6714 -0.8132  1.8856
 4391SOL    HW224807   0.098   3.399   5.590  0.7938 -0.9624 -1.3107
 4392SOL     OW24808   0.408   3.594   5.875 -0.1329 -0.3398  0.1582
 4392SOL    HW124809   0.498   3.625   5.863 -0.7672  1.3574 -0.2572
 4392SOL    HW224810   0.429   3.501   5.885  1.7326  0.0538 -0.0994
 4393SOL     OW24811   4.340   0.163  10.878 -0.3371 -0.6119 -0.0214
 4393SOL    HW124812   4.385   0.190  10.958  0.3445 -0.0132 -0.6057
 4393SOL    HW224813   4.419   0.156  10.824 -1.0127 -1.3834 -0.9116
 4394SOL     OW24814   2.772   0.331   5.365  0.2636  0.9408  0.2855
 4394SOL    HW124815   2.806   0.338   5.454 -3.4019  1.4441  1.6359
 4394SOL    HW224816   2.825   0.396   5.318  1.2548  0.5714  0.8767
 4395SOL     OW24817   2.177   3.768   2.843 -0.4102 -0.5062  0.2237
 4395SOL    HW124818   2.113   3.787   2.774  0.8475 -0.3010 -0.9011
 4395SOL    HW224819   2.211   3.687   2.803 -0.6895  0.8591 -2.7887
 4396SOL     OW24820   2.465   2.201  10.111 -0.4353  0.1433  0.7676
 4396SOL    HW124821   2.485   2.112  10.142  1.6562  0.1872 -0.4821
 4396SOL    HW224822   2.397   2.214  10.177 -0.0442  1.7474  0.8455
 4397SOL     OW24823   4.708   3.326   4.755  0.1183 -0.0895 -0.1700
 4397SOL    HW124824   4.697   3.251   4.813 -1.7576  0.9530  0.8396
 4397SOL    HW224825   4.717   3.296   4.664  0.7250 -1.5992  0.3864
 4398SOL     OW24826   1.241   0.373   1.426  0.0575  0.0108  0.4430
 4398SOL    HW124827   1.200   0.374   1.339 -0.3182  0.6782  0.6310
 4398SOL    HW224828   1.209   0.447   1.477  3.4577  1.7013  0.1956
 4399SOL     OW24829   4.370   4.120  12.766  0.1474 -0.1440  0.1916
 4399SOL    HW124830   4.424   4.165  12.830  0.1207 -1.1013  0.8814
 4399SOL    HW224831   4.284   4.147  12.799  0.8604 -0.3535  2.2164
 4400SOL     OW24832   3.894   3.353   6.270  0.1230 -0.2535  0.3512
 4400SOL    HW124833   3.930   3.423   6.216  2.1721 -0.6155  1.2422
 4400SOL    HW224834   3.941   3.274   6.242  0.5302 -0.5789  1.9288
 4401SOL     OW24835   3.769   0.818   2.773 -0.1474  0.6363 -0.1968
 4401SOL    HW124836   3.682   0.846   2.745  0.0715 -0.2424 -1.7048
 4401SOL    HW224837   3.778   0.724   2.763  0.5774  0.6445  0.4103
 4402SOL     OW24838   1.328   2.198   8.902  0.6389 -0.0564 -0.1417
 4402SOL    HW124839   1.262   2.247   8.852  0.7813  2.7273  2.3730
 4402SOL    HW224840   1.321   2.108   8.873 -0.1600 -0.0868  0.1385
 4403SOL     OW24841   4.699   1.196   3.285  0.3327  0.5001 -0.0510
 4403SOL    HW124842   4.670   1.285   3.262 -1.0339 -0.4106 -1.7804
 4403SOL    HW224843   4.614   1.154   3.295  0.0808  1.0069 -0.0423
 4404SOL     OW24844   2.980   1.625  12.595  0.5521  0.1365 -0.4786
 4404SOL    HW124845   2.912   1.636  12.528 -0.5025 -1.9430  0.2522
 4404SOL    HW224846   2.932   1.577  12.663 -0.5112  2.2702  0.2878
 4405SOL     OW24847   3.959   3.520   4.737 -0.4098  0.2394 -0.2294
 4405SOL    HW124848   4.030   3.571   4.699  0.0244  1.1894  1.8679
 4405SOL    HW224849   3.965   3.440   4.685 -1.7976  0.3465 -0.5568
 4406SOL     OW24850   0.580   2.652   3.997 -0.0489  0.0422 -0.1234
 4406SOL    HW124851   0.663   2.614   4.024  0.5006  1.0880 -0.3677
 4406SOL    HW224852   0.508   2.615   4.049  0.2408  2.9191  2.2953
 4407SOL     OW24853   1.674   2.758   2.949 -0.0683  0.6284 -0.1382
 4407SOL    HW124854   1.669   2.831   2.887  1.5782  0.3652 -0.5609
 4407SOL    HW224855   1.698   2.789   3.036  1.0210  2.0404 -0.9561
 4408SOL     OW24856   3.500   3.659   7.910 -0.3706  0.3884  0.2592
 4408SOL    HW124857   3.519   3.577   7.864 -1.0343 -0.2410  1.1071
 4408SOL    HW224858   3.586   3.698   7.896  0.5937 -2.2825 -1.3366
 4409SOL     OW24859   2.215   0.866  14.747  0.1875 -0.7652 -0.0557
 4409SOL    HW124860   2.154   0.939  14.740 -0.5326 -1.3733 -0.2031
 4409SOL    HW224861   2.255   0.899  14.826 -0.4503  0.5398 -0.2824
 4410SOL     OW24862   1.027   2.470   8.301  0.5117 -0.2692  0.0401
 4410SOL    HW124863   0.988   2.395   8.345 -1.7288  1.7471  1.4812
 4410SOL    HW224864   1.066   2.438   8.219  1.2507 -0.3907  0.4423
 4411SOL     OW24865   0.173   0.675   2.473  0.1027 -1.0227 -0.1826
 4411SOL    HW124866   0.211   0.736   2.535  0.0892  0.0399 -1.2243
 4411SOL    HW224867   0.082   0.696   2.493  0.5667  1.2946 -0.5179
 4412SOL     OW24868   1.841   3.364   7.365 -0.2953  0.2489  0.2198
 4412SOL    HW124869   1.909   3.419   7.404  0.4120  0.1754 -0.8929
 4412SOL    HW224870   1.762   3.401   7.404  0.0116  1.0577  0.0645
 4413SOL     OW24871   1.568   3.233   9.127 -0.1508 -0.0215 -0.5319
 4413SOL    HW124872   1.602   3.157   9.174  1.2452 -0.0256 -1.5786
 4413SOL    HW224873   1.485   3.249   9.173 -0.4049  2.1224 -1.7476
 4414SOL     OW24874   1.457   1.254   5.261  0.0434 -0.8367 -0.5970
 4414SOL    HW124875   1.405   1.187   5.217 -0.4163  1.0265 -2.8832
 4414SOL    HW224876   1.393   1.289   5.323  0.5269  2.6404 -2.0128
 4415SOL     OW24877   2.233   3.563  13.333  0.4598  0.1010  0.6875
 4415SOL    HW124878   2.270   3.589  13.418  2.5059  1.3917 -0.6144
 4415SOL    HW224879   2.170   3.630  13.307  0.2788 -1.0952 -1.9414
 4416SOL     OW24880   1.792   0.002   8.194  0.1462  0.0098 -0.0972
 4416SOL    HW124881   1.776   4.731   8.288 -2.3973  2.7876 -0.2941
 4416SOL    HW224882   1.753   4.657   8.162  1.9933 -0.7606 -0.3879
 4417SOL     OW24883   2.429   1.672   3.814  0.3848  0.0725 -0.1234
 4417SOL    HW124884   2.519   1.687   3.784  0.1685  4.1056  1.2356
 4417SOL    HW224885   2.406   1.764   3.826  0.7963  0.0367  0.9324
 4418SOL     OW24886   0.792   4.081   6.677  0.8817  0.2730  0.3985
 4418SOL    HW124887   0.747   4.048   6.599  1.3359 -0.3717  0.4109
 4418SOL    HW224888   0.721   4.078   6.742  1.4919  0.9090  1.0933
 4419SOL     OW24889   1.607   1.087   1.938 -0.0745  0.0658 -0.2968
 4419SOL    HW124890   1.580   1.156   1.998  1.1015 -0.1616  0.4961
 4419SOL    HW224891   1.568   1.014   1.986  3.5997 -1.7250 -0.0149
 4420SOL     OW24892   1.845   1.291  17.182  0.4010 -0.2522  0.3171
 4420SOL    HW124893   1.827   1.319  17.092 -2.1169  0.0714  0.9165
 4420SOL    HW224894   1.939   1.275  17.172  0.7732  1.1746  1.5997
 4421SOL     OW24895   2.879   3.714   0.529  0.1554 -0.4369  0.0274
 4421SOL    HW124896   2.914   3.721   0.618  1.8898  3.4782 -0.9513
 4421SOL    HW224897   2.793   3.677   0.549 -0.2585  1.1370  1.2240
 4422SOL     OW24898   2.730   2.431   2.349 -0.9976  0.4241  0.1678
 4422SOL    HW124899   2.693   2.484   2.420 -0.9564 -0.4325  0.8354
 4422SOL    HW224900   2.667   2.358   2.349 -0.1349 -0.3244 -0.7730
 4423SOL     OW24901   0.416   0.942  16.617  0.1390  0.1490  0.0741
 4423SOL    HW124902   0.465   1.008  16.665  0.1608  1.1939 -1.3777
 4423SOL    HW224903   0.420   0.867  16.675  0.1950  0.5582  0.5998
 4424SOL     OW24904   0.199   3.808  16.642  0.1509  0.1875 -1.0091
 4424SOL    HW124905   0.251   3.745  16.692  0.1002  0.8273 -0.1551
 4424SOL    HW224906   0.153   3.856  16.711 -0.9749  0.4947 -1.9683
 4425SOL     OW24907   2.795   1.700   1.676  0.4006 -0.2039 -0.1433
 4425SOL    HW124908   2.827   1.615   1.708 -2.0398 -0.3082  1.9769
 4425SOL    HW224909   2.855   1.722   1.604  1.1613 -0.9319  0.2661
 4426SOL     OW24910   2.657   2.944   5.206  0.2876  0.1653  0.0848
 4426SOL    HW124911   2.622   2.902   5.127  0.1289  0.4539  0.0010
 4426SOL    HW224912   2.614   3.029   5.205  0.4526  0.2633  0.9330
 4427SOL     OW24913   0.637   2.901  12.208  0.0893  0.0856 -0.0351
 4427SOL    HW124914   0.671   2.937  12.290  0.7289  2.1860 -1.2032
 4427SOL    HW224915   0.705   2.926  12.144 -0.3085 -2.9206 -1.6446
 4428SOL     OW24916   4.119   0.320   6.786  0.0206 -0.3211 -0.3159
 4428SOL    HW124917   4.140   0.329   6.693  0.1776 -0.5534 -0.3043
 4428SOL    HW224918   4.033   0.277   6.792 -0.1881 -0.2725 -2.9402
 4429SOL     OW24919   1.423   3.969  13.328 -0.0890  0.1538  0.2998
 4429SOL    HW124920   1.514   3.986  13.353  0.5408 -3.1654  0.3748
 4429SOL    HW224921   1.418   4.039  13.263  0.0085  1.0840  1.2928
 4430SOL     OW24922   2.553   1.181   0.623 -0.0897  0.1589 -0.4707
 4430SOL    HW124923   2.606   1.200   0.546 -2.4610 -2.1847 -2.6621
 4430SOL    HW224924   2.486   1.248   0.608 -0.1885  0.3338  0.7443
 4431SOL     OW24925   2.047   4.554   1.391 -0.2159 -0.0677 -0.3632
 4431SOL    HW124926   2.088   4.467   1.394 -1.3430 -0.6711 -2.2521
 4431SOL    HW224927   2.044   4.587   1.480  0.4525  2.6562 -1.3496
 4432SOL     OW24928   1.374   3.734   3.292 -0.3398 -0.6052 -0.7097
 4432SOL    HW124929   1.362   3.787   3.213 -1.1320 -2.0781 -1.5761
 4432SOL    HW224930   1.461   3.758   3.325 -1.4695  0.3458  1.4945
 4433SOL     OW24931   1.507   2.728  15.731 -0.4208 -0.0859 -0.3546
 4433SOL    HW124932   1.456   2.808  15.731  0.0597  0.2172 -0.7910
 4433SOL    HW224933   1.563   2.727  15.809  0.2110 -0.0274 -0.8101
 4434SOL     OW24934   3.959   3.489   4.402  0.2684 -0.2375 -0.4049
 4434SOL    HW124935   4.022   3.553   4.435 -1.6870  0.7368  1.4757
 4434SOL    HW224936   3.998   3.412   4.444 -3.0171 -1.3537  0.6015
 4435SOL     OW24937   2.821   1.959   7.375 -0.1114 -0.2803  0.3417
 4435SOL    HW124938   2.732   1.987   7.398  0.2528  1.8087 -0.7796
 4435SOL    HW224939   2.872   2.012   7.437 -0.3189 -1.1842  1.2884
 4436SOL     OW24940   3.406   4.138   6.760 -0.3574  0.1264  0.4422
 4436SOL    HW124941   3.392   4.060   6.708 -0.1627 -0.7362  1.6819
 4436SOL    HW224942   3.328   4.191   6.743  0.3705  0.5220 -1.6688
 4437SOL     OW24943   2.458   1.286   3.912  0.1688  0.1623 -0.2070
 4437SOL    HW124944   2.370   1.321   3.927  0.1467 -0.6695  1.5314
 4437SOL    HW224945   2.434   1.210   3.858  0.2234  1.1847 -1.6752
 4438SOL     OW24946   1.930   4.413   2.968 -0.2054  0.0643 -0.5276
 4438SOL    HW124947   2.023   4.408   2.946  0.0564 -0.6015  0.7249
 4438SOL    HW224948   1.913   4.401   3.062  0.0213  0.7706 -0.3943
 4439SOL     OW24949   3.111   0.143   7.139 -0.1428  0.2386 -0.1225
 4439SOL    HW124950   3.069   0.081   7.078 -0.3722 -0.8064  1.0986
 4439SOL    HW224951   3.047   0.163   7.206  0.8896  2.0806  0.2887
 4440SOL     OW24952   2.820   0.882   5.601  0.6596 -0.2514 -0.0777
 4440SOL    HW124953   2.768   0.909   5.525 -2.2158 -0.4216  1.8430
 4440SOL    HW224954   2.888   0.824   5.567  0.1625  0.6995 -2.7055
 4441SOL     OW24955   2.799   0.042   1.081 -0.0207  0.0337 -0.2730
 4441SOL    HW124956   2.746   0.121   1.068 -2.4252 -1.1990  2.0140
 4441SOL    HW224957   2.724   4.720   1.082  0.4483 -0.5713 -1.0186
 4442SOL     OW24958   3.523   2.846   8.238  0.4629  0.5332 -0.0551
 4442SOL    HW124959   3.601   2.887   8.276 -1.0378  0.8052  2.6561
 4442SOL    HW224960   3.482   2.800   8.310  0.2158  1.1743  0.2188
 4443SOL     OW24961   3.056   0.377   3.036 -0.8135  0.3776  0.0106
 4443SOL    HW124962   2.990   0.417   3.091 -0.1394 -0.1000  1.1865
 4443SOL    HW224963   3.135   0.409   3.081 -1.4457 -0.8810  2.0160
 4444SOL     OW24964   1.483   3.385   5.186  0.0976  0.1946 -0.3090
 4444SOL    HW124965   1.403   3.353   5.146  0.8950 -1.3227 -0.6888
 4444SOL    HW224966   1.488   3.463   5.130  0.5852  1.3687  1.3542
 4445SOL     OW24967   0.788   0.613   6.833 -0.1034  0.1400 -0.0996
 4445SOL    HW124968   0.873   0.656   6.847  1.4582 -3.3122  1.0694
 4445SOL    HW224969   0.770   0.647   6.745  0.0813 -1.2510 -0.6709
 4446SOL     OW24970   3.099   4.722   9.307  0.1152 -0.5586 -0.0301
 4446SOL    HW124971   3.148   0.055   9.264  0.5568  0.9980  2.9941
 4446SOL    HW224972   3.136   4.642   9.271  0.5276 -0.4537  0.1487
 4447SOL     OW24973   3.247   1.977  17.156 -0.5187  0.1347 -0.2625
 4447SOL    HW124974   3.196   1.997  17.078 -0.6105  0.1880 -0.1894
 4447SOL    HW224975   3.176   1.978  17.220  0.3823 -1.5402  0.7850
 4448SOL     OW24976   0.282   0.778   3.633 -0.1606 -0.4986  0.4789
 4448SOL    HW124977   0.341   0.757   3.706  0.2205  0.3943  0.4331
 4448SOL    HW224978   0.345   0.811   3.569  0.5114 -0.9115  0.9312
 4449SOL     OW24979   0.323   0.695   4.199 -0.2557  0.0069  0.5513
 4449SOL    HW124980   0.336   0.606   4.232  0.4046  0.1817  0.7483
 4449SOL    HW224981   0.247   0.675   4.143  0.7344  1.1858 -1.1952
 4450SOL     OW24982   1.600   1.779  10.167 -0.0592 -0.5189 -0.3680
 4450SOL    HW124983   1.527   1.743  10.217  0.4914  1.1100  1.5929
 4450SOL    HW224984   1.555   1.802  10.086  0.5938 -1.1748 -0.9123
 4451SOL     OW24985   0.837   2.370   7.929  0.3236  0.1938  0.4956
 4451SOL    HW124986   0.925   2.398   7.954  0.3119 -0.0426  0.8011
 4451SOL    HW224987   0.811   2.406   7.844  1.7387  0.0487  0.0091
 4452SOL     OW24988   2.836   0.527   5.166 -0.0643  0.2267 -0.6202
 4452SOL    HW124989   2.818   0.621   5.173 -0.5997 -0.0007  1.1856
 4452SOL    HW224990   2.760   0.493   5.119  0.4370  0.2335 -1.4389
 4453SOL     OW24991   0.423   0.572   4.866  0.3526 -0.0600  0.0420
 4453SOL    HW124992   0.435   0.478   4.879 -0.2873 -0.1908 -0.3302
 4453SOL    HW224993   0.501   0.620   4.894  0.2262  1.4238 -2.1518
 4454SOL     OW24994   4.399   0.521   5.443 -0.1713  0.2845  1.1354
 4454SOL    HW124995   4.353   0.459   5.387  3.3738 -0.8023 -0.5734
 4454SOL    HW224996   4.483   0.479   5.461 -0.2845  0.5642  2.3051
 4455SOL     OW24997   0.895   2.707   8.010  0.1864 -0.1111 -0.0643
 4455SOL    HW124998   0.861   2.718   7.921  1.0088  0.5334 -0.2995
 4455SOL    HW224999   0.843   2.767   8.062  0.1119 -2.5542  2.6295
 4456SOL     OW25000   0.567   2.501   9.403 -0.1703 -0.7687 -0.0856
 4456SOL    HW125001   0.652   2.523   9.365  0.5631 -1.1514  1.3287
 4456SOL    HW225002   0.525   2.471   9.323 -0.0948 -1.5460  0.1615
 4457SOL     OW25003   1.049   0.556  16.504 -0.2051  0.6418  0.0032
 4457SOL    HW125004   1.029   0.640  16.544  0.1262  0.8232 -0.2158
 4457SOL    HW225005   0.981   0.556  16.437 -0.5821 -0.2924  0.3817
 4458SOL     OW25006   1.016   1.639  17.472  0.3030 -0.5670 -0.3417
 4458SOL    HW125007   0.943   1.637  17.410  0.5995 -1.1146 -0.6615
 4458SOL    HW225008   1.055   1.553  17.459  0.5491 -0.5417  0.2087
 4459SOL     OW25009   1.594   1.932   4.257  0.0664 -0.2241  0.0437
 4459SOL    HW125010   1.545   1.852   4.277 -0.3105 -0.1687 -0.6455
 4459SOL    HW225011   1.606   1.974   4.342  1.0616 -1.4370  0.5005
 4460SOL     OW25012   0.768   3.183   4.495  0.1291 -0.0660  0.3711
 4460SOL    HW125013   0.676   3.157   4.491  0.0050  0.5428 -0.6031
 4460SOL    HW225014   0.783   3.213   4.405 -0.9613 -0.8512 -0.0738
 4461SOL     OW25015   2.912   0.873   6.663 -0.1529  0.6517 -0.3043
 4461SOL    HW125016   2.959   0.844   6.741 -2.6701 -2.4708  0.0550
 4461SOL    HW225017   2.900   0.966   6.682 -1.6237  0.3809  0.1114
 4462SOL     OW25018   0.111   2.817   8.251  0.1431 -0.4507  0.4061
 4462SOL    HW125019   0.021   2.833   8.223  0.7086  1.4387 -0.2634
 4462SOL    HW225020   0.143   2.906   8.258 -3.0850  0.8289 -1.1629
 4463SOL     OW25021   3.401   4.715  10.167  0.5095 -0.0921 -0.9163
 4463SOL    HW125022   3.346   0.049  10.200  0.0644 -0.4308 -0.9170
 4463SOL    HW225023   3.477   4.711  10.225  0.3893  0.0294 -0.7514
 4464SOL     OW25024   1.134   1.930   2.128  0.0467  0.4513 -0.1692
 4464SOL    HW125025   1.146   1.846   2.173 -0.7444 -0.2094 -1.1926
 4464SOL    HW225026   1.187   1.993   2.177 -1.0114  2.2721 -1.3893
 4465SOL     OW25027   0.431   2.438   3.609  0.3702  0.1386 -0.0406
 4465SOL    HW125028   0.399   2.528   3.609  1.6739  0.6079 -1.6170
 4465SOL    HW225029   0.502   2.443   3.673  0.8670 -1.6936 -0.4377
 4466SOL     OW25030   0.409   4.717  10.444  0.7533  0.3267  0.7659
 4466SOL    HW125031   0.501   4.722  10.470  1.2228 -0.6277 -0.6637
 4466SOL    HW225032   0.366   4.683  10.522  0.2602 -0.9142 -0.0542
 4467SOL     OW25033   0.947   0.482   5.610  0.2518 -0.4270 -0.2039
 4467SOL    HW125034   0.897   0.438   5.541  0.9687 -1.6392  0.0573
 4467SOL    HW225035   1.023   0.510   5.559  1.1407 -0.8855  0.8751
 4468SOL     OW25036   2.261   2.457  10.237 -0.0895 -0.1477  0.1844
 4468SOL    HW125037   2.276   2.366  10.260 -0.0679 -0.7152 -2.1095
 4468SOL    HW225038   2.185   2.470  10.293 -0.1433  0.3748 -0.0085
 4469SOL     OW25039   4.508   2.135   3.641  0.9203 -0.5501 -0.1403
 4469SOL    HW125040   4.519   2.223   3.677  1.1310 -0.5103 -0.3007
 4469SOL    HW225041   4.460   2.169   3.566 -1.6849 -1.8969  0.9247
 4470SOL     OW25042   0.835   1.255   2.264  0.3843 -0.0910  0.2465
 4470SOL    HW125043   0.784   1.248   2.183  1.4722  0.5497 -0.4872
 4470SOL    HW225044   0.882   1.171   2.269  0.5036 -0.2126 -3.0168
 4471SOL     OW25045   4.260   1.943   8.546 -0.2045  0.6312 -0.5443
 4471SOL    HW125046   4.257   1.985   8.460  1.5146 -0.4070 -1.1151
 4471SOL    HW225047   4.340   1.980   8.584 -0.5716  1.0665 -0.1861
 4472SOL     OW25048   0.619   2.451   3.791 -0.0644 -0.1075 -0.6251
 4472SOL    HW125049   0.575   2.520   3.840 -2.5064 -0.5382 -2.2398
 4472SOL    HW225050   0.713   2.468   3.784  0.2651 -1.7846 -0.4446
 4473SOL     OW25051   0.875   2.921   2.566  0.4766  0.1667  0.0613
 4473SOL    HW125052   0.858   2.840   2.614  0.7729  0.3144  0.4101
 4473SOL    HW225053   0.965   2.932   2.596  0.2369 -0.3967  0.9957
 4474SOL     OW25054   3.857   1.522   0.370 -0.2120  0.1026 -0.0510
 4474SOL    HW125055   3.914   1.479   0.306 -0.8248 -0.6454 -0.1010
 4474SOL    HW225056   3.852   1.456   0.440 -2.8524  0.0519 -0.2719
 4475SOL     OW25057   3.672   2.097   2.026 -0.0374  0.2407 -0.1335
 4475SOL    HW125058   3.637   2.184   2.046  1.1385  0.9413 -1.1171
 4475SOL    HW225059   3.738   2.120   1.961  1.5372 -2.9140  0.3951
 4476SOL     OW25060   1.206   1.700   5.787  0.2986  0.4725  0.0324
 4476SOL    HW125061   1.195   1.608   5.765 -0.2956  0.3241  0.9348
 4476SOL    HW225062   1.207   1.752   5.707  1.8478  1.5941  0.7766
 4477SOL     OW25063   0.611   2.192   0.197  0.2571 -0.0472  0.1699
 4477SOL    HW125064   0.657   2.115   0.163 -2.3179 -1.5583  0.0732
 4477SOL    HW225065   0.596   2.161   0.287  2.6630  0.0738  0.6080
 4478SOL     OW25066   2.845   2.970   6.151  0.7221 -0.1544  0.1840
 4478SOL    HW125067   2.813   2.883   6.128  2.0962 -0.3349 -1.0275
 4478SOL    HW225068   2.937   2.952   6.132  0.4189 -2.4274  0.9313
 4479SOL     OW25069   2.792   1.305  16.373 -0.2831  0.7269  0.0701
 4479SOL    HW125070   2.805   1.247  16.298  1.8696  0.7576  0.4119
 4479SOL    HW225071   2.809   1.244  16.445 -1.5527  0.4081  0.1058
 4480SOL     OW25072   2.698   0.016   4.788 -0.1536 -0.7709 -0.4842
 4480SOL    HW125073   2.734   0.099   4.817  1.0732 -0.6595 -2.3302
 4480SOL    HW225074   2.771   4.718   4.738  1.3694 -0.4588  1.5036
 4481SOL     OW25075   4.266   0.822   1.808  0.6817  0.4615 -0.5216
 4481SOL    HW125076   4.346   0.864   1.840  0.5786 -0.3962  0.8622
 4481SOL    HW225077   4.200   0.881   1.843  0.7011 -0.8611  1.7392
 4482SOL     OW25078   3.307   2.980   9.466  0.1708  0.5145 -0.3330
 4482SOL    HW125079   3.262   3.056   9.431  0.0947  0.1903 -0.9439
 4482SOL    HW225080   3.304   2.921   9.390 -0.1920  2.8741 -2.1550
 4483SOL     OW25081   0.299   4.383  16.309  0.2985  0.5375  0.4589
 4483SOL    HW125082   0.302   4.469  16.267  0.6727  0.3476  0.0925
 4483SOL    HW225083   0.332   4.398  16.397 -0.5762 -1.7718  1.1787
 4484SOL     OW25084   0.910   4.274   4.493  0.1391 -0.3901  0.1946
 4484SOL    HW125085   0.893   4.325   4.414  2.8042  0.3599  0.1272
 4484SOL    HW225086   0.838   4.306   4.547  0.6874 -0.5598  1.0213
 4485SOL     OW25087   2.712   0.226   8.907 -0.4403 -0.2002  0.8795
 4485SOL    HW125088   2.688   0.302   8.960  1.4098  0.9041  0.1312
 4485SOL    HW225089   2.792   0.264   8.871 -0.1838 -1.2980  0.2726
 4486SOL     OW25090   3.636   1.740   3.678 -0.4506 -0.0452  0.0293
 4486SOL    HW125091   3.636   1.646   3.661  0.3929 -0.0964  0.3328
 4486SOL    HW225092   3.713   1.759   3.624 -2.2512  1.6542 -1.9468
 4487SOL     OW25093   3.760   4.016   6.715  0.0851  0.2951 -0.0913
 4487SOL    HW125094   3.687   3.957   6.734  1.6668 -1.7181 -0.3060
 4487SOL    HW225095   3.760   3.992   6.622  2.0594  1.0352 -0.2782
 4488SOL     OW25096   3.180   2.942   7.806  0.4188  0.1479 -0.2536
 4488SOL    HW125097   3.096   2.914   7.841 -0.5518 -0.2508 -2.8474
 4488SOL    HW225098   3.179   2.910   7.715  1.3225 -0.8581  0.0895
 4489SOL     OW25099   3.473   0.478  12.303 -0.3721 -0.2483  0.2055
 4489SOL    HW125100   3.508   0.457  12.390  0.9956 -2.3803 -0.8656
 4489SOL    HW225101   3.523   0.551  12.267  2.4146 -2.3585 -0.2397
 4490SOL     OW25102   0.514   3.421  15.289 -0.6002  0.5955 -0.3930
 4490SOL    HW125103   0.581   3.352  15.291 -0.5952  0.6350  0.9345
 4490SOL    HW225104   0.564   3.498  15.261 -1.0999  0.5922 -1.2794
 4491SOL     OW25105   0.067   2.792   5.541  0.1391 -0.5409 -0.9437
 4491SOL    HW125106   0.060   2.768   5.449 -0.5447  2.1375 -1.5776
 4491SOL    HW225107   0.049   2.885   5.530  2.6307  0.1979  1.0292
 4492SOL     OW25108   2.687   0.765  15.954  0.5444 -0.7775  0.1099
 4492SOL    HW125109   2.638   0.759  15.872  0.4941 -3.3749  0.3350
 4492SOL    HW225110   2.610   0.773  16.009  0.9211  3.4593 -0.0365
 4493SOL     OW25111   3.044   0.275  17.627 -0.0131  0.0052  0.0777
 4493SOL    HW125112   2.966   0.226  17.653  0.7515 -0.5808  1.2344
 4493SOL    HW225113   3.115   0.214  17.642 -1.0909 -1.3879 -0.5311
 4494SOL     OW25114   1.864   0.644   0.231 -0.2279  0.4041 -0.5334
 4494SOL    HW125115   1.796   0.711   0.222 -1.1248 -0.6463 -1.4409
 4494SOL    HW225116   1.923   0.694   0.288 -0.1678 -0.1158 -0.1397
 4495SOL     OW25117   1.420   2.178   0.281  0.0514  0.2660  0.3721
 4495SOL    HW125118   1.352   2.230   0.324 -0.3259  0.0137  0.0860
 4495SOL    HW225119   1.386   2.182   0.191 -0.8126  0.0708  0.6920
 4496SOL     OW25120   1.825   1.295   5.432  0.1871 -0.3426  0.1708
 4496SOL    HW125121   1.830   1.199   5.426 -0.4268 -0.3992  0.5831
 4496SOL    HW225122   1.739   1.294   5.474 -0.3264  1.7082 -0.8477
 4497SOL     OW25123   3.937   0.142   9.032  0.2870 -0.4392 -0.4358
 4497SOL    HW125124   3.944   0.047   9.022 -0.0648 -0.4016 -1.0553
 4497SOL    HW225125   3.854   0.140   8.984  1.6588  1.2799 -2.8617
 4498SOL     OW25126   1.419   2.483  12.504 -0.1273  0.4837  0.4270
 4498SOL    HW125127   1.449   2.395  12.525 -2.2772 -0.7638 -1.7381
 4498SOL    HW225128   1.329   2.467  12.477 -1.2984  1.3446  3.8447
 4499SOL     OW25129   1.572   3.635  16.772 -0.2115  0.2347  0.5439
 4499SOL    HW125130   1.666   3.649  16.781  0.2126 -1.8989 -0.4469
 4499SOL    HW225131   1.555   3.683  16.691  1.2642 -0.2501 -0.0611
 4500SOL     OW25132   1.063   2.152   1.546 -0.0680  0.6570  0.0615
 4500SOL    HW125133   1.104   2.206   1.479 -1.3368  0.3184 -1.0008
 4500SOL    HW225134   0.995   2.215   1.571 -1.0372 -0.7743  1.0379
 4501SOL     OW25135   4.122   0.198  15.926 -0.3765  0.5959 -0.0483
 4501SOL    HW125136   4.028   0.205  15.906 -0.2973 -1.8008 -1.3289
 4501SOL    HW225137   4.146   0.272  15.981  2.1914 -0.4643  0.2207
 4502SOL     OW25138   1.451   0.995   7.723  0.2774  0.4184 -0.7454
 4502SOL    HW125139   1.474   1.041   7.804  0.1687 -1.1907  0.1981
 4502SOL    HW225140   1.391   0.927   7.753  0.8825  0.3535  0.3127
 4503SOL     OW25141   3.993   0.170   6.198  0.0497 -0.1454 -0.1638
 4503SOL    HW125142   4.078   0.152   6.158  0.5055  0.7688  0.4099
 4503SOL    HW225143   3.929   0.146   6.130  0.4088 -0.6909 -0.3037
 4504SOL     OW25144   1.356   2.611   7.054 -0.4935 -0.6416  0.0214
 4504SOL    HW125145   1.416   2.622   6.980  0.1096 -2.5218  0.2326
 4504SOL    HW225146   1.404   2.644   7.129 -1.6740  1.2679 -0.0770
 4505SOL     OW25147   0.386   1.717  13.583  0.5300  0.2043 -0.3574
 4505SOL    HW125148   0.335   1.640  13.557  1.9881 -0.5803 -0.8522
 4505SOL    HW225149   0.406   1.690  13.673  3.4431 -1.5527 -1.5625
 4506SOL     OW25150   0.443   2.322  17.227 -0.8061  0.0275  0.0109
 4506SOL    HW125151   0.535   2.300  17.248 -0.9109 -1.6121 -1.2584
 4506SOL    HW225152   0.444   2.337  17.133  0.9067 -0.0535 -0.0001
 4507SOL     OW25153   0.883   3.360   5.158 -0.0511  0.6499 -0.2080
 4507SOL    HW125154   0.883   3.273   5.198 -0.8969  0.7453  0.0031
 4507SOL    HW225155   0.802   3.394   5.195 -0.1618 -0.5146  0.6112
 4508SOL     OW25156   1.969   3.344   5.790 -0.0256  0.0770 -0.2839
 4508SOL    HW125157   1.915   3.405   5.739  2.1865 -0.7870 -3.5949
 4508SOL    HW225158   2.051   3.389   5.810 -0.6252  1.1517 -0.1962
 4509SOL     OW25159   3.497   2.071  12.368 -0.2837 -0.0621 -0.1460
 4509SOL    HW125160   3.456   2.038  12.288  1.3059 -0.0681 -0.9651
 4509SOL    HW225161   3.418   2.080  12.421 -0.1045  0.7562 -0.0123
 4510SOL     OW25162   0.878   2.431   6.083  0.0481  0.2080 -0.1700
 4510SOL    HW125163   0.878   2.338   6.103  1.1092  0.4858  1.1427
 4510SOL    HW225164   0.908   2.433   5.992  2.4136  1.2261  0.6170
 4511SOL     OW25165   1.854   2.898   3.145 -0.3293  0.5059  0.1176
 4511SOL    HW125166   1.942   2.925   3.118 -0.5574  1.1076 -0.0337
 4511SOL    HW225167   1.808   2.982   3.148 -1.0888  0.0727  0.5358
 4512SOL     OW25168   4.441   2.948   7.990  0.2469 -0.2076 -0.4198
 4512SOL    HW125169   4.392   3.029   8.001 -0.2653 -0.8055  1.8261
 4512SOL    HW225170   4.507   2.982   7.930 -0.6867  0.2106 -1.2087
 4513SOL     OW25171   2.345   4.013   5.244  0.1753 -0.0155 -0.2256
 4513SOL    HW125172   2.387   4.098   5.259 -0.1448  0.2160 -0.6229
 4513SOL    HW225173   2.260   4.048   5.216  1.2100  1.6008 -1.3079
 4514SOL     OW25174   1.632   1.262   4.441 -0.5524  0.1280  0.1139
 4514SOL    HW125175   1.694   1.194   4.467 -0.3605  0.9535  1.8098
 4514SOL    HW225176   1.664   1.284   4.353  0.9275  0.8616  0.8247
 4515SOL     OW25177   4.113   3.232  10.816 -0.4228 -0.0126  0.0389
 4515SOL    HW125178   4.090   3.139  10.818  3.5742 -0.9747  2.2566
 4515SOL    HW225179   4.186   3.239  10.877 -1.0645 -1.2799  0.9539
 4516SOL     OW25180   3.091   1.264  10.997 -0.1177 -0.1097  0.3171
 4516SOL    HW125181   2.998   1.254  10.977  0.0961  0.1377 -0.7945
 4516SOL    HW225182   3.128   1.225  10.918  2.0424 -0.2853  1.4029
 4517SOL     OW25183   3.130   3.984  10.195  0.3520 -0.0658 -0.3006
 4517SOL    HW125184   3.207   4.030  10.161 -0.0587  1.4368  0.8259
 4517SOL    HW225185   3.144   3.892  10.172 -2.6150 -0.4273 -0.6210
 4518SOL     OW25186   2.610   1.316   4.150 -0.0226  0.0221 -0.3516
 4518SOL    HW125187   2.668   1.244   4.174 -1.4434 -1.1764 -0.4709
 4518SOL    HW225188   2.552   1.267   4.091  0.8527 -0.3617 -0.8879
 4519SOL     OW25189   2.019   1.666  15.078  0.1398 -0.4797  0.0692
 4519SOL    HW125190   1.993   1.604  15.009 -3.3350 -0.7983  1.6416
 4519SOL    HW225191   2.073   1.616  15.140  0.8176  0.8266  0.5182
 4520SOL     OW25192   2.194   1.670   9.604  0.1690  0.3018 -0.4602
 4520SOL    HW125193   2.106   1.635   9.616  0.9027 -1.3998  0.0239
 4520SOL    HW225194   2.232   1.624   9.529  3.4114 -0.2336  1.4820
 4521SOL     OW25195   4.634   2.289   5.995  0.4185 -0.6046 -0.6325
 4521SOL    HW125196   4.681   2.287   5.911 -0.1987  0.7000 -1.0129
 4521SOL    HW225197   4.695   2.247   6.055 -0.0083  0.6916  0.7213
 4522SOL     OW25198   2.420   1.164   7.066  0.0864 -0.0320 -0.0194
 4522SOL    HW125199   2.389   1.082   7.026 -1.6418  1.7527 -2.2866
 4522SOL    HW225200   2.409   1.226   6.994  1.1441  1.2267  0.9118
 4523SOL     OW25201   4.704   3.160   6.843  0.0651 -0.0520 -0.2950
 4523SOL    HW125202   4.680   3.091   6.781 -1.2887 -0.3740  0.5981
 4523SOL    HW225203   4.623   3.171   6.892 -0.0943 -0.9833 -0.3565
 4524SOL     OW25204   4.187   0.137   5.614 -0.0842 -0.6090  0.2028
 4524SOL    HW125205   4.148   0.224   5.599 -0.6667 -0.4277  2.6769
 4524SOL    HW225206   4.259   0.128   5.552  0.0534  0.6741  0.1832
 4525SOL     OW25207   1.758   1.142   6.373 -0.5787 -0.3028  0.2343
 4525SOL    HW125208   1.715   1.113   6.453 -1.7245  0.2033 -0.1945
 4525SOL    HW225209   1.839   1.094   6.390  0.1855  0.3813 -1.4913
 4526SOL     OW25210   2.969   3.370   1.722  0.0679  0.2400 -0.5884
 4526SOL    HW125211   2.982   3.387   1.628 -1.3563  0.7154 -0.7146
 4526SOL    HW225212   2.930   3.284   1.738 -2.6665  1.0795 -2.6603
 4527SOL     OW25213   2.552   1.158   8.738 -0.1161  0.1897 -0.1079
 4527SOL    HW125214   2.471   1.190   8.776 -0.0429 -0.2823  0.4623
 4527SOL    HW225215   2.593   1.236   8.702 -0.5822  0.7565  0.6147
 4528SOL     OW25216   3.561   4.211   6.427 -0.1294  0.2670  0.2885
 4528SOL    HW125217   3.529   4.227   6.516  0.4440  1.7155  0.2429
 4528SOL    HW225218   3.616   4.288   6.411 -0.1689 -0.2821 -2.4552
 4529SOL     OW25219   4.734   2.380   4.635 -0.2081  0.3105 -0.7068
 4529SOL    HW125220   0.021   2.297   4.677  1.4670  1.6623  1.0011
 4529SOL    HW225221   0.078   2.405   4.591  0.2864 -1.4000 -0.7562
 4530SOL     OW25222   0.417   3.819   4.744  0.0503  0.2603 -0.4556
 4530SOL    HW125223   0.511   3.813   4.727  0.2298 -0.2882  0.7508
 4530SOL    HW225224   0.418   3.886   4.812  0.6614 -0.4923  0.2671
 4531SOL     OW25225   2.255   3.523   4.028  0.2580 -0.7499 -0.5577
 4531SOL    HW125226   2.294   3.580   3.962 -2.3393 -0.2148 -1.6525
 4531SOL    HW225227   2.217   3.591   4.084 -0.6041 -2.6662  1.1997
 4532SOL     OW25228   0.545   0.595   3.596  0.0915  0.5278 -0.1255
 4532SOL    HW125229   0.537   0.588   3.501 -1.6982  0.0772  0.0556
 4532SOL    HW225230   0.639   0.592   3.616 -0.2278  2.0575  1.5945
 4533SOL     OW25231   0.957   4.687   5.709 -0.1710 -0.6993  0.4572
 4533SOL    HW125232   1.049   4.663   5.710 -0.5964 -2.3572  0.4676
 4533SOL    HW225233   0.960   0.037   5.746 -0.8634 -0.7383  0.6072
 4534SOL     OW25234   2.712   1.486  17.383 -0.4239  0.4006 -0.3929
 4534SOL    HW125235   2.691   1.580  17.388  0.4375  0.4391  2.8057
 4534SOL    HW225236   2.803   1.488  17.412 -0.2348  0.0680 -0.9776
 4535SOL     OW25237   3.391   0.790   8.734 -0.3921  0.1706 -0.6704
 4535SOL    HW125238   3.305   0.791   8.693 -0.3107 -1.0708 -0.8684
 4535SOL    HW225239   3.375   0.846   8.811  0.0981 -0.7469  0.0938
 4536SOL     OW25240   1.246   3.940  16.607  0.1315  0.6743  0.2394
 4536SOL    HW125241   1.222   3.849  16.623 -2.1873  1.1090 -0.7863
 4536SOL    HW225242   1.175   3.988  16.651 -0.5237  0.6011 -0.7293
 4537SOL     OW25243   2.919   1.455   4.360  0.3367  0.5577 -0.5687
 4537SOL    HW125244   2.855   1.387   4.382  0.7180 -0.0149 -1.2199
 4537SOL    HW225245   2.925   1.460   4.264  2.8303 -0.7105 -0.4849
 4538SOL     OW25246   4.125   3.422   2.277 -0.0576 -0.0357 -0.1450
 4538SOL    HW125247   4.082   3.351   2.231 -0.9364  0.3648  0.0583
 4538SOL    HW225248   4.085   3.413   2.364  0.3224  1.8474  0.2357
 4539SOL     OW25249   1.326   2.178   0.028  0.4899 -0.2692  0.9416
 4539SOL    HW125250   1.238   2.177  17.738  1.3906  0.1724 -1.1227
 4539SOL    HW225251   1.385   2.198  17.703 -1.3193 -0.8305 -0.6729
 4540SOL     OW25252   0.298   2.797   1.285  0.4076 -0.7616  0.4020
 4540SOL    HW125253   0.327   2.830   1.200 -2.3370  0.2750 -0.1159
 4540SOL    HW225254   0.309   2.703   1.274  1.3957 -0.6822  0.7104
 4541SOL     OW25255   0.623   1.011  10.859 -0.6784 -0.2830 -0.3242
 4541SOL    HW125256   0.594   0.932  10.812 -1.5048 -0.0721 -0.1704
 4541SOL    HW225257   0.636   1.074  10.788  0.7083 -1.3999 -1.0562
 4542SOL     OW25258   0.850   3.770   9.207 -0.5173  1.0181 -0.1112
 4542SOL    HW125259   0.845   3.674   9.197  0.1514  0.9256  0.5074
 4542SOL    HW225260   0.790   3.791   9.278 -0.8789 -0.1175 -0.0731
 4543SOL     OW25261   4.377   3.018   3.558  0.0122  1.2184 -0.5714
 4543SOL    HW125262   4.471   3.011   3.542  0.6590  3.3403  2.2271
 4543SOL    HW225263   4.384   3.056   3.646  2.2623  0.7924 -0.5790
 4544SOL     OW25264   1.934   2.012   5.907 -0.2576 -0.1708 -0.1930
 4544SOL    HW125265   2.004   2.058   5.953 -0.1442 -0.7753  0.2517
 4544SOL    HW225266   1.877   2.079   5.870  0.1683  1.2480  1.7345
 4545SOL     OW25267   1.739   2.482   8.326 -0.1805 -0.2109 -0.0118
 4545SOL    HW125268   1.810   2.539   8.295 -0.8997  0.7165  0.0597
 4545SOL    HW225269   1.778   2.400   8.294 -0.9750  0.2455 -2.1603
 4546SOL     OW25270   2.378   3.361   5.402 -0.2842 -0.4277  0.2984
 4546SOL    HW125271   2.283   3.351   5.401 -0.3862  0.6814 -2.4471
 4546SOL    HW225272   2.394   3.286   5.345  1.0893 -1.7130  2.3769
 4547SOL     OW25273   2.513   2.175   8.820  0.2630  0.5071  0.0328
 4547SOL    HW125274   2.500   2.199   8.912 -2.9359 -0.1958 -0.2402
 4547SOL    HW225275   2.429   2.188   8.775 -0.7778  0.2888  1.9028
 4548SOL     OW25276   0.152   1.174   3.983 -0.0059 -0.2357  0.0180
 4548SOL    HW125277   0.168   1.171   3.889 -1.5324 -2.0928 -0.1634
 4548SOL    HW225278   0.201   1.098   4.015  0.3706 -0.1734 -0.4065
 4549SOL     OW25279   2.595   1.791   3.242 -0.3643  0.4082  0.3242
 4549SOL    HW125280   2.649   1.846   3.299  1.8054 -2.1420  0.7297
 4549SOL    HW225281   2.578   1.723   3.307  0.8530  0.0198  0.2394
 4550SOL     OW25282   3.014   2.344   5.376  0.3131 -0.3001  0.4763
 4550SOL    HW125283   3.071   2.302   5.440 -1.3276 -0.7445  1.6573
 4550SOL    HW225284   2.925   2.344   5.412 -0.5617 -1.8045 -1.6502
 4551SOL     OW25285   2.702   2.572   4.796  0.0076  0.3498  0.0647
 4551SOL    HW125286   2.681   2.615   4.713  1.8643 -0.2922 -0.7464
 4551SOL    HW225287   2.725   2.481   4.780  1.1512  0.5557  0.4898
 4552SOL     OW25288   4.628   2.888   3.868  0.1385 -0.5405 -0.5889
 4552SOL    HW125289   4.604   2.967   3.917  1.6195  0.5480 -1.6054
 4552SOL    HW225290   4.706   2.859   3.914  0.5033 -0.0636 -0.9018
 4553SOL     OW25291   4.314   2.110  10.290  0.4464  0.5427 -0.1279
 4553SOL    HW125292   4.255   2.139  10.359  0.3763  2.6764 -1.1016
 4553SOL    HW225293   4.387   2.172  10.292 -1.3291  2.7078 -1.9291
 4554SOL     OW25294   3.128   2.774   2.693 -0.5022  0.0026  0.0329
 4554SOL    HW125295   3.149   2.748   2.783  1.1916 -0.3751 -0.4758
 4554SOL    HW225296   3.073   2.698   2.672  1.2533 -1.0437 -0.7724
 4555SOL     OW25297   3.959   2.964   2.516 -0.4465  0.3846 -0.0214
 4555SOL    HW125298   3.921   3.001   2.597 -1.1228 -0.6707  0.1472
 4555SOL    HW225299   3.886   2.985   2.458  0.6426  3.9867 -0.0913
 4556SOL     OW25300   1.321   1.170   3.659 -0.6092 -0.5627  0.2371
 4556SOL    HW125301   1.353   1.092   3.614  1.2843 -0.0120  0.6290
 4556SOL    HW225302   1.301   1.148   3.749 -0.6859 -0.9991  0.1135
 4557SOL     OW25303   3.883   2.256   2.852  0.0874 -0.0645  1.1576
 4557SOL    HW125304   3.930   2.319   2.906  0.2718  0.5458  0.2890
 4557SOL    HW225305   3.940   2.180   2.856  0.0123 -0.2139 -0.6822
 4558SOL     OW25306   3.470   3.237   5.180  0.0399 -0.5120  0.1125
 4558SOL    HW125307   3.438   3.198   5.099 -0.3642  2.5499 -1.2025
 4558SOL    HW225308   3.562   3.242   5.154  0.6725  0.2673  2.5005
 4559SOL     OW25309   0.437   2.141   1.688 -0.2651 -0.4086  0.2394
 4559SOL    HW125310   0.506   2.109   1.631 -1.1973  0.2008 -1.2404
 4559SOL    HW225311   0.386   2.061   1.680  1.8970 -1.5260 -2.3200
 4560SOL     OW25312   0.358   1.880  15.694  0.1610  0.4454 -0.1927
 4560SOL    HW125313   0.380   1.799  15.740 -1.0219  0.0160 -0.3831
 4560SOL    HW225314   0.290   1.845  15.637 -0.4391  3.4772 -1.3320
 4561SOL     OW25315   3.550   3.716   4.224 -0.3892 -0.0967  0.2854
 4561SOL    HW125316   3.586   3.710   4.312  1.2440 -1.9269 -0.5031
 4561SOL    HW225317   3.463   3.751   4.245  0.0691 -0.0804  2.1221
 4562SOL     OW25318   3.484   2.592   9.840  0.0124  0.2928  0.0919
 4562SOL    HW125319   3.574   2.616   9.861  0.0865 -1.6012  1.9507
 4562SOL    HW225320   3.449   2.615   9.926  0.5885  2.7208 -0.2970
 4563SOL     OW25321   0.113   1.697   1.947  0.2334  0.1151  0.7679
 4563SOL    HW125322   0.170   1.655   2.011  2.8505  0.3124 -1.4021
 4563SOL    HW225323   0.132   1.652   1.864 -0.2842  1.1280  0.0931
 4564SOL     OW25324   2.514   0.425   5.595 -0.2577 -0.5338  0.2153
 4564SOL    HW125325   2.524   0.519   5.612  0.7432 -0.7383  0.8308
 4564SOL    HW225326   2.552   0.385   5.674  0.8970  0.6431  0.2694
 4565SOL     OW25327   3.523   0.536   7.398  0.4162 -0.7483 -0.0652
 4565SOL    HW125328   3.595   0.503   7.345  2.3179  0.9101  1.4585
 4565SOL    HW225329   3.449   0.478   7.381  0.8522 -1.0154 -1.0265
 4566SOL     OW25330   3.506   2.886   2.865 -0.9434  0.2924 -0.7190
 4566SOL    HW125331   3.504   2.791   2.852 -2.8670  0.1731  0.4695
 4566SOL    HW225332   3.580   2.912   2.810 -0.9208 -0.9706 -1.2720
 4567SOL     OW25333   3.656   3.208  15.554  0.0487 -0.1336  0.1604
 4567SOL    HW125334   3.713   3.220  15.630 -0.5577 -2.7878  1.0531
 4567SOL    HW225335   3.586   3.272  15.568  1.8338  1.9301 -0.4270
 4568SOL     OW25336   1.772   4.048  13.674  0.3005  0.0558  0.2209
 4568SOL    HW125337   1.823   3.998  13.738 -0.0447  1.1280  1.3158
 4568SOL    HW225338   1.725   4.105  13.735  0.6081 -0.1553  0.6563
 4569SOL     OW25339   1.077   2.635   3.511 -0.2632  0.1157  0.3211
 4569SOL    HW125340   1.060   2.729   3.519  2.8562  0.6484  0.6313
 4569SOL    HW225341   1.098   2.633   3.418  1.9789 -2.5020  0.8924
 4570SOL     OW25342   0.775   0.369   5.414  0.1141 -0.7501 -0.0003
 4570SOL    HW125343   0.812   0.280   5.421  2.3513 -0.1334 -3.6042
 4570SOL    HW225344   0.695   0.362   5.466 -0.1629  0.8810 -0.2200
 4571SOL     OW25345   1.112   2.785   8.512 -0.8167  0.1746  0.0449
 4571SOL    HW125346   1.163   2.791   8.431 -0.1200  3.1785  0.6766
 4571SOL    HW225347   1.159   2.858   8.553 -0.1262 -0.2624  0.0307
 4572SOL     OW25348   4.247   1.277   1.876  0.0163 -0.1479 -0.0138
 4572SOL    HW125349   4.276   1.345   1.816 -1.2471  0.8166  0.4784
 4572SOL    HW225350   4.236   1.203   1.817  3.5621  0.6088 -1.6491
 4573SOL     OW25351   0.273   3.387   7.792 -0.2393  0.4970 -0.6167
 4573SOL    HW125352   0.296   3.454   7.728 -0.3516  0.9436 -0.1850
 4573SOL    HW225353   0.358   3.375   7.835 -1.0039  0.3130  0.8352
 4574SOL     OW25354   2.547   0.911   2.124 -0.0552  0.1496  0.7787
 4574SOL    HW125355   2.616   0.848   2.105 -0.2744  0.5367 -1.2793
 4574SOL    HW225356   2.473   0.856   2.099 -0.7726  1.3135  0.3378
 4575SOL     OW25357   3.353   4.276  13.396  0.2198 -0.0727 -0.1965
 4575SOL    HW125358   3.398   4.202  13.356  1.4116  1.7958 -2.3161
 4575SOL    HW225359   3.356   4.347  13.331  0.1072  0.7743  0.7221
 4576SOL     OW25360   3.980   2.120   5.492 -0.4264 -0.5356  0.3490
 4576SOL    HW125361   3.933   2.132   5.409 -0.5293 -0.9271  0.3524
 4576SOL    HW225362   4.001   2.212   5.507 -0.9430 -0.3552 -0.0278
 4577SOL     OW25363   3.771   3.122   7.151  0.4222 -0.5959  0.2944
 4577SOL    HW125364   3.849   3.103   7.099 -2.4519 -2.8057 -3.1866
 4577SOL    HW225365   3.804   3.179   7.221  0.3181 -1.2689  0.8905
 4578SOL     OW25366   1.135   0.216   2.201 -0.3805 -0.0208 -0.1436
 4578SOL    HW125367   1.152   0.122   2.204 -0.8472 -0.1793 -2.2881
 4578SOL    HW225368   1.221   0.249   2.228 -0.0464 -0.3125 -0.8471
 4579SOL     OW25369   0.459   1.931  13.909  0.0044 -0.2153  0.5347
 4579SOL    HW125370   0.368   1.936  13.882 -0.1128 -0.1753  0.9414
 4579SOL    HW225371   0.471   1.850  13.859 -2.1298 -1.0386  1.3488
 4580SOL     OW25372   1.606   2.155  16.392  0.0938 -0.3690  0.0146
 4580SOL    HW125373   1.630   2.128  16.303 -0.0519  0.6774 -0.3450
 4580SOL    HW225374   1.564   2.240  16.376  1.0222  0.3884  1.5642
 4581SOL     OW25375   0.396   2.539   2.340  0.2804 -0.2842 -0.0957
 4581SOL    HW125376   0.309   2.563   2.310  1.6683  3.0685 -1.4368
 4581SOL    HW225377   0.379   2.447   2.358  1.2498 -0.9243 -2.5543
 4582SOL     OW25378   0.017   3.736   7.019  0.4282 -0.3309 -0.5015
 4582SOL    HW125379   0.041   3.646   6.999  1.9841 -0.2306  0.9442
 4582SOL    HW225380   0.077   3.767   7.086 -0.7581 -0.7555  0.7550
 4583SOL     OW25381   4.304   4.042  11.593  0.8328  0.1114 -0.4975
 4583SOL    HW125382   4.319   3.987  11.516  1.5303  0.4973 -0.6441
 4583SOL    HW225383   4.283   3.977  11.659 -1.2425  0.3403 -0.9404
 4584SOL     OW25384   0.008   2.827   0.272  0.4162  0.2358  0.4128
 4584SOL    HW125385   4.714   2.897   0.329 -1.7534  0.5920 -1.2162
 4584SOL    HW225386   0.060   2.882   0.214  1.2076 -2.6753 -1.6557
 4585SOL     OW25387   4.054   3.770   5.732 -0.8260  0.2023 -0.1160
 4585SOL    HW125388   3.997   3.844   5.709 -1.3154 -0.2805 -0.4521
 4585SOL    HW225389   4.115   3.760   5.660 -1.3219 -0.3661 -0.4582
 4586SOL     OW25390   0.323   4.075   4.343 -0.3784 -0.1121  0.1440
 4586SOL    HW125391   0.304   4.062   4.250 -3.3519 -0.7375  0.8422
 4586SOL    HW225392   0.387   4.143   4.323 -0.2009  0.0038  1.0973
 4587SOL     OW25393   2.572   2.095  11.687 -0.2591  0.1458  0.3130
 4587SOL    HW125394   2.628   2.019  11.671  0.3176  0.8198 -0.8832
 4587SOL    HW225395   2.615   2.168  11.641  0.3040 -0.8278 -0.7075
 4588SOL     OW25396   1.339   1.307   4.410  0.4440 -0.0024 -0.3365
 4588SOL    HW125397   1.387   1.226   4.425  0.3065 -0.0468 -0.1292
 4588SOL    HW225398   1.255   1.268   4.385  0.0619  0.7002 -0.1616
 4589SOL     OW25399   1.913   3.130   5.963  0.2007 -0.0116  0.9342
 4589SOL    HW125400   1.996   3.100   6.000 -0.6356 -2.7602  0.6426
 4589SOL    HW225401   1.938   3.196   5.899 -1.2270  1.1218  1.5613
 4590SOL     OW25402   3.451   1.330  14.940 -0.4504 -0.4986 -0.3206
 4590SOL    HW125403   3.468   1.408  14.993  0.2883 -2.0882  1.8275
 4590SOL    HW225404   3.526   1.320  14.883 -0.9421 -0.1717 -1.0245
 4591SOL     OW25405   1.374   4.331  10.555  0.2028  0.1503 -0.2443
 4591SOL    HW125406   1.421   4.308  10.636 -0.7838  0.0210  0.2879
 4591SOL    HW225407   1.294   4.279  10.561  1.3538 -1.5217  0.7837
 4592SOL     OW25408   2.184   4.324   1.388  0.4970  0.0443 -0.1858
 4592SOL    HW125409   2.273   4.306   1.421  0.0680 -1.3526  0.2130
 4592SOL    HW225410   2.207   4.295   1.299 -2.8333 -1.1028 -0.6453
 4593SOL     OW25411   1.653   3.189   5.105 -0.0813  0.5449 -0.1811
 4593SOL    HW125412   1.740   3.220   5.131 -0.8334  0.7413  2.0636
 4593SOL    HW225413   1.597   3.261   5.133 -2.1061 -1.0100 -0.2313
 4594SOL     OW25414   4.417   0.385  14.371 -0.4237 -0.0064  0.1717
 4594SOL    HW125415   4.459   0.392  14.456 -1.1167  0.2690  0.4909
 4594SOL    HW225416   4.468   0.317  14.327  1.7320  1.5490  0.2723
 4595SOL     OW25417   0.348   4.725   6.191  0.1056 -0.3543  0.0209
 4595SOL    HW125418   0.387   0.057   6.245  0.0807 -0.6548  0.4262
 4595SOL    HW225419   0.383   0.005   6.104 -0.9822  0.7092 -0.2076
 4596SOL     OW25420   1.479   3.154   7.364  0.5035  0.0068 -0.3205
 4596SOL    HW125421   1.416   3.084   7.348  0.3394  0.2728 -0.8408
 4596SOL    HW225422   1.555   3.133   7.311  0.1673 -2.8570  0.3481
 4597SOL     OW25423   4.215   0.656   5.070  0.1200  0.4979 -0.1503
 4597SOL    HW125424   4.272   0.724   5.105 -0.7565  0.4792  1.3253
 4597SOL    HW225425   4.267   0.579   5.048  1.6955  1.4616  0.2191
 4598SOL     OW25426   3.758   0.911  14.392  0.0235  0.6275  0.0936
 4598SOL    HW125427   3.781   1.003  14.376  0.0890  0.4675 -0.7274
 4598SOL    HW225428   3.729   0.893  14.302  1.5135  0.4816 -0.3492
 4599SOL     OW25429   0.168   1.642  11.541  0.0869 -0.4290  0.5284
 4599SOL    HW125430   0.219   1.593  11.606 -2.0702 -2.2605  0.8655
 4599SOL    HW225431   0.137   1.556  11.511  2.6290 -1.9478  2.2407
 4600SOL     OW25432   1.867   2.484   6.612  0.3138  0.6253 -0.1737
 4600SOL    HW125433   1.860   2.394   6.582 -0.4755  1.5105 -2.6075
 4600SOL    HW225434   1.962   2.493   6.617  0.3186  0.4225  0.1105
 4601SOL     OW25435   3.145   2.861   4.165  0.1435  0.1782 -0.2195
 4601SOL    HW125436   3.209   2.858   4.094  1.2410  0.6567  0.7599
 4601SOL    HW225437   3.061   2.837   4.125  1.1803 -2.0268 -1.1001
 4602SOL     OW25438   3.539   3.132   4.681 -0.2210  0.1158 -0.2716
 4602SOL    HW125439   3.499   3.139   4.768 -1.4969  0.1202 -0.8635
 4602SOL    HW225440   3.583   3.049   4.698 -0.7204  0.3349  2.1743
 4603SOL     OW25441   2.035   0.826   0.394 -0.0704 -0.5022  0.0357
 4603SOL    HW125442   2.046   0.920   0.410 -0.3261 -0.2558 -1.2105
 4603SOL    HW225443   1.944   0.818   0.424  0.4689 -1.5515  1.3599
 4604SOL     OW25444   3.418   4.025   5.586 -0.3871  0.1077 -0.1131
 4604SOL    HW125445   3.413   4.043   5.680  1.2404  0.8392 -0.1648
 4604SOL    HW225446   3.361   4.092   5.547  0.2629  1.4318  1.2214
 4605SOL     OW25447   2.944   3.061  15.972  0.0770 -0.1890 -0.7199
 4605SOL    HW125448   2.888   3.134  16.002 -0.4513 -0.5992 -0.7056
 4605SOL    HW225449   3.032   3.095  15.989  0.0288  0.3152 -1.4900
 4606SOL     OW25450   3.217   0.128  16.075 -0.1750  0.8307 -0.0576
 4606SOL    HW125451   3.205   0.221  16.096 -1.6459  0.6724 -0.1635
 4606SOL    HW225452   3.247   0.106  16.164 -1.7671 -0.8716  0.0583
 4607SOL     OW25453   0.813   2.113   1.201  0.1766  0.5754 -0.3064
 4607SOL    HW125454   0.856   2.172   1.262  0.4363  2.3632 -2.2096
 4607SOL    HW225455   0.755   2.174   1.156  1.1015  0.2364 -1.9936
 4608SOL     OW25456   2.262   4.613   2.413  0.2555 -0.4519  0.0576
 4608SOL    HW125457   2.212   4.695   2.411 -0.1684 -0.7361 -1.1070
 4608SOL    HW225458   2.255   4.569   2.497  1.7675  0.7803  0.8320
 4609SOL     OW25459   4.050   0.341   5.943 -0.5801  0.2647 -0.2881
 4609SOL    HW125460   4.007   0.324   5.859  0.7085  1.2931 -1.1642
 4609SOL    HW225461   4.113   0.269   5.948  0.7665  1.4852  0.6353
 4610SOL     OW25462   3.979   4.625   7.053 -0.7340 -0.2011  0.4896
 4610SOL    HW125463   3.950   4.603   6.964  0.0948 -2.4573  0.7666
 4610SOL    HW225464   3.934   4.557   7.103 -1.2570 -0.6954 -0.6550
 4611SOL     OW25465   3.245   3.460   0.601 -0.1109 -0.3530  0.4661
 4611SOL    HW125466   3.303   3.386   0.618 -0.6843 -0.7426  0.7054
 4611SOL    HW225467   3.263   3.514   0.678 -0.4340 -1.1635  1.1150
 4612SOL     OW25468   1.035   2.570   4.600 -0.0746  0.5745 -0.3517
 4612SOL    HW125469   1.011   2.559   4.508 -1.9299  0.3557  0.1485
 4612SOL    HW225470   0.980   2.513   4.654 -0.5338  0.1378 -1.2661
 4613SOL     OW25471   0.002   2.180   3.476  0.6170  0.1846 -0.4997
 4613SOL    HW125472   4.651   2.144   3.474  0.5147  0.4944 -1.3876
 4613SOL    HW225473   0.036   2.126   3.548  0.3825 -1.7678 -1.8358
 4614SOL     OW25474   3.641   4.212   8.310 -0.0687 -0.6847  0.6636
 4614SOL    HW125475   3.725   4.254   8.327 -0.0098  0.1022 -1.5403
 4614SOL    HW225476   3.625   4.171   8.395  2.0341 -1.9373  0.4595
 4615SOL     OW25477   1.190   3.722   4.658 -0.2653  0.0202 -0.2580
 4615SOL    HW125478   1.263   3.759   4.608 -0.1433  2.0948  1.4334
 4615SOL    HW225479   1.110   3.735   4.607 -1.5495 -1.8409  1.2764
 4616SOL     OW25480   3.372   2.468  13.111 -0.4054 -0.1613  0.3836
 4616SOL    HW125481   3.346   2.376  13.106 -0.7981 -0.0155 -0.2503
 4616SOL    HW225482   3.294   2.502  13.154 -0.5679  1.9376 -1.5949
 4617SOL     OW25483   2.299   2.182   3.062  0.0304  0.0691  0.9307
 4617SOL    HW125484   2.309   2.276   3.045 -1.4260 -0.1665 -1.1307
 4617SOL    HW225485   2.213   2.182   3.104 -0.2733 -0.7945  0.3037
 4618SOL     OW25486   0.886   3.752   6.321  0.0161  0.4105 -0.1921
 4618SOL    HW125487   0.849   3.664   6.318 -0.0230  0.5111 -3.4246
 4618SOL    HW225488   0.972   3.730   6.284  0.2795 -0.3413  0.8637
 4619SOL     OW25489   2.565   3.738   8.907 -0.2174  0.0824  0.5626
 4619SOL    HW125490   2.519   3.822   8.907 -1.8851 -0.8279  0.5905
 4619SOL    HW225491   2.523   3.698   8.831  0.9987 -2.0143  0.9694
 4620SOL     OW25492   2.296   0.926   8.576 -0.1762  0.1453 -0.4127
 4620SOL    HW125493   2.243   0.916   8.655  0.1273  0.8192 -0.1256
 4620SOL    HW225494   2.311   1.021   8.578 -1.3981  0.3437 -1.1463
 4621SOL     OW25495   3.159   3.984   1.416  0.0242 -0.4132 -0.3807
 4621SOL    HW125496   3.249   3.953   1.429  0.0489 -0.1473  0.0565
 4621SOL    HW225497   3.180   4.077   1.417  1.0600 -0.6574  0.8897
 4622SOL     OW25498   2.210   2.322   6.442 -0.3934 -0.4679  0.2384
 4622SOL    HW125499   2.161   2.240   6.435 -1.9702  0.6114 -1.4649
 4622SOL    HW225500   2.277   2.302   6.378 -0.0225  0.1037  0.4463
 4623SOL     OW25501   2.771   2.400   1.242  0.1567 -0.5077  0.5325
 4623SOL    HW125502   2.757   2.479   1.295  1.6204 -0.9824  1.6280
 4623SOL    HW225503   2.784   2.452   1.163  0.8104  0.0586  1.0169
 4624SOL     OW25504   2.623   1.559  11.873 -0.1880  0.1400  0.0123
 4624SOL    HW125505   2.559   1.555  11.803 -0.8895 -1.5284  0.7405
 4624SOL    HW225506   2.645   1.652  11.881  1.3070 -0.2916  1.0758
 4625SOL     OW25507   4.038   2.676   8.416 -0.4141  0.6356  0.2038
 4625SOL    HW125508   4.116   2.680   8.470 -0.6988  0.0164  0.6583
 4625SOL    HW225509   4.035   2.584   8.391  0.3761  0.2064  1.7527
 4626SOL     OW25510   0.968   1.699   9.978  0.3043  0.4057 -0.2832
 4626SOL    HW125511   0.963   1.615  10.025  0.5128  2.4966  3.4939
 4626SOL    HW225512   0.996   1.670   9.891 -1.2205  0.1440 -0.6813
 4627SOL     OW25513   0.796   2.167   6.129  0.7055  0.6451 -0.2017
 4627SOL    HW125514   0.764   2.159   6.039  0.5563 -1.9019  0.0800
 4627SOL    HW225515   0.813   2.076   6.154 -0.9067  0.4033  0.0155
 4628SOL     OW25516   0.019   4.710  16.321 -0.4298  0.0479 -0.1092
 4628SOL    HW125517   4.729   0.060  16.293 -0.8436  0.3607  1.2853
 4628SOL    HW225518   4.683   4.684  16.376 -0.5450  0.6225  0.0052
 4629SOL     OW25519   3.575   2.501  10.200 -0.1106 -0.2562  0.2523
 4629SOL    HW125520   3.577   2.415  10.243  0.2363 -1.3301 -1.9445
 4629SOL    HW225521   3.669   2.518  10.201 -0.2571  0.6254 -0.5789
 4630SOL     OW25522   1.130   3.031  13.457 -0.0161  0.3165  0.2463
 4630SOL    HW125523   1.224   3.016  13.464  0.2569  1.5102 -0.7977
 4630SOL    HW225524   1.110   2.977  13.380 -2.2565 -1.8439  2.3438
 4631SOL     OW25525   4.182   1.207   2.681  0.4607 -0.0696 -0.1194
 4631SOL    HW125526   4.165   1.288   2.633  0.0059 -0.6643 -0.9573
 4631SOL    HW225527   4.189   1.235   2.773  1.3734  0.3281 -0.3086
 4632SOL     OW25528   4.287   4.342   6.088 -0.4552  0.5499  0.1407
 4632SOL    HW125529   4.230   4.304   6.155 -0.8154  3.7092  1.6024
 4632SOL    HW225530   4.367   4.289   6.096  0.3783  1.4831 -1.9432
 4633SOL     OW25531   4.627   0.114   3.644 -0.2563 -0.0329 -0.5713
 4633SOL    HW125532   4.626   0.084   3.735 -1.5452  1.6413 -0.0292
 4633SOL    HW225533   4.697   0.053   3.620 -1.9983 -2.4280  0.4198
 4634SOL     OW25534   1.818   2.458   8.914 -0.2254 -0.4427 -0.5594
 4634SOL    HW125535   1.866   2.375   8.916  2.6637  1.2119 -0.7582
 4634SOL    HW225536   1.775   2.458   8.828  1.6436 -0.1187 -1.4898
 4635SOL     OW25537   1.108   4.031   5.399  0.2608 -0.6626 -0.5734
 4635SOL    HW125538   1.037   4.094   5.402  0.8081 -0.0719 -0.0079
 4635SOL    HW225539   1.127   4.041   5.305 -0.7183 -1.5422 -0.8593
 4636SOL     OW25540   4.279   3.477  14.891  0.2838 -0.3482 -0.7653
 4636SOL    HW125541   4.338   3.552  14.879  1.4799 -1.5088 -2.2670
 4636SOL    HW225542   4.330   3.407  14.850 -0.8749 -0.6925 -1.6047
 4637SOL     OW25543   1.518   2.597   8.197  0.3396 -0.3576 -0.7510
 4637SOL    HW125544   1.593   2.571   8.250  1.0818  0.6347 -1.3323
 4637SOL    HW225545   1.555   2.668   8.145  1.7346 -0.8759 -0.4668
 4638SOL     OW25546   1.103   2.242   2.287  0.1496 -0.1206  0.0833
 4638SOL    HW125547   1.161   2.296   2.341 -0.2644 -1.0492  1.4574
 4638SOL    HW225548   1.017   2.251   2.328 -0.0463 -0.0510 -0.3509
 4639SOL     OW25549   2.001   1.299   4.023 -0.3624 -0.1179 -0.2721
 4639SOL    HW125550   2.016   1.360   4.095  2.0737 -1.1191  0.0648
 4639SOL    HW225551   2.074   1.312   3.962  0.2416 -2.2966 -0.0137
 4640SOL     OW25552   1.961   3.924   7.628 -0.3398 -0.1028  0.7308
 4640SOL    HW125553   1.901   3.866   7.582 -1.3929  0.1051  1.8374
 4640SOL    HW225554   1.918   3.933   7.713 -0.5211 -0.7712  0.7073
 4641SOL     OW25555   3.223   0.753   2.574  0.5745  0.2013 -0.3119
 4641SOL    HW125556   3.236   0.833   2.523 -0.9629 -0.2702 -1.4148
 4641SOL    HW225557   3.299   0.753   2.633  0.5508 -2.4098 -0.2961
 4642SOL     OW25558   3.410   1.548   7.966 -0.0407  0.4038 -0.2967
 4642SOL    HW125559   3.460   1.547   8.048  0.5528 -4.1071 -0.7013
 4642SOL    HW225560   3.354   1.621   7.991 -1.9121 -2.3389  3.5401
 4643SOL     OW25561   3.862   4.210   5.965 -0.1932  0.2361 -0.0153
 4643SOL    HW125562   3.851   4.273   6.036  0.5942 -1.0018  1.2056
 4643SOL    HW225563   3.952   4.226   5.937 -0.1113 -0.6534 -0.2828
 4644SOL     OW25564   3.103   1.068   9.589 -0.4764  0.0914 -0.3973
 4644SOL    HW125565   3.039   1.052   9.520 -1.3710  1.1941  0.1810
 4644SOL    HW225566   3.054   1.129   9.644 -0.5325 -0.4635  0.1767
 4645SOL     OW25567   1.850   2.740   0.742  0.5031 -0.2281  0.0605
 4645SOL    HW125568   1.823   2.734   0.651 -3.1178  0.5749  1.0969
 4645SOL    HW225569   1.796   2.670   0.778  0.5773  0.4343  1.4677
 4646SOL     OW25570   0.937   1.961  13.012  0.1385 -0.1914 -0.4963
 4646SOL    HW125571   0.905   1.963  13.102 -1.5647  1.1427 -1.1320
 4646SOL    HW225572   1.016   2.017  13.009  1.0281 -1.4895 -1.3773
 4647SOL     OW25573   2.617   2.709   6.173  0.3384  0.0571 -0.0641
 4647SOL    HW125574   2.704   2.679   6.146 -0.0391 -1.8565  0.8711
 4647SOL    HW225575   2.574   2.719   6.088  0.1041  0.8056  0.1394
 4648SOL     OW25576   1.769   2.755  15.407  0.5191  0.5492 -0.7557
 4648SOL    HW125577   1.775   2.732  15.314  0.5888 -0.5569 -0.4773
 4648SOL    HW225578   1.862   2.774  15.418  0.5761 -0.8005  1.1070
 4649SOL     OW25579   1.721   2.148   2.959 -0.0833 -0.0289 -0.0521
 4649SOL    HW125580   1.643   2.135   3.013  0.8807 -0.8099  1.1494
 4649SOL    HW225581   1.722   2.074   2.899 -0.2873 -2.2624  2.6650
 4650SOL     OW25582   3.832   3.661   9.162  0.2402  0.3005 -0.3966
 4650SOL    HW125583   3.835   3.654   9.067 -1.7180  0.5844 -0.4908
 4650SOL    HW225584   3.916   3.624   9.189  0.4459  0.2352 -1.1443
 4651SOL     OW25585   3.204   3.284   8.867  0.3869 -0.2265  0.2847
 4651SOL    HW125586   3.155   3.246   8.940 -0.9605 -1.1285 -1.0805
 4651SOL    HW225587   3.172   3.223   8.800 -1.9281  1.1792  0.1238
 4652SOL     OW25588   2.883   4.583  13.330  0.0996  0.1511 -0.1489
 4652SOL    HW125589   2.819   4.552  13.393  1.8040 -2.8005  0.0959
 4652SOL    HW225590   2.935   4.652  13.372 -1.1096  0.5657  0.6629
 4653SOL     OW25591   3.163   1.836   9.480 -0.1742  0.2723 -0.2137
 4653SOL    HW125592   3.081   1.822   9.527 -1.3431  1.7716 -1.8150
 4653SOL    HW225593   3.136   1.827   9.388  1.3545  1.7668 -0.8140
 4654SOL     OW25594   4.493   0.601   4.815 -0.1468  0.1290  0.2332
 4654SOL    HW125595   4.557   0.552   4.763 -0.3226  0.7933 -0.5937
 4654SOL    HW225596   4.475   0.676   4.759 -1.6567  0.6053  1.3262
 4655SOL     OW25597   2.454   2.702   1.403 -0.4270 -0.0588  0.3597
 4655SOL    HW125598   2.359   2.700   1.390 -0.6177 -0.2797  1.8047
 4655SOL    HW225599   2.464   2.796   1.418 -1.3365 -0.0564  0.9386
 4656SOL     OW25600   2.770   2.020   6.163  0.2791  0.2693 -0.6083
 4656SOL    HW125601   2.697   2.052   6.109 -1.5368 -0.5882  1.3722
 4656SOL    HW225602   2.764   2.076   6.240  1.5486  0.5262 -0.6927
 4657SOL     OW25603   2.883   3.751   6.582  0.5092  0.1504 -0.2022
 4657SOL    HW125604   2.792   3.736   6.557  0.5202 -1.6708  0.8735
 4657SOL    HW225605   2.924   3.667   6.562 -0.7379 -0.5112  0.0505
 4658SOL     OW25606   3.848   1.688   1.443  0.5819 -0.3007 -0.5568
 4658SOL    HW125607   3.784   1.696   1.514 -2.1143 -1.9213 -2.7823
 4658SOL    HW225608   3.796   1.682   1.363  1.1366  0.8877 -1.0025
 4659SOL     OW25609   1.256   1.839   3.182  0.5782  0.1374 -0.5124
 4659SOL    HW125610   1.326   1.788   3.141  1.9121  0.5522  1.2307
 4659SOL    HW225611   1.298   1.895   3.247 -2.4686  0.0271  1.5595
 4660SOL     OW25612   3.571   4.658   3.975  0.0777 -0.1432  0.5726
 4660SOL    HW125613   3.589   4.684   3.884  1.4489 -3.2374 -0.0578
 4660SOL    HW225614   3.476   4.661   3.976  0.0135 -2.2379  0.5311
 4661SOL     OW25615   0.962   2.035   4.189  0.5207 -0.3207  0.4763
 4661SOL    HW125616   0.889   1.982   4.220 -1.3057  1.9075  0.0614
 4661SOL    HW225617   0.976   2.004   4.100 -0.9782 -0.5273  0.3200
 4662SOL     OW25618   3.087   0.484   9.650  0.3129  0.3465  0.0347
 4662SOL    HW125619   3.079   0.416   9.583 -1.1674 -1.5407  2.1197
 4662SOL    HW225620   3.172   0.516   9.617 -0.1019  1.8745  0.4547
 4663SOL     OW25621   0.903   3.833   8.098 -0.5861 -0.4182 -0.3839
 4663SOL    HW125622   0.839   3.884   8.048  1.1449 -0.0102 -2.1803
 4663SOL    HW225623   0.848   3.758   8.121 -1.1736 -0.1334 -0.8494
 4664SOL     OW25624   4.395   4.548   8.131 -0.0811 -0.0534  0.7497
 4664SOL    HW125625   4.404   4.609   8.058  0.2894 -0.1038  0.7498
 4664SOL    HW225626   4.304   4.520   8.121 -0.0262  0.3974 -1.0058
 4665SOL     OW25627   3.722   0.336  15.026  0.3909 -0.4197 -0.1874
 4665SOL    HW125628   3.756   0.352  15.114 -6.1349 -2.7848  2.7793
 4665SOL    HW225629   3.629   0.354  15.040  0.7474  0.2702  1.3268
 4666SOL     OW25630   0.689   0.798   6.606 -0.9291 -0.1450 -0.6765
 4666SOL    HW125631   0.662   0.739   6.535  3.0271  0.4423 -2.6762
 4666SOL    HW225632   0.614   0.800   6.664 -0.4742  0.2060 -0.1068
 4667SOL     OW25633   3.847   1.704  15.526 -0.3260 -0.2269  0.1210
 4667SOL    HW125634   3.888   1.724  15.442 -0.7620 -1.8721 -0.4856
 4667SOL    HW225635   3.845   1.790  15.567 -1.3977 -0.0968 -0.2133
 4668SOL     OW25636   3.995   3.244   3.155  0.4533 -0.1125  0.5662
 4668SOL    HW125637   4.002   3.193   3.235  1.4427 -1.3439 -0.3034
 4668SOL    HW225638   4.031   3.185   3.088 -0.3212 -0.0056  0.0554
 4669SOL     OW25639   3.514   2.683   3.302 -0.2416  0.1727 -0.4865
 4669SOL    HW125640   3.605   2.690   3.333 -0.6721  1.5586  0.4880
 4669SOL    HW225641   3.527   2.616   3.235 -2.4686  1.0315 -1.7484
 4670SOL     OW25642   1.364   0.392   2.242  0.5013 -0.3582  0.3114
 4670SOL    HW125643   1.451   0.406   2.278  1.0026 -0.6931 -0.7712
 4670SOL    HW225644   1.305   0.439   2.301  1.9869 -0.5747  1.9459
 4671SOL     OW25645   0.517   1.794   8.682  0.8209  0.5330  0.1471
 4671SOL    HW125646   0.458   1.866   8.659  2.8037  1.5277 -1.7942
 4671SOL    HW225647   0.579   1.802   8.610  1.3386  0.8441  0.6216
 4672SOL     OW25648   0.272   1.237  16.560  0.4808  0.1745  0.2854
 4672SOL    HW125649   0.334   1.166  16.543  0.1397 -0.5967  2.2431
 4672SOL    HW225650   0.326   1.316  16.560  0.9055 -0.1171  1.8505
 4673SOL     OW25651   4.057   3.830   7.753  0.5342  0.0560  0.2534
 4673SOL    HW125652   4.007   3.841   7.834  0.1930 -0.3523  0.1015
 4673SOL    HW225653   4.038   3.743   7.719 -1.5095 -0.0130  1.5599
 4674SOL     OW25654   2.990   1.749   6.882  0.0500  0.2354 -0.0335
 4674SOL    HW125655   3.079   1.732   6.910 -0.1938 -1.0928 -0.0815
 4674SOL    HW225656   2.939   1.758   6.962  0.7505  0.3385  0.3958
 4675SOL     OW25657   3.068   0.423   5.858  0.7505 -0.7292 -0.0402
 4675SOL    HW125658   3.029   0.501   5.819 -0.4901 -0.7857  1.0743
 4675SOL    HW225659   3.124   0.398   5.785  2.2053  2.3708  0.0078
 4676SOL     OW25660   1.417   1.552   9.102 -0.2739 -0.2012  0.0075
 4676SOL    HW125661   1.377   1.472   9.071 -0.8287  0.2308 -0.3916
 4676SOL    HW225662   1.356   1.601   9.157 -1.4711 -0.7556 -0.8210
 4677SOL     OW25663   0.922   4.717  11.895  0.6443  0.1182 -0.2922
 4677SOL    HW125664   0.935   0.025  11.978  2.3815  1.4551 -1.2938
 4677SOL    HW225665   0.990   0.021  11.842  2.4297 -0.1599  1.8181
 4678SOL     OW25666   0.033   2.567   8.776 -0.3968  0.1758  0.2760
 4678SOL    HW125667   0.006   2.476   8.762  0.1416 -0.0399  0.6709
 4678SOL    HW225668   0.038   2.590   8.683 -0.3086  0.2884  0.3088
 4679SOL     OW25669   0.310   2.087  17.748 -0.0773  0.4095  0.5110
 4679SOL    HW125670   0.343   2.168  17.708  0.2049 -0.2485 -0.5916
 4679SOL    HW225671   0.364   2.017  17.710 -0.5188  0.7911 -0.8119
 4680SOL     OW25672   2.244   2.004  17.479  0.4742  0.6297  0.2776
 4680SOL    HW125673   2.238   2.070  17.547  1.8668  0.5203  0.5116
 4680SOL    HW225674   2.185   1.941  17.520  0.9233  2.4295  3.6200
 4681SOL     OW25675   0.279   2.712   6.213  0.1654 -0.5626  0.0172
 4681SOL    HW125676   0.341   2.685   6.146  0.4932  1.0189 -0.3051
 4681SOL    HW225677   0.319   2.701   6.300 -2.0803 -0.0692  1.1295
 4682SOL     OW25678   1.170   0.990   5.349  0.1994 -0.3976  0.1210
 4682SOL    HW125679   1.196   0.917   5.293 -1.0995 -0.6928 -0.1089
 4682SOL    HW225680   1.124   0.942   5.418 -1.6427 -1.2011 -1.6716
 4683SOL     OW25681   4.344   2.574  14.809  0.8637  0.0432  0.3804
 4683SOL    HW125682   4.423   2.603  14.855 -0.6911  1.6991  2.0084
 4683SOL    HW225683   4.357   2.611  14.722 -0.4072  0.4853  0.3687
 4684SOL     OW25684   1.181   1.366   4.095  0.2766  0.1376  0.2839
 4684SOL    HW125685   1.118   1.294   4.098 -0.6343  0.9290  0.0945
 4684SOL    HW225686   1.126   1.443   4.085  0.7089 -0.2729 -5.4728
 4685SOL     OW25687   3.685   0.174   5.702 -0.2962  0.4692  0.2454
 4685SOL    HW125688   3.626   0.176   5.778 -0.1538  0.2940  0.3602
 4685SOL    HW225689   3.667   0.083   5.678 -0.7022  0.1290  1.8488
 4686SOL     OW25690   3.956   3.001   9.002  0.1266 -0.2357  0.4884
 4686SOL    HW125691   3.923   2.911   9.010 -1.9576  0.4559 -0.2343
 4686SOL    HW225692   4.036   2.990   9.053 -0.2161 -0.4202  0.9891
 4687SOL     OW25693   1.431   0.639  15.273 -0.2260  1.1487 -0.1327
 4687SOL    HW125694   1.499   0.697  15.239 -0.3365  0.9566 -0.6806
 4687SOL    HW225695   1.411   0.666  15.363 -0.9023  2.1814 -0.6012
 4688SOL     OW25696   4.696   1.277   7.273  0.1675 -0.1874 -0.0038
 4688SOL    HW125697   0.043   1.293   7.314 -0.0598 -2.4677  1.3961
 4688SOL    HW225698   4.645   1.352   7.302 -1.1596 -1.1164  0.0683
 4689SOL     OW25699   4.563   3.291   1.772  0.4088 -0.1696 -0.5852
 4689SOL    HW125700   4.632   3.233   1.741 -0.4871 -0.0516 -2.8153
 4689SOL    HW225701   4.512   3.298   1.691  0.4524 -0.5797 -0.6499
 4690SOL     OW25702   1.497   1.955  16.535 -0.0936 -0.4887 -0.0708
 4690SOL    HW125703   1.524   1.985  16.622 -1.5275 -0.9228  0.5131
 4690SOL    HW225704   1.556   2.014  16.488  0.1928  0.9591  2.0835
 4691SOL     OW25705   2.118   1.648   5.192  0.0019 -0.0422  0.3542
 4691SOL    HW125706   2.135   1.742   5.192  0.7671 -0.1646 -2.2294
 4691SOL    HW225707   2.127   1.633   5.286  1.9617 -0.2036  0.1407
 4692SOL     OW25708   0.145   0.701   4.520  0.5564  0.4360 -0.1145
 4692SOL    HW125709   0.185   0.651   4.448 -1.3484 -1.8318  0.4210
 4692SOL    HW225710   0.066   0.739   4.482 -0.7726 -1.3677  0.8672
 4693SOL     OW25711   3.225   0.204   5.284 -0.7412  0.2526  0.3566
 4693SOL    HW125712   3.251   0.287   5.323  0.6342  0.6051 -1.2866
 4693SOL    HW225713   3.309   0.160   5.290 -0.8326 -0.2989 -2.2945
 4694SOL     OW25714   1.796   1.356   7.536 -0.3015 -0.2995  0.2715
 4694SOL    HW125715   1.886   1.327   7.550 -0.5528 -1.5729 -0.7869
 4694SOL    HW225716   1.754   1.323   7.616 -1.0849 -0.2772 -0.1283
 4695SOL     OW25717   0.775   4.034   4.638 -0.1890  0.3275 -0.1264
 4695SOL    HW125718   0.716   4.097   4.679 -0.7423  0.6320 -1.3853
 4695SOL    HW225719   0.849   4.093   4.625  0.3893 -0.1281  1.1990
 4696SOL     OW25720   2.083   1.363   7.557 -0.5251 -0.3559 -0.2795
 4696SOL    HW125721   2.091   1.274   7.521  0.7141 -0.2148 -0.3367
 4696SOL    HW225722   2.131   1.360   7.640  1.1521  0.2703 -1.2348
 4697SOL     OW25723   0.330   2.649   5.485 -0.0451 -0.3005  0.5064
 4697SOL    HW125724   0.287   2.628   5.402 -0.6788 -0.1377  0.7937
 4697SOL    HW225725   0.260   2.692   5.534  0.0190  2.0795 -1.4522
 4698SOL     OW25726   0.916   1.605  16.596 -0.6383  0.5847  0.0687
 4698SOL    HW125727   0.898   1.564  16.680  0.2964  0.4018  0.1783
 4698SOL    HW225728   1.009   1.586  16.589 -0.6592  0.5243 -0.0463
 4699SOL     OW25729   3.729   3.418  14.070 -0.8047 -0.0917 -0.6801
 4699SOL    HW125730   3.638   3.437  14.047 -1.2499 -2.8557 -1.2199
 4699SOL    HW225731   3.738   3.334  14.026  0.0400  1.6228 -3.7668
 4700SOL     OW25732   4.287   0.843   3.561  0.3695  0.4307  0.5199
 4700SOL    HW125733   4.295   0.750   3.545 -0.9376  0.2869  0.6624
 4700SOL    HW225734   4.379   0.868   3.566 -0.1280  2.0291  1.6916
 4701SOL     OW25735   1.957   0.252   8.528 -0.6675 -0.1406  0.0935
 4701SOL    HW125736   1.996   0.279   8.611 -1.3505  1.8633 -0.2390
 4701SOL    HW225737   1.949   0.158   8.541 -0.3683 -0.1419  0.2755
 4702SOL     OW25738   4.626   2.386   3.047  0.3295 -0.5170  0.3684
 4702SOL    HW125739   4.579   2.452   2.995  0.2685 -0.6112  0.3025
 4702SOL    HW225740   4.615   2.408   3.139  1.2602  1.2225  0.0633
 4703SOL     OW25741   3.124   1.551   4.779  0.4290  0.4695 -0.4906
 4703SOL    HW125742   3.154   1.462   4.760 -0.2291  0.3427 -0.9337
 4703SOL    HW225743   3.050   1.523   4.833 -0.1579 -1.4443 -2.3048
 4704SOL     OW25744   1.786   4.628  12.987 -0.3477 -0.3830 -0.3590
 4704SOL    HW125745   1.742   4.703  13.026  0.2532  0.2111 -0.8352
 4704SOL    HW225746   1.867   4.655  12.944  1.3776 -2.0321  1.8858
 4705SOL     OW25747   4.614   1.902   8.058 -0.1697  0.4865 -1.3280
 4705SOL    HW125748   4.570   1.961   7.996 -1.8442  1.5329  0.8311
 4705SOL    HW225749   4.687   1.958   8.085 -0.6944 -0.8990  3.0197
 4706SOL     OW25750   3.900   3.200   3.905  0.5679 -0.1809  0.2994
 4706SOL    HW125751   3.815   3.156   3.899  0.3247  0.4523 -0.8237
 4706SOL    HW225752   3.894   3.272   3.968 -0.4585  1.2540 -1.4324
 4707SOL     OW25753   3.097   1.991   3.542  0.0279 -0.1798  0.5321
 4707SOL    HW125754   3.087   1.940   3.623  0.9207 -1.0827  0.0803
 4707SOL    HW225755   3.159   2.056   3.574  0.3532 -0.7572  1.0778
 4708SOL     OW25756   0.609   1.454   7.809  0.2197 -0.0865 -0.5200
 4708SOL    HW125757   0.548   1.484   7.877  0.4589 -0.6169 -0.0717
 4708SOL    HW225758   0.654   1.538   7.798 -0.1692 -0.1497 -2.5476
 4709SOL     OW25759   2.960   3.495  13.429  0.2495  0.5926 -0.5740
 4709SOL    HW125760   2.908   3.504  13.509 -0.1627 -1.8363 -0.5998
 4709SOL    HW225761   2.998   3.408  13.420  1.0155  0.9090 -0.4264
 4710SOL     OW25762   1.392   3.721   9.625  0.4669  0.0092  0.0433
 4710SOL    HW125763   1.375   3.792   9.687 -1.7650 -0.3018 -0.2018
 4710SOL    HW225764   1.333   3.654   9.659 -1.5815  0.6062 -2.3195
 4711SOL     OW25765   1.322   3.425   3.155  0.2591  0.6444  0.4205
 4711SOL    HW125766   1.371   3.506   3.145  5.1041 -2.3775 -0.1236
 4711SOL    HW225767   1.309   3.434   3.249  0.0910  2.0736  0.2588
 4712SOL     OW25768   1.837   2.594   2.739 -0.0963  0.6355  0.0398
 4712SOL    HW125769   1.774   2.662   2.761 -1.6419 -0.8788  0.2558
 4712SOL    HW225770   1.784   2.515   2.745  1.1936 -0.2877 -0.5212
 4713SOL     OW25771   3.925   0.291   5.717 -0.6706  0.5885 -0.0769
 4713SOL    HW125772   3.842   0.243   5.712 -1.6376  2.2288  0.3296
 4713SOL    HW225773   3.952   0.298   5.625  0.5397  2.3418  0.4198
 4714SOL     OW25774   4.637   3.915   2.282  0.1867 -0.5221 -0.0926
 4714SOL    HW125775   4.588   3.889   2.360  0.5197 -1.4000 -0.1694
 4714SOL    HW225776   4.612   3.850   2.216  1.2405 -0.7765 -0.2469
 4715SOL     OW25777   0.662   3.785   6.967 -0.4913  0.3559  0.1861
 4715SOL    HW125778   0.577   3.771   6.927 -1.7806 -1.1542  3.5034
 4715SOL    HW225779   0.721   3.772   6.892 -0.4771  0.5205  0.1685
 4716SOL     OW25780   2.899   4.140   5.090 -0.2076 -0.5120 -0.0526
 4716SOL    HW125781   2.881   4.054   5.127 -1.2567  0.4624  1.7094
 4716SOL    HW225782   2.880   4.132   4.996  1.7365  0.1075 -0.4991
 4717SOL     OW25783   0.071   2.537   1.257 -0.1384  0.3069  0.3862
 4717SOL    HW125784   0.089   2.551   1.164 -0.0966  0.2278  0.3819
 4717SOL    HW225785   0.163   2.540   1.282 -1.0464  2.0384  3.4783
 4718SOL     OW25786   3.537   1.971  13.178 -0.4629  0.7264 -0.3199
 4718SOL    HW125787   3.554   2.036  13.110 -2.1601  1.3984 -0.0966
 4718SOL    HW225788   3.622   1.966  13.221 -1.0741  0.7855  0.8950
 4719SOL     OW25789   1.159   4.127   9.559  0.7290 -0.1999  0.4634
 4719SOL    HW125790   1.228   4.178   9.517 -1.2731  0.2254 -2.3181
 4719SOL    HW225791   1.208   4.088   9.631  0.5647 -0.7142  0.2955
 4720SOL     OW25792   1.429   4.435   7.508 -0.2747  0.1700 -0.0742
 4720SOL    HW125793   1.346   4.469   7.474 -0.2130  0.0515 -0.3414
 4720SOL    HW225794   1.498   4.474   7.455  0.1471 -1.7982 -0.9680
 4721SOL     OW25795   0.099   1.460   1.520  0.9037 -0.2790 -0.0757
 4721SOL    HW125796   0.152   1.383   1.500  0.9914 -0.3869  0.5750
 4721SOL    HW225797   0.013   1.423   1.502  0.3622 -0.0930  2.1930
 4722SOL     OW25798   2.134   3.552   0.402  0.5610  0.1874 -0.0943
 4722SOL    HW125799   2.185   3.555   0.321 -0.1228  1.1117 -0.5013
 4722SOL    HW225800   2.195   3.513   0.465 -1.1374 -0.3331  1.2099
 4723SOL     OW25801   2.162   4.579   2.062  0.3305  0.4198  0.2422
 4723SOL    HW125802   2.070   4.585   2.086  0.5098  1.2418  0.7489
 4723SOL    HW225803   2.165   4.626   1.978  1.9872 -1.1929 -0.6117
 4724SOL     OW25804   3.805   3.409   5.996  0.0990 -0.5278 -0.4801
 4724SOL    HW125805   3.866   3.437   5.928  0.9157 -0.6428  0.2020
 4724SOL    HW225806   3.854   3.340   6.041 -2.2370 -2.2286 -0.5377
 4725SOL     OW25807   2.823   3.671   5.916 -0.1462 -0.1847  0.0957
 4725SOL    HW125808   2.747   3.616   5.898 -1.5406  1.7200  0.1870
 4725SOL    HW225809   2.892   3.607   5.895  0.8881  0.3704  1.7875
 4726SOL     OW25810   0.543   3.122   0.073  0.6167  0.7207  0.4083
 4726SOL    HW125811   0.459   3.162   0.050 -1.0693 -2.3325  1.2703
 4726SOL    HW225812   0.578   3.135  17.732  0.2421  0.7326  0.2643
 4727SOL     OW25813   3.663   4.191  11.309 -0.3924 -0.3447  0.3052
 4727SOL    HW125814   3.729   4.198  11.378 -0.6671 -0.7750  0.6143
 4727SOL    HW225815   3.627   4.107  11.338 -0.5554 -0.0996  0.8159
 4728SOL     OW25816   1.821   1.018   5.423 -0.1729  0.0405 -0.4537
 4728SOL    HW125817   1.908   0.988   5.447  0.2156  0.8106 -0.9265
 4728SOL    HW225818   1.794   0.931   5.394 -0.4914  1.0346 -3.2110
 4729SOL     OW25819   3.221   3.891   8.612  0.4551  0.0089  0.3120
 4729SOL    HW125820   3.153   3.933   8.665 -1.2780 -0.9511 -1.1420
 4729SOL    HW225821   3.231   3.806   8.654  3.1642  0.0870 -0.1998
 4730SOL     OW25822   3.877   1.883   6.732 -0.1387 -0.0636  0.0238
 4730SOL    HW125823   3.790   1.864   6.768 -0.0963  0.0071  0.1684
 4730SOL    HW225824   3.885   1.977   6.750  0.4445  0.1025 -1.1476
 4731SOL     OW25825   0.420   1.304   0.444 -0.2990 -0.5029 -0.3882
 4731SOL    HW125826   0.463   1.297   0.529  1.4979 -0.2585 -1.2834
 4731SOL    HW225827   0.489   1.270   0.387  1.6033  1.6463  0.6505
 4732SOL     OW25828   0.529   0.716  14.785 -0.0769 -0.2956  0.5398
 4732SOL    HW125829   0.502   0.808  14.784  0.5264 -0.0927  2.3262
 4732SOL    HW225830   0.590   0.714  14.859 -0.8340  1.1140  1.2134
 4733SOL     OW25831   4.247   1.168   6.261  0.1647 -0.0261 -0.4069
 4733SOL    HW125832   4.170   1.136   6.307  0.9566 -1.0217  0.2349
 4733SOL    HW225833   4.279   1.089   6.217  1.0577 -0.2600  0.6704
 4734SOL     OW25834   0.456   1.622   2.766  0.2616  0.0709  0.3918
 4734SOL    HW125835   0.522   1.686   2.793 -1.0748  1.8118 -0.4883
 4734SOL    HW225836   0.503   1.547   2.729 -2.0449 -1.2455  0.1337
 4735SOL     OW25837   3.073   4.049   4.368  0.7906  0.0873 -0.4654
 4735SOL    HW125838   3.151   4.046   4.423 -0.4091 -0.0620  1.2291
 4735SOL    HW225839   3.118   4.035   4.285 -0.7834  0.2227 -1.3344
 4736SOL     OW25840   0.099   2.096   4.713  0.7990 -0.2329  0.5644
 4736SOL    HW125841   0.102   2.064   4.803 -0.7085 -0.8074  0.4090
 4736SOL    HW225842   0.033   2.036   4.680 -0.8080  1.3384  0.9124
 4737SOL     OW25843   4.077   2.791   4.087 -0.0868  0.2141 -0.3603
 4737SOL    HW125844   4.133   2.821   4.016 -0.8891 -1.5550 -1.7632
 4737SOL    HW225845   3.988   2.803   4.053 -0.5103 -0.0705  0.6482
 4738SOL     OW25846   3.504   1.300  13.963  0.7115 -0.0695 -0.7533
 4738SOL    HW125847   3.534   1.370  14.022  0.9318 -1.3865  0.6973
 4738SOL    HW225848   3.410   1.318  13.965  0.4677 -1.1396 -2.3584
 4739SOL     OW25849   0.188   4.735  16.575  0.3069 -0.2792  0.6225
 4739SOL    HW125850   0.151   0.032  16.494  0.1577 -0.6306  0.5417
 4739SOL    HW225851   0.212   4.644  16.553 -0.5858 -0.3358 -0.1289
 4740SOL     OW25852   3.421   4.459   2.890  0.5765  0.3702 -0.0274
 4740SOL    HW125853   3.437   4.377   2.843  0.3311  0.6966 -0.6818
 4740SOL    HW225854   3.472   4.520   2.837 -0.5118  0.3451 -1.1078
 4741SOL     OW25855   2.819   2.813   0.135 -1.0582 -0.6154 -0.2765
 4741SOL    HW125856   2.811   2.871   0.059 -0.0983 -0.4238 -0.2334
 4741SOL    HW225857   2.914   2.807   0.150 -1.0929 -1.9309 -0.5530
 4742SOL     OW25858   4.606   1.214   6.127  0.4011  0.3918  0.0359
 4742SOL    HW125859   4.699   1.211   6.105  0.4938 -0.0217  0.4775
 4742SOL    HW225860   4.617   1.195   6.221 -0.6128 -1.2614 -0.1859
 4743SOL     OW25861   4.119   0.616  14.761 -0.3375  0.9445 -0.4153
 4743SOL    HW125862   4.045   0.615  14.822  0.2858 -0.0257  0.3175
 4743SOL    HW225863   4.072   0.633  14.680 -0.5850  0.0494 -0.4543
 4744SOL     OW25864   3.743   0.037   8.828  0.2637 -0.2749  0.2422
 4744SOL    HW125865   3.723   4.681   8.821 -1.9623  0.3316 -1.5489
 4744SOL    HW225866   3.674   0.075   8.774  0.5205 -0.7337 -0.4133
 4745SOL     OW25867   3.798   3.319  15.163 -0.1988 -0.1474 -0.4052
 4745SOL    HW125868   3.787   3.284  15.074 -1.1664  0.2532 -0.4449
 4745SOL    HW225869   3.871   3.381  15.162  0.5787 -1.0645 -2.3090
 4746SOL     OW25870   1.194   4.640   5.843  0.4509 -0.3440  0.5362
 4746SOL    HW125871   1.124   4.632   5.908  1.4582 -1.9173  1.4198
 4746SOL    HW225872   1.275   4.661   5.889 -0.9463 -0.3499  3.0141
 4747SOL     OW25873   0.016   1.599   2.489  0.0063  0.1662 -0.2194
 4747SOL    HW125874   4.674   1.637   2.452  0.1805  0.3331 -0.4244
 4747SOL    HW225875   4.730   1.588   2.581  0.8527 -0.1327 -0.0367
 4748SOL     OW25876   1.712   3.603   7.858  0.3299  0.2675  0.0274
 4748SOL    HW125877   1.792   3.567   7.897  0.4103  1.2126  0.7237
 4748SOL    HW225878   1.640   3.586   7.919  0.1255  0.9803 -0.0117
 4749SOL     OW25879   0.129   3.597   5.950 -0.4829  0.3281 -0.2873
 4749SOL    HW125880   0.212   3.563   5.918 -0.0603 -1.3238  2.5537
 4749SOL    HW225881   0.169   3.659   6.011  1.0858  0.5535 -1.5459
 4750SOL     OW25882   2.368   2.437   3.291 -0.0224 -0.1245 -0.0801
 4750SOL    HW125883   2.341   2.517   3.335 -0.6208  0.1824 -0.9983
 4750SOL    HW225884   2.340   2.470   3.205 -2.1626 -2.0871 -0.1432
 4751SOL     OW25885   4.599   3.144   0.890  0.2080 -0.0741 -0.2006
 4751SOL    HW125886   4.586   3.109   0.978 -2.6145 -1.1947 -1.0820
 4751SOL    HW225887   4.671   3.203   0.912 -2.1081  2.4062  0.5673
 4752SOL     OW25888   0.727   2.914   8.155 -0.1671 -0.8469 -0.0067
 4752SOL    HW125889   0.742   2.856   8.230 -1.0930  0.6377  1.3219
 4752SOL    HW225890   0.675   2.974   8.208 -1.5227 -0.5420 -1.6863
 4753SOL     OW25891   3.759   1.921  10.165  0.1372 -0.5491 -0.2509
 4753SOL    HW125892   3.751   1.828  10.190  1.9962  0.0311  2.4393
 4753SOL    HW225893   3.671   1.952  10.187  0.7060  0.0967  1.1172
 4754SOL     OW25894   2.315   1.760  17.367  0.1324  0.1640  0.3205
 4754SOL    HW125895   2.376   1.726  17.433 -1.2416  0.0484  1.5206
 4754SOL    HW225896   2.305   1.850  17.399  1.6376 -0.0189  1.3027
 4755SOL     OW25897   0.760   0.621   6.080 -0.5749  0.4252  0.2212
 4755SOL    HW125898   0.794   0.539   6.043 -2.0291 -0.4078  0.7234
 4755SOL    HW225899   0.717   0.660   6.003  0.6998  1.8170  0.2190
 4756SOL     OW25900   2.088   2.321   8.942  0.6904 -0.3012 -0.2479
 4756SOL    HW125901   2.102   2.414   8.928 -1.4756 -0.2145 -1.8210
 4756SOL    HW225902   2.102   2.297   8.850  2.6986 -1.6609  0.4217
 4757SOL     OW25903   2.855   0.484   0.903  0.2626 -0.6442 -0.0676
 4757SOL    HW125904   2.918   0.522   0.964  1.4255 -1.9366 -0.4608
 4757SOL    HW225905   2.799   0.560   0.886  0.8849 -0.6323 -2.0481
 4758SOL     OW25906   1.787   3.395   8.556  0.2133 -0.0108  0.0985
 4758SOL    HW125907   1.879   3.382   8.533 -0.2017  0.5558 -1.8601
 4758SOL    HW225908   1.785   3.371   8.649 -0.5815  0.0314  0.0870
 4759SOL     OW25909   4.288   1.833   3.927  0.4593 -0.4717 -0.2916
 4759SOL    HW125910   4.268   1.917   3.885 -0.6819  0.5276  2.2331
 4759SOL    HW225911   4.250   1.779   3.857  1.1785  1.7255 -2.3753
 4760SOL     OW25912   1.288   2.326   5.659  0.0821 -0.3587 -0.2147
 4760SOL    HW125913   1.272   2.366   5.744 -2.0632  0.8547 -1.1916
 4760SOL    HW225914   1.208   2.342   5.610  0.2837 -1.1047 -0.7936
 4761SOL     OW25915   1.580   4.571   7.970 -0.3018  0.3793 -0.3678
 4761SOL    HW125916   1.574   4.538   7.880 -1.6364  1.8893 -0.8339
 4761SOL    HW225917   1.669   4.540   7.989 -1.3092 -1.8521  0.7286
 4762SOL     OW25918   1.009   0.299   8.916 -0.3688  0.7330 -0.1291
 4762SOL    HW125919   0.954   0.233   8.872 -0.3557  1.7019 -1.5834
 4762SOL    HW225920   0.939   0.345   8.963 -0.5545 -0.3417  0.6294
 4763SOL     OW25921   1.520   4.050   5.084  0.4666 -0.2525 -0.1755
 4763SOL    HW125922   1.529   4.035   5.178 -0.6481  0.4308  0.0457
 4763SOL    HW225923   1.592   4.111   5.072 -1.1163  1.0817 -2.8435
 4764SOL     OW25924   2.311   0.867   6.321  0.6054 -0.2633  0.1468
 4764SOL    HW125925   2.222   0.841   6.298  0.2334  0.0465  1.2675
 4764SOL    HW225926   2.337   0.807   6.391 -2.0147 -1.4464  0.0914
 4765SOL     OW25927   1.926   0.649   7.867 -0.2750 -0.0732 -0.3502
 4765SOL    HW125928   1.859   0.617   7.806 -0.6640  0.5769 -0.2629
 4765SOL    HW225929   2.006   0.602   7.842 -0.5012 -1.0274  0.7458
 4766SOL     OW25930   3.549   1.287  16.896 -0.1480  0.1865 -0.1855
 4766SOL    HW125931   3.502   1.347  16.954 -1.4654  0.4538 -1.5206
 4766SOL    HW225932   3.549   1.204  16.944  0.1998 -0.3148 -1.0607
 4767SOL     OW25933   3.408   3.926   3.546 -0.5085  0.0522 -0.2121
 4767SOL    HW125934   3.324   3.896   3.582 -0.8401  0.0236 -1.0099
 4767SOL    HW225935   3.385   4.013   3.514 -1.3899 -0.2184 -0.3075
 4768SOL     OW25936   0.861   0.051   5.100  0.0301 -0.3940  0.4530
 4768SOL    HW125937   0.937   0.025   5.153  0.4549 -0.8622 -0.3871
 4768SOL    HW225938   0.800   0.094   5.160 -1.2763 -0.3099 -0.9357
 4769SOL     OW25939   4.294   3.366   9.263 -0.2315 -0.0610 -0.5668
 4769SOL    HW125940   4.295   3.364   9.358  0.4757  3.9121 -0.5182
 4769SOL    HW225941   4.338   3.444   9.231  1.6255 -1.0471 -0.4216
 4770SOL     OW25942   0.895   1.188  14.730  0.2956 -0.1677 -0.6294
 4770SOL    HW125943   0.853   1.117  14.682 -0.7333  1.9184 -2.8457
 4770SOL    HW225944   0.890   1.260  14.667  1.2550  0.0062 -0.5094
 4771SOL     OW25945   0.658   0.638   3.877 -0.2517 -0.1856  0.4004
 4771SOL    HW125946   0.614   0.615   3.795  1.1085 -1.5531  0.0654
 4771SOL    HW225947   0.726   0.571   3.884  1.9831  1.7975 -2.5039
 4772SOL     OW25948   0.323   0.398   8.840 -0.4060 -0.2987  0.4655
 4772SOL    HW125949   0.324   0.478   8.893  0.6315 -0.6804  0.9947
 4772SOL    HW225950   0.239   0.417   8.797 -0.7690  0.1457  1.3710
 4773SOL     OW25951   3.291   1.641  16.376  0.4408  0.3342  0.6297
 4773SOL    HW125952   3.357   1.613  16.313 -0.4194  1.7334 -0.8789
 4773SOL    HW225953   3.228   1.573  16.352  1.4164 -0.1986 -0.3897
 4774SOL     OW25954   4.121   4.040  14.192 -0.0243  0.4104  0.4537
 4774SOL    HW125955   4.191   4.057  14.130  0.1284  0.8702  0.7478
 4774SOL    HW225956   4.095   4.124  14.230  0.2667  0.9838 -0.6284
 4775SOL     OW25957   3.297   0.652  17.483  0.2050  0.2809 -0.0782
 4775SOL    HW125958   3.274   0.674  17.573 -2.5326 -0.1048 -0.6989
 4775SOL    HW225959   3.214   0.620  17.448 -0.0447  0.7640  0.0782
 4776SOL     OW25960   0.534   1.715   2.360 -0.1346  0.0557  0.2441
 4776SOL    HW125961   0.456   1.685   2.406  0.0563  1.4854  1.5005
 4776SOL    HW225962   0.485   1.760   2.291 -1.5027 -1.0786  0.4939
 4777SOL     OW25963   0.337   1.591  10.284 -0.1309  0.3191 -0.3534
 4777SOL    HW125964   0.302   1.521  10.229  1.2236 -0.3093 -0.4222
 4777SOL    HW225965   0.352   1.651  10.211  0.9292  0.0433 -0.3564
 4778SOL     OW25966   1.259   3.661  15.523  0.2635 -0.1303  0.3743
 4778SOL    HW125967   1.308   3.664  15.441 -0.4616  0.1978 -0.0461
 4778SOL    HW225968   1.170   3.634  15.501  0.0994 -1.4181  2.5649
 4779SOL     OW25969   2.167   0.472   6.369 -0.7086 -0.5676  0.0329
 4779SOL    HW125970   2.089   0.457   6.314  0.0007  0.7091 -1.3148
 4779SOL    HW225971   2.226   0.408   6.330 -0.2339  0.6004 -1.1938
 4780SOL     OW25972   0.116   4.257   4.391  0.5948  0.2623  1.0521
 4780SOL    HW125973   0.067   4.195   4.445  2.4584 -1.9617  0.2140
 4780SOL    HW225974   0.192   4.211   4.356  1.7007  2.2775  0.7998
 4781SOL     OW25975   1.965   4.466   3.645  0.4942  0.2205 -0.2537
 4781SOL    HW125976   2.040   4.475   3.586  1.8887  0.2845  1.5282
 4781SOL    HW225977   2.005   4.491   3.728 -1.3268  0.1215  0.6661
 4782SOL     OW25978   0.328   0.755   5.854  0.3041  0.1186 -0.4887
 4782SOL    HW125979   0.319   0.850   5.846  0.6674  0.0888 -1.2326
 4782SOL    HW225980   0.253   0.737   5.797 -0.1107  0.7218 -0.1333
 4783SOL     OW25981   0.837   1.788  12.788  0.0113  0.2645 -0.5154
 4783SOL    HW125982   0.842   1.862  12.848 -1.8497  0.8550 -1.0879
 4783SOL    HW225983   0.893   1.721  12.827 -0.7647 -1.7512 -2.8001
 4784SOL     OW25984   0.517   3.420   8.754  0.3080  0.5040  0.1546
 4784SOL    HW125985   0.454   3.443   8.685  1.2505  0.6565 -0.6541
 4784SOL    HW225986   0.486   3.330   8.768  0.3617  0.1238 -2.2439
 4785SOL     OW25987   1.448   0.148   9.812 -0.1244  0.4882 -0.3304
 4785SOL    HW125988   1.381   0.198   9.859  0.5488  1.9348 -0.9077
 4785SOL    HW225989   1.393   0.116   9.741  0.7810 -1.7296 -0.0315
 4786SOL     OW25990   2.688   1.067   4.632 -0.1021 -0.8094  0.5126
 4786SOL    HW125991   2.709   0.990   4.579  0.3806 -0.0499 -0.4171
 4786SOL    HW225992   2.600   1.053   4.666 -1.1850 -3.3930 -3.2912
 4787SOL     OW25993   3.127   0.558   6.227 -0.2695 -0.6821 -0.2605
 4787SOL    HW125994   3.090   0.476   6.195 -0.0441 -1.6183  1.9217
 4787SOL    HW225995   3.150   0.608   6.148 -1.2413 -1.0353 -0.7746
 4788SOL     OW25996   1.631   2.797   7.656 -0.1350 -0.1934 -0.2305
 4788SOL    HW125997   1.708   2.767   7.607  1.5062  2.2852  0.8601
 4788SOL    HW225998   1.570   2.823   7.587 -2.3126 -3.1356  0.5832
 4789SOL     OW25999   2.648   1.095   5.098  0.1569 -0.1847 -0.3132
 4789SOL    HW126000   2.570   1.109   5.152 -0.8220  1.0190 -2.0529
 4789SOL    HW226001   2.714   1.127   5.160  1.4586 -1.4695 -1.0379
 4790SOL     OW26002   0.182   1.956   6.012  0.3885  0.3599 -0.3611
 4790SOL    HW126003   0.193   1.896   6.086 -0.3516  1.6250  0.7692
 4790SOL    HW226004   0.087   1.955   6.013  0.3897  0.5668  0.7658
 4791SOL     OW26005   3.769   0.543   2.449 -0.0531  0.8427  0.0331
 4791SOL    HW126006   3.710   0.494   2.506  2.3685 -0.5089  1.3586
 4791SOL    HW226007   3.845   0.487   2.461  1.6352  3.2573  0.7725
 4792SOL     OW26008   2.450   0.841   1.097 -0.1432 -0.4059  0.0227
 4792SOL    HW126009   2.359   0.869   1.097  0.5052  1.7033 -0.2675
 4792SOL    HW226010   2.464   0.801   1.011 -0.6401  0.1569 -0.3200
 4793SOL     OW26011   1.555   1.278  11.484 -0.6188  0.6930  0.2324
 4793SOL    HW126012   1.582   1.347  11.423 -2.1890  1.9214  0.9282
 4793SOL    HW226013   1.639   1.265  11.528 -1.8079  0.4352  2.4610
 4794SOL     OW26014   0.730   3.765   9.814 -0.0863 -0.1413 -0.5430
 4794SOL    HW126015   0.708   3.717   9.735 -0.3821 -0.8394 -0.0325
 4794SOL    HW226016   0.646   3.803   9.841 -0.4855 -1.4104  0.0167
 4795SOL     OW26017   1.699   1.663  16.640  1.3017 -0.0593  0.4188
 4795SOL    HW126018   1.706   1.727  16.570  0.6477  1.9247  2.1753
 4795SOL    HW226019   1.675   1.714  16.717  0.3592 -1.5650  1.1215
 4796SOL     OW26020   1.827   0.369   3.046 -0.1699  0.1636  0.6818
 4796SOL    HW126021   1.757   0.315   3.009 -0.5140  0.6644  0.5994
 4796SOL    HW226022   1.871   0.410   2.971 -0.8337  0.4104  0.4266
 4797SOL     OW26023   3.671   3.044   6.657  0.0649  0.1616 -0.5992
 4797SOL    HW126024   3.731   2.987   6.610  0.8492  0.5268 -0.0522
 4797SOL    HW226025   3.598   2.984   6.670 -0.2036  0.8635  1.2480
 4798SOL     OW26026   3.601   4.141  10.681  0.0220 -0.0211 -0.2677
 4798SOL    HW126027   3.672   4.079  10.690  1.0819  1.1242 -0.7109
 4798SOL    HW226028   3.596   4.151  10.586 -1.4256  0.3356 -0.1572
 4799SOL     OW26029   3.336   3.492   8.212 -0.1412 -0.0767 -0.2836
 4799SOL    HW126030   3.320   3.565   8.152  0.9844  1.3046  1.0621
 4799SOL    HW226031   3.277   3.507   8.287  1.3521  0.8700  0.7192
 4800SOL     OW26032   3.325   1.019   8.171 -0.3283 -0.5387 -0.0506
 4800SOL    HW126033   3.309   1.061   8.256  1.3690  0.5028 -0.2379
 4800SOL    HW226034   3.378   0.950   8.210  0.5986 -0.0297 -0.4120
 4801SOL     OW26035   2.214   2.368   5.120 -0.2875 -0.1900 -0.3780
 4801SOL    HW126036   2.276   2.439   5.106 -0.4294 -0.1236 -0.6773
 4801SOL    HW226037   2.183   2.342   5.033 -2.1934  1.4287 -0.1671
 4802SOL     OW26038   4.636   4.188  12.910 -0.1811  0.6461 -0.1271
 4802SOL    HW126039   4.577   4.263  12.915  0.6301  1.3162 -0.6572
 4802SOL    HW226040   4.637   4.167  13.003  1.1496 -0.4201 -0.3840
 4803SOL     OW26041   2.731   3.749   3.997  0.0447  0.5516 -0.0183
 4803SOL    HW126042   2.657   3.805   3.974 -0.2985  0.9032  1.9320
 4803SOL    HW226043   2.724   3.756   4.093 -1.2172 -1.3643  0.0447
 4804SOL     OW26044   2.395   2.440   2.618 -0.1726  0.4572  0.0622
 4804SOL    HW126045   2.315   2.392   2.594  0.1007 -0.0742  0.2217
 4804SOL    HW226046   2.424   2.400   2.699 -1.4820  0.6984  0.6464
 4805SOL     OW26047   2.567   4.287   2.011  0.6764 -0.6018  0.1228
 4805SOL    HW126048   2.598   4.235   2.084 -0.7037  1.9574  2.5249
 4805SOL    HW226049   2.475   4.288   2.035  0.7215  2.3506  0.2674
 4806SOL     OW26050   2.629   4.396   6.250 -0.6896  0.0089 -0.0291
 4806SOL    HW126051   2.554   4.339   6.234 -0.5606 -0.4593  1.0736
 4806SOL    HW226052   2.653   4.382   6.342 -0.2728 -0.7408 -0.2490
 4807SOL     OW26053   2.072   2.919   6.813 -0.2217  0.0751  0.4111
 4807SOL    HW126054   2.126   2.985   6.771 -0.5436  0.7146  1.0084
 4807SOL    HW226055   2.131   2.847   6.791 -1.3650 -0.2803 -1.4738
 4808SOL     OW26056   1.713   4.706   6.630 -0.1733 -0.5992 -0.0509
 4808SOL    HW126057   1.676   4.713   6.543 -0.2763  0.5649  0.0877
 4808SOL    HW226058   1.761   4.623   6.630 -1.7714 -1.5112 -0.4470
 4809SOL     OW26059   3.968   4.397   5.438 -0.1937  0.4159  0.1948
 4809SOL    HW126060   4.024   4.414   5.362 -0.2535  1.6391  0.4405
 4809SOL    HW226061   3.992   4.311   5.473 -0.8110  0.3840  0.5346
 4810SOL     OW26062   4.232   3.378   5.770  0.3600  0.1820 -0.3452
 4810SOL    HW126063   4.283   3.459   5.758  0.7416  0.2913  2.0282
 4810SOL    HW226064   4.144   3.415   5.771 -0.4129 -1.7464  2.0523
 4811SOL     OW26065   1.012   3.517   1.386 -0.1554 -0.6790  0.6541
 4811SOL    HW126066   0.989   3.533   1.294 -1.2524  1.3130  1.2698
 4811SOL    HW226067   1.041   3.426   1.397  1.3829 -0.3943 -1.0922
 4812SOL     OW26068   4.232   3.238  12.339  0.2501  0.5675  0.1727
 4812SOL    HW126069   4.255   3.174  12.407  0.8724 -0.0674 -0.6305
 4812SOL    HW226070   4.315   3.283  12.328  1.1910 -0.7702  1.7633
 4813SOL     OW26071   4.445   0.388   6.166  0.7220 -0.1183  0.7422
 4813SOL    HW126072   4.421   0.298   6.185 -0.5952  0.1908  0.5008
 4813SOL    HW226073   4.380   0.430   6.221  0.4485  1.8753 -1.0762
 4814SOL     OW26074   3.218   2.511   5.103 -0.2608  0.2245  0.0429
 4814SOL    HW126075   3.282   2.523   5.173 -0.6665 -0.4496  0.5389
 4814SOL    HW226076   3.199   2.418   5.116  1.0695 -0.1590 -0.8444
 4815SOL     OW26077   2.810   1.191   3.580 -0.0714  0.4291  0.0249
 4815SOL    HW126078   2.807   1.275   3.535 -0.6075 -0.6948 -2.0264
 4815SOL    HW226079   2.767   1.217   3.662  0.2468  0.0324  0.3200
 4816SOL     OW26080   0.298   3.253  15.709  0.1725 -0.1126 -0.2101
 4816SOL    HW126081   0.258   3.250  15.796 -0.5645 -0.2564 -0.5539
 4816SOL    HW226082   0.381   3.298  15.728  0.2916 -0.8235  0.9498
 4817SOL     OW26083   1.979   1.860  16.740 -0.6575  0.3991  0.4874
 4817SOL    HW126084   1.884   1.858  16.731 -0.6773 -0.1718  0.8287
 4817SOL    HW226085   2.005   1.772  16.715 -0.2149  0.6873 -0.0839
 4818SOL     OW26086   1.819   0.903   0.900  0.2430  0.5095 -0.3915
 4818SOL    HW126087   1.774   0.851   0.834  1.2440 -1.5852  0.5777
 4818SOL    HW226088   1.870   0.966   0.849  1.0188  0.0695 -0.1592
 4819SOL     OW26089   0.069   2.778   3.689 -0.3087  0.0873  0.1956
 4819SOL    HW126090   4.723   2.806   3.727 -0.7690  0.1198 -0.8385
 4819SOL    HW226091   0.064   2.690   3.727 -1.6394  0.0148 -0.1413
 4820SOL     OW26092   3.730   3.781  16.304  0.0965 -0.3365  0.0997
 4820SOL    HW126093   3.778   3.699  16.305 -2.4028 -1.7656  1.3429
 4820SOL    HW226094   3.803   3.843  16.315  1.6265 -1.8485 -1.5811
 4821SOL     OW26095   4.591   2.570   1.446  0.6688 -0.5053 -0.2909
 4821SOL    HW126096   4.591   2.657   1.408  1.6366 -1.2664 -2.0580
 4821SOL    HW226097   4.682   2.542   1.455  1.2249  1.4408  0.0701
 4822SOL     OW26098   3.148   3.810   6.862  0.2054 -0.2377  0.0668
 4822SOL    HW126099   3.096   3.739   6.899  1.4970 -1.3785 -0.3291
 4822SOL    HW226100   3.174   3.850   6.944  0.8038 -0.2314 -0.1313
 4823SOL     OW26101   4.282   2.603   8.562 -0.0982 -0.0220 -0.4078
 4823SOL    HW126102   4.264   2.591   8.655  2.2883  0.3450  0.1129
 4823SOL    HW226103   4.253   2.521   8.524  0.7604  0.9392 -3.1388
 4824SOL     OW26104   2.796   2.658  11.793 -0.0437  0.6026  0.0186
 4824SOL    HW126105   2.770   2.619  11.710  0.8447 -0.3744  0.2047
 4824SOL    HW226106   2.753   2.590  11.845 -1.0534  0.9893 -0.3008
 4825SOL     OW26107   4.114   1.122  16.554  0.4839 -0.3813  0.0681
 4825SOL    HW126108   4.102   1.210  16.588 -3.0830  0.7397 -3.9700
 4825SOL    HW226109   4.205   1.125  16.527  0.6137 -1.4936  0.4051
 4826SOL     OW26110   2.439   2.516   6.650 -0.7503  0.4966  0.5197
 4826SOL    HW126111   2.488   2.567   6.714 -2.3626  1.0905  1.2786
 4826SOL    HW226112   2.467   2.566   6.573  0.8034 -1.3665 -0.1296
 4827SOL     OW26113   3.710   1.046   6.053  0.2835 -0.5147 -0.5141
 4827SOL    HW126114   3.767   1.097   6.110  0.2758  0.1645 -1.0980
 4827SOL    HW226115   3.634   1.054   6.110  1.6334 -0.2743  1.2283
 4828SOL     OW26116   0.497   2.247   6.651  0.3416 -0.0727 -0.1549
 4828SOL    HW126117   0.417   2.233   6.702  1.1294  1.5200  1.5105
 4828SOL    HW226118   0.564   2.270   6.715  1.3402  1.6510 -1.8066
 4829SOL     OW26119   0.948   1.548   8.112 -0.0642 -0.3219  0.3327
 4829SOL    HW126120   0.984   1.622   8.063 -1.7402  1.0958  1.2465
 4829SOL    HW226121   0.861   1.574   8.144  0.1238 -0.1480  0.7020
 4830SOL     OW26122   4.244   0.583  10.310  0.1532 -0.2392  0.3277
 4830SOL    HW126123   4.179   0.543  10.368 -0.7454 -0.2427 -0.6799
 4830SOL    HW226124   4.277   0.505  10.264 -1.0328  0.3820 -1.5666
 4831SOL     OW26125   2.525   3.204   5.183 -0.0527 -0.2097  0.5766
 4831SOL    HW126126   2.482   3.158   5.111  0.1392 -1.6991  1.4099
 4831SOL    HW226127   2.607   3.237   5.146  1.1152 -2.4414  1.1437
 4832SOL     OW26128   3.191   4.156   8.698 -0.2330 -0.3261 -0.0647
 4832SOL    HW126129   3.281   4.124   8.688 -0.9319 -1.6466 -2.0667
 4832SOL    HW226130   3.159   4.094   8.763  1.9003 -0.6674  0.6647
 4833SOL     OW26131   0.176   4.557  14.223  0.2266  0.3312  0.0096
 4833SOL    HW126132   0.133   4.511  14.295 -1.6174  2.0527  0.0222
 4833SOL    HW226133   0.261   4.577  14.261  0.5372 -1.4170  0.2240
 4834SOL     OW26134   4.682   2.098   9.234 -0.6994 -0.2511  0.3005
 4834SOL    HW126135   4.639   2.026   9.188 -1.4584  1.4798 -1.7119
 4834SOL    HW226136   0.033   2.064   9.251  0.5579  2.3629 -0.8711
 4835SOL     OW26137   0.269   1.800   0.711 -0.0314 -0.2370 -0.0611
 4835SOL    HW126138   0.179   1.834   0.713  0.5765  1.1919  3.2351
 4835SOL    HW226139   0.265   1.728   0.648 -1.4938 -0.8687  0.7467
 4836SOL     OW26140   2.017   1.043   3.666 -0.1292  0.2782  0.2011
 4836SOL    HW126141   1.985   1.002   3.746 -1.1617 -2.1061 -1.4202
 4836SOL    HW226142   1.938   1.038   3.612 -0.4186  0.3536  0.6180
 4837SOL     OW26143   2.665   1.922   8.750  0.3651 -0.1644  0.4199
 4837SOL    HW126144   2.608   1.998   8.750 -0.0027 -0.4310 -1.3621
 4837SOL    HW226145   2.623   1.868   8.817 -1.1929  2.5346  1.6102
 4838SOL     OW26146   2.888   4.578   6.447 -0.1639 -0.2129  0.7037
 4838SOL    HW126147   2.829   4.503   6.458  0.0776 -0.5180 -0.0393
 4838SOL    HW226148   2.833   4.656   6.449  1.0592  0.6764 -0.5652
 4839SOL     OW26149   1.580   4.653  11.487  0.1820  0.5704 -0.3234
 4839SOL    HW126150   1.531   4.687  11.413  0.5598  2.3803  0.2630
 4839SOL    HW226151   1.508   4.659  11.550  0.1842  0.2125 -0.2853
 4840SOL     OW26152   0.099   0.721   0.093  0.0573  0.0463  0.2514
 4840SOL    HW126153   0.039   0.647   0.101 -0.1805  0.3236  0.9869
 4840SOL    HW226154   0.108   0.735  17.746  1.5858 -0.1886  0.3546
 4841SOL     OW26155   3.284   4.308   7.783 -0.6954  0.2486 -0.5655
 4841SOL    HW126156   3.274   4.342   7.873  2.1119  1.6210 -0.7742
 4841SOL    HW226157   3.218   4.240   7.773  0.5665 -1.1894  0.9317
 4842SOL     OW26158   3.375   1.530   2.607 -0.1451  0.2621  0.5532
 4842SOL    HW126159   3.356   1.440   2.579 -0.8215  0.5359  0.1390
 4842SOL    HW226160   3.299   1.563   2.654 -0.3652 -0.1977  0.5205
 4843SOL     OW26161   3.999   2.902   7.764  0.0490  0.2278 -0.2907
 4843SOL    HW126162   3.938   2.830   7.746 -0.6016  0.7271 -0.0570
 4843SOL    HW226163   4.038   2.868   7.844  1.2243 -1.2967 -1.5022
 4844SOL     OW26164   2.577   4.724   3.023  0.0962  0.0942  0.4095
 4844SOL    HW126165   2.539   4.651   3.071 -0.6842  0.2297 -0.0087
 4844SOL    HW226166   2.501   0.044   3.016 -1.2886 -1.6902  0.8390
 4845SOL     OW26167   1.665   2.044  12.161  0.3511 -0.1675 -0.4711
 4845SOL    HW126168   1.571   2.058  12.165  0.4287  1.3011 -3.6688
 4845SOL    HW226169   1.675   1.974  12.097  2.5099 -0.8961  0.6383
 4846SOL     OW26170   2.525   2.533   5.254  0.5513 -0.5329  0.0725
 4846SOL    HW126171   2.433   2.516   5.273 -0.1743  2.9866 -0.1965
 4846SOL    HW226172   2.566   2.495   5.331  0.2748 -1.9173 -0.4608
 4847SOL     OW26173   1.928   0.249   5.289  0.5833 -0.1160  0.1044
 4847SOL    HW126174   1.974   0.176   5.247 -1.2391 -2.9335  2.9978
 4847SOL    HW226175   1.858   0.267   5.227  0.4140 -0.3839  0.2177
 4848SOL     OW26176   1.877   4.423  12.740  0.2257  0.7072 -0.5168
 4848SOL    HW126177   1.895   4.434  12.833  0.1701  1.4664 -0.6009
 4848SOL    HW226178   1.801   4.480  12.736  0.0507  0.7947  3.7011
 4849SOL     OW26179   1.075   0.839   8.538  0.0259 -0.0218 -0.0727
 4849SOL    HW126180   1.054   0.756   8.494  0.5030 -0.0290 -0.2959
 4849SOL    HW226181   1.105   0.808   8.624 -0.3236 -0.6535 -0.1774
 4850SOL     OW26182   0.781   0.038   6.911  0.1448  0.1726  0.3711
 4850SOL    HW126183   0.845   4.706   6.898  1.0922  1.2820 -0.9252
 4850SOL    HW226184   0.803   0.108   6.849  0.8940 -0.2214  0.1838
 4851SOL     OW26185   0.349   3.618  12.282  0.5836  0.4392 -0.3333
 4851SOL    HW126186   0.389   3.657  12.361  0.4730 -1.0305  0.4449
 4851SOL    HW226187   0.417   3.596  12.219  0.7181  0.1139 -0.0786
 4852SOL     OW26188   2.020   2.792  15.537 -0.3169 -0.3781 -0.1290
 4852SOL    HW126189   2.044   2.883  15.523  2.8747 -1.0818  0.7310
 4852SOL    HW226190   2.096   2.736  15.523 -0.2188  0.0609 -1.2971
 4853SOL     OW26191   1.069   1.436   4.892  0.3960 -0.2653 -0.3153
 4853SOL    HW126192   1.146   1.392   4.929 -0.8591  0.8010  3.5144
 4853SOL    HW226193   0.999   1.392   4.940 -0.1339  1.5110  0.5161
 4854SOL     OW26194   2.253   1.638   8.714  0.1381 -0.2287  0.4184
 4854SOL    HW126195   2.231   1.674   8.799  1.0844  0.1179  0.5249
 4854SOL    HW226196   2.194   1.563   8.705 -1.8206  1.4704 -0.9211
 4855SOL     OW26197   2.550   0.584   9.412  0.3907 -0.2343  0.3499
 4855SOL    HW126198   2.584   0.671   9.431 -0.0715  0.0937 -0.3549
 4855SOL    HW226199   2.568   0.588   9.318 -0.8651 -1.7380  0.0495
 4856SOL     OW26200   0.630   2.874   4.153  0.3283  0.0371 -0.6661
 4856SOL    HW126201   0.614   2.790   4.108  0.4205 -0.2724 -0.1246
 4856SOL    HW226202   0.684   2.926   4.094  0.3273  0.5952 -0.1721
 4857SOL     OW26203   4.036   1.380   4.527  0.3012 -0.5399  0.2775
 4857SOL    HW126204   4.017   1.404   4.618  1.5287  3.3206 -0.4829
 4857SOL    HW226205   4.129   1.364   4.507 -0.1950 -3.9635  0.6579
 4858SOL     OW26206   2.027   2.420   6.055 -0.5471 -0.1168  0.3163
 4858SOL    HW126207   1.957   2.429   5.990  0.6671  2.2455 -0.6684
 4858SOL    HW226208   1.993   2.457   6.136 -1.0536  0.3537 -0.1101
 4859SOL     OW26209   3.614   1.647   8.687  0.3122  0.2336  0.3150
 4859SOL    HW126210   3.688   1.681   8.637  1.5222 -1.9389  0.6005
 4859SOL    HW226211   3.664   1.608   8.759  0.4091  1.8332  1.1224
 4860SOL     OW26212   1.440   0.535   7.279  0.3828  0.3944  0.3729
 4860SOL    HW126213   1.435   0.619   7.324 -0.3689  0.4323  0.2151
 4860SOL    HW226214   1.347   0.513   7.284  0.1294  1.4244  0.2770
 4861SOL     OW26215   2.826   3.677   9.926 -0.0287 -0.1895 -0.3125
 4861SOL    HW126216   2.851   3.706  10.013  2.2525 -2.8106 -0.1112
 4861SOL    HW226217   2.732   3.694   9.923  0.8953  4.9265 -0.8337
 4862SOL     OW26218   4.216   1.680  17.029 -0.4100  0.2774  0.6697
 4862SOL    HW126219   4.276   1.682  16.954 -0.4110  1.7393  0.7098
 4862SOL    HW226220   4.130   1.701  16.994  0.7106  2.3768 -0.8068
 4863SOL     OW26221   2.420   1.101   6.128  0.3111 -0.1364 -0.2163
 4863SOL    HW126222   2.330   1.119   6.101 -0.1402 -2.2071 -0.0638
 4863SOL    HW226223   2.454   1.122   6.042 -0.6831 -3.2442 -1.3626
 4864SOL     OW26224   0.902   0.743   7.443 -0.4528 -0.1757 -0.1000
 4864SOL    HW126225   0.980   0.770   7.492 -0.4390  0.6197 -0.5592
 4864SOL    HW226226   0.944   0.751   7.358 -0.5530  1.7119  0.0207
 4865SOL     OW26227   0.687   3.547   6.193 -0.3534 -0.3567 -0.4883
 4865SOL    HW126228   0.621   3.479   6.206 -0.6658 -0.4417 -2.5900
 4865SOL    HW226229   0.749   3.506   6.134 -1.5599 -1.5998 -0.8931
 4866SOL     OW26230   3.172   4.486   1.693  0.0394 -0.0673 -0.3711
 4866SOL    HW126231   3.261   4.511   1.718  0.2524 -2.1413  1.0232
 4866SOL    HW226232   3.185   4.392   1.677  1.0693 -0.0022  0.1166
 4867SOL     OW26233   4.238   4.080  15.565  0.0893  0.0046  0.5229
 4867SOL    HW126234   4.221   4.105  15.656 -0.2116  0.0321  0.4587
 4867SOL    HW226235   4.202   4.154  15.515  1.2297  0.1657 -0.0617
 4868SOL     OW26236   2.846   2.699   6.044  0.2854 -0.5135  0.0321
 4868SOL    HW126237   2.865   2.756   5.969  0.4402  2.3842  2.2965
 4868SOL    HW226238   2.928   2.702   6.093 -1.1846 -2.7256  2.6152
 4869SOL     OW26239   3.471   0.179   9.849  0.3272  0.1257 -0.7307
 4869SOL    HW126240   3.548   0.142   9.892  0.5060  0.7002 -0.5426
 4869SOL    HW226241   3.430   0.105   9.806 -1.4988  1.8749 -2.0074
 4870SOL     OW26242   2.062   4.094  13.875  0.4871  0.8718 -0.0770
 4870SOL    HW126243   2.127   4.129  13.814 -0.4810  1.0979 -0.9791
 4870SOL    HW226244   2.020   4.178  13.896  0.5506  0.8285  0.2143
 4871SOL     OW26245   3.751   4.416   5.270  0.1114  0.1946 -0.0403
 4871SOL    HW126246   3.834   4.389   5.309 -0.4367 -0.4373  0.6638
 4871SOL    HW226247   3.676   4.390   5.323 -0.1552  0.3877 -0.3187
 4872SOL     OW26248   3.031   2.719   5.059 -0.4478  0.3358  0.0633
 4872SOL    HW126249   2.969   2.649   5.039  2.0209 -1.6516 -0.7189
 4872SOL    HW226250   3.107   2.670   5.088 -0.6915  1.5900  2.8062
 4873SOL     OW26251   1.545   3.720  15.349  0.2907 -0.0783  0.5595
 4873SOL    HW126252   1.560   3.629  15.324  1.8811 -0.0138  1.2296
 4873SOL    HW226253   1.518   3.753  15.264 -2.8845 -1.7983  0.9138
 4874SOL     OW26254   1.433   0.221  11.143 -0.0204 -0.0818 -0.7098
 4874SOL    HW126255   1.491   0.146  11.132 -0.8538 -0.7250 -0.7487
 4874SOL    HW226256   1.366   0.187  11.084 -2.3355 -0.7766  2.2870
 4875SOL     OW26257   4.646   4.068   6.724  0.6765  0.7649 -0.0378
 4875SOL    HW126258   4.562   4.115   6.724 -0.0440 -0.5316 -0.5084
 4875SOL    HW226259   4.618   3.993   6.776  0.3836  2.3079  2.0394
 4876SOL     OW26260   0.274   0.091   5.591 -0.1174 -0.4876  0.1435
 4876SOL    HW126261   0.326   0.101   5.511  0.0084 -0.5089  0.2225
 4876SOL    HW226262   0.204   0.156   5.581 -0.1806 -0.2259  2.2231
 4877SOL     OW26263   3.239   3.120   0.525 -0.1817 -0.2409  0.2135
 4877SOL    HW126264   3.313   3.061   0.537 -1.7536 -2.4583 -0.8188
 4877SOL    HW226265   3.276   3.200   0.561  0.8486 -0.2810 -0.7699
 4878SOL     OW26266   4.236   1.615  10.249  0.7538 -0.3351  1.1992
 4878SOL    HW126267   4.158   1.626  10.304  0.3901 -2.3788  1.0818
 4878SOL    HW226268   4.299   1.671  10.294  1.0751  0.2535  0.0241
 4879SOL     OW26269   2.111   4.353   8.495 -0.5855 -0.3633 -0.5929
 4879SOL    HW126270   2.064   4.370   8.577  1.3276 -0.1538  0.4467
 4879SOL    HW226271   2.137   4.261   8.498 -0.1240 -0.1808  1.0261
 4880SOL     OW26272   2.563   3.491   7.953 -0.1523  0.5074 -1.1098
 4880SOL    HW126273   2.618   3.422   7.988  0.7135  1.7871  0.0711
 4880SOL    HW226274   2.623   3.565   7.957  0.0662  0.2455  0.6537
 4881SOL     OW26275   1.660   3.640   3.691  0.2139 -0.2824 -0.0515
 4881SOL    HW126276   1.668   3.605   3.780  2.4375  0.8172  0.1693
 4881SOL    HW226277   1.664   3.735   3.705  0.5691 -0.6946  2.7444
 4882SOL     OW26278   1.929   2.192  12.520  0.1426  0.0393 -0.1241
 4882SOL    HW126279   1.933   2.147  12.436 -2.1935  0.2629 -0.3615
 4882SOL    HW226280   2.019   2.208  12.546  0.4060 -2.0464  0.2327
 4883SOL     OW26281   0.268   4.008  11.416 -0.0033  0.3716 -0.2988
 4883SOL    HW126282   0.308   4.095  11.424  0.2446  0.2144  0.1637
 4883SOL    HW226283   0.294   3.976  11.330  3.9013 -0.7652  1.2798
 4884SOL     OW26284   1.000   1.704   4.942  0.1658  0.0625  0.4407
 4884SOL    HW126285   1.042   1.618   4.938  0.0351  0.0254 -0.0805
 4884SOL    HW226286   1.035   1.752   4.867  0.9430 -1.2048 -0.0089
 4885SOL     OW26287   0.369   3.609   7.421  0.8391  0.6134 -0.0063
 4885SOL    HW126288   0.388   3.617   7.327  1.9317 -1.8040  0.0077
 4885SOL    HW226289   0.453   3.571   7.448 -0.1005 -1.7209 -0.4010
 4886SOL     OW26290   3.541   0.319  11.178 -0.2068  0.2167  0.6577
 4886SOL    HW126291   3.480   0.389  11.152 -0.8088 -0.7752 -0.6020
 4886SOL    HW226292   3.619   0.365  11.147  0.8564 -1.9491  0.1377
 4887SOL     OW26293   3.982   1.039   2.293  0.1459 -0.1258  0.6679
 4887SOL    HW126294   3.910   1.026   2.231 -0.0440  0.0258  0.8556
 4887SOL    HW226295   3.956   1.007   2.380  1.7121  0.0930  1.2154
 4888SOL     OW26296   2.954   3.819   3.844 -0.5531 -0.0245 -0.1521
 4888SOL    HW126297   2.907   3.868   3.776  0.4582  1.0252 -0.0924
 4888SOL    HW226298   2.877   3.791   3.893 -0.6138  0.6679  0.1473
 4889SOL     OW26299   1.047   3.810   4.403 -0.1255  0.1364 -0.0615
 4889SOL    HW126300   0.972   3.868   4.418 -0.2286 -0.2767  1.0057
 4889SOL    HW226301   0.997   3.732   4.381  1.7301 -1.6054  1.9080
 4890SOL     OW26302   2.065   2.881   7.658  0.1658 -0.2099  0.0495
 4890SOL    HW126303   2.063   2.969   7.619  0.5344 -0.2948 -0.1620
 4890SOL    HW226304   1.977   2.847   7.641  0.2872  0.6792 -2.3507
 4891SOL     OW26305   1.015   1.500   2.912  0.0439 -0.4225  0.8057
 4891SOL    HW126306   0.928   1.524   2.879  0.1758 -0.8277  0.1704
 4891SOL    HW226307   0.994   1.493   3.005 -2.9213 -0.3695  0.1358
 4892SOL     OW26308   1.047   0.500  16.825  0.5501  0.1530 -0.2382
 4892SOL    HW126309   1.140   0.486  16.842  0.3383 -3.5995 -2.1070
 4892SOL    HW226310   1.044   0.589  16.788  1.0211  1.1333  2.0959
 4893SOL     OW26311   4.652   1.809  12.940 -0.3184  0.6600 -0.8188
 4893SOL    HW126312   4.638   1.867  12.866 -2.4815  1.8077  0.4952
 4893SOL    HW226313   4.574   1.755  12.929 -0.4157  0.0691  2.6784
 4894SOL     OW26314   2.203   3.654   4.544 -0.2652 -0.7441 -0.1126
 4894SOL    HW126315   2.118   3.611   4.547 -0.1991 -0.8806 -0.2263
 4894SOL    HW226316   2.178   3.732   4.494 -2.8832 -1.3686  0.2075
 4895SOL     OW26317   0.716   3.940  10.100 -0.2711  0.1656  0.1153
 4895SOL    HW126318   0.732   4.029  10.067  0.7565  1.1129  3.2005
 4895SOL    HW226319   0.795   3.920  10.151  0.9503  0.8841 -1.4914
 4896SOL     OW26320   3.304   0.901  15.221  0.1486 -0.1919  0.0065
 4896SOL    HW126321   3.254   0.955  15.160  0.5573 -1.9768 -1.9081
 4896SOL    HW226322   3.254   0.819  15.218 -0.5257  0.1939  0.8498
 4897SOL     OW26323   1.095   1.044  17.156 -0.4556 -0.2107  0.1396
 4897SOL    HW126324   1.090   0.948  17.148 -1.5492  0.0257 -2.0046
 4897SOL    HW226325   1.050   1.054  17.240 -1.3971  1.2880 -0.5471
 4898SOL     OW26326   4.232   3.438  13.701 -0.6141  0.5435 -0.2971
 4898SOL    HW126327   4.303   3.502  13.707  0.3359 -0.5248 -0.2479
 4898SOL    HW226328   4.269   3.350  13.705 -0.5687  0.6460  1.2637
 4899SOL     OW26329   1.939   1.758  12.215 -0.5157 -0.3559 -0.4818
 4899SOL    HW126330   1.901   1.695  12.278 -1.7237  1.1479  0.3047
 4899SOL    HW226331   1.868   1.753  12.152 -1.4707 -0.7201  0.6105
 4900SOL     OW26332   1.516   1.275   9.648  0.3036 -0.1856  0.4797
 4900SOL    HW126333   1.589   1.215   9.665 -0.3127 -0.5931  1.6917
 4900SOL    HW226334   1.439   1.220   9.633  0.7253 -1.1358  1.8156
 4901SOL     OW26335   0.819   3.091   5.855 -0.3471 -0.1107 -0.3216
 4901SOL    HW126336   0.873   3.031   5.905  0.3572  1.3185  0.6226
 4901SOL    HW226337   0.819   3.175   5.901  1.1120 -0.0362 -0.4786
 4902SOL     OW26338   1.173   0.628  10.092 -0.0892 -0.0557 -0.1976
 4902SOL    HW126339   1.108   0.621  10.162  1.0314 -1.0409  0.7314
 4902SOL    HW226340   1.257   0.618  10.136  0.6286  2.5020 -1.0281
 4903SOL     OW26341   3.782   0.487   4.849 -0.3266 -0.7817  0.1544
 4903SOL    HW126342   3.858   0.540   4.875 -0.1337 -0.1348 -1.7538
 4903SOL    HW226343   3.798   0.400   4.886 -1.5606 -1.9185 -2.0205
 4904SOL     OW26344   4.574   1.165   5.734  0.2897 -0.1438  0.0676
 4904SOL    HW126345   4.658   1.212   5.732  0.1930  0.0469  0.5446
 4904SOL    HW226346   4.530   1.206   5.808 -0.5648  0.6159 -0.8827
 4905SOL     OW26347   0.710   2.496  15.899 -0.0374 -0.3371  0.5297
 4905SOL    HW126348   0.675   2.582  15.876 -1.3693 -0.9463  0.3076
 4905SOL    HW226349   0.714   2.459  15.811  3.3827  1.3559 -0.0376
 4906SOL     OW26350   2.942   2.069  16.858  0.2780  0.2117 -0.7538
 4906SOL    HW126351   2.893   2.143  16.894 -1.1538  0.3519 -2.9401
 4906SOL    HW226352   3.020   2.113  16.823 -0.2343 -1.7907 -4.4326
 4907SOL     OW26353   3.306   1.465   1.279 -0.2721  0.6056 -0.1618
 4907SOL    HW126354   3.353   1.411   1.343 -1.0000 -1.3798 -1.2929
 4907SOL    HW226355   3.246   1.404   1.237  1.5717  0.6372 -2.8740
 4908SOL     OW26356   3.252   3.196  16.895  0.6538 -0.3008  0.5742
 4908SOL    HW126357   3.258   3.277  16.845  1.7176  0.0776  1.3277
 4908SOL    HW226358   3.345   3.180  16.909  0.7929 -2.0237 -2.2547
 4909SOL     OW26359   2.081   3.753   5.809 -0.1441  0.0607  0.6289
 4909SOL    HW126360   2.110   3.724   5.722 -0.8791 -3.4445  1.5691
 4909SOL    HW226361   2.064   3.847   5.800  3.1365  0.6713  0.7631
 4910SOL     OW26362   1.971   2.242   2.994 -0.5954 -0.4643 -0.3356
 4910SOL    HW126363   1.878   2.221   2.994 -0.5973 -0.4567 -0.1722
 4910SOL    HW226364   2.007   2.176   2.936  1.1267  0.8733 -0.7994
 4911SOL     OW26365   2.941   2.561   2.179 -0.3097  0.2069  0.3827
 4911SOL    HW126366   2.889   2.576   2.101  2.8854 -0.1656 -1.8251
 4911SOL    HW226367   2.894   2.496   2.232  2.0014 -0.0104  2.1823
 4912SOL     OW26368   4.106   3.405   3.640 -0.9437  0.4975 -0.3507
 4912SOL    HW126369   4.118   3.319   3.681  0.9462  0.5436 -0.7791
 4912SOL    HW226370   4.118   3.395   3.545  0.8300 -1.7857  0.1082
 4913SOL     OW26371   2.729   1.434   5.852  0.5720 -0.4265 -0.2197
 4913SOL    HW126372   2.681   1.514   5.874  1.6790 -0.1704  1.2645
 4913SOL    HW226373   2.709   1.430   5.758 -1.6685  1.8046  0.1503
 4914SOL     OW26374   3.754   0.592  13.455 -0.6242 -0.3637 -1.0457
 4914SOL    HW126375   3.801   0.558  13.530 -0.9347  0.9652 -0.2534
 4914SOL    HW226376   3.689   0.522  13.443 -2.7671  1.2125  1.3597
 4915SOL     OW26377   3.275   0.210  10.253 -0.0541 -0.1754  0.2709
 4915SOL    HW126378   3.214   0.215  10.326  2.2024  1.3239  2.0480
 4915SOL    HW226379   3.224   0.244  10.179 -1.1738  0.7497  1.4763
 4916SOL     OW26380   4.213   4.540  17.216  0.3639  0.1161  0.3263
 4916SOL    HW126381   4.154   4.492  17.158  1.4759 -2.3367  1.2487
 4916SOL    HW226382   4.161   4.619  17.233  1.5140  0.5813  1.6769
 4917SOL     OW26383   4.427   1.955   0.655  0.4507 -0.1561  0.3332
 4917SOL    HW126384   4.452   2.032   0.605  0.1795 -0.8266 -0.8531
 4917SOL    HW226385   4.455   1.976   0.744 -0.1231  1.8936  0.0361
 4918SOL     OW26386   0.942   3.580   4.223 -0.4555  0.0780 -0.6011
 4918SOL    HW126387   0.972   3.626   4.145  1.7342 -1.4978 -0.7106
 4918SOL    HW226388   0.847   3.587   4.224 -0.3714  1.2131  0.2919
 4919SOL     OW26389   0.974   3.571   2.877  0.1231  0.6581 -0.0836
 4919SOL    HW126390   0.952   3.617   2.958  1.0151 -1.8869  1.5919
 4919SOL    HW226391   1.067   3.590   2.871  0.0009  0.7901 -1.4640
 4920SOL     OW26392   4.113   1.227   2.125  0.0213 -0.3315 -0.0041
 4920SOL    HW126393   4.160   1.242   2.043 -1.3532  2.5470 -0.2472
 4920SOL    HW226394   4.085   1.137   2.107  1.6205 -0.2470 -3.0440
 4921SOL     OW26395   3.333   3.244   9.739  0.2924 -0.1044  0.3150
 4921SOL    HW126396   3.411   3.274   9.785 -0.9536  0.9587  1.7117
 4921SOL    HW226397   3.340   3.149   9.740 -0.4737 -0.1709 -0.3702
 4922SOL     OW26398   2.136   3.801   6.926 -0.6864 -0.3662  0.5622
 4922SOL    HW126399   2.160   3.719   6.969  0.0935 -0.0304  0.7893
 4922SOL    HW226400   2.141   3.782   6.833 -1.2548  1.3946  0.1611
 4923SOL     OW26401   3.377   4.265  15.545  0.6358 -0.3285 -0.2483
 4923SOL    HW126402   3.423   4.183  15.558  1.7948  0.5201  0.9984
 4923SOL    HW226403   3.406   4.284  15.456  0.5781 -0.5761 -0.3205
 4924SOL     OW26404   1.439   2.444   8.507  0.6960 -0.0201 -0.0306
 4924SOL    HW126405   1.469   2.533   8.488  0.6175 -0.2346 -1.1159
 4924SOL    HW226406   1.345   2.460   8.514  0.4894 -2.1038  2.0843
 4925SOL     OW26407   2.700   4.173  10.955 -0.0355  0.2869 -0.0544
 4925SOL    HW126408   2.721   4.190  10.863  0.6995  0.3799  0.1355
 4925SOL    HW226409   2.713   4.252  11.007 -0.9641  0.1519  0.3814
 4926SOL     OW26410   0.046   1.644   5.930 -0.1345 -0.0697 -0.2984
 4926SOL    HW126411   0.019   1.570   5.984  0.7425  0.7425  1.2651
 4926SOL    HW226412   0.004   1.717   5.975  1.2738  0.8101 -0.4259
 4927SOL     OW26413   4.346   2.125   1.338  0.4141 -0.2809 -0.1166
 4927SOL    HW126414   4.394   2.052   1.377  0.3640 -0.2934 -0.0775
 4927SOL    HW226415   4.426   2.156   1.295  0.4631 -2.0021 -1.2369
 4928SOL     OW26416   1.413   0.661  15.565 -0.3128  0.1288 -0.6717
 4928SOL    HW126417   1.507   0.642  15.566 -0.3061 -0.1347 -4.9681
 4928SOL    HW226418   1.415   0.756  15.558  0.1803  0.2320  0.7995
 4929SOL     OW26419   3.058   4.685   8.699 -0.2834 -0.6042  0.8964
 4929SOL    HW126420   2.984   4.670   8.639  0.5732  1.3482 -0.6323
 4929SOL    HW226421   3.046   4.628   8.775  0.0314  0.4416  1.7192
 4930SOL     OW26422   1.144   0.793  14.163 -0.4361  0.5038 -0.7625
 4930SOL    HW126423   1.190   0.818  14.082 -1.4897  1.9695 -0.9129
 4930SOL    HW226424   1.068   0.850  14.150 -0.2020  1.1070  0.4947
 4931SOL     OW26425   0.771   3.510   4.675  0.2615 -0.6431 -0.0562
 4931SOL    HW126426   0.792   3.603   4.673 -3.1661  0.1500  0.6738
 4931SOL    HW226427   0.716   3.494   4.598  0.8766  1.1690 -0.8622
 4932SOL     OW26428   3.582   2.761   4.057 -0.1594 -0.1369 -0.9742
 4932SOL    HW126429   3.511   2.732   4.114 -0.0322 -0.4128 -0.9549
 4932SOL    HW226430   3.568   2.715   3.974 -1.1954 -1.5265 -0.0232
 4933SOL     OW26431   2.624   0.263   2.579  0.1830 -0.0590  0.6412
 4933SOL    HW126432   2.690   0.212   2.627 -0.0583 -1.4677 -0.5101
 4933SOL    HW226433   2.682   0.314   2.522  0.6444  2.7612  3.6648
 4934SOL     OW26434   0.194   4.021   6.726  1.1710  0.1238 -0.0924
 4934SOL    HW126435   0.099   4.022   6.709  0.5926 -0.9630  2.9206
 4934SOL    HW226436   0.206   3.965   6.803 -1.3973  2.1051  1.7652
 4935SOL     OW26437   4.381   2.692  13.458 -0.2374  0.1736 -0.7387
 4935SOL    HW126438   4.446   2.629  13.426  0.0460  0.7576 -1.3027
 4935SOL    HW226439   4.389   2.757  13.388  1.5301 -0.2343 -0.9152
 4936SOL     OW26440   0.345   2.539   1.259 -0.2158 -0.3842 -0.1943
 4936SOL    HW126441   0.311   2.463   1.213 -0.6248 -0.0441 -0.4605
 4936SOL    HW226442   0.394   2.492   1.326 -0.3203  2.5566  1.9597
 4937SOL     OW26443   1.176   2.196   3.689 -0.0998  0.4206 -0.2250
 4937SOL    HW126444   1.151   2.279   3.648  0.6513  0.1371 -1.2526
 4937SOL    HW226445   1.254   2.172   3.638 -0.1199 -0.6391  0.2451
 4938SOL     OW26446   0.759   2.135   3.318  0.2526 -0.2807  0.4441
 4938SOL    HW126447   0.785   2.227   3.309  2.1811 -0.8001  0.6733
 4938SOL    HW226448   0.682   2.149   3.373  0.5321  0.0902  0.7390
 4939SOL     OW26449   3.522   2.021  14.336  0.1726 -0.2400 -0.1446
 4939SOL    HW126450   3.537   1.955  14.268  0.3272 -0.4536  0.1005
 4939SOL    HW226451   3.584   2.092  14.321 -1.2177  1.6544  2.9805
 4940SOL     OW26452   1.021   4.690   3.748 -0.1034  0.7343  0.3711
 4940SOL    HW126453   1.115   4.700   3.729 -1.0634  4.0308 -2.6857
 4940SOL    HW226454   1.023   4.594   3.751  0.5160  0.7276 -0.1530
 4941SOL     OW26455   1.050   3.154   5.454  0.1378 -0.4165 -0.0818
 4941SOL    HW126456   0.973   3.120   5.501  1.0092 -0.7307  1.1101
 4941SOL    HW226457   1.027   3.127   5.365  0.3533  1.4990 -0.7167
 4942SOL     OW26458   1.176   4.144  12.127  0.2503  0.1942 -0.0031
 4942SOL    HW126459   1.211   4.215  12.182 -1.9533  0.2435  1.3456
 4942SOL    HW226460   1.244   4.077  12.142  0.1205  0.1345  0.3329
 4943SOL     OW26461   0.594   0.264   4.270 -0.4020  0.5351  0.0123
 4943SOL    HW126462   0.671   0.316   4.293 -1.7521  1.7818  1.6530
 4943SOL    HW226463   0.611   0.187   4.324  1.3363 -1.0051 -2.7390
 4944SOL     OW26464   2.618   2.308   7.586  0.0916 -0.5766  0.3895
 4944SOL    HW126465   2.539   2.359   7.604 -0.6424 -1.5817  0.0493
 4944SOL    HW226466   2.681   2.372   7.555  0.6469 -1.5200 -0.4353
 4945SOL     OW26467   2.884   0.469   8.819 -0.1660 -0.3756  0.3114
 4945SOL    HW126468   2.921   0.548   8.858 -2.9014 -0.1968  2.5120
 4945SOL    HW226469   2.805   0.506   8.781 -0.6836  0.3897  2.1339
 4946SOL     OW26470   3.632   2.065   2.789 -0.2465 -0.4349 -0.2847
 4946SOL    HW126471   3.715   2.071   2.837  0.1337  2.2850 -1.2712
 4946SOL    HW226472   3.588   2.000   2.843 -1.0451  0.4202  0.0877
 4947SOL     OW26473   4.687   2.294   1.292  0.2147  0.0867 -0.3677
 4947SOL    HW126474   0.013   2.250   1.350  0.7778  1.5764  0.1322
 4947SOL    HW226475   4.732   2.378   1.286  0.3454 -0.0494 -1.2390
 4948SOL     OW26476   0.872   0.476  15.753 -0.2544 -0.3658 -0.4725
 4948SOL    HW126477   0.875   0.497  15.659  3.0031 -1.4298 -0.5782
 4948SOL    HW226478   0.792   0.520  15.782  0.0608 -1.6638  2.3509
 4949SOL     OW26479   3.684   3.962   7.501 -0.3880 -0.4737 -0.1761
 4949SOL    HW126480   3.719   3.875   7.481 -1.6383 -1.1414  0.5345
 4949SOL    HW226481   3.592   3.960   7.475  0.5737 -1.7178 -3.5090
 4950SOL     OW26482   0.388   3.664  16.792  0.0698  0.4586 -1.1165
 4950SOL    HW126483   0.466   3.635  16.744  0.0169 -1.0180 -0.2819
 4950SOL    HW226484   0.407   3.634  16.880  1.0266  1.0078 -1.1290
 4951SOL     OW26485   0.964   1.249   8.373 -0.5270  0.1809  0.2404
 4951SOL    HW126486   0.995   1.162   8.348  1.6030  0.6870  1.1337
 4951SOL    HW226487   0.968   1.242   8.469  1.1574 -0.4840  0.1258
 4952SOL     OW26488   2.536   4.687  15.583  0.1482 -0.5550  0.0390
 4952SOL    HW126489   2.530   4.607  15.635  0.7812 -0.7788 -0.2359
 4952SOL    HW226490   2.604   0.000  15.627 -0.1128  3.3708 -4.0710
 4953SOL     OW26491   2.952   1.834   6.299  0.1157  0.2867 -0.7052
 4953SOL    HW126492   2.991   1.916   6.329  0.6193 -0.4498  0.6473
 4953SOL    HW226493   2.863   1.866   6.285 -0.3558  0.2700  2.4336
 4954SOL     OW26494   2.656   4.146   8.432 -0.1507 -0.7434 -0.2451
 4954SOL    HW126495   2.571   4.167   8.470 -1.9266 -2.1810 -3.3580
 4954SOL    HW226496   2.639   4.084   8.361  1.2423 -1.0271 -0.3207
 4955SOL     OW26497   3.552   2.286   4.877 -0.2730 -0.5101 -1.2052
 4955SOL    HW126498   3.530   2.239   4.797 -1.7508  1.9362 -2.2496
 4955SOL    HW226499   3.469   2.332   4.885  1.3554  2.4003 -0.8395
 4956SOL     OW26500   1.087   1.471   8.348  0.6220 -0.2665 -0.2782
 4956SOL    HW126501   1.047   1.504   8.267 -1.7180 -1.8681  0.2209
 4956SOL    HW226502   1.051   1.384   8.366  1.0784 -0.1128  1.3137
 4957SOL     OW26503   0.187   3.129   7.029 -0.2381  0.4530 -0.1613
 4957SOL    HW126504   0.162   3.076   7.104  0.5999 -0.0116 -0.2089
 4957SOL    HW226505   0.108   3.132   6.975 -0.7874  1.5114  0.7026
 4958SOL     OW26506   2.661   4.373   9.198 -0.6930 -0.1849 -1.1983
 4958SOL    HW126507   2.671   4.316   9.274  2.8853 -0.4776 -1.8920
 4958SOL    HW226508   2.727   4.328   9.145  0.8025  0.6086 -0.0041
 4959SOL     OW26509   3.651   3.043   0.642  0.2472 -0.0499 -0.1975
 4959SOL    HW126510   3.579   3.059   0.582 -1.9574 -1.4814  2.0624
 4959SOL    HW226511   3.626   2.956   0.672 -2.5527  0.9697  0.4182
 4960SOL     OW26512   4.564   0.006  10.831 -0.0491  0.0415 -0.1628
 4960SOL    HW126513   4.627   4.681  10.794  0.3260  1.1442 -1.4167
 4960SOL    HW226514   4.517   4.699  10.901  0.3081 -0.1390 -0.0353
 4961SOL     OW26515   1.166   2.725   9.448  0.2394  0.1942  0.4528
 4961SOL    HW126516   1.222   2.663   9.494  2.6508  0.2101 -2.4389
 4961SOL    HW226517   1.229   2.756   9.383 -0.4207  0.5573 -0.0061
 4962SOL     OW26518   1.931   3.698   8.572 -0.3280  0.5041  0.0840
 4962SOL    HW126519   2.002   3.729   8.516 -0.5805  0.1281 -0.4411
 4962SOL    HW226520   1.987   3.682   8.648 -0.2506  3.3861  0.6692
 4963SOL     OW26521   3.419   2.477   8.322  0.1615  0.0771  0.0102
 4963SOL    HW126522   3.402   2.404   8.381 -1.0562  2.1998  2.2441
 4963SOL    HW226523   3.454   2.432   8.244 -2.0807 -0.0539 -0.9243
 4964SOL     OW26524   2.447   3.912   2.148 -0.4204  0.2436  0.1099
 4964SOL    HW126525   2.449   3.879   2.059 -0.7955  0.8356 -0.1192
 4964SOL    HW226526   2.353   3.904   2.164  0.0693 -0.9936  2.4273
 4965SOL     OW26527   2.087   2.495  10.034  0.4883 -0.3463 -0.1874
 4965SOL    HW126528   2.143   2.444   9.976  0.5963 -0.3992 -0.0367
 4965SOL    HW226529   2.145   2.505  10.110  0.7877 -1.2225 -0.3038
 4966SOL     OW26530   3.705   4.369  11.893  0.4745  0.7823 -0.3708
 4966SOL    HW126531   3.667   4.376  11.981 -1.2036 -0.9284 -0.9727
 4966SOL    HW226532   3.666   4.444  11.849 -1.8889 -0.7273 -0.8406
 4967SOL     OW26533   4.001   2.349   9.269  0.8556 -0.5098  0.1109
 4967SOL    HW126534   4.046   2.267   9.292  0.7634 -0.6907 -0.3377
 4967SOL    HW226535   3.914   2.317   9.245  0.1351  1.2156  0.4332
 4968SOL     OW26536   0.268   3.491   8.657  0.4838 -0.6327  0.1539
 4968SOL    HW126537   0.197   3.428   8.650 -0.3040  0.3591 -0.8843
 4968SOL    HW226538   0.238   3.556   8.721  2.9246  0.5109  0.1342
 4969SOL     OW26539   2.214   0.868  11.578 -0.2679 -0.1650 -0.2770
 4969SOL    HW126540   2.306   0.862  11.606 -0.1362  2.3475 -0.1644
 4969SOL    HW226541   2.170   0.802  11.630  1.1870  0.5736  1.9004
 4970SOL     OW26542   2.778   3.618   6.272 -0.3006 -0.0718 -0.3880
 4970SOL    HW126543   2.852   3.628   6.212 -0.6153  0.8298 -0.6178
 4970SOL    HW226544   2.772   3.525   6.295  2.8410 -0.3618 -0.7024
 4971SOL     OW26545   3.527   4.670  12.907 -0.3765 -0.2855 -0.1527
 4971SOL    HW126546   3.433   4.691  12.915 -0.5085 -0.6055 -0.8378
 4971SOL    HW226547   3.569   4.728  12.969 -0.0045  0.8209 -1.4479
 4972SOL     OW26548   3.916   1.571   7.454  0.2223 -0.2225  0.7806
 4972SOL    HW126549   3.877   1.600   7.536  0.7547 -0.4586  1.1103
 4972SOL    HW226550   3.893   1.638   7.389  1.1466 -0.2177  0.4583
 4973SOL     OW26551   2.392   0.148  13.374  0.9345  0.5458 -0.0608
 4973SOL    HW126552   2.444   0.143  13.294 -1.3247 -2.1333 -1.3514
 4973SOL    HW226553   2.443   0.215  13.419 -0.8549  2.1350 -0.4304
 4974SOL     OW26554   2.819   1.402   3.385  0.1975 -0.5615  0.7640
 4974SOL    HW126555   2.732   1.412   3.346  0.6578 -2.9824 -0.8520
 4974SOL    HW226556   2.857   1.489   3.371  1.3714 -1.1128  0.4913
 4975SOL     OW26557   2.802   4.223   9.363  0.0131  0.2627  0.1676
 4975SOL    HW126558   2.810   4.133   9.394  0.3814  0.0659 -0.4821
 4975SOL    HW226559   2.859   4.273   9.421 -1.3790  0.4340  1.3778
 4976SOL     OW26560   0.873   2.519   3.816 -0.1561  0.8494 -0.8528
 4976SOL    HW126561   0.943   2.578   3.788 -0.4879  1.2635 -0.8088
 4976SOL    HW226562   0.912   2.496   3.900  0.3230 -1.6768 -1.7821
 4977SOL     OW26563   1.766   1.240   2.478 -0.1594  0.0166 -0.0645
 4977SOL    HW126564   1.718   1.159   2.459  1.7626 -1.5856  1.8865
 4977SOL    HW226565   1.791   1.268   2.390 -0.1254 -0.5099 -0.2239
 4978SOL     OW26566   2.503   0.963   7.924 -0.0984 -0.5065 -0.5906
 4978SOL    HW126567   2.535   0.949   8.013  0.7348 -1.1346 -0.9873
 4978SOL    HW226568   2.448   0.887   7.903  0.0668 -1.4074  2.2296
 4979SOL     OW26569   3.645   2.998  12.313  0.7475  0.1371 -0.4245
 4979SOL    HW126570   3.637   3.039  12.399  1.8950  0.1987 -0.3491
 4979SOL    HW226571   3.605   2.911  12.319  1.0868  0.0817  0.9336
 4980SOL     OW26572   2.963   2.985   2.996 -0.0719 -0.0189  0.2287
 4980SOL    HW126573   3.054   3.016   2.999  0.3156 -0.9344 -2.3422
 4980SOL    HW226574   2.989   2.895   3.017 -0.0298 -0.2003 -0.6374
 4981SOL     OW26575   1.949   3.478   2.729 -0.0588  0.2652  0.2257
 4981SOL    HW126576   1.867   3.523   2.747  0.0560  0.9746 -0.9848
 4981SOL    HW226577   1.938   3.457   2.636 -1.3205  1.3423  0.1388
 4982SOL     OW26578   3.751   1.614   4.918  0.6309 -0.4692  0.0373
 4982SOL    HW126579   3.660   1.594   4.941 -0.5711  1.3954 -2.9946
 4982SOL    HW226580   3.766   1.681   4.984  1.0044 -1.7684  1.2562
 4983SOL     OW26581   3.446   3.651   6.536 -0.4699 -0.0337 -0.0554
 4983SOL    HW126582   3.480   3.677   6.450  1.5746  1.2985  1.1458
 4983SOL    HW226583   3.531   3.637   6.577  0.7503  0.5045 -2.3834
 4984SOL     OW26584   2.832   3.333   4.498 -0.4277  0.5280 -0.7004
 4984SOL    HW126585   2.785   3.390   4.559 -0.8395 -0.9165  0.3220
 4984SOL    HW226586   2.838   3.264   4.564 -1.7567  2.6487  1.6531
 4985SOL     OW26587   2.466   4.281   2.909  0.3418 -0.5457  0.2028
 4985SOL    HW126588   2.534   4.232   2.954 -1.4685 -0.2192  3.2837
 4985SOL    HW226589   2.517   4.340   2.854 -1.8571 -0.6044 -1.8818
 4986SOL     OW26590   0.880   4.195   9.227 -0.1277  0.1546 -0.2228
 4986SOL    HW126591   0.951   4.137   9.201 -0.1672 -0.5306  1.1912
 4986SOL    HW226592   0.815   4.171   9.161 -1.9085  0.2711  1.5036
 4987SOL     OW26593   2.181   1.062   5.639 -0.3081 -0.3725 -0.5676
 4987SOL    HW126594   2.107   1.104   5.682  1.1946  1.8801 -0.1996
 4987SOL    HW226595   2.264   1.088   5.679 -0.0199 -2.7500  0.3960
 4988SOL     OW26596   0.524   1.833   5.832  0.1536 -0.5269  0.0010
 4988SOL    HW126597   0.499   1.839   5.924  1.6769  1.2934  0.2931
 4988SOL    HW226598   0.570   1.915   5.815  1.4641 -0.8002  2.1421
 4989SOL     OW26599   2.435   3.742   1.892  0.0898 -0.2371  0.4880
 4989SOL    HW126600   2.465   3.674   1.952  0.1630  0.5679  1.3738
 4989SOL    HW226601   2.444   3.703   1.805  0.5061 -1.4150  1.0635
 4990SOL     OW26602   1.044   4.324  10.716  0.1813 -0.6187 -0.2049
 4990SOL    HW126603   1.063   4.314  10.623  1.5250  0.1471  0.0016
 4990SOL    HW226604   1.124   4.305  10.765  0.4769  2.1475  0.3630
 4991SOL     OW26605   3.288   1.521   7.622  0.0678  0.2202  0.5005
 4991SOL    HW126606   3.245   1.440   7.594 -0.3465  1.0016 -1.0646
 4991SOL    HW226607   3.224   1.559   7.681 -0.1629 -1.1089  1.1239
 4992SOL     OW26608   3.006   2.870   9.095  0.2940 -0.3126 -0.1744
 4992SOL    HW126609   3.076   2.827   9.045 -1.3221 -1.3589 -1.5307
 4992SOL    HW226610   2.936   2.805   9.099 -0.4379  0.3524 -1.9800
 4993SOL     OW26611   1.442   2.254   9.661 -0.5979  0.4682 -0.0345
 4993SOL    HW126612   1.375   2.272   9.726 -0.0375 -1.2817  1.0093
 4993SOL    HW226613   1.508   2.321   9.680 -1.6817  1.1326  1.3679
 4994SOL     OW26614   0.871   3.006   9.599  0.0511 -0.2164 -0.3189
 4994SOL    HW126615   0.807   2.951   9.644  0.6173 -0.4950  0.1345
 4994SOL    HW226616   0.950   2.955   9.614  0.1688 -0.1299 -0.6376
 4995SOL     OW26617   3.574   3.880   3.847 -0.0022 -0.3437  0.1698
 4995SOL    HW126618   3.638   3.826   3.895  0.2802 -1.3308 -1.3243
 4995SOL    HW226619   3.523   3.805   3.817 -2.6615  0.9681  1.3645
 4996SOL     OW26620   0.482   0.950  17.223 -0.1665  0.4734  0.2035
 4996SOL    HW126621   0.407   0.931  17.166  1.7535 -0.8476 -1.8978
 4996SOL    HW226622   0.546   0.888  17.188 -0.8047 -0.7614  1.2315
 4997SOL     OW26623   1.204   4.616   8.404  0.1057 -0.5632  0.0330
 4997SOL    HW126624   1.142   4.687   8.417 -1.1464 -1.6170 -0.2441
 4997SOL    HW226625   1.168   4.583   8.321  0.4379  0.9937 -0.7313
 4998SOL     OW26626   0.578   4.621   9.105 -0.5324 -0.1698  0.1657
 4998SOL    HW126627   0.600   4.556   9.173 -2.4429 -0.4799  0.4972
 4998SOL    HW226628   0.483   4.611   9.114 -0.3832 -1.5019  0.3352
 4999SOL     OW26629   3.689   1.440   8.847 -0.2700 -0.3640 -0.4781
 4999SOL    HW126630   3.766   1.425   8.902  0.6620 -1.0911 -1.9818
 4999SOL    HW226631   3.695   1.375   8.777  0.2304 -0.5149 -0.2921
 5000SOL     OW26632   2.799   0.288  10.052 -0.6881  0.2086 -0.6677
 5000SOL    HW126633   2.750   0.354  10.003 -1.0760 -1.6916 -2.8309
 5000SOL    HW226634   2.825   0.342  10.127 -2.8827 -1.4004  1.2387
 5001SOL     OW26635   3.728   3.617   2.496  0.3593 -0.1994  0.1188
 5001SOL    HW126636   3.648   3.630   2.548  1.5636  1.4997  1.5257
 5001SOL    HW226637   3.747   3.523   2.505  1.4351  0.3275  3.5231
 5002SOL     OW26638   4.526   3.908   7.494 -0.8205  0.3111 -0.4610
 5002SOL    HW126639   4.549   3.884   7.583 -0.0479  1.1060 -0.4435
 5002SOL    HW226640   4.443   3.862   7.482 -0.3863 -0.5122 -0.3148
 5003SOL     OW26641   4.031   2.411  17.713 -0.2000 -0.0208 -0.4040
 5003SOL    HW126642   3.991   2.325  17.724  0.0959 -0.1213 -0.0963
 5003SOL    HW226643   4.114   2.391  17.671  0.7637  1.1452  0.9100
 5004SOL     OW26644   2.045   2.225  15.028 -0.0568 -0.7113  0.5600
 5004SOL    HW126645   1.973   2.279  14.995 -0.1824 -1.5647 -0.6030
 5004SOL    HW226646   2.105   2.290  15.063  1.1768 -1.0287 -0.9595
 5005SOL     OW26647   4.000   0.122   8.085  0.1789 -0.0184  0.0721
 5005SOL    HW126648   3.983   0.070   8.007  0.9628 -0.5220  0.2405
 5005SOL    HW226649   3.952   0.199   8.054 -1.5612 -1.2615 -0.2641
 5006SOL     OW26650   1.118   3.013   4.746 -0.5827  0.3286  0.0645
 5006SOL    HW126651   1.044   2.965   4.783 -0.4413 -0.4217 -0.6221
 5006SOL    HW226652   1.135   2.974   4.660 -0.3031 -2.5153  1.4265
 5007SOL     OW26653   4.209   2.467   2.544 -0.8137 -0.3928  1.1228
 5007SOL    HW126654   4.165   2.436   2.464  1.1904  0.4457 -0.2965
 5007SOL    HW226655   4.172   2.555   2.541 -1.2608 -0.8037 -5.1283
 5008SOL     OW26656   2.640   2.628   8.269  0.0860 -0.4613  0.2869
 5008SOL    HW126657   2.631   2.585   8.354 -3.3322 -2.2756 -0.9771
 5008SOL    HW226658   2.731   2.621   8.239  0.3915 -1.0734  1.3654
 5009SOL     OW26659   2.884   2.235   9.745  0.1803  0.2992  0.3148
 5009SOL    HW126660   2.827   2.269   9.676  1.0169  0.3376 -0.3676
 5009SOL    HW226661   2.947   2.307   9.750 -1.0366  1.4045 -0.1788
 5010SOL     OW26662   0.468   0.968   2.373  0.1000  0.3579 -0.4560
 5010SOL    HW126663   0.471   0.877   2.344 -0.7630  0.0118  0.5555
 5010SOL    HW226664   0.505   1.006   2.293 -0.7543 -1.4008 -1.6787
 5011SOL     OW26665   0.200   0.956   4.165  0.3052 -0.0108  0.3449
 5011SOL    HW126666   0.170   0.868   4.190 -1.3939  1.6492  4.2449
 5011SOL    HW226667   0.291   0.948   4.194 -0.0467  0.6851  1.6568
 5012SOL     OW26668   1.269   3.450  10.848  0.3018 -0.0883 -0.4734
 5012SOL    HW126669   1.319   3.397  10.787  0.8122  0.9239 -0.9366
 5012SOL    HW226670   1.181   3.415  10.836  1.7177 -3.3290 -1.3565
 5013SOL     OW26671   3.862   1.838   4.663  0.4147  0.1172 -0.5246
 5013SOL    HW126672   3.775   1.860   4.696  0.0497  1.0119 -2.0642
 5013SOL    HW226673   3.856   1.755   4.616  1.5434  0.1164 -0.6709
 5014SOL     OW26674   0.631   2.739   6.904  0.3013  0.0689 -0.2031
 5014SOL    HW126675   0.634   2.808   6.838  1.7920 -1.3437 -1.6358
 5014SOL    HW226676   0.667   2.789   6.977 -1.2736  3.2825 -1.6134
 5015SOL     OW26677   2.532   2.897   6.964 -0.1786  0.4269  0.1657
 5015SOL    HW126678   2.591   2.890   7.038  1.0347  1.4007 -0.7015
 5015SOL    HW226679   2.531   2.990   6.940 -2.5377  0.3290 -0.1665
 5016SOL     OW26680   2.501   3.898  15.028 -0.3821 -0.2110 -0.6131
 5016SOL    HW126681   2.432   3.941  14.977 -0.9747  0.7821  1.0146
 5016SOL    HW226682   2.449   3.836  15.080  0.9221 -2.9773 -2.6211
 5017SOL     OW26683   0.479   2.340   4.385  0.4035  0.7628 -0.4287
 5017SOL    HW126684   0.392   2.341   4.426  0.8632  0.7302  0.5578
 5017SOL    HW226685   0.475   2.299   4.299 -1.0898 -0.0367  0.0058
 5018SOL     OW26686   4.386   4.609   0.182  0.2569 -0.2018  0.4521
 5018SOL    HW126687   4.477   4.626   0.206  0.7770 -0.2400 -1.5091
 5018SOL    HW226688   4.355   4.581   0.268 -0.7929  0.3041  0.2269
 5019SOL     OW26689   3.415   3.059   6.109  0.3082 -0.1098  0.4229
 5019SOL    HW126690   3.492   3.097   6.066 -1.0801  2.0086 -0.2294
 5019SOL    HW226691   3.407   3.114   6.187 -1.0894 -0.7552  0.7229
 5020SOL     OW26692   1.683   1.647   4.392  0.6454  0.1691  0.5717
 5020SOL    HW126693   1.675   1.589   4.468 -0.3584  0.7936  0.9433
 5020SOL    HW226694   1.593   1.665   4.365  0.7129 -2.3803 -1.3616
 5021SOL     OW26695   2.538   0.808   8.479 -0.1430  0.1359 -0.0308
 5021SOL    HW126696   2.540   0.766   8.393  0.1687 -1.6602  0.8626
 5021SOL    HW226697   2.456   0.858   8.480 -0.9071 -1.0739 -2.2021
 5022SOL     OW26698   0.736   0.345   3.399 -0.2983 -0.0975  0.0910
 5022SOL    HW126699   0.696   0.299   3.325 -0.2590 -0.8444  0.5439
 5022SOL    HW226700   0.822   0.366   3.363 -0.3724 -0.7875 -0.4838
 5023SOL     OW26701   4.006   3.546   5.396  0.1309 -0.0973 -0.3050
 5023SOL    HW126702   3.942   3.527   5.465  2.4878  0.7185  2.1038
 5023SOL    HW226703   4.072   3.597   5.443 -0.0043 -0.6619  0.5102
 5024SOL     OW26704   2.243   2.284   1.754 -0.1720 -0.4123 -0.0704
 5024SOL    HW126705   2.290   2.357   1.795  0.1286  0.8391 -2.6821
 5024SOL    HW226706   2.314   2.227   1.725  1.8105  2.0337  0.0053
 5025SOL     OW26707   4.713   2.370   8.366  0.1888  0.2939 -0.9133
 5025SOL    HW126708   0.034   2.425   8.314  0.8741  0.4632  0.0411
 5025SOL    HW226709   0.014   2.384   8.452  1.5921  0.1314 -1.5194
 5026SOL     OW26710   4.083   3.432   3.362 -0.0304 -0.1641  0.2070
 5026SOL    HW126711   4.012   3.386   3.318 -0.0965  0.0870  0.0522
 5026SOL    HW226712   4.159   3.389   3.323  0.1749  1.0489 -0.7280
 5027SOL     OW26713   1.921   1.093  11.267 -0.6540 -0.6818 -0.0189
 5027SOL    HW126714   1.991   1.086  11.202  0.0757  1.3356  0.5585
 5027SOL    HW226715   1.956   1.147  11.337  0.2296 -0.0296 -0.9742
 5028SOL     OW26716   0.675   3.198   2.844  0.2394 -0.1639 -0.4812
 5028SOL    HW126717   0.645   3.228   2.758  0.5257  0.2303 -0.4430
 5028SOL    HW226718   0.635   3.112   2.854 -0.6314  0.2392 -0.4940
 5029SOL     OW26719   2.701   1.838   9.199 -0.9417 -0.0285 -0.7783
 5029SOL    HW126720   2.637   1.873   9.261  0.2822  1.4708 -0.3518
 5029SOL    HW226721   2.679   1.745   9.207 -0.1448 -0.1710 -0.1777
 5030SOL     OW26722   0.341   1.452  13.985 -0.0409  0.1758 -0.6913
 5030SOL    HW126723   0.254   1.413  13.995 -0.1820  1.1913  2.0496
 5030SOL    HW226724   0.395   1.377  14.012 -0.0340  0.0398 -1.0757
 5031SOL     OW26725   3.017   4.106  10.735 -0.1051  0.1527 -0.0972
 5031SOL    HW126726   3.030   4.107  10.641 -2.2890  1.4212 -0.3744
 5031SOL    HW226727   2.923   4.123  10.745  0.2041  2.6444 -1.2592
 5032SOL     OW26728   1.496   1.782   6.034 -0.1541 -0.0938  0.2837
 5032SOL    HW126729   1.429   1.714   6.028 -0.9631  0.7167  0.2064
 5032SOL    HW226730   1.443   1.850   5.992  0.7829  1.0767  1.0217
 5033SOL     OW26731   4.114   3.584   9.978  0.4072  0.1614  0.3800
 5033SOL    HW126732   4.189   3.527   9.990  1.0442  1.0419  0.5545
 5033SOL    HW226733   4.048   3.547  10.038 -1.0139  0.3929 -1.0476
 5034SOL     OW26734   0.319   2.809  17.587 -0.3643  0.7018  0.6852
 5034SOL    HW126735   0.357   2.723  17.569 -0.5792  0.6339  0.5553
 5034SOL    HW226736   0.277   2.825  17.503  1.2670 -0.6284 -0.3787
 5035SOL     OW26737   2.194   1.224  11.369 -0.1817 -0.3117  0.0055
 5035SOL    HW126738   2.119   1.268  11.410 -1.1654  0.5008 -2.6552
 5035SOL    HW226739   2.261   1.287  11.396 -1.7008  0.9410  0.8510
 5036SOL     OW26740   1.432   2.273   4.879 -0.5594 -0.5872 -0.2873
 5036SOL    HW126741   1.460   2.181   4.873  3.3722  0.6699 -1.3988
 5036SOL    HW226742   1.468   2.295   4.965  0.9310 -0.9036 -0.8289
 5037SOL     OW26743   2.325   4.673   4.499 -0.1294 -0.1039  0.1244
 5037SOL    HW126744   2.397   4.648   4.441 -0.0433 -0.0112  0.1919
 5037SOL    HW226745   2.366   4.736   4.558 -0.7943 -1.8435  2.4772
 5038SOL     OW26746   4.533   0.518   5.946  0.1676  0.5618 -0.0327
 5038SOL    HW126747   4.445   0.534   5.910  0.3083  1.4998  0.0454
 5038SOL    HW226748   4.511   0.473   6.028  0.8287  0.4889  0.0982
 5039SOL     OW26749   1.119   4.690   4.747 -0.6888 -0.1448 -1.0926
 5039SOL    HW126750   1.076   0.019   4.694 -3.0344  1.5427  2.9221
 5039SOL    HW226751   1.105   4.731   4.833 -0.5687  0.9112 -1.5869
 5040SOL     OW26752   3.223   0.590   4.924 -0.2186  0.0738  0.4647
 5040SOL    HW126753   3.165   0.666   4.915  1.7966  1.6709  0.9852
 5040SOL    HW226754   3.185   0.542   4.998  0.3910 -0.4579  0.4336
 5041SOL     OW26755   2.011   1.109   0.231 -0.1535  0.1293  0.7453
 5041SOL    HW126756   2.071   1.137   0.300  1.8684  2.5391 -2.0205
 5041SOL    HW226757   2.063   1.052   0.175 -0.5693  0.4660  0.0156
 5042SOL     OW26758   3.343   4.351  15.292  0.7351 -0.1187 -0.5196
 5042SOL    HW126759   3.279   4.411  15.331  1.3861  1.0962 -1.2886
 5042SOL    HW226760   3.284   4.279  15.268 -1.0998  0.7299  1.4505
 5043SOL     OW26761   4.147   1.122   7.330  0.3115 -0.1944 -0.3633
 5043SOL    HW126762   4.084   1.183   7.293 -0.5340 -0.8336  0.0124
 5043SOL    HW226763   4.077   1.065   7.361  0.8647  0.3946  2.0054
 5044SOL     OW26764   2.818   0.651   6.929 -0.3864 -0.5193  0.3403
 5044SOL    HW126765   2.906   0.689   6.932 -0.5989  0.0042 -0.1162
 5044SOL    HW226766   2.789   0.674   7.018  3.2677  0.2620  1.3518
 5045SOL     OW26767   2.526   1.191   7.750 -0.5782  0.2136  0.3440
 5045SOL    HW126768   2.452   1.172   7.692 -0.0285  1.0333 -0.6425
 5045SOL    HW226769   2.537   1.103   7.784  0.7689  0.7278  1.2516
 5046SOL     OW26770   1.694   0.692  15.474 -0.0612 -0.3713  0.3320
 5046SOL    HW126771   1.661   0.732  15.394  1.4250 -0.4466 -0.3249
 5046SOL    HW226772   1.754   0.756  15.512  0.1227 -0.1649 -0.3247
 5047SOL     OW26773   0.786   2.955  17.659 -0.3224  0.0483  0.1014
 5047SOL    HW126774   0.714   2.900  17.629  0.6529 -0.0824 -2.0364
 5047SOL    HW226775   0.757   3.039  17.624  0.3509  0.1493 -0.2204
 5048SOL     OW26776   1.230   2.024   6.218  0.3980 -0.1752 -0.4415
 5048SOL    HW126777   1.199   2.096   6.273  1.7075  0.5257 -0.6416
 5048SOL    HW226778   1.152   2.002   6.166 -0.3151 -2.2303  1.4674
 5049SOL     OW26779   2.010   2.496   4.085  0.1211  0.0686 -0.1400
 5049SOL    HW126780   2.067   2.511   4.009 -1.4397  1.7436 -0.9880
 5049SOL    HW226781   1.957   2.430   4.040 -0.3429  1.0251 -1.0000
 5050SOL     OW26782   0.062   1.975  12.122  0.1320  0.1552  0.0105
 5050SOL    HW126783   4.707   1.957  12.138  0.4040 -0.8450  0.4467
 5050SOL    HW226784   0.102   1.928  12.195  1.6873  1.3022 -0.0763
 5051SOL     OW26785   2.397   2.017  14.610  0.5319  0.2128  0.0940
 5051SOL    HW126786   2.451   2.056  14.679 -0.8694  1.3100  0.5698
 5051SOL    HW226787   2.329   1.973  14.661  0.0071  2.4060  1.2863
 5052SOL     OW26788   4.315   3.247   4.160  0.2461  0.7835  0.3671
 5052SOL    HW126789   4.402   3.288   4.159  0.0055  1.3423  2.0569
 5052SOL    HW226790   4.286   3.255   4.069 -2.0715 -3.2392  0.7334
 5053SOL     OW26791   0.932   1.809  11.578  0.2816  0.4305  0.5453
 5053SOL    HW126792   0.845   1.848  11.589 -0.5762 -1.3710  0.0671
 5053SOL    HW226793   0.961   1.877  11.517  2.2511 -2.0126 -1.2367
 5054SOL     OW26794   3.899   4.532   2.648 -0.1366 -0.4717  0.0818
 5054SOL    HW126795   3.912   4.463   2.583  0.1772  1.1989 -1.6520
 5054SOL    HW226796   3.864   4.601   2.592 -0.5344 -0.3812  0.4442
 5055SOL     OW26797   3.794   2.492   4.540  0.4516  0.5697 -0.5336
 5055SOL    HW126798   3.738   2.440   4.483 -1.9405  1.8852  0.6258
 5055SOL    HW226799   3.733   2.564   4.554 -1.2640 -1.4117  2.1981
 5056SOL     OW26800   4.603   0.277   8.393  0.5310 -0.5742 -0.4694
 5056SOL    HW126801   4.603   0.350   8.331 -1.1184 -0.3266 -0.1749
 5056SOL    HW226802   4.685   0.242   8.358  0.0817  0.3427 -2.4387
 5057SOL     OW26803   2.757   4.376   7.848  0.5132 -0.2842 -0.4459
 5057SOL    HW126804   2.664   4.399   7.845  0.1253 -1.8509 -0.5123
 5057SOL    HW226805   2.757   4.300   7.790 -2.0556 -0.7568  0.1886
 5058SOL     OW26806   0.503   3.514   3.232  0.5195  0.3868  0.2387
 5058SOL    HW126807   0.497   3.609   3.241 -1.2441  0.2296  0.7478
 5058SOL    HW226808   0.441   3.504   3.160  0.3102  1.0347  0.3314
 5059SOL     OW26809   1.492   0.909   2.096  0.0373 -0.2822  0.0897
 5059SOL    HW126810   1.543   0.867   2.166  2.0494 -0.5537 -1.5371
 5059SOL    HW226811   1.438   0.965   2.151 -1.8944 -1.4278 -0.6320
 5060SOL     OW26812   2.612   1.821  13.631  0.3811 -0.4746  0.3481
 5060SOL    HW126813   2.632   1.733  13.601  2.1856 -0.6897  2.2382
 5060SOL    HW226814   2.542   1.806  13.694  0.6657  2.6897  1.4374
 5061SOL     OW26815   3.184   4.649  13.679  0.4492 -0.4559 -0.2258
 5061SOL    HW126816   3.118   4.614  13.740  0.3906 -0.0559 -0.0602
 5061SOL    HW226817   3.152   4.597  13.605  1.8105 -2.0647  0.3184
 5062SOL     OW26818   0.600   1.295   2.415 -0.2097  0.0709  0.6202
 5062SOL    HW126819   0.686   1.293   2.373 -0.6483 -0.1775 -0.2688
 5062SOL    HW226820   0.611   1.218   2.470 -2.2510 -1.4181 -1.0721
 5063SOL     OW26821   3.522   3.559   7.384  0.0569 -0.9998 -0.2796
 5063SOL    HW126822   3.521   3.477   7.433 -1.8662  0.4610  2.1210
 5063SOL    HW226823   3.430   3.583   7.389 -0.8878 -3.8654 -4.1889
 5064SOL     OW26824   4.717   0.724   5.994 -0.0970 -0.3477 -0.2507
 5064SOL    HW126825   0.021   0.778   5.926  0.5772 -0.7499 -0.1598
 5064SOL    HW226826   4.677   0.652   5.946 -0.0394 -0.7706  0.3374
 5065SOL     OW26827   3.034   0.317   6.136  0.1656 -0.4729 -0.0114
 5065SOL    HW126828   3.033   0.357   6.049  0.0589 -0.2565  0.0905
 5065SOL    HW226829   2.976   0.242   6.127 -0.4671  0.0944 -0.7223
 5066SOL     OW26830   0.540   2.428  11.948 -0.4557 -0.5973 -0.0814
 5066SOL    HW126831   0.635   2.425  11.935 -0.6296 -0.3324 -1.3970
 5066SOL    HW226832   0.535   2.403  12.040  1.8559 -0.3781  0.1000
 5067SOL     OW26833   0.136   2.464  11.606 -0.3934  0.0721  0.2508
 5067SOL    HW126834   0.105   2.554  11.622  1.7207  0.7099  0.7274
 5067SOL    HW226835   0.089   2.412  11.671 -1.9744 -1.5690 -2.1802
 5068SOL     OW26836   0.779   3.576   7.337 -0.9353 -0.1942 -0.9943
 5068SOL    HW126837   0.810   3.499   7.289  1.8977 -0.1609  0.7809
 5068SOL    HW226838   0.693   3.552   7.370 -0.2228  0.4168  1.3202
 5069SOL     OW26839   3.287   0.014  12.998  0.3532 -0.8572 -0.5356
 5069SOL    HW126840   3.198   0.050  12.992  0.2327 -0.8199  1.5800
 5069SOL    HW226841   3.276   4.722  13.088 -1.8895  0.0791 -0.4925
 5070SOL     OW26842   2.583   1.868   4.563  0.3779 -0.2115 -0.2657
 5070SOL    HW126843   2.624   1.914   4.489  0.1463 -0.1712 -0.3672
 5070SOL    HW226844   2.519   1.814   4.518 -1.5815  1.9779 -0.0697
 5071SOL     OW26845   0.549   4.719   8.397 -0.0471 -0.2498 -0.1571
 5071SOL    HW126846   0.637   4.698   8.428  0.4395  0.1466 -1.2753
 5071SOL    HW226847   0.498   4.665   8.457  0.6268  0.2047  0.8260
 5072SOL     OW26848   1.251   0.769  17.433 -0.3057  0.3072  0.6671
 5072SOL    HW126849   1.205   0.778  17.350  0.6769 -0.1143  0.0728
 5072SOL    HW226850   1.175   0.725  17.471  0.1072  0.1867  1.3677
 5073SOL     OW26851   4.278   3.240  17.398 -0.2273 -0.0439  0.0955
 5073SOL    HW126852   4.232   3.285  17.327  0.5390  0.8127  0.1472
 5073SOL    HW226853   4.255   3.147  17.395 -0.0644  0.0410 -3.3997
 5074SOL     OW26854   0.940   4.109   2.307  0.0701  0.3494  0.1310
 5074SOL    HW126855   0.977   4.041   2.251  0.8971 -0.2638  1.4350
 5074SOL    HW226856   0.921   4.161   2.229 -1.9923  0.2850  0.5766
 5075SOL     OW26857   2.572   0.698   5.650 -0.7838 -0.5086  0.6650
 5075SOL    HW126858   2.522   0.756   5.709 -1.5029 -0.5671  0.1144
 5075SOL    HW226859   2.619   0.764   5.599 -2.1484 -1.0639 -1.2721
 5076SOL     OW26860   2.903   2.189  17.585 -0.4621  0.1911 -0.2906
 5076SOL    HW126861   2.900   2.284  17.575  2.4532  0.2964 -0.1689
 5076SOL    HW226862   2.945   2.158  17.504  1.2230  3.5924 -0.7122
 5077SOL     OW26863   4.664   1.445   3.126 -0.3836  0.0106 -0.1197
 5077SOL    HW126864   4.663   1.536   3.097  2.3440  0.1059  0.0820
 5077SOL    HW226865   4.737   1.403   3.080 -0.2352  0.1406 -0.0032
 5078SOL     OW26866   3.269   0.525   4.172  0.4350 -0.5475 -0.3230
 5078SOL    HW126867   3.279   0.448   4.227 -2.1782 -0.0693  0.7827
 5078SOL    HW226868   3.344   0.513   4.113  1.5057  1.9196  0.5494
 5079SOL     OW26869   3.071   0.987  13.267  0.1907  0.6313  0.1139
 5079SOL    HW126870   3.067   0.987  13.363  0.9110  1.8356  0.1423
 5079SOL    HW226871   3.153   1.033  13.250  1.0387 -0.4332  1.2910
 5080SOL     OW26872   0.980   4.468  15.416 -0.5802 -0.1694  0.5584
 5080SOL    HW126873   0.926   4.543  15.441  1.7205  1.6431  0.1443
 5080SOL    HW226874   0.932   4.449  15.336  0.5332  1.0285 -0.4105
 5081SOL     OW26875   2.061   4.730   4.439  0.6100 -0.0197 -0.0024
 5081SOL    HW126876   2.150   4.695   4.440  0.1536 -1.1594  0.3720
 5081SOL    HW226877   2.025   4.681   4.365 -2.3496  0.5161  1.0897
 5082SOL     OW26878   3.711   4.096  11.066 -0.8328  0.1094 -0.3462
 5082SOL    HW126879   3.615   4.098  11.058 -1.0881 -1.8741  2.2344
 5082SOL    HW226880   3.724   4.111  11.160  2.0919 -0.3309 -0.6818
 5083SOL     OW26881   1.773   1.842   6.623 -0.1438 -0.3880 -0.6665
 5083SOL    HW126882   1.687   1.803   6.607 -0.8981  1.6286 -1.5824
 5083SOL    HW226883   1.802   1.866   6.535 -1.2361 -0.4234 -1.0411
 5084SOL     OW26884   2.386   1.910   1.507 -0.6426 -0.0417 -0.0836
 5084SOL    HW126885   2.330   1.872   1.439 -0.6625 -0.1691  0.0049
 5084SOL    HW226886   2.475   1.885   1.484  0.0122  2.6512 -0.5065
 5085SOL     OW26887   3.007   2.676   6.283  0.3669  0.0045 -1.1573
 5085SOL    HW126888   2.978   2.757   6.324  1.4407 -0.4957  0.5807
 5085SOL    HW226889   3.091   2.661   6.327  0.3778  2.7405 -0.3115
 5086SOL     OW26890   1.737   1.460  11.796 -0.1178 -0.4591  0.1902
 5086SOL    HW126891   1.823   1.431  11.825  0.3483  0.4375 -0.2803
 5086SOL    HW226892   1.699   1.388  11.747 -0.0448  1.1544 -2.2414
 5087SOL     OW26893   0.373   4.333  14.134 -0.2716 -0.2986 -0.1724
 5087SOL    HW126894   0.282   4.342  14.161 -0.2401 -1.2294  0.2340
 5087SOL    HW226895   0.394   4.424  14.155 -0.1956 -0.6142  1.0992
 5088SOL     OW26896   1.486   3.496   6.696 -0.2484 -0.1368 -0.2282
 5088SOL    HW126897   1.415   3.506   6.759 -0.0706 -0.0670 -0.0390
 5088SOL    HW226898   1.449   3.442   6.626  1.9044 -0.3530 -1.1938
 5089SOL     OW26899   2.219   3.385   8.744  0.6955  0.3836 -0.2270
 5089SOL    HW126900   2.264   3.353   8.822 -0.2038  1.2103  0.6367
 5089SOL    HW226901   2.220   3.307   8.688 -0.4549  0.9584 -1.0670
 5090SOL     OW26902   4.628   3.394  11.811  0.0404  0.3869 -0.9659
 5090SOL    HW126903   4.542   3.388  11.770 -0.6404  0.7761  0.4036
 5090SOL    HW226904   4.604   3.404  11.903  2.6973 -0.4125 -0.1797
 5091SOL     OW26905   4.117   0.491   8.541  0.5341  0.0585  0.8614
 5091SOL    HW126906   4.198   0.467   8.586  1.3241  0.9631 -0.0614
 5091SOL    HW226907   4.132   0.439   8.462  1.1045 -0.6558  1.4485
 5092SOL     OW26908   2.063   2.446   8.038  0.1890 -0.5670  0.0502
 5092SOL    HW126909   2.023   2.478   7.958  1.5236  0.2500 -0.2965
 5092SOL    HW226910   2.001   2.377   8.061  0.7002 -1.0034  0.1378
 5093SOL     OW26911   3.011   1.143   3.012 -0.2673 -0.2062 -0.4025
 5093SOL    HW126912   3.008   1.179   3.101 -1.0558 -1.0643 -0.0774
 5093SOL    HW226913   2.935   1.183   2.969 -0.1099  0.1300 -0.3644
 5094SOL     OW26914   1.848   0.095  15.446  0.1237 -0.0022 -0.2636
 5094SOL    HW126915   1.890   0.116  15.362  0.9505 -0.3758  0.0620
 5094SOL    HW226916   1.852   4.737  15.443 -0.8328 -0.0816  1.2535
 5095SOL     OW26917   3.809   0.133  16.801 -0.2094  1.0082  0.1573
 5095SOL    HW126918   3.748   0.068  16.836  0.5941  0.7423  1.0816
 5095SOL    HW226919   3.834   0.095  16.717  1.3313 -0.8379  1.4763
 5096SOL     OW26920   4.442   3.690  14.837  0.3194  0.2421 -0.1810
 5096SOL    HW126921   4.488   3.723  14.760 -1.1616  2.3703 -0.1458
 5096SOL    HW226922   4.513   3.706  14.899 -1.1137  2.4219  0.9048
 5097SOL     OW26923   1.917   1.583   2.269 -0.0609 -0.1671 -0.0716
 5097SOL    HW126924   1.867   1.503   2.283  1.0901 -0.9327 -0.3525
 5097SOL    HW226925   2.004   1.573   2.309 -0.7522  0.3674  1.5756
 5098SOL     OW26926   1.190   2.118  17.315  0.1123 -0.2470 -0.5145
 5098SOL    HW126927   1.119   2.054  17.306 -0.8040  0.6896  0.0726
 5098SOL    HW226928   1.143   2.186  17.364 -0.0730 -1.4592  0.9930
 5099SOL     OW26929   2.783   2.007   4.169  0.2785 -0.1035 -0.0942
 5099SOL    HW126930   2.745   1.924   4.200 -2.2362  1.3908  0.7878
 5099SOL    HW226931   2.871   1.987   4.136  0.8046  0.5262  0.9564
 5100SOL     OW26932   1.562   2.229   9.387 -0.0348 -0.1347  0.0110
 5100SOL    HW126933   1.580   2.322   9.393  0.2129 -0.1252 -0.9222
 5100SOL    HW226934   1.482   2.227   9.440 -0.2909  0.5636 -0.3531
 5101SOL     OW26935   4.402   3.744   5.361 -0.5701  0.3848  0.1573
 5101SOL    HW126936   4.443   3.783   5.284  1.4589 -1.2689  0.4006
 5101SOL    HW226937   4.428   3.652   5.363 -0.6952  0.3481  0.0953
 5102SOL     OW26938   2.746   4.091   7.746 -0.2090 -0.0836  0.3927
 5102SOL    HW126939   2.679   4.023   7.748 -1.8507  1.5534  1.8017
 5102SOL    HW226940   2.777   4.075   7.657 -1.8861  0.4058 -0.2769
 5103SOL     OW26941   4.493   2.627   4.950 -0.1709  0.4035 -0.6273
 5103SOL    HW126942   4.565   2.669   4.998 -1.7145  2.4431 -0.1369
 5103SOL    HW226943   4.527   2.614   4.861 -0.0424 -1.5867 -0.2896
 5104SOL     OW26944   0.549   0.096   5.641 -0.1723 -0.0284 -0.1334
 5104SOL    HW126945   0.567   0.002   5.645  1.7680  0.2394 -2.6151
 5104SOL    HW226946   0.454   0.100   5.655 -0.1109  0.0044  0.2898
 5105SOL     OW26947   2.699   2.426   3.371 -0.0581  0.2079 -0.3520
 5105SOL    HW126948   2.646   2.491   3.325  2.3349  1.2031 -1.7331
 5105SOL    HW226949   2.656   2.342   3.355  0.2734  0.4144 -2.3857
 5106SOL     OW26950   0.480   3.630   3.887  0.2722 -0.2393 -0.3367
 5106SOL    HW126951   0.492   3.539   3.857  1.0352 -0.6205  1.0929
 5106SOL    HW226952   0.476   3.684   3.808  1.1084 -0.9487 -0.8797
 5107SOL     OW26953   2.558   4.232   5.644 -0.0301 -0.2938 -0.1852
 5107SOL    HW126954   2.475   4.228   5.596 -0.1449  1.8829 -0.1687
 5107SOL    HW226955   2.603   4.308   5.607 -3.3198  1.4263 -0.5580
 5108SOL     OW26956   4.460   0.274  16.009  0.0734 -0.3828  0.3281
 5108SOL    HW126957   4.400   0.271  16.084 -3.5751  2.3557 -2.4380
 5108SOL    HW226958   4.417   0.340  15.954 -0.2236 -0.7854  0.0759
 5109SOL     OW26959   3.548   4.643   5.180  0.0013  0.8187 -0.2124
 5109SOL    HW126960   3.565   4.551   5.198  0.5924  0.7800 -0.9870
 5109SOL    HW226961   3.498   4.639   5.099  1.6592 -1.2808 -1.1158
 5110SOL     OW26962   2.934   3.654  11.869 -0.1923 -0.4370  0.3162
 5110SOL    HW126963   2.869   3.693  11.928  1.2524  0.0481  1.5963
 5110SOL    HW226964   2.899   3.566  11.885  0.2160 -0.6036  0.2860
 5111SOL     OW26965   2.954   4.481   4.466 -0.1741 -0.5535  0.5019
 5111SOL    HW126966   2.952   4.397   4.419 -1.2623 -0.4097  0.2835
 5111SOL    HW226967   2.900   4.537   4.410  1.5896  0.7319  0.1058
 5112SOL     OW26968   2.530   4.608   9.174  0.8769 -0.3667 -0.4933
 5112SOL    HW126969   2.446   4.569   9.199  0.8003 -0.3332 -0.6901
 5112SOL    HW226970   2.582   4.530   9.192 -0.6171 -1.6969 -1.8967
 5113SOL     OW26971   3.481   4.494  13.549 -0.1241  0.3441  0.1331
 5113SOL    HW126972   3.444   4.423  13.496 -1.0711  0.3505  0.7853
 5113SOL    HW226973   3.399   4.539  13.570 -1.2536 -0.7334 -1.8604
 5114SOL     OW26974   0.910   4.497  17.480 -0.0986 -0.0405 -0.1247
 5114SOL    HW126975   0.961   4.559  17.428  1.2906 -1.0581  0.0414
 5114SOL    HW226976   0.953   4.412  17.469  1.6713  0.9825 -1.1376
 5115SOL     OW26977   4.157   1.716   3.732  0.3538  0.3222  0.0097
 5115SOL    HW126978   4.075   1.674   3.758  0.9257  0.1551  1.5883
 5115SOL    HW226979   4.142   1.738   3.641 -0.3842 -1.6165 -0.3402
 5116SOL     OW26980   4.036   3.760   4.118  0.2370 -0.5702 -0.2210
 5116SOL    HW126981   4.120   3.783   4.156  0.9089 -0.0378 -2.0401
 5116SOL    HW226982   3.972   3.776   4.187  0.1998 -0.0423 -0.3762
 5117SOL     OW26983   2.675   2.557  11.564  0.5660  0.2574  0.1520
 5117SOL    HW126984   2.622   2.575  11.486  1.0497 -2.9146 -0.9133
 5117SOL    HW226985   2.711   2.469  11.551  1.3536  0.4593  1.0446
 5118SOL     OW26986   0.260   2.562   0.744 -0.3965  0.4662  0.2023
 5118SOL    HW126987   0.230   2.512   0.668  2.8356 -2.7955  1.0616
 5118SOL    HW226988   0.267   2.652   0.711  3.2710 -0.9042 -2.6723
 5119SOL     OW26989   2.065   2.081   6.440  0.1754 -0.1821 -0.5066
 5119SOL    HW126990   2.120   2.021   6.490  0.2843 -0.3845 -0.8623
 5119SOL    HW226991   2.029   2.014   6.382  2.4407 -1.7151 -0.1713
 5120SOL     OW26992   4.409   0.047   9.677 -0.3197  0.3138 -0.5151
 5120SOL    HW126993   4.475   0.113   9.700 -0.8923 -0.1449  2.4689
 5120SOL    HW226994   4.410   0.063   9.583  1.5226 -2.9090 -1.0266
 5121SOL     OW26995   3.240   3.919   7.092 -0.1339 -0.1686  0.3863
 5121SOL    HW126996   3.302   3.915   7.165  1.3240 -2.4569 -0.9814
 5121SOL    HW226997   3.257   4.008   7.063  0.1607 -0.6146 -0.8104
 5122SOL     OW26998   2.957   4.136   6.730 -0.0843  0.1280  0.0332
 5122SOL    HW126999   3.006   4.069   6.681 -0.5553  0.5783 -1.0559
 5122SOL    HW227000   3.032   4.196   6.734 -0.4532  0.6028 -0.2059
 5123SOL     OW27001   4.158   4.504  16.836  0.6405 -0.4022  0.3295
 5123SOL    HW127002   4.219   4.431  16.824  0.2736 -0.3652 -1.7615
 5123SOL    HW227003   4.083   4.458  16.874 -0.4641  2.7039  1.8868
 5124SOL     OW27004   3.305   2.762   1.573  0.7474 -0.3155  0.3179
 5124SOL    HW127005   3.228   2.719   1.535 -0.1233 -0.1946  1.9670
 5124SOL    HW227006   3.368   2.690   1.582 -0.2135 -1.2521 -0.3493
 5125SOL     OW27007   0.880   4.496   6.438 -0.0368 -0.2295  0.0189
 5125SOL    HW127008   0.948   4.446   6.392 -1.9934 -0.7858 -2.2378
 5125SOL    HW227009   0.883   4.449   6.521  0.7620 -1.2594 -0.5921
 5126SOL     OW27010   2.080   1.495   4.234  0.0174 -0.5681 -0.1278
 5126SOL    HW127011   2.124   1.535   4.159  0.6304 -2.7523 -0.9327
 5126SOL    HW227012   2.026   1.564   4.273  0.8443 -0.0246  0.0577
 5127SOL     OW27013   1.326   1.509   6.876  0.0474  0.2341  0.6482
 5127SOL    HW127014   1.400   1.531   6.820 -0.6337  0.5123 -0.1501
 5127SOL    HW227015   1.270   1.467   6.810  0.4259 -1.2854  1.2821
 5128SOL     OW27016   3.795   3.411   3.077 -0.5102  0.3199 -0.7322
 5128SOL    HW127017   3.830   3.329   3.110 -1.9416  0.3243  0.7772
 5128SOL    HW227018   3.757   3.448   3.156  2.5876  1.3881  0.2663
 5129SOL     OW27019   0.047   4.084   9.481  0.1664  0.0846  0.1658
 5129SOL    HW127020   4.725   4.129   9.421  0.3021 -0.7052 -0.5525
 5129SOL    HW227021   0.099   4.042   9.413  0.1112  1.5763 -0.7911
 5130SOL     OW27022   1.940   0.845  17.050  0.1934  0.3866  0.5551
 5130SOL    HW127023   1.900   0.900  17.117 -4.0128 -1.6435 -0.3066
 5130SOL    HW227024   1.947   0.899  16.972 -0.3046 -2.2120 -1.2969
 5131SOL     OW27025   0.413   2.438   8.503  0.0687  0.3939  0.0412
 5131SOL    HW127026   0.388   2.530   8.508 -1.4063 -0.0176  0.2223
 5131SOL    HW227027   0.339   2.399   8.549  0.4707  1.3485  1.5079
 5132SOL     OW27028   0.551   0.565   3.337  0.3561  0.0541  0.7156
 5132SOL    HW127029   0.583   0.478   3.359  0.6209 -0.0077  0.0661
 5132SOL    HW227030   0.574   0.572   3.245  2.7956 -1.5317  1.2028
 5133SOL     OW27031   4.031   0.984  12.652  0.3528 -0.5283 -0.1481
 5133SOL    HW127032   4.125   1.001  12.647 -0.1112  2.0746  0.0650
 5133SOL    HW227033   4.005   1.047  12.719  2.5337 -0.7332  0.8681
 5134SOL     OW27034   4.266   0.090   4.978  0.5215  0.7629 -0.1028
 5134SOL    HW127035   4.255   0.121   4.888  0.4566  2.0354  0.3450
 5134SOL    HW227036   4.210   0.157   5.018 -0.1577  0.2559 -0.2203
 5135SOL     OW27037   3.804   1.717   7.668  0.8013  0.2763 -0.5969
 5135SOL    HW127038   3.728   1.773   7.649  1.1963  0.7632 -0.7299
 5135SOL    HW227039   3.765   1.659   7.734 -0.2461  1.4902 -0.1446
 5136SOL     OW27040   4.517   0.214   2.379 -0.5162 -0.4396  0.1992
 5136SOL    HW127041   4.518   0.310   2.372 -0.6720 -0.5467 -1.2488
 5136SOL    HW227042   4.598   0.205   2.428  0.8028 -0.4214 -2.0067
 5137SOL     OW27043   1.321   4.616  15.608 -1.0114  0.1788  0.2235
 5137SOL    HW127044   1.286   4.573  15.686 -0.3977 -0.8729 -0.0881
 5137SOL    HW227045   1.364   4.693  15.647 -1.2848  0.5874 -0.2978
 5138SOL     OW27046   2.278   2.968   7.792 -0.3692 -0.2399  0.5811
 5138SOL    HW127047   2.300   2.883   7.828 -1.0768 -0.7339 -0.1458
 5138SOL    HW227048   2.208   2.938   7.734 -0.6754  0.3524  0.6422
 5139SOL     OW27049   3.128   0.941  15.580 -0.2239  0.2284 -0.4698
 5139SOL    HW127050   3.101   0.930  15.671 -0.0952  0.9207 -0.3462
 5139SOL    HW227051   3.206   0.886  15.585 -0.9579 -0.8071 -0.4505
 5140SOL     OW27052   4.469   3.000   3.176 -0.4462 -0.5651 -0.1224
 5140SOL    HW127053   4.508   2.985   3.262 -1.0436 -1.9249 -0.0751
 5140SOL    HW227054   4.375   3.014   3.180 -0.1462  1.1385  0.6882
 5141SOL     OW27055   3.497   1.575   4.656  0.0863  0.2549 -0.8404
 5141SOL    HW127056   3.426   1.613   4.604 -0.4660 -1.6578 -1.4853
 5141SOL    HW227057   3.517   1.645   4.718  0.2426  1.1438 -1.9025
 5142SOL     OW27058   2.273   2.504   3.050 -0.1066 -0.5289 -0.5403
 5142SOL    HW127059   2.178   2.515   3.042  0.1081  1.9336  0.2967
 5142SOL    HW227060   2.302   2.577   2.995  1.4694 -0.3547  0.5284
 5143SOL     OW27061   3.030   1.546   7.305  0.5216  0.0627 -0.1227
 5143SOL    HW127062   3.119   1.581   7.308  0.0529  1.4474 -2.6525
 5143SOL    HW227063   2.991   1.605   7.369  1.7362  0.7529 -0.0318
 5144SOL     OW27064   1.334   4.691   0.647 -0.2101 -0.1132 -0.2658
 5144SOL    HW127065   1.415   4.675   0.600 -1.2506  1.0857 -2.4437
 5144SOL    HW227066   1.335   4.625   0.716 -1.4185 -0.1873 -0.3178
 5145SOL     OW27067   3.489   3.303   4.277  0.3520 -0.4265  0.1665
 5145SOL    HW127068   3.511   3.228   4.332 -0.8056 -0.1297  1.0356
 5145SOL    HW227069   3.508   3.374   4.338  0.1186 -1.3046  1.2538
 5146SOL     OW27070   1.831   3.753   6.677  0.4523  0.1347  0.2530
 5146SOL    HW127071   1.818   3.747   6.582 -0.0084  0.4835  0.2967
 5146SOL    HW227072   1.785   3.676   6.712 -1.4927  2.6980  3.3019
 5147SOL     OW27073   3.655   1.548   4.422 -0.1229 -0.0965  0.0389
 5147SOL    HW127074   3.604   1.545   4.503  1.0631 -2.0101  0.7048
 5147SOL    HW227075   3.649   1.642   4.406  1.8198 -0.4170 -2.5707
 5148SOL     OW27076   1.675   3.216   9.549 -0.3333  0.8602 -0.1199
 5148SOL    HW127077   1.722   3.274   9.489 -0.0561  2.1219  1.3137
 5148SOL    HW227078   1.733   3.224   9.625  0.3122  0.5293 -0.5814
 5149SOL     OW27079   3.033   0.067   5.439 -0.2009  0.1208 -0.0604
 5149SOL    HW127080   2.985   0.058   5.356 -0.9012 -0.3646  0.3918
 5149SOL    HW227081   3.118   0.095   5.405 -0.2014 -1.2862 -1.2084
 5150SOL     OW27082   2.616   4.605   0.934  0.4480  0.2316 -0.0412
 5150SOL    HW127083   2.629   4.511   0.920  1.7474  0.2693  0.8478
 5150SOL    HW227084   2.523   4.599   0.956  0.4071 -1.9745 -0.8493
 5151SOL     OW27085   3.993   4.141   3.069  0.5822 -0.2203  0.9890
 5151SOL    HW127086   4.054   4.176   3.003 -0.9470 -0.4186 -0.5242
 5151SOL    HW227087   3.942   4.080   3.016  2.0022 -1.7567  1.4015
 5152SOL     OW27088   3.041   0.686  16.075 -0.8106 -0.0018  0.1500
 5152SOL    HW127089   3.022   0.779  16.065 -0.5542  0.1709  1.2340
 5152SOL    HW227090   3.113   0.682  16.013 -1.1078  1.5229 -0.2853
 5153SOL     OW27091   3.701   3.363   8.800 -0.1569 -0.2575  0.5964
 5153SOL    HW127092   3.739   3.328   8.881 -1.8985 -0.0890  1.4941
 5153SOL    HW227093   3.609   3.341   8.815  0.4815 -2.4595  1.2319
 5154SOL     OW27094   4.095   4.430   4.715  0.1278  0.6290 -0.0079
 5154SOL    HW127095   4.095   4.383   4.632  0.9078 -1.0502  0.9359
 5154SOL    HW227096   4.161   4.497   4.701  1.5444 -0.2883  2.3050
 5155SOL     OW27097   3.850   0.481   7.687 -0.3522  0.5149 -0.1707
 5155SOL    HW127098   3.865   0.415   7.755 -1.5066  1.9042  1.4056
 5155SOL    HW227099   3.831   0.414   7.620 -1.3001  1.0038 -0.3839
 5156SOL     OW27100   1.629   1.100   8.762 -0.6517  0.1004  0.2630
 5156SOL    HW127101   1.559   1.139   8.813  0.0037 -0.5655  1.6648
 5156SOL    HW227102   1.694   1.088   8.831 -1.9512  0.0686  1.4825
 5157SOL     OW27103   2.929   2.859   7.867  0.2257 -0.5939  0.4133
 5157SOL    HW127104   2.895   2.903   7.789 -0.9273  0.9472  1.7887
 5157SOL    HW227105   2.875   2.909   7.928 -0.3773 -0.4259 -0.2609
 5158SOL     OW27106   1.918   3.935   4.619  0.5890 -0.4123  0.0649
 5158SOL    HW127107   1.964   3.870   4.673 -1.9562 -2.1401  0.1620
 5158SOL    HW227108   1.997   3.945   4.565 -0.7978  1.9951 -1.5116
 5159SOL     OW27109   0.574   3.371   3.686  0.6497 -0.0761  0.3737
 5159SOL    HW127110   0.651   3.316   3.697  0.1609 -0.7619  0.3046
 5159SOL    HW227111   0.590   3.413   3.601  1.2846 -0.5090  0.2840
 5160SOL     OW27112   0.172   1.181   1.674 -0.1540  0.1660  0.7529
 5160SOL    HW127113   0.255   1.137   1.692 -1.9197 -2.9721  1.1984
 5160SOL    HW227114   0.182   1.243   1.747 -0.9261  0.9002  0.2309
 5161SOL     OW27115   4.208   1.230  11.631  0.2454  0.0354 -0.3990
 5161SOL    HW127116   4.262   1.306  11.651 -0.5924  0.4806  0.1552
 5161SOL    HW227117   4.134   1.254  11.686  0.2197 -0.0448 -0.3990
 5162SOL     OW27118   4.002   2.105   7.839 -0.3929 -0.1291 -0.1546
 5162SOL    HW127119   4.017   2.198   7.856 -2.4532 -0.0335  1.0114
 5162SOL    HW227120   4.076   2.077   7.784  0.3425 -0.6743  1.1100
 5163SOL     OW27121   4.260   2.914   6.226 -0.5028  0.1778 -0.0171
 5163SOL    HW127122   4.244   2.881   6.138  1.2424  0.2026 -0.3268
 5163SOL    HW227123   4.347   2.952   6.224 -0.5188  0.5034  4.1659
 5164SOL     OW27124   3.003   1.383   7.945 -0.1054 -0.0421 -0.2116
 5164SOL    HW127125   3.077   1.379   7.885  0.3277  2.6989  0.1475
 5164SOL    HW227126   3.015   1.296   7.983 -0.9347  0.2224  0.6612
 5165SOL     OW27127   4.198   2.715   5.248  0.2104 -0.2923  0.0026
 5165SOL    HW127128   4.213   2.660   5.171  1.1892  1.9689 -1.4080
 5165SOL    HW227129   4.283   2.759   5.254 -0.0482  0.0759  1.1241
 5166SOL     OW27130   4.525   3.671   6.073 -0.0434 -0.2574 -0.6853
 5166SOL    HW127131   4.590   3.693   6.006  1.6545  1.7185  1.6082
 5166SOL    HW227132   4.484   3.757   6.082  2.6306  1.0474 -1.0622
 5167SOL     OW27133   0.235   1.615   6.682  0.7608 -0.4951  0.2843
 5167SOL    HW127134   0.157   1.562   6.671  0.0635  0.8121 -1.1246
 5167SOL    HW227135   0.304   1.548   6.679  0.5215 -0.6740 -1.3565
 5168SOL     OW27136   4.251   4.277   9.083  0.8357 -0.2820  0.3864
 5168SOL    HW127137   4.190   4.259   9.011  1.2207 -1.1861  0.2887
 5168SOL    HW227138   4.241   4.190   9.123  0.5726 -0.0284  0.8668
 5169SOL     OW27139   1.847   1.878   4.908 -0.3021  0.2809 -0.6072
 5169SOL    HW127140   1.903   1.811   4.947  1.8151  1.7751 -1.1248
 5169SOL    HW227141   1.908   1.951   4.913  0.4421 -0.3397 -0.5944
 5170SOL     OW27142   0.156   0.907  16.028  0.0733 -0.3909  0.7430
 5170SOL    HW127143   0.119   0.892  16.115  1.0883  1.9457  1.5926
 5170SOL    HW227144   0.248   0.887  16.045  0.6658 -0.3898 -2.3728
 5171SOL     OW27145   3.807   2.398   2.443 -0.2880  0.1464  0.2728
 5171SOL    HW127146   3.902   2.390   2.447 -0.1636  2.1656  1.5449
 5171SOL    HW227147   3.788   2.416   2.351 -0.5782  2.2228  0.7210
 5172SOL     OW27148   2.401   2.505   7.425  0.3322  0.5234  0.3940
 5172SOL    HW127149   2.483   2.545   7.453  1.4437 -0.4517 -1.5181
 5172SOL    HW227150   2.346   2.584   7.425 -1.4440 -0.6982  0.5860
 5173SOL     OW27151   2.389   2.346  17.037 -0.3687 -0.2693 -0.0968
 5173SOL    HW127152   2.373   2.374  16.947 -0.9893 -0.5561 -0.0766
 5173SOL    HW227153   2.355   2.257  17.028 -1.7205  0.1601  0.6576
 5174SOL     OW27154   0.900   0.653   7.781 -0.0509  0.4410  0.3598
 5174SOL    HW127155   0.820   0.687   7.820  0.4608  0.8203  1.0714
 5174SOL    HW227156   0.871   0.573   7.738  1.5389  0.3436 -0.5289
 5175SOL     OW27157   3.576   2.356   4.184 -0.5454 -0.2249  0.0106
 5175SOL    HW127158   3.590   2.262   4.173  2.7372 -0.1015  3.2439
 5175SOL    HW227159   3.638   2.387   4.117 -1.7099 -1.3743 -1.5957
 5176SOL     OW27160   2.844   2.523   5.068  0.0418  0.2215  1.0351
 5176SOL    HW127161   2.820   2.479   5.149  0.8863 -1.0585  0.5873
 5176SOL    HW227162   2.786   2.476   5.008 -1.6222  1.8012  1.4115
 5177SOL     OW27163   0.096   2.581  16.898 -0.8879 -0.2639  0.4194
 5177SOL    HW127164   0.088   2.613  16.808 -0.1277  1.8886  1.1280
 5177SOL    HW227165   0.044   2.501  16.891  1.0605 -1.4819 -0.4324
 5178SOL     OW27166   1.426   3.399   6.005 -0.4161 -1.0801  0.2944
 5178SOL    HW127167   1.517   3.376   5.988 -0.7285 -1.0471 -1.5165
 5178SOL    HW227168   1.395   3.308   6.003 -0.0211 -1.2219  0.6719
 5179SOL     OW27169   4.354   3.498   5.193  0.7401 -0.2896 -0.7811
 5179SOL    HW127170   4.357   3.588   5.161  0.7610 -0.8832 -2.4383
 5179SOL    HW227171   4.428   3.500   5.254 -0.5028  2.1168  0.6434
 5180SOL     OW27172   4.676   2.331  14.324  0.0998  0.0163 -0.0597
 5180SOL    HW127173   0.019   2.346  14.374 -0.6853  1.5168  0.7914
 5180SOL    HW227174   4.639   2.256  14.369  1.3458 -1.3797 -1.3713
 5181SOL     OW27175   3.382   0.168   4.131 -0.0937 -0.3219  0.5054
 5181SOL    HW127176   3.451   0.103   4.118 -0.3306 -0.5107  0.1999
 5181SOL    HW227177   3.352   0.177   4.041 -2.6600 -1.0679  1.3082
 5182SOL     OW27178   0.208   1.768   5.752  0.5593 -0.7254  0.1791
 5182SOL    HW127179   0.298   1.779   5.782  0.7713  1.8131 -1.3822
 5182SOL    HW227180   0.165   1.726   5.826 -0.5229  0.6141  0.3020
 5183SOL     OW27181   0.461   0.874   6.745  0.1623 -0.3784 -0.1177
 5183SOL    HW127182   0.400   0.894   6.816  0.5826  0.7559 -0.0788
 5183SOL    HW227183   0.415   0.804   6.698 -0.2991 -0.7956  0.9622
 5184SOL     OW27184   3.011   0.995  14.815  0.2284 -0.8315  0.4744
 5184SOL    HW127185   3.074   1.067  14.815 -0.7585  0.0231 -0.6479
 5184SOL    HW227186   2.942   1.046  14.773  0.2841  0.5606  2.0748
 5185SOL     OW27187   3.974   2.977  15.776 -0.1500 -0.6265  0.3508
 5185SOL    HW127188   3.955   3.068  15.753  1.4223  0.0147  1.5313
 5185SOL    HW227189   3.903   2.926  15.737 -2.0461  1.4647  1.0602
 5186SOL     OW27190   2.368   2.255  17.310 -0.0920 -0.1403 -0.2033
 5186SOL    HW127191   2.310   2.181  17.295 -1.2159  1.0178 -1.4755
 5186SOL    HW227192   2.396   2.282  17.223  1.6323  0.1670  0.4396
 5187SOL     OW27193   4.429   1.313   3.088  0.1567 -0.2676 -0.2454
 5187SOL    HW127194   4.491   1.386   3.094  1.4114 -1.6384  3.7757
 5187SOL    HW227195   4.423   1.295   3.182 -0.5518  1.4474  0.0376
 5188SOL     OW27196   4.665   0.699   6.270  0.2268  0.0964 -0.5827
 5188SOL    HW127197   4.727   0.627   6.282 -2.1678 -1.4138  2.5908
 5188SOL    HW227198   4.649   0.698   6.175  1.8971  1.5605 -0.8856
 5189SOL     OW27199   1.605   3.103   6.599 -0.2146 -0.3830  0.0563
 5189SOL    HW127200   1.637   3.184   6.558  2.0612 -1.1365  0.3531
 5189SOL    HW227201   1.524   3.127   6.644 -0.1082  0.2378 -0.0744
 5190SOL     OW27202   0.122   2.204   6.566  0.2796  0.3763 -0.1040
 5190SOL    HW127203   0.175   2.147   6.511 -0.6107  1.1658 -1.7892
 5190SOL    HW227204   0.157   2.292   6.554  1.9078 -0.4437 -1.2694
 5191SOL     OW27205   1.072   2.799   2.737  0.1593 -0.2070  0.4849
 5191SOL    HW127206   1.010   2.726   2.738 -1.3626  1.1281  1.9351
 5191SOL    HW227207   1.159   2.765   2.715  0.4331  0.3383  0.7329
 5192SOL     OW27208   2.358   0.173   3.619  0.0815 -0.0999  0.4939
 5192SOL    HW127209   2.443   0.138   3.645  0.3037 -0.7855 -1.2055
 5192SOL    HW227210   2.300   0.106   3.654  0.5218  0.5166  2.4122
 5193SOL     OW27211   2.037   3.712   6.086 -0.2528  0.3056  0.4423
 5193SOL    HW127212   2.064   3.729   5.996 -1.4570  0.0540  0.0449
 5193SOL    HW227213   2.119   3.673   6.118 -0.7571  0.7473  2.3073
 5194SOL     OW27214   3.423   4.462   9.208  0.0165 -0.2457 -0.2529
 5194SOL    HW127215   3.327   4.468   9.211  0.1074  1.0733 -0.0775
 5194SOL    HW227216   3.436   4.422   9.122  2.9368 -0.8678  0.4893
 5195SOL     OW27217   4.445   0.029   7.151  0.2891  0.0871  0.1653
 5195SOL    HW127218   4.504   4.699   7.184  1.8246  0.5259 -1.6955
 5195SOL    HW227219   4.492   0.046   7.070  0.8037 -1.9740  0.0510
 5196SOL     OW27220   4.274   2.009  12.397  0.1961 -0.3081 -0.3609
 5196SOL    HW127221   4.254   1.989  12.306  3.6830 -2.0767 -0.6982
 5196SOL    HW227222   4.208   2.075  12.420 -0.6914 -1.1687 -0.4605
 5197SOL     OW27223   3.939   4.009   3.585 -0.3913  0.2121 -0.1948
 5197SOL    HW127224   3.845   3.998   3.600 -0.2952 -0.6896 -0.2951
 5197SOL    HW227225   3.946   4.101   3.560 -0.8883 -0.3014 -2.2454
 5198SOL     OW27226   2.565   2.671   5.770 -0.3925 -0.5284  0.5743
 5198SOL    HW127227   2.551   2.727   5.847 -0.7824  1.5987 -1.0526
 5198SOL    HW227228   2.601   2.734   5.708 -1.0736  1.3086  2.0206
 5199SOL     OW27229   2.736   4.111   4.095  0.0643 -0.1107  0.2200
 5199SOL    HW127230   2.668   4.119   4.027  1.0179  1.3940 -0.5641
 5199SOL    HW227231   2.717   4.030   4.142  0.3132 -0.8525 -0.9489
 5200SOL     OW27232   3.469   4.321   8.599 -0.3327 -0.0056 -0.3149
 5200SOL    HW127233   3.502   4.353   8.515  0.7397  1.2986  0.6123
 5200SOL    HW227234   3.437   4.235   8.571 -2.5306  0.5299  0.5604
 5201SOL     OW27235   3.406   0.014   9.305  0.0872 -0.0956  0.1111
 5201SOL    HW127236   3.414   0.068   9.227 -1.0411 -2.4499 -1.6561
 5201SOL    HW227237   3.458   4.682   9.266  3.3270  2.5656 -0.2552
 5202SOL     OW27238   4.250   3.599  12.694  0.0678  0.4397 -0.6202
 5202SOL    HW127239   4.207   3.598  12.609 -0.1328  0.9611 -0.5281
 5202SOL    HW227240   4.303   3.678  12.691  0.4285  0.2546  0.9608
 5203SOL     OW27241   3.911   1.474   4.750  0.5426  0.2290  0.0534
 5203SOL    HW127242   3.857   1.531   4.804  1.1764  0.7708  0.1158
 5203SOL    HW227243   3.948   1.420   4.820 -1.6201  1.9746  2.5045
 5204SOL     OW27244   1.688   0.097   7.135 -0.2700  0.6739  0.3634
 5204SOL    HW127245   1.725   0.086   7.048  3.3665  0.5414  1.9079
 5204SOL    HW227246   1.625   0.168   7.126 -1.0689 -0.0465  0.2538
 5205SOL     OW27247   4.646   2.528   9.097 -0.1736  0.2249  0.2128
 5205SOL    HW127248   4.672   2.608   9.143 -0.7101  0.2898  0.3979
 5205SOL    HW227249   4.718   2.467   9.114  0.9342  1.3639 -0.3801
 5206SOL     OW27250   3.097   1.314   6.113 -0.3779 -0.0443 -0.1113
 5206SOL    HW127251   3.030   1.269   6.163 -1.8584 -0.8179 -2.7769
 5206SOL    HW227252   3.051   1.299   6.030 -1.8303  1.5791  0.3940
 5207SOL     OW27253   3.494   2.179   8.343  0.3256 -0.6347  0.3024
 5207SOL    HW127254   3.585   2.154   8.356  1.0506  2.7789  1.8533
 5207SOL    HW227255   3.490   2.183   8.248  0.6184 -0.1871  0.3102
 5208SOL     OW27256   3.606   1.173  11.238 -0.2129  0.1948 -0.5302
 5208SOL    HW127257   3.613   1.267  11.254  0.9283 -0.1921  1.2109
 5208SOL    HW227258   3.512   1.159  11.237 -0.7838  4.0293 -1.9926
 5209SOL     OW27259   3.958   3.720  10.672  0.4018  0.5256 -0.3012
 5209SOL    HW127260   3.985   3.629  10.686 -2.6420 -0.1998  0.9125
 5209SOL    HW227261   3.956   3.747  10.764 -1.4895 -0.8036  0.0617
 5210SOL     OW27262   0.203   1.136   3.723 -0.4290  0.3895  0.7413
 5210SOL    HW127263   0.158   1.091   3.652 -1.6110  2.1649  0.3880
 5210SOL    HW227264   0.202   1.227   3.692 -1.3795 -0.3044 -1.2375
 5211SOL     OW27265   1.504   2.827  11.577 -0.3138  0.4154 -0.0538
 5211SOL    HW127266   1.497   2.922  11.582  0.6205  0.5708 -1.4235
 5211SOL    HW227267   1.599   2.816  11.567 -0.3988  0.5419 -0.9811
 5212SOL     OW27268   4.616   1.281   1.440 -0.2331 -0.6234  0.6493
 5212SOL    HW127269   4.677   1.208   1.448  2.5227  1.5373 -0.6228
 5212SOL    HW227270   4.544   1.236   1.395 -0.7906  1.1582 -0.2772
 5213SOL     OW27271   4.508   1.972  16.712  0.0131 -0.1647  0.5826
 5213SOL    HW127272   4.428   1.962  16.662 -0.2442 -0.7234  1.1125
 5213SOL    HW227273   4.569   1.935  16.648 -0.6730 -0.2869  0.0010
 5214SOL     OW27274   4.018   3.237   7.615  0.2407  0.1600  0.0042
 5214SOL    HW127275   3.926   3.232   7.641  0.1076 -0.0355 -0.5058
 5214SOL    HW227276   4.053   3.303   7.675  0.8200  1.9199 -2.2774
 5215SOL     OW27277   0.179   1.020   5.194  0.5367  0.3155 -0.8666
 5215SOL    HW127278   0.149   1.106   5.225 -1.1754 -0.4763 -0.2889
 5215SOL    HW227279   0.202   1.048   5.105  1.8689  1.7263 -0.0734
 5216SOL     OW27280   4.363   1.109  14.111 -0.5461 -0.2705 -0.4213
 5216SOL    HW127281   4.403   1.024  14.093 -0.2698 -0.2292  0.0236
 5216SOL    HW227282   4.342   1.089  14.202 -0.1174  2.5623  0.2999
 5217SOL     OW27283   3.295   4.066   4.531 -0.7325 -0.0344 -0.1972
 5217SOL    HW127284   3.342   3.995   4.575  2.3245  1.7728 -0.4909
 5217SOL    HW227285   3.371   4.101   4.484 -0.0790  0.2001  1.0267
 5218SOL     OW27286   4.117   3.115  17.031  0.1365  0.2921  0.4460
 5218SOL    HW127287   4.075   3.069  16.958 -0.5714  1.1414  0.3099
 5218SOL    HW227288   4.101   3.054  17.103 -0.0649  0.8278  0.8540
 5219SOL     OW27289   4.646   1.767   7.438  0.5035  0.3151  0.6293
 5219SOL    HW127290   4.656   1.815   7.520  2.7049  0.2817  0.3812
 5219SOL    HW227291   4.690   1.688   7.469  0.6031  0.3128  0.4804
 5220SOL     OW27292   0.298   0.054  11.536 -0.0620  0.0351  0.0120
 5220SOL    HW127293   0.334   4.715  11.492 -0.0731 -0.5053  0.9418
 5220SOL    HW227294   0.358   0.063  11.610 -0.4706  0.5137  0.2920
 5221SOL     OW27295   3.244   3.815   0.916  0.7271 -0.0135  0.1454
 5221SOL    HW127296   3.264   3.860   0.998 -2.4457 -3.1187  2.6318
 5221SOL    HW227297   3.323   3.831   0.864 -0.1936 -0.9149 -1.5204
 5222SOL     OW27298   3.158   4.213   5.054 -0.2470 -0.4987  0.3270
 5222SOL    HW127299   3.071   4.175   5.067 -1.1543  1.4548  0.0398
 5222SOL    HW227300   3.184   4.233   5.144  0.3007  0.1092  0.0309
 5223SOL     OW27301   4.208   0.232  14.126 -0.1131 -0.7907 -0.4498
 5223SOL    HW127302   4.275   0.183  14.079  1.8676  0.3957  1.1123
 5223SOL    HW227303   4.207   0.198  14.216 -1.2579 -0.4503 -0.3278
 5224SOL     OW27304   1.879   3.938   9.309  0.0367  0.5167  0.7123
 5224SOL    HW127305   1.946   3.878   9.342  1.0830  1.1060 -0.3850
 5224SOL    HW227306   1.878   4.010   9.373 -1.2464  0.9417  0.2139
 5225SOL     OW27307   3.323   2.599   8.748 -0.1753  0.1878 -0.6178
 5225SOL    HW127308   3.394   2.583   8.811 -1.1886  2.0311  0.9717
 5225SOL    HW227309   3.301   2.508   8.726 -0.1565  0.2031 -0.6996
 5226SOL     OW27310   3.373   0.508  10.318  0.4139  0.6579 -0.2479
 5226SOL    HW127311   3.407   0.424  10.288  0.6643  0.2608  1.1206
 5226SOL    HW227312   3.367   0.555  10.235 -0.0911  0.8713 -0.0856
 5227SOL     OW27313   4.187   1.198   1.527 -0.8485  0.8279  0.5203
 5227SOL    HW127314   4.270   1.178   1.485 -2.1361 -0.2136 -1.5294
 5227SOL    HW227315   4.125   1.135   1.491  1.6742 -0.8634 -0.8254
 5228SOL     OW27316   1.730   3.872   2.390  0.3561 -0.3104 -0.1899
 5228SOL    HW127317   1.636   3.862   2.406  0.1682 -0.4998 -1.4172
 5228SOL    HW227318   1.727   3.884   2.295 -1.3706  0.3940 -0.0441
 5229SOL     OW27319   1.400   4.591   0.312  0.2727 -0.8075 -0.1173
 5229SOL    HW127320   1.364   4.503   0.320  0.2393 -0.8154 -0.3589
 5229SOL    HW227321   1.350   4.619   0.235 -0.3461  0.9135  0.8884
 5230SOL     OW27322   2.322   1.956   3.910 -0.0196  0.1299  0.0541
 5230SOL    HW127323   2.416   1.974   3.919 -0.1709  2.2227 -2.5487
 5230SOL    HW227324   2.298   1.950   4.002  0.4525 -1.1857  0.0916
 5231SOL     OW27325   1.215   0.946  13.950 -0.4014  0.0691 -0.6770
 5231SOL    HW127326   1.197   0.991  13.867 -2.4764 -0.7687 -0.6790
 5231SOL    HW227327   1.268   1.014  13.991 -0.0828 -1.6348  1.7614
 5232SOL     OW27328   1.929   0.349   5.550  0.7468 -0.2214  0.0085
 5232SOL    HW127329   1.842   0.344   5.590  0.6723  0.1392 -0.1072
 5232SOL    HW227330   1.913   0.337   5.457  0.9523 -1.0490  0.0790
 5233SOL     OW27331   4.315   1.282   5.506 -0.1749 -0.0149 -0.0007
 5233SOL    HW127332   4.239   1.264   5.560 -0.2344  1.8598  0.5536
 5233SOL    HW227333   4.367   1.203   5.524 -0.5009 -0.2446 -0.0739
 5234SOL     OW27334   0.817   4.734   8.442 -0.5097  0.2575 -0.0977
 5234SOL    HW127335   0.839   4.668   8.376 -1.0862  0.5100 -0.5434
 5234SOL    HW227336   0.897   0.047   8.448 -1.8038  2.0996  1.6039
 5235SOL     OW27337   0.937   4.141   7.500 -0.2389  0.1215  0.0869
 5235SOL    HW127338   0.872   4.206   7.473 -0.3353 -0.3921 -0.9256
 5235SOL    HW227339   0.998   4.195   7.549 -3.0552  2.7657  0.6600
 5236SOL     OW27340   3.306   3.945   3.923 -0.1193  0.1250 -0.5154
 5236SOL    HW127341   3.296   4.039   3.907  3.8085  0.6728  0.1464
 5236SOL    HW227342   3.401   3.929   3.920  0.0394  0.8868  0.8029
 5237SOL     OW27343   2.651   0.276   6.405  0.0425  0.0471  0.1023
 5237SOL    HW127344   2.739   0.306   6.382 -0.2243  1.3144  0.6944
 5237SOL    HW227345   2.630   0.248   6.316  2.1991 -0.8153 -0.1272
 5238SOL     OW27346   2.679   1.841  11.873  0.1409  0.3344  0.0835
 5238SOL    HW127347   2.587   1.868  11.864  0.0730  0.2682  0.5403
 5238SOL    HW227348   2.723   1.923  11.894  0.7068 -0.5457  2.3529
 5239SOL     OW27349   0.260   2.243   3.692 -0.6780 -0.0500 -0.2316
 5239SOL    HW127350   0.232   2.258   3.782 -0.4186 -0.9433 -0.0014
 5239SOL    HW227351   0.320   2.312   3.664 -1.0568 -0.3009 -1.6934
 5240SOL     OW27352   1.356   2.703   8.763  0.0389 -0.3383 -0.5174
 5240SOL    HW127353   1.439   2.688   8.718  0.0655 -1.5351 -0.0743
 5240SOL    HW227354   1.316   2.759   8.696 -0.6409  1.3433  1.2825
 5241SOL     OW27355   0.629   2.823   2.453 -0.5568  0.3177  0.2891
 5241SOL    HW127356   0.657   2.891   2.391  0.3210 -1.5466 -1.3460
 5241SOL    HW227357   0.637   2.871   2.535  1.5899  0.2252  0.1345
 5242SOL     OW27358   1.462   4.606   8.520  0.6433  1.1406 -0.1290
 5242SOL    HW127359   1.391   4.617   8.457 -0.2932 -0.6551  0.6245
 5242SOL    HW227360   1.417   4.642   8.596 -0.6333  2.7878 -1.6722
 5243SOL     OW27361   2.978   1.650  16.783  0.0090 -0.3057  0.2931
 5243SOL    HW127362   3.006   1.604  16.704  0.2706 -0.5136  0.5103
 5243SOL    HW227363   2.933   1.723  16.740  0.9566 -0.4243 -0.9278
 5244SOL     OW27364   3.076   3.579   7.035  0.5086 -0.7581  0.0739
 5244SOL    HW127365   3.126   3.498   7.047 -0.5651 -1.4971 -0.4042
 5244SOL    HW227366   3.032   3.552   6.954 -0.5108  0.0466  0.3598
 5245SOL     OW27367   0.130   1.632  17.414  0.3081  0.3950 -0.3855
 5245SOL    HW127368   0.084   1.602  17.492 -0.3192 -2.4138 -1.8318
 5245SOL    HW227369   0.200   1.567  17.417  0.3109  0.3921 -0.4890
 5246SOL     OW27370   0.053   0.797   7.104 -0.0535 -0.2442 -0.1421
 5246SOL    HW127371   0.012   0.853   7.170  1.7987  1.6098 -0.5660
 5246SOL    HW227372   4.732   0.721   7.103  0.4501 -0.6428  0.5105
 5247SOL     OW27373   2.786   2.174   7.776  0.6523  0.0878  0.7917
 5247SOL    HW127374   2.716   2.202   7.717  0.9940  3.4830  1.9866
 5247SOL    HW227375   2.733   2.144   7.850 -3.3915  0.2484 -2.0241
 5248SOL     OW27376   0.180   3.200   6.442  0.4548  0.0460  0.1068
 5248SOL    HW127377   0.134   3.181   6.361  0.6755 -1.5898  0.3582
 5248SOL    HW227378   0.128   3.269   6.483  0.4343  0.1955 -0.1725
 5249SOL     OW27379   3.504   0.276   8.862  0.6510 -0.4313  0.2894
 5249SOL    HW127380   3.431   0.228   8.822  2.2036  0.1404 -3.1995
 5249SOL    HW227381   3.474   0.314   8.945 -1.4024  0.4300 -0.8595
 5250SOL     OW27382   3.700   1.140  12.428  0.0552 -0.0574  0.5041
 5250SOL    HW127383   3.668   1.106  12.344  3.5475 -0.8624 -0.5014
 5250SOL    HW227384   3.658   1.071  12.479 -0.6827  0.4989  0.6528
 5251SOL     OW27385   0.099   0.496   4.721  0.6974  0.0922 -0.4424
 5251SOL    HW127386   0.121   0.553   4.648  1.6617  0.8614  0.4470
 5251SOL    HW227387   0.059   0.431   4.664 -0.3120  0.7773 -0.5067
 5252SOL     OW27388   1.950   3.833   2.718  0.3665  0.3660  0.5490
 5252SOL    HW127389   1.874   3.799   2.671 -0.2222 -3.1759  4.1301
 5252SOL    HW227390   1.913   3.910   2.761 -0.0231  0.2286  0.4593
 5253SOL     OW27391   4.152   4.175  14.702  0.2922 -0.3556  0.0583
 5253SOL    HW127392   4.120   4.090  14.671 -0.0945 -0.1924  0.0177
 5253SOL    HW227393   4.247   4.163  14.710  0.6492  0.6025 -2.5717
 5254SOL     OW27394   1.234   2.102  16.147  0.6587 -0.7405  0.8342
 5254SOL    HW127395   1.174   2.122  16.076  0.0730  0.9105  1.7961
 5254SOL    HW227396   1.240   2.182  16.200  3.3458 -0.4735  0.1669
 5255SOL     OW27397   0.293   4.115   4.060 -0.0302 -0.2140 -0.1408
 5255SOL    HW127398   0.348   4.188   4.029  0.2193 -0.6884 -0.8085
 5255SOL    HW227399   0.205   4.152   4.058  0.6133  1.1942 -2.4638
 5256SOL     OW27400   2.144   3.918   8.753 -0.3139  0.1066 -0.2116
 5256SOL    HW127401   2.051   3.905   8.770 -0.0032 -1.3554  0.3626
 5256SOL    HW227402   2.174   3.829   8.738  1.0811  0.4169  0.7742
 5257SOL     OW27403   1.162   0.650   3.836 -0.2554 -0.1367  0.2130
 5257SOL    HW127404   1.230   0.702   3.880 -0.6760  1.2974 -0.8054
 5257SOL    HW227405   1.162   0.695   3.752 -0.3345  1.3544  0.9982
 5258SOL     OW27406   3.974   3.157   3.412  0.4722 -0.0942 -0.1227
 5258SOL    HW127407   4.023   3.167   3.493  4.7167 -0.8479 -2.6363
 5258SOL    HW227408   3.882   3.157   3.441  0.5656 -1.0905  0.1708
 5259SOL     OW27409   0.479   4.074   2.331  0.2435  0.6839 -0.0329
 5259SOL    HW127410   0.553   4.052   2.274  0.9125  1.0586  0.7060
 5259SOL    HW227411   0.413   4.074   2.262 -0.3931 -2.9889  0.5623
 5260SOL     OW27412   3.756   2.475   2.181  0.4982  0.1189 -0.0210
 5260SOL    HW127413   3.674   2.442   2.145 -0.3520  0.6658  1.4353
 5260SOL    HW227414   3.800   2.495   2.098  1.8262 -0.4132  0.5498
 5261SOL     OW27415   4.095   0.031  16.812 -0.1778  0.3757  0.4984
 5261SOL    HW127416   4.120   4.678  16.828 -0.9989  0.1331  0.4053
 5261SOL    HW227417   4.035   0.044  16.885 -1.0899  4.2872 -0.9413
 5262SOL     OW27418   3.459   0.102   2.473  0.2647  0.3864 -0.3015
 5262SOL    HW127419   3.429   0.192   2.459 -2.6567 -0.5303  0.0695
 5262SOL    HW227420   3.384   0.053   2.508  1.5861 -0.6637  1.0854
 5263SOL     OW27421   4.425   1.866  10.462  0.3783  0.2533 -0.5743
 5263SOL    HW127422   4.386   1.920  10.394 -1.8781  1.0241  1.3373
 5263SOL    HW227423   4.403   1.910  10.544  3.5819 -0.4913  0.6804
 5264SOL     OW27424   1.897   1.805   7.707  0.5899  0.7646 -0.2124
 5264SOL    HW127425   1.959   1.806   7.780  0.3184  1.3010  0.0115
 5264SOL    HW227426   1.823   1.775   7.760  0.7282  2.4402  0.9559
 5265SOL     OW27427   1.749   1.466   9.238 -0.0132 -0.0022 -0.0910
 5265SOL    HW127428   1.666   1.488   9.280 -0.5843  3.0797 -2.7924
 5265SOL    HW227429   1.715   1.406   9.171  1.4807 -1.4552  0.4417
 5266SOL     OW27430   4.197   2.522   3.958 -0.3093 -0.0238  0.2597
 5266SOL    HW127431   4.252   2.599   3.946  1.6977 -1.4535  0.3205
 5266SOL    HW227432   4.176   2.522   4.051 -0.2733  1.3304  0.2610
 5267SOL     OW27433   1.785   2.056   9.790  0.1589 -0.1422 -0.1054
 5267SOL    HW127434   1.792   2.128   9.852  2.3376  0.1052 -0.6308
 5267SOL    HW227435   1.833   2.081   9.711  1.7856  1.9307  1.5514
 5268SOL     OW27436   0.815   2.406   3.284  0.0884 -0.1711  0.2747
 5268SOL    HW127437   0.784   2.473   3.346 -1.0737 -1.3703  0.9910
 5268SOL    HW227438   0.861   2.462   3.221 -0.4392 -0.8076 -0.6739
 5269SOL     OW27439   2.800   2.963  17.653 -0.4413 -0.2950  0.5529
 5269SOL    HW127440   2.786   2.979  17.559  0.4580  1.0368  0.6420
 5269SOL    HW227441   2.832   3.047  17.687 -0.0556  0.6206 -2.0321
 5270SOL     OW27442   2.565   3.520   9.073  0.2407  0.0305  0.1829
 5270SOL    HW127443   2.534   3.576   9.144  1.0871 -1.1975  1.5292
 5270SOL    HW227444   2.580   3.590   9.010 -0.5391  0.7699  0.8281
 5271SOL     OW27445   0.181   2.275   3.024 -0.3382  0.4121 -0.0762
 5271SOL    HW127446   0.234   2.332   3.080 -0.4774 -0.6431  1.1297
 5271SOL    HW227447   0.096   2.317   3.010 -0.4650 -0.3638 -1.5677
 5272SOL     OW27448   3.405   0.324   4.346 -0.3979  0.2193 -0.2183
 5272SOL    HW127449   3.391   0.266   4.271 -0.3955  1.1018 -0.9054
 5272SOL    HW227450   3.485   0.287   4.384 -0.6156  1.4762  1.4271
 5273SOL     OW27451   4.556   3.070   4.447 -0.1377  0.0740 -0.0758
 5273SOL    HW127452   4.567   3.162   4.472 -2.6393  0.4722 -0.4291
 5273SOL    HW227453   4.480   3.039   4.496  0.4327 -1.6671 -0.2954
 5274SOL     OW27454   4.160   0.085   5.953  0.1875  0.2121 -0.0004
 5274SOL    HW127455   4.239   0.043   5.986  0.6964  0.8194 -0.4580
 5274SOL    HW227456   4.151   0.056   5.863  1.7367  0.9338 -0.3773
 5275SOL     OW27457   1.438   0.673   2.992  0.1253 -0.5895 -0.2105
 5275SOL    HW127458   1.516   0.728   2.993 -0.2306 -0.0962  1.2410
 5275SOL    HW227459   1.418   0.672   3.086 -0.0197  2.1132 -0.2114
 5276SOL     OW27460   0.003   2.527   5.364  0.5236  0.6917  0.4101
 5276SOL    HW127461   4.691   2.513   5.445 -0.9454 -1.6136 -0.8947
 5276SOL    HW227462   0.032   2.438   5.342 -1.0155  0.1365  0.6602
 5277SOL     OW27463   3.538   0.667   3.571  0.3414  0.3175  0.2088
 5277SOL    HW127464   3.459   0.620   3.545  1.4615 -1.2870 -0.2528
 5277SOL    HW227465   3.592   0.592   3.595 -1.9433 -0.5073  2.7512
 5278SOL     OW27466   3.493   1.818   8.905 -0.0484  0.3347  0.4246
 5278SOL    HW127467   3.521   1.749   8.845 -0.6495  0.6527 -0.2297
 5278SOL    HW227468   3.404   1.810   8.871  0.3375 -1.1764 -0.2287
 5279SOL     OW27469   0.106   4.217  17.163  0.0311  0.1750 -0.9494
 5279SOL    HW127470   0.140   4.195  17.250 -0.0899 -2.2074 -1.5040
 5279SOL    HW227471   0.045   4.289  17.181 -1.4871 -1.1810 -0.6858
 5280SOL     OW27472   1.440   0.360  15.257  0.5475  0.1248 -0.2323
 5280SOL    HW127473   1.458   0.454  15.267  2.4072 -0.5849  3.0819
 5280SOL    HW227474   1.504   0.331  15.322  0.6954  2.1224  0.5009
 5281SOL     OW27475   1.103   0.538  11.578 -0.4774 -0.0709 -0.1677
 5281SOL    HW127476   1.042   0.472  11.544 -1.2609  1.5624 -1.9486
 5281SOL    HW227477   1.072   0.600  11.512  1.7831  0.1234 -1.0404
 5282SOL     OW27478   3.609   2.903   9.921 -0.5198 -0.0061 -0.6951
 5282SOL    HW127479   3.569   2.907  10.008 -1.4052 -2.2501 -0.9767
 5282SOL    HW227480   3.532   2.917   9.866 -1.7119  0.0663  0.9881
 5283SOL     OW27481   0.253   4.062   7.354 -0.0975  0.7764  0.6823
 5283SOL    HW127482   0.247   4.130   7.420 -4.8089  1.1080 -0.1005
 5283SOL    HW227483   0.346   4.053   7.333 -0.8259 -2.7506 -1.1117
 5284SOL     OW27484   1.048   2.349  14.478  0.0306  0.0095 -0.3366
 5284SOL    HW127485   1.081   2.388  14.396  1.5362 -1.8522 -0.6101
 5284SOL    HW227486   0.956   2.375  14.487  0.3005  0.9455 -0.2500
 5285SOL     OW27487   3.540   1.091   9.099  0.0024 -0.2145 -0.1877
 5285SOL    HW127488   3.555   1.183   9.078  1.3934 -1.2106 -3.4844
 5285SOL    HW227489   3.535   1.096   9.195  1.3881  3.5945 -0.3485
 5286SOL     OW27490   4.417   0.963  11.199  0.2923  0.1164  0.0488
 5286SOL    HW127491   4.400   0.887  11.254  0.7596 -0.5641 -0.7367
 5286SOL    HW227492   4.330   0.994  11.175  2.1932  3.0966 -3.1000
 5287SOL     OW27493   1.523   1.526   2.200 -0.0206 -0.2467  0.0235
 5287SOL    HW127494   1.580   1.600   2.221  0.8542 -0.4397 -1.6519
 5287SOL    HW227495   1.447   1.532   2.258  0.0969  1.8766 -0.0275
 5288SOL     OW27496   0.625   2.677   2.924  0.2698  0.1561 -0.5772
 5288SOL    HW127497   0.563   2.643   2.989 -0.9213  0.9866 -1.2651
 5288SOL    HW227498   0.604   2.615   2.853  0.2516 -0.9558  0.4002
 5289SOL     OW27499   0.261   1.679  10.542 -0.3191  0.5292  0.2228
 5289SOL    HW127500   0.322   1.753  10.539 -1.4632  1.4736  0.3654
 5289SOL    HW227501   0.284   1.625  10.466 -1.0745 -1.8062  1.6603
 5290SOL     OW27502   3.896   4.378   2.439 -0.2056 -0.5378 -0.6098
 5290SOL    HW127503   3.955   4.422   2.378  0.4926 -0.3300  0.2327
 5290SOL    HW227504   3.869   4.306   2.381  1.6254  0.0131 -2.1186
 5291SOL     OW27505   2.721   2.507   8.713 -0.4812  0.2933 -0.0217
 5291SOL    HW127506   2.748   2.421   8.682 -0.3367  0.5924 -0.7437
 5291SOL    HW227507   2.805   2.542   8.744  0.6070  2.1383 -4.9195
 5292SOL     OW27508   4.084   0.597   4.353  0.0581  0.2866 -0.2423
 5292SOL    HW127509   4.056   0.685   4.380 -2.4848 -1.0103  1.3249
 5292SOL    HW227510   4.000   0.552   4.346  0.7705 -0.9398 -0.8679
 5293SOL     OW27511   2.542   3.736   7.367  0.1834 -0.0839 -0.1523
 5293SOL    HW127512   2.452   3.717   7.343 -0.3026 -0.0713  1.7094
 5293SOL    HW227513   2.567   3.808   7.309  1.2467 -1.3400 -1.2720
 5294SOL     OW27514   3.760   4.457   6.458 -0.2389  0.2275 -0.4661
 5294SOL    HW127515   3.697   4.494   6.519  1.3203 -1.9747  2.4935
 5294SOL    HW227516   3.767   4.522   6.388 -3.2206  0.6806 -0.3453
 5295SOL     OW27517   0.459   4.723  14.775 -0.3599 -0.0164 -0.0558
 5295SOL    HW127518   0.530   4.681  14.727  0.6392  1.6937 -0.0706
 5295SOL    HW227519   0.388   4.676  14.731  2.3994 -1.9476 -2.4317
 5296SOL     OW27520   4.025   0.675   5.565  0.7634  0.0874 -0.6939
 5296SOL    HW127521   4.100   0.732   5.545 -0.0030  0.8142 -1.5097
 5296SOL    HW227522   3.950   0.713   5.519  1.5024  0.5031 -1.5672
 5297SOL     OW27523   4.223   4.030   9.161  0.4181  0.0882 -0.0263
 5297SOL    HW127524   4.261   3.943   9.179 -0.1705 -0.0680  0.4978
 5297SOL    HW227525   4.131   4.028   9.186  0.6883 -0.7390  0.9311
 5298SOL     OW27526   3.921   1.430   7.897  0.4357 -0.1125 -0.1192
 5298SOL    HW127527   3.941   1.519   7.926  0.6432 -0.2152  0.0490
 5298SOL    HW227528   3.942   1.373   7.971  0.7370  1.5930  1.1091
 5299SOL     OW27529   2.515   2.659   4.979 -0.3718 -0.2897  0.5622
 5299SOL    HW127530   2.533   2.623   5.066 -0.2384  1.0113  1.0774
 5299SOL    HW227531   2.595   2.630   4.935 -1.2318  0.4301 -1.4439
 5300SOL     OW27532   1.707   2.593   3.359 -0.4361 -0.4658  0.1193
 5300SOL    HW127533   1.797   2.622   3.350 -1.4085  2.6419  0.3951
 5300SOL    HW227534   1.663   2.645   3.291 -0.0003 -1.2254 -0.7422
 5301SOL     OW27535   4.354   3.297   2.958 -0.8087  0.4010  0.1201
 5301SOL    HW127536   4.324   3.208   2.941 -0.1660  1.0330 -4.3502
 5301SOL    HW227537   4.352   3.327   2.868 -1.0282  2.0763  0.6930
 5302SOL     OW27538   0.133   1.201   7.013  0.0948 -0.5032 -0.2360
 5302SOL    HW127539   0.047   1.167   6.988  0.6645 -1.8081 -0.4514
 5302SOL    HW227540   0.138   1.273   6.951 -0.1510 -0.0639  0.2587
 5303SOL     OW27541   4.470   0.367   7.465  0.3309  1.0166  0.7779
 5303SOL    HW127542   4.501   0.279   7.487 -0.0119  0.4832 -0.8362
 5303SOL    HW227543   4.461   0.414   7.548 -0.6817 -0.0105  1.2436
 5304SOL     OW27544   4.512   2.042   0.110 -0.0184 -0.0637 -0.3818
 5304SOL    HW127545   4.553   2.082   0.186  2.3709 -0.5716 -1.3768
 5304SOL    HW227546   4.443   2.104   0.086  1.5374  1.9175  0.3206
 5305SOL     OW27547   3.326   1.428   6.223 -0.4949  0.4970  1.1609
 5305SOL    HW127548   3.258   1.494   6.221  1.1637  2.2598  2.7259
 5305SOL    HW227549   3.287   1.346   6.192  1.1615  0.3391 -0.5073
 5306SOL     OW27550   3.023   3.498  17.726  0.2495  0.2518 -0.6522
 5306SOL    HW127551   3.005   3.488   0.071 -2.5708  2.6642 -0.9627
 5306SOL    HW227552   3.059   3.411  17.709  1.4533  1.2954 -3.4490
 5307SOL     OW27553   0.710   0.595  10.613  0.6226 -0.1828 -0.5097
 5307SOL    HW127554   0.756   0.661  10.665 -1.3805  0.4342  0.4785
 5307SOL    HW227555   0.758   0.592  10.531  0.5381 -1.2332 -0.5220
 5308SOL     OW27556   2.011   1.234   5.813 -0.3229  0.3157 -1.0763
 5308SOL    HW127557   2.018   1.299   5.743 -1.1949  1.1502 -0.3974
 5308SOL    HW227558   1.918   1.250   5.832  0.0166  1.5265 -0.4416
 5309SOL     OW27559   2.967   3.617  12.872 -0.2088  0.2636 -0.2286
 5309SOL    HW127560   2.960   3.599  12.966 -0.8236  0.0287 -0.3135
 5309SOL    HW227561   2.876   3.606  12.843 -0.9319  1.0782  1.7100
 5310SOL     OW27562   3.168   4.404   1.166  0.5174  0.2489  0.7046
 5310SOL    HW127563   3.112   4.477   1.141  0.1205 -0.2982  0.0047
 5310SOL    HW227564   3.109   4.334   1.137 -1.1854  2.0731 -0.1865
 5311SOL     OW27565   1.436   2.663   4.387  0.2171 -0.1083 -0.2860
 5311SOL    HW127566   1.432   2.601   4.460  0.8084  0.7364  0.4581
 5311SOL    HW227567   1.505   2.619   4.338 -0.8049 -0.1370 -1.7096
 5312SOL     OW27568   2.032   1.631  16.554 -0.6718 -0.3235  0.2652
 5312SOL    HW127569   1.977   1.622  16.476 -0.8160  0.6998  0.2525
 5312SOL    HW227570   2.118   1.654  16.519 -0.3811 -2.1559 -0.2376
 5313SOL     OW27571   1.007   2.864   7.736  0.1381  0.5446  0.2741
 5313SOL    HW127572   0.984   2.926   7.806  1.0775  2.1263 -0.8305
 5313SOL    HW227573   1.032   2.785   7.783 -1.0813  0.8710  1.4894
 5314SOL     OW27574   4.412   2.457   5.274 -0.0247 -0.1204 -0.3331
 5314SOL    HW127575   4.447   2.481   5.188 -0.6871 -3.4753 -1.5542
 5314SOL    HW227576   4.411   2.362   5.266  2.5868 -0.3687  2.2886
 5315SOL     OW27577   2.864   0.631   4.178 -0.2883  0.0992  0.4292
 5315SOL    HW127578   2.937   0.683   4.145  0.3815 -1.6038 -0.7823
 5315SOL    HW227579   2.893   0.540   4.172  0.1261  0.2818 -0.2794
 5316SOL     OW27580   2.025   2.355   3.635  0.3438  0.1450 -0.1327
 5316SOL    HW127581   1.965   2.365   3.561  3.3986  0.4709 -2.5452
 5316SOL    HW227582   2.092   2.305   3.590  1.4144 -1.2932  3.0656
 5317SOL     OW27583   4.624   0.387  10.492  0.1911 -0.0277 -0.0236
 5317SOL    HW127584   4.659   0.403  10.580  0.2984  0.8296 -0.2238
 5317SOL    HW227585   4.587   0.301  10.512  1.2206 -0.5461 -0.3608
 5318SOL     OW27586   3.349   0.784   7.064  0.2438 -0.3562  0.0084
 5318SOL    HW127587   3.290   0.709   7.072  0.0816 -0.2344 -0.0543
 5318SOL    HW227588   3.384   0.775   6.975 -1.4334  1.0733 -0.7962
 5319SOL     OW27589   2.658   2.075  15.537 -0.5599 -0.0331 -0.1670
 5319SOL    HW127590   2.699   2.039  15.459 -2.3835 -1.3845 -0.4995
 5319SOL    HW227591   2.674   2.013  15.608  0.0096  0.5672  0.2405
 5320SOL     OW27592   1.308   2.570   3.966  0.2708 -0.3494  0.4476
 5320SOL    HW127593   1.283   2.551   3.875  0.9887  1.5777 -0.1523
 5320SOL    HW227594   1.333   2.662   3.974 -0.4345 -0.2391  1.3427
 5321SOL     OW27595   0.581   1.598   6.642  0.3290 -0.6167 -0.2079
 5321SOL    HW127596   0.533   1.596   6.559  0.5492 -2.5012 -0.2915
 5321SOL    HW227597   0.570   1.505   6.661  2.1408 -0.5449  1.1990
 5322SOL     OW27598   1.942   3.233  10.983 -0.1769  0.1251 -0.4397
 5322SOL    HW127599   1.867   3.188  10.944 -1.4277  0.3294  1.7796
 5322SOL    HW227600   1.903   3.263  11.065  1.0594  1.7564 -0.4521
 5323SOL     OW27601   0.331   3.536  14.002 -0.0467  0.5234  0.4882
 5323SOL    HW127602   0.298   3.626  14.000  1.2206  1.0043  1.3616
 5323SOL    HW227603   0.265   3.478  14.040  2.1636 -1.6144  1.1206
 5324SOL     OW27604   2.420   0.376   3.167  0.3857 -0.5719  0.0157
 5324SOL    HW127605   2.461   0.441   3.110 -0.8877 -0.3852 -0.6805
 5324SOL    HW227606   2.327   0.394   3.176  0.7646  1.0831  0.5397
 5325SOL     OW27607   4.351   4.673  10.578 -0.4810 -0.8544  0.0271
 5325SOL    HW127608   4.287   4.676  10.507  0.1244  1.5578 -0.4145
 5325SOL    HW227609   4.295   4.699  10.651  0.2583 -0.0173  0.2939
 5326SOL     OW27610   0.777   1.586   3.624  0.0791 -0.1691 -0.2234
 5326SOL    HW127611   0.735   1.563   3.542  0.2742 -1.4521  0.0456
 5326SOL    HW227612   0.695   1.596   3.673  0.1599 -0.9733  0.0742
 5327SOL     OW27613   2.296   2.571   2.367 -0.0757  0.0518 -0.0767
 5327SOL    HW127614   2.256   2.643   2.417 -1.2543  0.2902 -1.3614
 5327SOL    HW227615   2.340   2.526   2.439  1.2244  1.5800  0.0710
 5328SOL     OW27616   1.690   4.117   3.581 -0.5828  0.2720 -0.3030
 5328SOL    HW127617   1.782   4.140   3.569  0.2017 -1.5840  2.1985
 5328SOL    HW227618   1.659   4.107   3.490 -1.1872  2.7917 -0.3670
 5329SOL     OW27619   1.508   0.858   6.024  0.1835  0.2759 -0.3842
 5329SOL    HW127620   1.565   0.877   6.098 -1.2727  0.4258  0.6906
 5329SOL    HW227621   1.541   0.918   5.956 -2.4356 -0.3503 -2.1965
 5330SOL     OW27622   1.119   1.406  17.376 -0.1913  0.1552 -0.7765
 5330SOL    HW127623   1.115   1.390  17.282  1.9982  0.2616 -0.8988
 5330SOL    HW227624   1.185   1.343  17.406 -0.2941  1.1954  1.6579
 5331SOL     OW27625   3.776   0.997   4.882  0.1672  0.0158  0.1948
 5331SOL    HW127626   3.769   1.074   4.826  1.3583 -0.3528 -0.4661
 5331SOL    HW227627   3.764   1.039   4.966  0.4441  2.6338 -1.0813
 5332SOL     OW27628   2.867   0.875  15.110  0.7884 -0.1641  0.1026
 5332SOL    HW127629   2.864   0.785  15.141 -1.3730  0.3977  1.6052
 5332SOL    HW227630   2.932   0.903  15.175  0.0122  0.8169  0.4856
 5333SOL     OW27631   0.645   3.148   5.173 -0.4762  0.5269 -0.6522
 5333SOL    HW127632   0.607   3.230   5.143 -2.4075 -0.4004 -0.7864
 5333SOL    HW227633   0.691   3.124   5.093 -2.5328 -2.6327 -0.9087
 5334SOL     OW27634   1.325   0.359  15.518 -0.2443  0.0995 -0.4435
 5334SOL    HW127635   1.262   0.430  15.512  0.2986  0.6134 -0.0099
 5334SOL    HW227636   1.351   0.351  15.426 -1.2436  0.6191 -0.7671
 5335SOL     OW27637   1.008   1.575  13.159  0.0113 -0.0209  0.3773
 5335SOL    HW127638   0.926   1.540  13.124  0.6527 -1.7687  0.6137
 5335SOL    HW227639   1.038   1.504  13.216  0.5361 -1.0641 -1.2131
 5336SOL     OW27640   3.247   3.622   4.721 -0.6057 -0.1440 -0.2415
 5336SOL    HW127641   3.182   3.673   4.672 -1.2839 -0.7245  0.0577
 5336SOL    HW227642   3.260   3.551   4.658 -0.6944 -0.0655 -0.3484
 5337SOL     OW27643   1.407   2.012   8.591  0.7934 -0.0995 -0.4967
 5337SOL    HW127644   1.387   2.000   8.498 -0.9594 -2.2500  0.1695
 5337SOL    HW227645   1.499   2.037   8.594  0.9936 -0.6072 -2.6165
 5338SOL     OW27646   2.670   1.154  13.854  0.0857 -0.0878  0.4748
 5338SOL    HW127647   2.709   1.112  13.931  1.6088 -0.3368 -0.4281
 5338SOL    HW227648   2.700   1.085  13.795  1.1635 -0.2665  1.2236
 5339SOL     OW27649   0.757   2.850   3.565 -0.4318 -0.1758 -0.1955
 5339SOL    HW127650   0.850   2.829   3.555  0.0092  0.8386  2.0132
 5339SOL    HW227651   0.731   2.845   3.656  0.3081 -1.6521 -0.0661
 5340SOL     OW27652   2.447   4.574   6.632 -0.3074 -0.4625  0.0611
 5340SOL    HW127653   2.444   4.659   6.587  2.7653 -0.3419  0.0708
 5340SOL    HW227654   2.374   4.532   6.588 -0.6700  0.7626 -0.5006
 5341SOL     OW27655   1.776   2.004  13.963 -0.5051  0.0428  0.0068
 5341SOL    HW127656   1.690   2.012  14.005 -0.5760  2.0626 -0.4980
 5341SOL    HW227657   1.821   1.942  14.020  1.5037 -0.2855 -1.9425
 5342SOL     OW27658   0.234   1.953   4.954  0.7485 -0.1604 -0.3177
 5342SOL    HW127659   0.325   1.971   4.931  0.6717  0.2768 -0.2839
 5342SOL    HW227660   0.225   1.859   4.935 -1.9228  0.1002 -0.4013
 5343SOL     OW27661   1.450   2.526  14.336  0.0454 -0.5818  1.0024
 5343SOL    HW127662   1.387   2.546  14.405 -0.0144 -1.0085  1.0717
 5343SOL    HW227663   1.519   2.582  14.373  2.3078 -2.3083 -0.5937
 5344SOL     OW27664   3.727   3.106   8.111 -0.0947 -0.0139  0.5662
 5344SOL    HW127665   3.696   3.025   8.070 -1.4775  0.6321  0.3487
 5344SOL    HW227666   3.641   3.127   8.146 -0.6575 -0.8595 -0.3206
 5345SOL     OW27667   4.530   2.214   0.555 -0.2042  0.3496  0.2319
 5345SOL    HW127668   4.557   2.301   0.584  0.6296 -0.9496  3.3553
 5345SOL    HW227669   4.482   2.225   0.473 -0.5344  1.8753  0.6445
 5346SOL     OW27670   4.571   1.594   4.298  0.2111  0.4943  0.3365
 5346SOL    HW127671   4.540   1.505   4.316 -0.2003  0.5443 -0.1301
 5346SOL    HW227672   4.654   1.582   4.250  0.4840 -4.1686  1.9182
 5347SOL     OW27673   1.838   3.485   9.109  0.4097 -0.4721 -0.0384
 5347SOL    HW127674   1.815   3.425   9.180  1.3905 -1.8239 -0.8486
 5347SOL    HW227675   1.749   3.508   9.081 -0.0179 -0.9727  0.9117
 5348SOL     OW27676   2.536   0.175   6.168 -0.0875  0.3587  0.6365
 5348SOL    HW127677   2.495   0.091   6.147 -1.1123  1.3994 -1.5690
 5348SOL    HW227678   2.575   0.204   6.085 -0.5979  0.7410  0.5361
 5349SOL     OW27679   2.635   1.368   5.603  0.4586 -0.5049 -0.4108
 5349SOL    HW127680   2.605   1.289   5.557 -0.7632 -0.2583 -0.0452
 5349SOL    HW227681   2.550   1.410   5.618 -0.3829 -2.3762  0.0742
 5350SOL     OW27682   2.504   2.200   2.370 -0.1678 -0.0885 -0.3944
 5350SOL    HW127683   2.571   2.158   2.424 -0.7831  0.9124  1.1514
 5350SOL    HW227684   2.423   2.160   2.401  0.8052 -0.4607  1.6903
 5351SOL     OW27685   2.159   1.841   4.433  0.0786  0.2049  0.5928
 5351SOL    HW127686   2.076   1.794   4.426  1.3753 -1.7406 -1.6866
 5351SOL    HW227687   2.143   1.901   4.506  0.3173  0.3793  0.5037
 5352SOL     OW27688   0.265   0.254   0.842 -0.4262 -0.8269  0.2924
 5352SOL    HW127689   0.274   0.298   0.926 -1.0682  0.0906 -0.1185
 5352SOL    HW227690   0.230   0.330   0.796  0.3739  0.3514  1.5957
 5353SOL     OW27691   2.817   4.055   6.962  0.3397  0.0686  0.3205
 5353SOL    HW127692   2.806   3.964   6.936  2.8821 -0.5790  1.4700
 5353SOL    HW227693   2.858   4.090   6.883  2.1771 -1.6456  0.5176
 5354SOL     OW27694   1.667   1.796  12.053  0.0638 -0.3833 -0.3783
 5354SOL    HW127695   1.668   1.799  11.958  0.0992  3.4512 -0.2602
 5354SOL    HW227696   1.594   1.737  12.073  0.3711 -0.8536 -0.6447
 5355SOL     OW27697   2.919   1.346  17.102  0.4114 -0.4705 -0.3262
 5355SOL    HW127698   3.005   1.354  17.145 -0.5095 -1.0175  1.6218
 5355SOL    HW227699   2.933   1.272  17.044 -0.5565  1.4242 -2.9541
 5356SOL     OW27700   2.045   4.283  15.011  0.1640 -0.7228  0.0016
 5356SOL    HW127701   2.108   4.230  15.060 -0.3778 -2.7144 -1.4598
 5356SOL    HW227702   2.092   4.302  14.930  2.3154  0.9455  1.6321
 5357SOL     OW27703   2.781   1.256   2.849  0.3898  0.5856 -0.2916
 5357SOL    HW127704   2.702   1.228   2.803  0.7377 -0.3263 -0.3459
 5357SOL    HW227705   2.770   1.349   2.828  0.4470  0.8169  0.7041
 5358SOL     OW27706   2.189   4.594   4.757  0.1789 -0.6186 -0.1980
 5358SOL    HW127707   2.176   4.556   4.670  1.5050  0.4049 -0.8570
 5358SOL    HW227708   2.248   4.665   4.728 -0.6099  0.1678  0.1230
 5359SOL     OW27709   2.590   3.338   0.893 -0.2343 -0.1150 -0.4997
 5359SOL    HW127710   2.610   3.426   0.861 -0.9710 -0.0067 -0.6804
 5359SOL    HW227711   2.559   3.295   0.814 -0.9841  1.6012 -1.1355
 5360SOL     OW27712   0.993   4.444   4.748 -0.3311 -0.3134 -0.5288
 5360SOL    HW127713   0.908   4.483   4.725 -0.1367 -1.1578 -2.6448
 5360SOL    HW227714   1.048   4.519   4.725  2.9776 -2.3451  0.8110
 5361SOL     OW27715   4.622   1.480   0.458  0.0746 -0.2835  0.4489
 5361SOL    HW127716   4.612   1.573   0.440  0.7587 -0.0815  1.1323
 5361SOL    HW227717   4.664   1.451   0.377 -2.7853 -0.1397 -1.0833
 5362SOL     OW27718   0.651   4.571  15.927 -0.0529  0.3582  0.0316
 5362SOL    HW127719   0.558   4.549  15.920 -0.6132  3.1827 -1.7385
 5362SOL    HW227720   0.688   4.483  15.926 -0.7731  0.0396  1.3613
 5363SOL     OW27721   0.831   3.204   4.754 -0.4963 -0.2091 -0.2234
 5363SOL    HW127722   0.817   3.298   4.762 -3.0659 -0.4979 -1.2538
 5363SOL    HW227723   0.817   3.180   4.662  2.8049 -0.7823 -0.6026
 5364SOL     OW27724   0.496   1.656   5.193  0.3700  0.4453  0.4820
 5364SOL    HW127725   0.416   1.663   5.140  0.6709 -0.4996 -0.0867
 5364SOL    HW227726   0.480   1.567   5.222  1.7618  0.2848  0.7473
 5365SOL     OW27727   3.173   0.179  13.698 -0.1850  0.0893 -0.0644
 5365SOL    HW127728   3.181   0.189  13.793  0.3458  0.9028 -0.1874
 5365SOL    HW227729   3.179   0.084  13.693 -0.5793 -0.0652  2.2517
 5366SOL     OW27730   0.110   3.268   0.951  0.0865 -0.0918  0.1233
 5366SOL    HW127731   0.161   3.299   1.026  0.1051  1.0077 -0.3323
 5366SOL    HW227732   0.172   3.219   0.898  0.1498  0.4507 -0.3111
 5367SOL     OW27733   4.279   2.551   6.109 -0.4651  0.2380  0.0723
 5367SOL    HW127734   4.355   2.556   6.052 -0.1454  1.4254  0.6073
 5367SOL    HW227735   4.234   2.633   6.089 -0.4585  0.3070  0.3331
 5368SOL     OW27736   1.426   1.338  15.932 -0.1651  0.3578  0.3810
 5368SOL    HW127737   1.424   1.245  15.955 -0.6355 -0.0299 -1.1986
 5368SOL    HW227738   1.503   1.366  15.981  1.6515 -0.5893 -1.8993
 5369SOL     OW27739   3.629   1.230   3.895 -0.4157  0.6538  0.4519
 5369SOL    HW127740   3.577   1.206   3.972  0.7504 -0.3611  0.9325
 5369SOL    HW227741   3.605   1.158   3.837  2.5698  0.5424 -0.6424
 5370SOL     OW27742   4.223   0.081   2.937  0.0874 -0.0910 -0.9838
 5370SOL    HW127743   4.131   0.103   2.923 -0.1278  0.0610  0.6987
 5370SOL    HW227744   4.220   0.001   2.989  0.6353  0.5111 -0.0443
 5371SOL     OW27745   2.655   0.033  16.177 -0.0421  0.3247 -0.1117
 5371SOL    HW127746   2.629   0.049  16.268 -1.9425  0.6629 -0.7088
 5371SOL    HW227747   2.660   0.124  16.147 -0.0804  0.0148 -1.0607
 5372SOL     OW27748   1.412   4.479   3.580 -0.1287  0.5376  0.2703
 5372SOL    HW127749   1.459   4.467   3.497  1.0182 -0.1929  1.0169
 5372SOL    HW227750   1.467   4.432   3.643  0.8837  1.0397 -0.2246
 5373SOL     OW27751   1.018   3.533  15.476  0.2549 -0.1954  0.0097
 5373SOL    HW127752   1.019   3.439  15.455 -4.1869 -0.0170 -1.0001
 5373SOL    HW227753   0.931   3.555  15.507  0.5655  1.0850 -0.0445
 5374SOL     OW27754   1.364   4.125   1.574 -0.0896  0.3211  0.1176
 5374SOL    HW127755   1.379   4.189   1.504 -0.6110 -0.4938 -0.7330
 5374SOL    HW227756   1.333   4.178   1.647  3.7239  0.8722  1.3515
 5375SOL     OW27757   0.292   2.977   2.272 -0.5488 -0.2949  0.3919
 5375SOL    HW127758   0.277   3.000   2.364  2.1469  2.7988  0.0236
 5375SOL    HW227759   0.297   3.064   2.232  2.1721 -1.0846 -0.9605
 5376SOL     OW27760   3.897   1.449  10.241  0.3659  0.1059  0.0332
 5376SOL    HW127761   3.921   1.462  10.332  0.5027  0.5145 -0.0606
 5376SOL    HW227762   3.879   1.354  10.242  1.1670 -0.0225  1.7097
 5377SOL     OW27763   1.649   0.255   8.814  0.1815  0.2448 -0.5406
 5377SOL    HW127764   1.725   0.301   8.849 -0.7917 -0.4879  2.4877
 5377SOL    HW227765   1.633   0.300   8.731 -1.2634 -1.1971 -1.0385
 5378SOL     OW27766   3.482   2.024   6.561  0.6725 -0.6670 -0.1122
 5378SOL    HW127767   3.572   2.010   6.533  1.2854 -0.7894  1.8835
 5378SOL    HW227768   3.443   1.963   6.499  0.0589 -0.2743 -0.1205
 5379SOL     OW27769   0.434   3.721  17.261  0.0052  0.3961  0.4549
 5379SOL    HW127770   0.451   3.813  17.245  2.2666 -0.5232 -2.2302
 5379SOL    HW227771   0.377   3.736  17.337 -0.3328  2.0530 -0.1267
 5380SOL     OW27772   4.407   0.772   2.372  0.2399  0.3135  0.0123
 5380SOL    HW127773   4.388   0.773   2.465 -0.1402  0.6868 -0.0684
 5380SOL    HW227774   4.419   0.866   2.357 -1.7531  0.1880 -2.2926
 5381SOL     OW27775   2.841   3.066   6.595 -0.4185  0.0449 -0.4958
 5381SOL    HW127776   2.748   3.059   6.619 -0.2968 -0.6161 -0.2109
 5381SOL    HW227777   2.870   3.155   6.614 -2.3694  0.8224 -1.1281
 5382SOL     OW27778   4.189   3.522   8.040 -0.6272 -0.3160 -0.0003
 5382SOL    HW127779   4.128   3.583   8.081  1.4927 -0.5466  3.4688
 5382SOL    HW227780   4.267   3.513   8.094 -0.7711 -1.5349  0.0177
 5383SOL     OW27781   2.307   2.892   9.252  0.1762  0.3646  0.1497
 5383SOL    HW127782   2.377   2.936   9.301  1.4420  0.2124 -1.5262
 5383SOL    HW227783   2.354   2.836   9.191 -0.7427  0.1012 -0.3140
 5384SOL     OW27784   0.916   0.584   2.581  0.1040 -0.2759 -0.5870
 5384SOL    HW127785   0.923   0.493   2.555  1.7050 -0.2381 -0.2964
 5384SOL    HW227786   0.860   0.611   2.507 -1.4590  1.8577  1.3723
 5385SOL     OW27787   3.383   0.768  16.392 -0.2103  0.0404 -0.0081
 5385SOL    HW127788   3.437   0.727  16.324 -0.3137  1.8278 -1.1782
 5385SOL    HW227789   3.372   0.857  16.361 -0.5108 -0.0870 -0.2672
 5386SOL     OW27790   0.394   4.457   7.008 -0.5198  0.0717  0.2555
 5386SOL    HW127791   0.359   4.415   7.087  1.7659  0.3148  1.4056
 5386SOL    HW227792   0.444   4.531   7.044  0.4958 -1.6118  2.3340
 5387SOL     OW27793   3.540   2.271  16.409  0.0676 -0.1570 -0.0860
 5387SOL    HW127794   3.624   2.256  16.453  0.9076 -0.5596 -1.8355
 5387SOL    HW227795   3.539   2.365  16.388  1.3100  0.0036  0.5708
 5388SOL     OW27796   0.336   4.633   5.253  0.7432 -0.0142  0.4507
 5388SOL    HW127797   0.344   4.573   5.327  3.3808  0.2908  0.4096
 5388SOL    HW227798   0.389   4.709   5.275  2.5623 -0.6800 -1.5289
 5389SOL     OW27799   0.105   1.325  14.044 -0.5460 -0.2107 -0.4314
 5389SOL    HW127800   0.036   1.343  13.980  0.8050  0.4392 -1.7067
 5389SOL    HW227801   0.053   1.312  14.123  0.1266  0.1431  0.0683
 5390SOL     OW27802   4.345   4.183   2.344  0.5509  0.5191 -0.2818
 5390SOL    HW127803   4.366   4.140   2.427 -2.0556 -1.8208 -0.8536
 5390SOL    HW227804   4.287   4.117   2.307 -0.4207  0.7318  0.8556
 5391SOL     OW27805   2.449   2.193   4.542 -0.0881 -0.5551  0.3563
 5391SOL    HW127806   2.491   2.152   4.618  0.1362 -0.1096  0.4773
 5391SOL    HW227807   2.510   2.171   4.472 -0.5065  0.7721 -0.4287
 5392SOL     OW27808   0.727   2.979  17.279  0.4141  0.1689 -0.1416
 5392SOL    HW127809   0.795   3.034  17.318  0.7360 -0.0897 -0.3451
 5392SOL    HW227810   0.773   2.921  17.219  2.4389 -0.2137  1.7946
 5393SOL     OW27811   0.547   0.518  16.127  0.1878 -0.1565  0.4050
 5393SOL    HW127812   0.614   0.467  16.081  0.9736  1.8107 -0.6474
 5393SOL    HW227813   0.463   0.481  16.098 -0.8352  0.8767  2.0618
 5394SOL     OW27814   4.028   4.610   9.738 -0.4306  0.4194 -0.1097
 5394SOL    HW127815   4.083   4.541   9.774 -0.3512  0.0501 -0.9373
 5394SOL    HW227816   4.055   4.602   9.646 -0.1874  3.1084 -0.2761
 5395SOL     OW27817   2.018   0.670   5.341  0.1357  0.0970 -0.0295
 5395SOL    HW127818   2.082   0.739   5.355  0.0230 -0.3325  2.5720
 5395SOL    HW227819   1.965   0.707   5.270 -0.2491 -1.2092 -0.4283
 5396SOL     OW27820   1.508   2.524   2.999  0.0283 -0.3246 -0.2529
 5396SOL    HW127821   1.446   2.537   2.927  0.0122  3.2372  0.4144
 5396SOL    HW227822   1.561   2.602   2.987 -2.4003  1.2613 -0.6030
 5397SOL     OW27823   0.946   3.447   4.915  0.3287  0.4134 -0.1873
 5397SOL    HW127824   0.907   3.419   4.998  1.6937 -0.3694  0.1852
 5397SOL    HW227825   0.992   3.524   4.946  1.5264 -0.1587 -0.5541
 5398SOL     OW27826   3.831   4.139   6.974 -0.0263 -0.1534 -0.0325
 5398SOL    HW127827   3.803   4.098   6.892 -0.2489 -1.5591  0.7490
 5398SOL    HW227828   3.925   4.133   6.962  0.3237  0.5008  2.2099
 5399SOL     OW27829   3.961   2.953   6.456  0.2004 -0.5232 -0.2685
 5399SOL    HW127830   3.957   2.950   6.360  0.5124  1.5009 -0.3490
 5399SOL    HW227831   3.892   2.888   6.470  0.0811 -0.0953  1.0803
 5400SOL     OW27832   0.628   1.260   2.041 -0.5393  0.0752  0.1028
 5400SOL    HW127833   0.624   1.275   1.947 -1.3965  0.1990  0.1613
 5400SOL    HW227834   0.615   1.166   2.052  1.5948 -0.2339 -0.0230
 5401SOL     OW27835   4.681   1.335   3.590  0.3111  0.0145  1.2180
 5401SOL    HW127836   4.695   1.241   3.580  2.5005  0.4250  0.5607
 5401SOL    HW227837   4.612   1.358   3.528  0.3292 -0.8528  0.8812
 5402SOL     OW27838   3.241   1.473   7.073 -0.1621 -0.3750 -0.4843
 5402SOL    HW127839   3.159   1.497   7.115 -0.1377 -0.5199 -0.3524
 5402SOL    HW227840   3.292   1.434   7.144 -0.5630 -0.0323 -0.0093
 5403SOL     OW27841   1.806   3.539   6.132  0.0802 -0.2504  0.2068
 5403SOL    HW127842   1.757   3.575   6.057  0.7035  0.1941  0.0112
 5403SOL    HW227843   1.895   3.572   6.119  0.1577 -0.6386 -0.2657
 5404SOL     OW27844   1.307   2.431  17.573  0.0303 -0.2074  1.0280
 5404SOL    HW127845   1.346   2.509  17.533  2.0240 -1.3861  0.6466
 5404SOL    HW227846   1.376   2.365  17.575  0.3451  0.0383 -0.9966
 5405SOL     OW27847   0.087   3.369   1.972 -0.2025 -0.3963 -0.0853
 5405SOL    HW127848   0.055   3.300   2.030 -1.4913 -0.2809 -0.6630
 5405SOL    HW227849   0.151   3.322   1.919  0.7167  1.1076 -0.2979
 5406SOL     OW27850   3.415   0.287   2.155  0.0193 -0.5284  0.2417
 5406SOL    HW127851   3.503   0.281   2.119 -0.2907  0.5809 -0.6936
 5406SOL    HW227852   3.367   0.209   2.126 -1.0416  1.3018 -2.9595
 5407SOL     OW27853   4.274   4.420   6.969  0.4017  0.1470  0.0541
 5407SOL    HW127854   4.323   4.431   7.050 -0.2024  1.4670  0.2324
 5407SOL    HW227855   4.198   4.373   7.002 -1.8205  1.2733 -3.4235
 5408SOL     OW27856   2.126   1.454   2.642  0.0171 -0.3795  0.1254
 5408SOL    HW127857   2.128   1.494   2.555  1.1192 -1.2124 -0.2401
 5408SOL    HW227858   2.127   1.361   2.622 -1.9203 -0.6686  1.4076
 5409SOL     OW27859   0.458   3.964  16.916  0.0196  0.2120  0.4530
 5409SOL    HW127860   0.494   3.930  16.834  1.0941  1.1627  0.5406
 5409SOL    HW227861   0.386   3.903  16.936 -0.2770  0.2452 -0.5049
 5410SOL     OW27862   4.282   0.150   8.258 -0.4095  0.0578  0.3858
 5410SOL    HW127863   4.228   0.141   8.337  3.1877  0.7669  2.9360
 5410SOL    HW227864   4.220   0.177   8.191 -0.4968 -0.2962  0.3211
 5411SOL     OW27865   4.174   3.084   5.122  0.1107  0.0267  0.3395
 5411SOL    HW127866   4.211   3.039   5.198 -0.8625 -1.7993 -0.2676
 5411SOL    HW227867   4.136   3.165   5.156 -0.2014 -0.2914  0.7464
 5412SOL     OW27868   1.209   0.447   7.420  0.2451 -0.6077 -0.3171
 5412SOL    HW127869   1.270   0.374   7.434  0.2464 -0.9615 -2.1464
 5412SOL    HW227870   1.226   0.496   7.500 -0.5674 -1.4732  0.3792
 5413SOL     OW27871   0.957   0.400   3.177 -0.6036 -0.0357 -0.7805
 5413SOL    HW127872   0.982   0.492   3.169 -1.3813  0.3646  1.4313
 5413SOL    HW227873   0.898   0.394   3.101 -0.3471 -1.2637 -0.8816
 5414SOL     OW27874   4.651   0.158   5.075 -0.0550 -0.1758  0.2122
 5414SOL    HW127875   4.722   0.220   5.089 -1.0584  1.3931 -1.6421
 5414SOL    HW227876   4.580   0.197   5.024  0.0642 -0.7138 -0.3674
 5415SOL     OW27877   1.163   4.288   6.809 -0.5768 -0.5213  0.1001
 5415SOL    HW127878   1.132   4.264   6.896 -2.6748  2.0360  0.0610
 5415SOL    HW227879   1.120   4.223   6.754  0.0023 -0.3081 -0.6079
 5416SOL     OW27880   4.137   2.135   4.286 -0.2909 -0.6272  0.0971
 5416SOL    HW127881   4.189   2.055   4.280  1.6681  0.5851  0.7713
 5416SOL    HW227882   4.195   2.201   4.323  1.2326 -1.6333 -0.5114
 5417SOL     OW27883   1.790   2.648  10.649 -0.7435 -0.3743 -0.0508
 5417SOL    HW127884   1.724   2.578  10.651  2.9920 -3.8692  0.5836
 5417SOL    HW227885   1.870   2.595  10.646 -0.3315  0.3738 -2.0683
 5418SOL     OW27886   3.988   0.726  17.355 -0.1154 -0.1421 -0.1197
 5418SOL    HW127887   3.917   0.706  17.294 -0.7552  1.1166  0.2216
 5418SOL    HW227888   3.977   0.821  17.360 -0.3584 -0.1535 -0.4789
 5419SOL     OW27889   0.514   2.611   5.741 -0.6839  0.3144 -1.0946
 5419SOL    HW127890   0.549   2.699   5.753 -1.0265  0.0254  1.9254
 5419SOL    HW227891   0.468   2.619   5.657 -1.3454  0.2722 -0.7412
 5420SOL     OW27892   0.498   0.114   5.253  0.3661  0.7186  0.0048
 5420SOL    HW127893   0.472   0.203   5.277 -0.1686  0.3015  0.9616
 5420SOL    HW227894   0.529   0.134   5.164 -0.2031  0.2313 -0.3071
 5421SOL     OW27895   2.288   2.333  13.604  0.0491  0.1085 -0.0465
 5421SOL    HW127896   2.281   2.253  13.552 -1.2111  1.0209 -1.2682
 5421SOL    HW227897   2.199   2.349  13.635 -0.0905  1.0282 -0.9067
 5422SOL     OW27898   0.482   1.389   3.676 -0.3477 -0.1361 -0.2254
 5422SOL    HW127899   0.386   1.390   3.670 -0.0739 -0.2583 -4.9066
 5422SOL    HW227900   0.495   1.478   3.643 -1.5206  0.9668  2.2452
 5423SOL     OW27901   1.126   2.369   6.735  0.0874 -0.6940  0.5742
 5423SOL    HW127902   1.065   2.305   6.773 -0.2742  0.8172  2.5683
 5423SOL    HW227903   1.185   2.377   6.810  0.3355  1.5209  0.1550
 5424SOL     OW27904   4.468   1.816   0.230 -0.4448  0.1542  0.4153
 5424SOL    HW127905   4.481   1.900   0.185  3.0125 -0.1970  0.7657
 5424SOL    HW227906   4.560   1.793   0.245  0.4667  2.7204 -1.1629
 5425SOL     OW27907   3.568   0.919   7.176 -0.4712 -0.5496 -0.2434
 5425SOL    HW127908   3.598   0.933   7.086  0.7442  0.7206  0.3645
 5425SOL    HW227909   3.487   0.873   7.152  0.3197 -2.4326  0.7712
 5426SOL     OW27910   0.053   0.711   4.114 -0.8911 -0.2692 -0.3917
 5426SOL    HW127911   4.736   0.632   4.112  0.1523 -1.0737  2.4681
 5426SOL    HW227912   0.073   0.722   4.021  0.5926 -2.0008 -0.2895
 5427SOL     OW27913   4.683   0.218  16.568  0.0750 -0.0781 -0.2350
 5427SOL    HW127914   4.619   0.229  16.638  1.5162  2.3928  0.6998
 5427SOL    HW227915   4.647   0.141  16.525  2.2573 -3.2458  3.5812
 5428SOL     OW27916   2.247   4.271   4.200  0.3141 -0.2224  0.1405
 5428SOL    HW127917   2.252   4.185   4.157  0.2546 -0.1427 -0.0234
 5428SOL    HW227918   2.158   4.276   4.235  0.9060  2.3168  1.2551
 5429SOL     OW27919   3.966   4.637   9.338  0.3106 -0.0787 -0.3187
 5429SOL    HW127920   4.034   4.638   9.406 -1.7789  0.7119  1.8055
 5429SOL    HW227921   3.989   4.557   9.292  0.7823 -0.0671 -0.1039
 5430SOL     OW27922   0.864   1.151   1.079  0.7823 -0.5548 -0.4354
 5430SOL    HW127923   0.931   1.126   1.015  0.0839 -1.9218 -0.6212
 5430SOL    HW227924   0.801   1.080   1.072  0.7091 -0.5202 -0.1372
 5431SOL     OW27925   0.565   2.927  15.523  0.0815  0.1466  0.2618
 5431SOL    HW127926   0.508   2.919  15.599  2.0202 -0.4674  1.6505
 5431SOL    HW227927   0.533   3.012  15.492  1.0417  1.3110  2.4578
 5432SOL     OW27928   3.551   2.619   2.794 -0.1637 -0.9534 -0.0536
 5432SOL    HW127929   3.465   2.578   2.796 -0.9038  0.7361  3.7331
 5432SOL    HW227930   3.610   2.552   2.760 -0.9965 -2.0255  0.6160
 5433SOL     OW27931   2.380   1.704   0.742 -0.0186 -0.2750  0.3913
 5433SOL    HW127932   2.411   1.756   0.668 -0.5137  0.1173  0.4527
 5433SOL    HW227933   2.288   1.732   0.741 -0.1773 -0.8484 -0.7139
 5434SOL     OW27934   2.106   1.498  15.249 -0.1287 -0.7950 -0.1292
 5434SOL    HW127935   2.119   1.522  15.341 -3.4453  1.4626 -0.2490
 5434SOL    HW227936   2.028   1.444  15.262 -1.0341  0.7841  1.0077
 5435SOL     OW27937   1.458   0.141  15.624 -0.1692 -0.0953 -0.1272
 5435SOL    HW127938   1.517   0.163  15.552 -0.3173 -0.0389 -0.2323
 5435SOL    HW227939   1.387   0.201  15.601  0.2282  0.3278 -0.2656
 5436SOL     OW27940   0.093   4.163   4.927 -0.8265  0.4081 -0.1442
 5436SOL    HW127941   0.045   4.241   4.897 -2.5090  0.7936  3.5420
 5436SOL    HW227942   0.108   4.189   5.018  2.6695  2.4833 -1.3074
 5437SOL     OW27943   3.532   3.664   2.045  0.5565  0.3251  0.6218
 5437SOL    HW127944   3.469   3.722   2.089  0.5358  1.9018 -1.4968
 5437SOL    HW227945   3.608   3.659   2.102  1.1793  1.4795 -0.1202
 5438SOL     OW27946   4.596   0.066  15.871  0.0679  0.3674  0.0360
 5438SOL    HW127947   4.521   0.026  15.827  1.3262 -0.7690 -1.0887
 5438SOL    HW227948   4.558   0.103  15.950 -4.3522 -3.4719 -0.2396
 5439SOL     OW27949   3.178   4.708  16.937  0.2276  0.2536  0.0608
 5439SOL    HW127950   3.102   4.705  16.994  0.2337 -0.4419  0.0256
 5439SOL    HW227951   3.196   4.616  16.919  0.7072  0.0704  1.4582
 5440SOL     OW27952   4.714   0.249   2.858  0.1601  0.0581 -0.0877
 5440SOL    HW127953   4.710   0.156   2.881  1.3661  0.6726  2.6439
 5440SOL    HW227954   4.624   0.262   2.827 -0.1317  2.6763  1.8455
 5441SOL     OW27955   2.044   0.186   1.567  0.0413 -0.7490  0.2003
 5441SOL    HW127956   2.028   0.208   1.476  0.7806 -0.9617  0.0212
 5441SOL    HW227957   1.978   0.117   1.575 -0.8401  0.2222  1.3271
 5442SOL     OW27958   2.422   4.695  11.899 -0.4021  0.2104  0.6446
 5442SOL    HW127959   2.386   0.044  11.879 -0.4310  0.0487 -0.0056
 5442SOL    HW227960   2.515   4.718  11.900  0.3464 -2.5273 -2.8119
 5443SOL     OW27961   1.909   2.614   5.219  0.3084 -0.4443 -0.3059
 5443SOL    HW127962   1.974   2.684   5.209 -1.5036  1.2500 -0.2803
 5443SOL    HW227963   1.833   2.646   5.170 -0.2250 -1.4503 -0.1305
 5444SOL     OW27964   0.073   1.642   4.657  0.1226 -0.2982 -0.2293
 5444SOL    HW127965   0.010   1.577   4.686  0.9827 -1.1226 -0.2183
 5444SOL    HW227966   0.125   1.584   4.601  1.7156  1.3680 -0.5065
 5445SOL     OW27967   1.302   2.953   8.635  0.0841  0.0585  0.2138
 5445SOL    HW127968   1.391   2.982   8.612  1.7142 -2.4319  3.4843
 5445SOL    HW227969   1.280   3.015   8.705 -0.7810 -0.6778  0.5820
 5446SOL     OW27970   2.791   2.555   7.553  0.4263  0.5096  0.4913
 5446SOL    HW127971   2.824   2.613   7.484 -1.3674 -0.9360 -1.5719
 5446SOL    HW227972   2.721   2.612   7.584 -0.7357 -0.1153 -1.0246
 5447SOL     OW27973   2.398   4.010   4.654 -0.2111 -0.4085 -0.0994
 5447SOL    HW127974   2.358   4.067   4.719 -1.2165 -0.2343 -0.8693
 5447SOL    HW227975   2.467   3.964   4.703  0.9765  0.5313 -0.9017
 5448SOL     OW27976   2.034   2.654  16.416  0.0912 -0.0587  0.3328
 5448SOL    HW127977   2.044   2.685  16.506  0.0195  1.6813 -0.2406
 5448SOL    HW227978   2.102   2.705  16.372 -0.6275  0.8927  0.3240
 5449SOL     OW27979   4.011   0.843   4.853 -0.1266 -0.4425  0.0573
 5449SOL    HW127980   3.982   0.759   4.888 -3.3519 -0.3611 -2.3763
 5449SOL    HW227981   3.931   0.895   4.849  0.7040  0.7828 -0.6685
 5450SOL     OW27982   4.386   3.786   3.086 -0.2280 -0.6641 -0.2452
 5450SOL    HW127983   4.317   3.845   3.115  1.4962 -0.1675  2.8469
 5450SOL    HW227984   4.346   3.699   3.094 -0.1851 -0.4170  2.7384
 5451SOL     OW27985   4.147   0.699  10.611 -0.0772  0.2652 -0.3206
 5451SOL    HW127986   4.202   0.623  10.631 -4.0762 -2.4834  0.2793
 5451SOL    HW227987   4.107   0.717  10.696 -0.9168 -1.8176 -0.2637
 5452SOL     OW27988   1.446   1.305   8.680  0.2012  0.6515  0.2532
 5452SOL    HW127989   1.436   1.395   8.710  0.8989  0.5992  0.6428
 5452SOL    HW227990   1.362   1.274   8.715  0.8051 -0.6905  0.4923
 5453SOL     OW27991   4.226   0.010   6.599  0.6508  0.1013 -0.1320
 5453SOL    HW127992   4.224   0.050   6.686  0.5822 -1.0426  0.3873
 5453SOL    HW227993   4.234   4.653   6.614 -0.0870  0.2234  1.0584
 5454SOL     OW27994   2.219   2.234   3.448  0.2940 -0.2255  0.2413
 5454SOL    HW127995   2.159   2.257   3.377 -0.3412  0.3364  0.9573
 5454SOL    HW227996   2.280   2.308   3.441 -1.1561  1.0970  1.4931
 5455SOL     OW27997   4.547   3.687  16.249 -0.4194 -0.4771  0.2665
 5455SOL    HW127998   4.468   3.713  16.296  0.0155  0.6939  0.3515
 5455SOL    HW227999   4.584   3.776  16.251 -0.9960 -0.1884 -2.5184
 5456SOL     OW28000   3.404   3.434   4.058  0.1844 -0.1638  0.0377
 5456SOL    HW128001   3.427   3.382   4.134 -1.0427 -2.3347 -1.0864
 5456SOL    HW228002   3.344   3.492   4.105  0.6674 -0.6659  1.2550
 5457SOL     OW28003   0.949   1.350   6.210  0.4601 -0.9659 -0.2046
 5457SOL    HW128004   1.018   1.296   6.250  3.1722  0.0982 -3.4756
 5457SOL    HW228005   0.903   1.284   6.159 -0.4204 -0.5433  0.0506
 5458SOL     OW28006   0.330   2.641   9.533  0.0283 -0.1188  0.3204
 5458SOL    HW128007   0.323   2.640   9.628 -1.5798  3.3386  0.2355
 5458SOL    HW228008   0.415   2.598   9.521 -0.0287  0.1343 -1.0109
 5459SOL     OW28009   2.989   1.208   1.821  0.1874  0.1734  0.1986
 5459SOL    HW128010   3.024   1.125   1.790 -0.5683 -1.3065  3.3347
 5459SOL    HW228011   2.947   1.177   1.901  1.1962  1.8475  1.3924
 5460SOL     OW28012   2.809   1.403  14.779  0.2386  0.4403 -0.7814
 5460SOL    HW128013   2.752   1.455  14.722 -0.7368  0.5667  0.2862
 5460SOL    HW228014   2.747   1.377  14.848 -1.9407  0.7216 -2.6068
 5461SOL     OW28015   2.672   3.924  14.805  0.1853 -0.3766  0.3142
 5461SOL    HW128016   2.758   3.889  14.831  0.0870 -0.1858  0.8882
 5461SOL    HW228017   2.612   3.913  14.878  1.9631 -1.1593  1.6737
 5462SOL     OW28018   0.911   1.260   1.688 -0.3073 -0.1746  0.2234
 5462SOL    HW128019   0.914   1.211   1.770  1.6106  2.1014  1.5264
 5462SOL    HW228020   0.989   1.314   1.705 -0.1325 -0.8891  1.7153
 5463SOL     OW28021   3.226   2.573   7.014  0.2898 -0.0485  0.7804
 5463SOL    HW128022   3.261   2.490   7.046  0.9780  0.3273  1.0187
 5463SOL    HW228023   3.291   2.606   6.952  0.5798  0.6355  1.4436
 5464SOL     OW28024   1.314   2.910   4.526  0.4052 -0.6309 -0.1242
 5464SOL    HW128025   1.395   2.960   4.514  0.0178  0.4681  1.6754
 5464SOL    HW228026   1.268   2.929   4.444  2.0485 -0.0007 -0.9063
 5465SOL     OW28027   1.208   3.393   5.510 -0.2321 -0.0499  0.3879
 5465SOL    HW128028   1.162   3.320   5.468 -1.5217 -0.0189  1.7304
 5465SOL    HW228029   1.195   3.456   5.439  0.5499 -0.0820  0.2175
 5466SOL     OW28030   4.563   3.843   6.836 -0.0354  0.1725  0.0201
 5466SOL    HW128031   4.493   3.835   6.901  0.9535 -1.0095  0.9541
 5466SOL    HW228032   4.640   3.822   6.889 -1.0235 -0.4772  1.2082
 5467SOL     OW28033   4.077   1.300   3.323  0.7682 -0.1772 -0.0757
 5467SOL    HW128034   4.033   1.215   3.323 -1.0396  0.7548  1.1417
 5467SOL    HW228035   4.153   1.278   3.377 -0.1244  1.0390  1.6680
 5468SOL     OW28036   4.107   0.989   1.375 -0.3802 -0.4222  0.1811
 5468SOL    HW128037   4.113   0.903   1.417  3.5676  0.0881  0.6634
 5468SOL    HW228038   4.135   0.967   1.286  1.1608 -0.6344  0.7221
 5469SOL     OW28039   1.189   0.194  11.508 -0.2713  0.0705 -0.2568
 5469SOL    HW128040   1.283   0.201  11.525 -0.1585 -2.8080  0.3065
 5469SOL    HW228041   1.190   0.252  11.432  3.5718  0.3078 -0.0335
 5470SOL     OW28042   1.092   3.805   5.999 -0.1931  0.1887  0.3441
 5470SOL    HW128043   1.149   3.737   6.035 -1.4099 -0.1368  1.6296
 5470SOL    HW228044   1.110   3.798   5.905  0.7599  1.6070  0.4218
 5471SOL     OW28045   0.051   2.572   5.924  0.4506  0.3923 -0.2473
 5471SOL    HW128046   0.137   2.529   5.931  0.2193  0.3622  2.5780
 5471SOL    HW228047   0.017   2.518   5.853  2.5718 -2.5506  0.9568
 5472SOL     OW28048   2.117   3.730   4.128  0.2029 -0.3080 -0.1334
 5472SOL    HW128049   2.086   3.730   4.037  2.8093 -1.0239 -1.0147
 5472SOL    HW228050   2.034   3.752   4.170 -0.4332  1.4931 -2.3462
 5473SOL     OW28051   3.477   0.783   8.241 -0.4034  0.1659  0.1438
 5473SOL    HW128052   3.419   0.738   8.302 -1.9948  0.3749 -1.2339
 5473SOL    HW228053   3.558   0.781   8.293  0.2819 -1.7409 -0.9986
 5474SOL     OW28054   4.153   3.399   1.526  0.4716 -0.1519  0.5559
 5474SOL    HW128055   4.136   3.385   1.433  1.4218  0.8873  0.2230
 5474SOL    HW228056   4.237   3.444   1.516 -0.1389  0.8039 -0.3223
 5475SOL     OW28057   0.997   1.195   9.309 -0.3305  0.3092 -0.1414
 5475SOL    HW128058   0.948   1.250   9.248 -1.3788 -1.8622 -1.2197
 5475SOL    HW228059   0.953   1.112   9.293 -1.0810  0.9657 -1.3965
 5476SOL     OW28060   2.690   3.506   7.298  0.1380 -0.0967  0.0912
 5476SOL    HW128061   2.699   3.531   7.206 -0.8682 -1.9037 -0.4961
 5476SOL    HW228062   2.647   3.583   7.336  0.2353 -0.2776  0.5594
 5477SOL     OW28063   3.260   1.451   5.478  0.6688 -0.7896  0.3522
 5477SOL    HW128064   3.343   1.498   5.485  0.2442 -0.1327  1.0939
 5477SOL    HW228065   3.242   1.441   5.572 -1.8386  0.9052  0.0470
 5478SOL     OW28066   3.523   1.121   6.234  0.1353 -0.2067 -0.1294
 5478SOL    HW128067   3.576   1.181   6.286 -0.4038  1.1669 -1.1611
 5478SOL    HW228068   3.449   1.111   6.294  1.0262  1.9799  1.3449
 5479SOL     OW28069   0.569   4.588   4.861  0.2810 -0.4326 -0.6905
 5479SOL    HW128070   0.534   4.576   4.773  1.2412 -0.5216 -1.0674
 5479SOL    HW228071   0.504   4.541   4.914  0.2554  0.8115  0.3936
 5480SOL     OW28072   1.523   0.730   2.451 -0.0240 -0.0198 -0.1805
 5480SOL    HW128073   1.486   0.805   2.497  1.0342 -0.6474  1.7002
 5480SOL    HW228074   1.587   0.765   2.389  1.3501 -0.6529  0.8682
 5481SOL     OW28075   2.528   2.699   1.772 -1.0344  0.3899  0.0789
 5481SOL    HW128076   2.478   2.622   1.745  0.8147 -0.3264 -1.3052
 5481SOL    HW228077   2.618   2.668   1.782 -1.4956 -1.3368 -1.1383
 5482SOL     OW28078   4.452   1.343   5.933 -0.2455  0.6728  0.2504
 5482SOL    HW128079   4.477   1.317   6.022 -0.5492  1.8994  0.6944
 5482SOL    HW228080   4.366   1.303   5.926  0.2624 -0.0082 -2.1340
 5483SOL     OW28081   2.022   2.295   9.216 -0.2283 -0.4223  0.1563
 5483SOL    HW128082   1.929   2.317   9.213  0.4751  2.1646 -2.7488
 5483SOL    HW228083   2.051   2.297   9.125  0.4093  1.0253  0.3883
 5484SOL     OW28084   2.300   2.860   3.266 -0.1763 -0.2812  0.0578
 5484SOL    HW128085   2.306   2.792   3.334  2.1648 -0.5895 -0.4637
 5484SOL    HW228086   2.390   2.875   3.238 -0.1990 -0.9349 -0.3597
 5485SOL     OW28087   2.844   3.034   0.963  0.4405 -0.1557 -0.0266
 5485SOL    HW128088   2.863   3.013   0.872 -0.9903  1.5711 -0.7142
 5485SOL    HW228089   2.876   2.960   1.016  1.4544 -0.4761 -1.0872
 5486SOL     OW28090   3.036   1.402  10.208  0.0965  0.2914 -0.5108
 5486SOL    HW128091   2.945   1.430  10.196  0.6182  2.2405 -0.0044
 5486SOL    HW228092   3.081   1.437  10.131  0.7330 -0.9205 -0.6851
 5487SOL     OW28093   1.607   2.261   6.159  0.4400 -0.0227 -0.4183
 5487SOL    HW128094   1.635   2.196   6.224  0.7242  0.9796  0.4536
 5487SOL    HW228095   1.535   2.213   6.118 -0.1906  0.1869  0.4556
 5488SOL     OW28096   0.406   1.005   1.733 -0.2859  0.0035 -0.4363
 5488SOL    HW128097   0.495   1.010   1.769 -0.5148 -3.3873  0.6136
 5488SOL    HW228098   0.402   0.910   1.742 -0.5562 -0.1047 -1.6793
 5489SOL     OW28099   2.612   0.035   4.399  0.3636  0.5436  0.0381
 5489SOL    HW128100   2.561   0.098   4.347  0.7181  0.3384 -0.5661
 5489SOL    HW228101   2.655   0.094   4.461 -1.1265  0.0770  1.5094
 5490SOL     OW28102   3.101   4.207   9.027 -0.1922  0.0576 -0.4689
 5490SOL    HW128103   3.157   4.131   9.016 -1.7374 -1.4352  2.1037
 5490SOL    HW228104   3.159   4.276   8.993  0.6636 -1.9369 -3.0319
 5491SOL     OW28105   1.676   0.154   6.341 -0.4672 -0.2744  0.2347
 5491SOL    HW128106   1.624   0.225   6.305 -0.6880  0.2238  1.5392
 5491SOL    HW228107   1.673   0.183   6.432 -1.4191  1.3163 -0.3111
 5492SOL     OW28108   1.499   2.397   5.148 -0.5641  0.3367  0.1292
 5492SOL    HW128109   1.541   2.474   5.109 -0.3851  0.8206  1.2754
 5492SOL    HW228110   1.552   2.391   5.227  0.1196 -2.9578 -0.6090
 5493SOL     OW28111   3.602   3.664   3.065 -0.4622  0.0746 -0.5163
 5493SOL    HW128112   3.656   3.602   3.115  0.3756 -0.2636 -1.8527
 5493SOL    HW228113   3.649   3.658   2.982 -0.6206  1.0077 -0.6693
 5494SOL     OW28114   0.499   2.295   8.271  0.5199 -0.2286  0.7807
 5494SOL    HW128115   0.455   2.300   8.356  1.1013 -1.7022  1.1733
 5494SOL    HW228116   0.491   2.386   8.243 -0.1342 -0.4304  0.3046
 5495SOL     OW28117   3.630   2.967   8.788  0.0391 -0.1375  0.1034
 5495SOL    HW128118   3.557   3.024   8.764  0.5749 -0.2171 -1.6879
 5495SOL    HW228119   3.664   2.935   8.705  0.6759  0.8359 -0.0003
 5496SOL     OW28120   0.806   3.310   7.991  0.1471 -0.3006  0.2690
 5496SOL    HW128121   0.838   3.230   7.949  1.5504  0.0042  0.7360
 5496SOL    HW228122   0.863   3.313   8.067 -0.5180 -1.1038  0.7935
 5497SOL     OW28123   1.015   2.678   5.918 -0.0885  0.0367  0.1115
 5497SOL    HW128124   1.029   2.705   6.008  1.5587  0.7386 -0.3671
 5497SOL    HW228125   0.932   2.630   5.915 -0.2586  0.3217  0.2778
 5498SOL     OW28126   1.052   3.567   8.244 -0.0681 -0.2141  0.1701
 5498SOL    HW128127   1.031   3.574   8.337  1.0969  2.0130  0.2542
 5498SOL    HW228128   1.134   3.615   8.252 -0.9740  1.4209 -0.5431
 5499SOL     OW28129   3.332   1.194   4.509 -0.3611 -0.0096 -0.6045
 5499SOL    HW128130   3.285   1.267   4.468  0.8585 -0.3069 -2.5409
 5499SOL    HW228131   3.258   1.133   4.516  0.9427 -1.4761  0.2789
 5500SOL     OW28132   2.856   2.682   7.121 -0.4562 -0.8225 -0.1714
 5500SOL    HW128133   2.866   2.602   7.069  0.9740 -0.6819 -0.1196
 5500SOL    HW228134   2.936   2.733   7.105 -0.0257 -0.6462  2.4963
 5501SOL     OW28135   4.186   2.768  10.945 -0.3113  0.0747 -0.0577
 5501SOL    HW128136   4.146   2.852  10.922  1.8228  1.1242  0.0934
 5501SOL    HW228137   4.127   2.703  10.907  1.2623 -0.7104 -1.1482
 5502SOL     OW28138   4.589   4.226   5.316 -0.1277  0.3297  0.8664
 5502SOL    HW128139   4.497   4.242   5.293  0.6286 -1.9025 -3.6155
 5502SOL    HW228140   4.592   4.136   5.349  0.2360  0.3776  0.9683
 5503SOL     OW28141   1.947   4.180   7.541  0.3558 -0.3026  0.2054
 5503SOL    HW128142   1.969   4.088   7.559 -1.4428 -0.5173  1.3816
 5503SOL    HW228143   1.862   4.180   7.497 -0.0185 -0.2369  0.9167
 5504SOL     OW28144   1.688   4.427   9.150  0.0402  0.2107  0.2748
 5504SOL    HW128145   1.626   4.497   9.170 -0.9786 -0.6943  0.2231
 5504SOL    HW228146   1.631   4.354   9.173  1.0703 -1.0976 -1.3107
 5505SOL     OW28147   3.017   1.726  12.118  0.5188  0.1696 -0.0098
 5505SOL    HW128148   3.078   1.792  12.086  0.9170  0.2162  0.8538
 5505SOL    HW228149   2.941   1.784  12.117 -0.6092 -1.2854  1.0911
 5506SOL     OW28150   1.713   0.316   7.394  0.1048  0.4131 -0.0503
 5506SOL    HW128151   1.689   0.326   7.487  1.7512 -0.1952  0.4392
 5506SOL    HW228152   1.806   0.295   7.402 -1.1025 -4.8617 -0.5315
 5507SOL     OW28153   3.550   2.543  16.318 -0.0630 -0.1049  0.0444
 5507SOL    HW128154   3.529   2.617  16.375  0.9782 -0.3485  0.7322
 5507SOL    HW228155   3.495   2.555  16.240  0.9583 -1.0579 -0.8189
 5508SOL     OW28156   0.065   4.543   8.997 -0.1354  0.1399 -0.9353
 5508SOL    HW128157   0.068   4.610   8.929  0.5990 -1.4178 -2.4330
 5508SOL    HW228158   4.708   4.529   9.002 -0.3549  2.1516  0.5913
 5509SOL     OW28159   3.984   2.077   4.983 -0.0677  0.1419 -0.5933
 5509SOL    HW128160   3.970   2.142   4.914 -0.7238 -0.8672 -1.4060
 5509SOL    HW228161   3.900   2.108   5.015 -0.7570 -1.7968 -0.5192
 5510SOL     OW28162   1.261   2.839   4.265 -0.0513 -0.2897  0.0612
 5510SOL    HW128163   1.293   2.820   4.177  1.3702  1.5913  0.1636
 5510SOL    HW228164   1.313   2.775   4.312  0.3230 -0.0614 -0.0352
 5511SOL     OW28165   2.878   3.965   3.181  0.3349  0.0037  0.4410
 5511SOL    HW128166   2.786   3.977   3.155 -0.3838 -1.7535  2.1400
 5511SOL    HW228167   2.896   4.029   3.250 -0.0505  1.7226 -1.0589
 5512SOL     OW28168   1.234   2.481  14.014 -0.2940 -0.1613 -0.4358
 5512SOL    HW128169   1.203   2.553  13.959 -1.9907 -0.7370 -0.2233
 5512SOL    HW228170   1.315   2.528  14.037 -2.0043  0.9543  3.2007
 5513SOL     OW28171   3.832   0.803   5.158 -0.2730  0.2085  0.1597
 5513SOL    HW128172   3.861   0.822   5.247  1.1896 -0.2354 -0.2164
 5513SOL    HW228173   3.774   0.876   5.139 -0.5766  0.5125  2.2780
 5514SOL     OW28174   3.136   2.070   3.966 -0.2265  0.1818  0.2470
 5514SOL    HW128175   3.114   2.156   4.002  1.2825  0.3502  0.7635
 5514SOL    HW228176   3.224   2.090   3.934 -1.2772  2.5247 -1.2301
 5515SOL     OW28177   3.896   4.570   5.891  0.5382 -0.6148 -0.5566
 5515SOL    HW128178   3.852   4.521   5.822 -1.9293  1.3552 -0.3893
 5515SOL    HW228179   3.973   4.603   5.845  1.1868  0.9053  1.5792
 5516SOL     OW28180   2.301   3.455   0.573  0.2840  0.2424 -0.1039
 5516SOL    HW128181   2.320   3.362   0.558  2.8611  0.5729  1.1059
 5516SOL    HW228182   2.294   3.456   0.668  0.1458  2.4596 -0.1567
 5517SOL     OW28183   0.128   0.092   7.283 -0.0604  0.3695 -0.0976
 5517SOL    HW128184   0.094   0.068   7.197 -1.6663  0.5138  0.4972
 5517SOL    HW228185   0.093   0.023   7.339  1.0652  0.0231  0.1768
 5518SOL     OW28186   0.411   4.192   5.589 -0.6274 -0.2100  0.8961
 5518SOL    HW128187   0.343   4.255   5.614 -1.0963 -0.4181  0.1489
 5518SOL    HW228188   0.367   4.108   5.602  0.1003 -0.4766  1.5847
 5519SOL     OW28189   1.535   0.674   4.154  0.3421  0.0779  0.1875
 5519SOL    HW128190   1.626   0.666   4.182 -0.0407 -0.8342  1.1595
 5519SOL    HW228191   1.502   0.712   4.235 -2.1904  1.1584 -1.3332
 5520SOL     OW28192   1.044   1.239   7.481 -0.3753  0.3126 -0.0818
 5520SOL    HW128193   1.126   1.285   7.497  1.2666 -3.1286  1.5048
 5520SOL    HW228194   1.019   1.229   7.573  1.7433  0.8390  0.5606
 5521SOL     OW28195   3.823   2.517  13.843  0.1790 -0.0697 -0.5987
 5521SOL    HW128196   3.854   2.461  13.914  0.2239  1.6682  0.7673
 5521SOL    HW228197   3.729   2.503  13.833 -0.0990  1.4720 -0.1677
 5522SOL     OW28198   3.241   1.690   7.367 -0.7977  0.4374  0.1657
 5522SOL    HW128199   3.295   1.644   7.431 -1.3320 -0.6673 -0.1738
 5522SOL    HW228200   3.302   1.747   7.319 -2.1254 -0.5517 -2.6927
 5523SOL     OW28201   0.545   0.463   2.187 -0.1834  0.0264  0.6058
 5523SOL    HW128202   0.519   0.386   2.237 -0.0585  0.9720  2.1336
 5523SOL    HW228203   0.468   0.487   2.135 -0.0166  0.6635  0.6503
 5524SOL     OW28204   2.823   4.225   5.436 -0.3580  0.3952  0.1222
 5524SOL    HW128205   2.791   4.307   5.474  0.5423  0.4501  0.7629
 5524SOL    HW228206   2.851   4.253   5.349  2.7616 -1.5222  0.4985
 5525SOL     OW28207   1.788   3.007   7.753  0.1982 -0.4404 -0.4079
 5525SOL    HW128208   1.746   3.014   7.667  0.7661 -1.8394 -0.7931
 5525SOL    HW228209   1.746   2.932   7.795  1.5606  0.5632  2.7328
 5526SOL     OW28210   1.198   1.497  15.944  0.2762  0.1528 -0.2974
 5526SOL    HW128211   1.271   1.438  15.964 -0.2764 -0.8226 -1.1562
 5526SOL    HW228212   1.220   1.582  15.981 -2.3109  0.6104  0.1620
 5527SOL     OW28213   0.243   2.398  17.389  0.1744 -0.1141  0.2654
 5527SOL    HW128214   0.312   2.372  17.328  0.1851  3.4397 -1.2079
 5527SOL    HW228215   0.170   2.404  17.327  0.2687  2.1861  0.3719
 5528SOL     OW28216   0.716   0.078   6.490  0.5534 -0.5542 -0.0674
 5528SOL    HW128217   0.708   0.143   6.420  2.9623  0.6973  0.8283
 5528SOL    HW228218   0.629   0.064   6.528  0.4140 -1.5824 -0.7551
 5529SOL     OW28219   0.049   0.954   1.191  0.0190  0.2291 -0.1135
 5529SOL    HW128220   0.144   0.956   1.177 -0.0293  1.4874 -0.2512
 5529SOL    HW228221   0.040   1.018   1.261  1.5647 -0.5259  0.7704
 5530SOL     OW28222   3.252   2.036  12.174 -0.3937  0.0436  0.0333
 5530SOL    HW128223   3.166   2.032  12.216 -1.0856  0.7706 -1.3269
 5530SOL    HW228224   3.237   2.122  12.135  1.6824 -0.4360 -1.7856
 5531SOL     OW28225   3.575   1.894   3.929 -0.3524 -0.7302  0.2280
 5531SOL    HW128226   3.614   1.868   3.846 -1.9951 -0.0409 -0.7620
 5531SOL    HW228227   3.652   1.893   3.986 -1.5604  2.9343  1.9496
 5532SOL     OW28228   3.742   4.063  17.464  0.3069 -0.4234 -0.7573
 5532SOL    HW128229   3.824   4.040  17.422  0.8191 -2.6045  1.4533
 5532SOL    HW228230   3.754   4.034  17.554  0.9075  2.6624  0.1597
 5533SOL     OW28231   1.293   3.546   5.719  0.3118 -0.4166  0.7698
 5533SOL    HW128232   1.354   3.492   5.770 -0.1690  0.0619  1.8460
 5533SOL    HW228233   1.279   3.495   5.639  0.3600 -0.4912  0.8087
 5534SOL     OW28234   4.431   1.036   4.675  0.4092  0.0969  0.3426
 5534SOL    HW128235   4.336   1.038   4.674  0.3388 -2.0601  1.5094
 5534SOL    HW228236   4.451   0.995   4.759 -1.4710 -0.6525  0.4255
 5535SOL     OW28237   3.370   3.262   6.311 -0.4282 -0.0814 -0.0908
 5535SOL    HW128238   3.358   3.266   6.406  0.3133 -0.6658  0.0238
 5535SOL    HW228239   3.387   3.354   6.288 -0.0333  0.2284  1.4177
 5536SOL     OW28240   2.741   4.623   5.929  0.4470 -0.3250  0.7574
 5536SOL    HW128241   2.803   4.626   5.856 -0.9523  2.3236 -0.3273
 5536SOL    HW228242   2.780   4.547   5.971 -0.9443 -1.5277 -0.1096
 5537SOL     OW28243   1.411   1.000  14.871 -0.1481  0.2508 -0.4175
 5537SOL    HW128244   1.368   1.042  14.797  1.1522 -2.6466 -2.8069
 5537SOL    HW228245   1.390   0.907  14.873 -0.4066  0.3418  1.1174
 5538SOL     OW28246   4.370   4.186  10.332 -0.1405  0.1386  0.3455
 5538SOL    HW128247   4.458   4.199  10.370  0.9930 -0.9924 -1.9101
 5538SOL    HW228248   4.331   4.158  10.415  0.2980 -2.0657 -0.2196
 5539SOL     OW28249   3.620   1.016   7.927 -0.3347 -0.1550  0.0957
 5539SOL    HW128250   3.547   0.985   7.873  0.9853  0.6914 -2.1242
 5539SOL    HW228251   3.585   1.102   7.950 -0.9312 -0.5756  0.8041
 5540SOL     OW28252   3.833   0.422   1.608 -0.5241 -0.1807 -0.1268
 5540SOL    HW128253   3.865   0.445   1.521  0.8231 -1.3121  0.0668
 5540SOL    HW228254   3.752   0.473   1.605 -1.4439 -1.4386  3.3464
 5541SOL     OW28255   1.029   1.085   3.005 -0.0704 -0.5853  0.1266
 5541SOL    HW128256   1.007   0.993   2.988 -2.6283  0.2693 -1.1096
 5541SOL    HW228257   1.058   1.072   3.095  1.3781  0.4426 -0.1959
 5542SOL     OW28258   4.392   3.857  12.740 -0.0614  0.2361  0.8231
 5542SOL    HW128259   4.481   3.855  12.777 -0.4799 -0.4774  1.8069
 5542SOL    HW228260   4.380   3.951  12.753  1.0282  0.6844 -1.4345
 5543SOL     OW28261   0.170   4.346  13.033 -0.2590 -0.0272 -0.9631
 5543SOL    HW128262   0.092   4.342  13.087  1.3377 -0.6909  1.2858
 5543SOL    HW228263   0.198   4.256  13.046 -1.5220 -0.3606 -0.5643
 5544SOL     OW28264   0.904   1.078  10.608 -0.6344 -0.0808 -0.0046
 5544SOL    HW128265   0.813   1.091  10.633 -0.5006  1.0593 -0.0901
 5544SOL    HW228266   0.927   1.151  10.551  0.9314 -0.0885  0.6051
 5545SOL     OW28267   3.893   0.560   9.243 -0.1405 -0.0638  0.2511
 5545SOL    HW128268   3.850   0.565   9.329 -1.3869 -1.0677 -0.3316
 5545SOL    HW228269   3.984   0.539   9.265  0.1219  0.9694  0.1814
 5546SOL     OW28270   0.325   2.805   9.113  0.3808  0.6458  0.2401
 5546SOL    HW128271   0.239   2.797   9.072  0.4349  1.4784 -0.0308
 5546SOL    HW228272   0.303   2.764   9.197 -0.4411 -2.4070 -1.4572
 5547SOL     OW28273   1.495   1.096  16.514 -0.1006  0.1775 -0.3475
 5547SOL    HW128274   1.405   1.082  16.544 -0.3254  1.6135 -0.3262
 5547SOL    HW228275   1.494   1.030  16.445  0.4415 -0.2577  0.0569
 5548SOL     OW28276   2.876   3.576   0.244 -0.0959 -0.7852 -0.4418
 5548SOL    HW128277   2.810   3.526   0.292  0.9207  0.4074  2.2305
 5548SOL    HW228278   2.957   3.535   0.274  0.9801  1.7140  0.0707
 5549SOL     OW28279   3.687   4.069   4.271  0.6542 -0.3510 -0.1449
 5549SOL    HW128280   3.712   3.980   4.294 -0.5078  0.0607  2.8567
 5549SOL    HW228281   3.623   4.090   4.340  0.3106 -1.1961 -0.2072
 5550SOL     OW28282   4.619   3.998   8.816 -0.3962  0.0072  0.8592
 5550SOL    HW128283   4.688   4.063   8.800  0.4149 -0.9550  0.5035
 5550SOL    HW228284   4.611   4.003   8.911  1.6743 -1.3185  1.0881
 5551SOL     OW28285   3.375   2.080   8.788  0.8949  0.0186 -0.0675
 5551SOL    HW128286   3.333   1.995   8.802  0.1734  0.6203  1.4470
 5551SOL    HW228287   3.361   2.085   8.694 -2.1894  0.4411  0.4081
 5552SOL     OW28288   4.071   2.278   0.280  0.3065  0.6033 -0.5100
 5552SOL    HW128289   4.050   2.371   0.276 -1.0189  0.1702 -3.1830
 5552SOL    HW228290   3.985   2.239   0.270  0.1450  0.6158  0.7943
 5553SOL     OW28291   1.896   4.074   7.223  0.3723 -0.5789  0.1506
 5553SOL    HW128292   1.854   4.058   7.307 -1.0747  2.3412  0.0029
 5553SOL    HW228293   1.833   4.094   7.153  0.2429 -1.6969 -0.0588
 5554SOL     OW28294   2.252   3.965   9.411  0.0029 -0.0327  0.1315
 5554SOL    HW128295   2.338   3.976   9.453  0.5537 -2.1560 -0.4051
 5554SOL    HW228296   2.217   3.884   9.449 -0.4372 -0.5501 -1.4121
 5555SOL     OW28297   0.842   2.887  10.545  0.2628  0.6181  0.6572
 5555SOL    HW128298   0.887   2.932  10.616  0.2789 -1.2736  1.8217
 5555SOL    HW228299   0.768   2.845  10.590 -0.9361  1.2064 -0.7591
 5556SOL     OW28300   1.764   3.218   2.848  0.0188 -0.0002  0.2630
 5556SOL    HW128301   1.693   3.156   2.858  1.0251 -1.4882 -1.7705
 5556SOL    HW228302   1.760   3.279   2.922  0.7359 -0.5393  0.7435
 5557SOL     OW28303   2.460   3.918   7.178 -0.3105  0.2972  0.3330
 5557SOL    HW128304   2.438   3.966   7.098 -1.4931 -1.7378 -0.5694
 5557SOL    HW228305   2.377   3.886   7.212 -1.6844  2.1188 -1.3365
 5558SOL     OW28306   1.662   0.329   5.622  0.2010 -0.0936  0.0188
 5558SOL    HW128307   1.666   0.398   5.556 -0.3754 -0.2817 -0.2152
 5558SOL    HW228308   1.615   0.263   5.571  1.2112 -0.0964 -0.9203
 5559SOL     OW28309   4.019   0.729   8.198 -0.2966  0.5220 -0.5910
 5559SOL    HW128310   4.090   0.791   8.180  0.1979 -0.4020 -1.7620
 5559SOL    HW228311   4.048   0.648   8.158 -0.2181  1.3240 -2.1372
 5560SOL     OW28312   4.178   3.236  10.525  0.2257 -0.4060  0.2912
 5560SOL    HW128313   4.090   3.203  10.543 -1.0393  1.6163 -2.3165
 5560SOL    HW228314   4.240   3.206  10.593  0.7117 -1.5025 -0.6365
 5561SOL     OW28315   2.109   3.617  15.814 -0.3858  0.0604  0.1906
 5561SOL    HW128316   2.057   3.652  15.741 -0.5197  0.4410  0.4703
 5561SOL    HW228317   2.108   3.687  15.880  1.4501  1.7641 -1.5942
 5562SOL     OW28318   3.670   1.575   7.843  0.1641 -0.0755 -0.0838
 5562SOL    HW128319   3.588   1.553   7.886 -0.1100  1.5659  0.2108
 5562SOL    HW228320   3.726   1.500   7.863  1.0573  0.5520 -0.2226
 5563SOL     OW28321   4.538   0.168  14.245 -0.0621  0.1512  0.1849
 5563SOL    HW128322   4.616   0.115  14.264 -0.3652  0.0368  1.1394
 5563SOL    HW228323   4.491   0.125  14.174  2.4065 -2.5624  0.1599
 5564SOL     OW28324   0.764   4.456   3.824 -0.3033 -0.1960 -0.6338
 5564SOL    HW128325   0.846   4.440   3.777 -0.7171 -1.2140 -1.0156
 5564SOL    HW228326   0.755   4.375   3.874  1.8541 -0.3487 -0.5069
 5565SOL     OW28327   2.507   3.953   4.062 -0.2560  0.1949  0.1057
 5565SOL    HW128328   2.465   3.936   4.146  0.9775  0.3878  0.7659
 5565SOL    HW228329   2.460   4.023   4.017  1.3607  1.1765 -0.0802
 5566SOL     OW28330   4.178   2.231   9.582 -0.0089 -0.1349 -0.4109
 5566SOL    HW128331   4.084   2.246   9.597  0.5412  1.6201  1.2934
 5566SOL    HW228332   4.177   2.136   9.588 -0.6589 -0.0427  1.1376
 5567SOL     OW28333   0.839   1.562   1.856  0.1519 -0.9264  0.1145
 5567SOL    HW128334   0.920   1.612   1.848 -0.6932  0.4656  0.2362
 5567SOL    HW228335   0.810   1.583   1.945  0.6667 -2.3140  0.6143
 5568SOL     OW28336   4.272   3.578   6.783  0.1474 -0.2890  0.3807
 5568SOL    HW128337   4.311   3.498   6.748 -1.0236 -1.0528  0.8077
 5568SOL    HW228338   4.267   3.559   6.877 -2.3388 -0.7059  0.1514
 5569SOL     OW28339   0.338   0.623   0.200  0.7646  0.4506 -0.3964
 5569SOL    HW128340   0.389   0.689   0.152 -0.6459  0.6897 -1.5578
 5569SOL    HW228341   0.251   0.655   0.177  0.1725  0.0351  1.2611
 5570SOL     OW28342   0.197   1.094   3.424  0.0822 -0.0240  0.2771
 5570SOL    HW128343   0.159   1.010   3.446  0.0969 -0.5140 -1.5822
 5570SOL    HW228344   0.122   1.133   3.380  0.4699  0.4562  0.0299
 5571SOL     OW28345   4.300   1.021   7.838  0.0037  1.3120  0.5492
 5571SOL    HW128346   4.300   1.069   7.756 -1.5362 -0.3120 -0.4095
 5571SOL    HW228347   4.390   1.040   7.862  0.1272 -0.7699  1.7544
 5572SOL     OW28348   3.401   2.298   5.994  0.0795  0.4302 -0.4710
 5572SOL    HW128349   3.476   2.239   5.995  1.5261  2.2968  1.6607
 5572SOL    HW228350   3.396   2.315   5.900 -1.9325 -0.8712 -0.6017
 5573SOL     OW28351   1.470   3.425   6.334  0.1635  0.0111  0.0351
 5573SOL    HW128352   1.396   3.365   6.338  0.0616  0.1328 -0.0345
 5573SOL    HW228353   1.539   3.358   6.329  0.1852 -0.1726  3.2789
 5574SOL     OW28354   1.886   0.097  11.884 -0.6839 -0.2147 -0.2089
 5574SOL    HW128355   1.952   0.084  11.816  0.2973 -0.9044  0.8663
 5574SOL    HW228356   1.807   0.094  11.830 -0.5287  1.3105 -0.5232
 5575SOL     OW28357   0.592   1.952   1.569 -0.1375  0.4973 -0.4919
 5575SOL    HW128358   0.570   1.892   1.640  1.1554 -1.0150 -1.3695
 5575SOL    HW228359   0.683   1.971   1.592  0.3178 -0.2602 -1.6516
 5576SOL     OW28360   3.095   1.390   5.287 -0.1749  0.1160  0.2814
 5576SOL    HW128361   3.152   1.415   5.360  2.0497 -0.9680 -1.0809
 5576SOL    HW228362   3.009   1.391   5.327 -0.1838  0.8504  0.2386
 5577SOL     OW28363   2.550   2.657   7.637 -0.0333  0.2374  0.3159
 5577SOL    HW128364   2.486   2.599   7.679  0.3518  0.2457  0.9262
 5577SOL    HW228365   2.520   2.744   7.664  3.7327  1.6202  0.0968
 5578SOL     OW28366   1.087   0.713   8.768 -0.5363  0.3989  0.0126
 5578SOL    HW128367   1.080   0.638   8.708  1.8519  0.4491 -0.3419
 5578SOL    HW228368   1.034   0.691   8.844 -0.1678  0.6216  0.3351
 5579SOL     OW28369   1.286   2.537   3.682  0.2470 -0.1524 -0.4732
 5579SOL    HW128370   1.201   2.558   3.644 -0.9547 -0.5725  1.9659
 5579SOL    HW228371   1.331   2.581   3.610 -0.0673  1.3860  0.2618
 5580SOL     OW28372   1.677   4.065  13.333 -0.0888  0.4492 -0.0206
 5580SOL    HW128373   1.691   4.104  13.247  1.5909 -1.3792 -0.5768
 5580SOL    HW228374   1.692   4.136  13.396 -1.0396 -0.0501  0.7821
 5581SOL     OW28375   1.996   2.009   6.829  0.0667  0.3485  0.3099
 5581SOL    HW128376   1.975   1.926   6.872 -0.7627  0.4024  0.0066
 5581SOL    HW228377   1.928   2.019   6.762  1.8619  1.0991 -1.4053
 5582SOL     OW28378   1.412   2.878   4.783 -0.1660 -0.9162  0.8498
 5582SOL    HW128379   1.413   2.804   4.843  2.0644  0.4139  2.5000
 5582SOL    HW228380   1.366   2.836   4.711  1.2664  0.1482 -0.6778
 5583SOL     OW28381   3.117   4.303   8.346  0.9796  0.1207 -0.2916
 5583SOL    HW128382   3.171   4.362   8.399  1.8831 -0.1397 -0.9236
 5583SOL    HW228383   3.029   4.335   8.367  1.2103  1.1710 -0.9388
 5584SOL     OW28384   3.250   1.677   4.549 -0.1327 -0.4302 -0.1880
 5584SOL    HW128385   3.224   1.595   4.508 -2.0809 -0.2743  0.7524
 5584SOL    HW228386   3.202   1.667   4.631 -0.4107 -2.9516 -0.6603
 5585SOL     OW28387   4.142   2.503   5.756 -0.0245  0.6353 -0.1084
 5585SOL    HW128388   4.170   2.486   5.666  2.4241  0.5386  0.6678
 5585SOL    HW228389   4.219   2.482   5.809  0.9660 -1.1937 -2.3046
 5586SOL     OW28390   4.202   3.116   9.655  0.4645  0.1889  0.0749
 5586SOL    HW128391   4.118   3.151   9.686  1.1508  0.4560  1.6236
 5586SOL    HW228392   4.235   3.084   9.739 -0.9136 -0.6675  0.2867
 5587SOL     OW28393   0.939   3.960  14.737  0.3122  0.2459 -0.0051
 5587SOL    HW128394   0.957   3.994  14.649 -1.9098  0.5881 -0.3340
 5587SOL    HW228395   0.902   4.032  14.787 -2.4690  0.3238 -2.1503
 5588SOL     OW28396   2.347   1.842   7.853 -0.1383 -0.3460  0.5926
 5588SOL    HW128397   2.357   1.774   7.785  1.0502 -0.7979  1.2251
 5588SOL    HW228398   2.378   1.807   7.936  0.9023  0.7260  0.6366
 5589SOL     OW28399   3.649   0.256   1.974  0.1747 -0.8953  0.4493
 5589SOL    HW128400   3.614   0.335   1.932  2.6908 -0.1764 -0.2518
 5589SOL    HW228401   3.629   0.189   1.909  1.6551 -1.5596  0.6856
 5590SOL     OW28402   0.930   1.638   3.886  0.2520  0.2409  0.0867
 5590SOL    HW128403   0.858   1.596   3.839 -0.1586 -1.3115  2.1039
 5590SOL    HW228404   1.004   1.600   3.837  1.2520  0.3901  1.4747
 5591SOL     OW28405   1.092   4.607  14.745 -0.6199 -0.2088 -0.2897
 5591SOL    HW128406   1.062   4.686  14.700 -0.9260  0.4979  1.1210
 5591SOL    HW228407   1.166   4.591  14.688 -0.9065 -0.0485 -0.7059
 5592SOL     OW28408   0.977   3.452   8.524 -0.1470  0.7207 -0.1865
 5592SOL    HW128409   0.955   3.412   8.608  1.1500  0.4177  0.0053
 5592SOL    HW228410   0.891   3.452   8.481 -0.1467  0.4429 -0.1861
 5593SOL     OW28411   2.845   0.660   2.797 -0.7052  0.1722 -0.4659
 5593SOL    HW128412   2.844   0.697   2.886 -1.5151 -0.7941 -0.0777
 5593SOL    HW228413   2.925   0.608   2.789 -2.1911 -2.3681  1.4705
 5594SOL     OW28414   3.805   0.415  11.099  0.6634  0.0800 -0.0358
 5594SOL    HW128415   3.789   0.389  11.008 -0.2641  0.3623  0.0472
 5594SOL    HW228416   3.818   0.509  11.087 -0.3222  0.1074 -0.9456
 5595SOL     OW28417   0.584   3.979   5.690  0.4178 -0.0361 -0.1501
 5595SOL    HW128418   0.576   4.074   5.682  1.3587  0.0165 -0.5520
 5595SOL    HW228419   0.493   3.950   5.694  0.3162  0.2363 -0.4902
 5596SOL     OW28420   0.352   4.315   2.397  0.0423  0.6698  0.5272
 5596SOL    HW128421   0.348   4.339   2.305  0.3092 -0.2000  0.2868
 5596SOL    HW228422   0.389   4.227   2.396 -1.0596  0.2034  0.7899
 5597SOL     OW28423   0.801   2.493   4.698  0.8780 -0.5120 -0.3824
 5597SOL    HW128424   0.741   2.467   4.628  1.3322 -1.9581 -0.2375
 5597SOL    HW228425   0.778   2.427   4.764  0.1137 -0.8235 -0.9583
 5598SOL     OW28426   0.167   2.605  11.252 -0.5723 -0.8242  0.0694
 5598SOL    HW128427   0.246   2.658  11.253 -0.3652 -1.1484  0.7192
 5598SOL    HW228428   0.105   2.656  11.200  1.1688 -0.0004 -1.1496
 5599SOL     OW28429   0.408   0.219   2.215  0.3069  0.7381  0.3271
 5599SOL    HW128430   0.324   0.199   2.256 -1.0435  1.3869 -2.1229
 5599SOL    HW228431   0.445   0.133   2.195 -1.6977 -0.2468  0.8260
 5600SOL     OW28432   4.136   4.380   2.298 -0.1627 -0.3902 -0.5041
 5600SOL    HW128433   4.153   4.432   2.219  1.1563  2.4777  1.6701
 5600SOL    HW228434   4.178   4.298   2.273  0.7286 -0.2416  0.5412
 5601SOL     OW28435   3.998   0.304  16.611  0.5362 -0.3260  0.4774
 5601SOL    HW128436   3.979   0.395  16.637  1.6499  0.0375  0.0159
 5601SOL    HW228437   3.921   0.257  16.642  0.6658  0.5135  2.1125
 5602SOL     OW28438   3.938   1.158  10.649  0.3665  0.7436 -0.3531
 5602SOL    HW128439   3.973   1.109  10.575  0.2174 -1.8316  1.2683
 5602SOL    HW228440   4.019   1.166  10.698  0.2424 -0.7093  0.0987
 5603SOL     OW28441   0.751   1.746   8.484  0.2289 -0.4385  0.3009
 5603SOL    HW128442   0.820   1.739   8.551  1.3996 -1.3074 -0.9855
 5603SOL    HW228443   0.796   1.811   8.430  1.0546 -1.8696 -0.7357
 5604SOL     OW28444   3.308   2.223   9.171  0.2314 -0.4113 -0.2152
 5604SOL    HW128445   3.307   2.157   9.101 -0.8158 -1.2542  0.6020
 5604SOL    HW228446   3.399   2.237   9.197 -0.4519  0.7061  1.5345
 5605SOL     OW28447   3.615   0.932  12.600  0.1878  0.0306 -0.3641
 5605SOL    HW128448   3.661   0.936  12.684  2.7673  0.4657 -1.7955
 5605SOL    HW228449   3.574   0.846  12.607 -0.0032  0.1498  0.0234
 5606SOL     OW28450   0.056   0.853   5.767  0.6145  0.0941  0.5573
 5606SOL    HW128451   0.018   0.822   5.685  1.7532 -0.0453  0.0824
 5606SOL    HW228452   0.009   0.936   5.776  0.6340  0.2866 -1.1294
 5607SOL     OW28453   4.719   1.528  11.322 -0.0890  0.1932 -0.4333
 5607SOL    HW128454   0.067   1.489  11.337 -0.3548 -0.0757  0.4097
 5607SOL    HW228455   4.660   1.464  11.363 -0.3875  1.2220  0.7751
 5608SOL     OW28456   0.453   0.234   3.786 -0.4237  0.5248  0.4322
 5608SOL    HW128457   0.380   0.250   3.845 -1.1648  1.9687 -0.8882
 5608SOL    HW228458   0.524   0.231   3.850  1.9246 -2.8641 -2.3564
 5609SOL     OW28459   2.765   2.364   8.069  0.1906 -0.3032 -0.3771
 5609SOL    HW128460   2.828   2.436   8.059 -1.4808  0.9127 -2.0709
 5609SOL    HW228461   2.813   2.286   8.098 -2.4320 -1.9645 -0.4708
 5610SOL     OW28462   1.173   3.278   0.979  0.2691  0.3260  0.8453
 5610SOL    HW128463   1.217   3.222   1.044  0.1576  0.3929  0.9783
 5610SOL    HW228464   1.219   3.362   0.985 -1.3002  1.1738  0.9480
 5611SOL     OW28465   0.855   1.918  17.546  0.5108 -0.3309  0.5567
 5611SOL    HW128466   0.933   1.929  17.600  1.5083 -0.3885 -0.8937
 5611SOL    HW228467   0.889   1.899  17.459  1.0135 -1.9473  1.1114
 5612SOL     OW28468   1.425   2.623   9.832 -0.0610 -0.0607  0.6590
 5612SOL    HW128469   1.484   2.554   9.863 -0.7105 -0.4066  1.1229
 5612SOL    HW228470   1.474   2.703   9.851  0.4425 -0.5315  1.3227
 5613SOL     OW28471   4.624   3.683   3.373 -0.1584 -0.5614 -0.7367
 5613SOL    HW128472   4.626   3.682   3.469 -1.8098  1.0893 -0.6780
 5613SOL    HW228473   4.581   3.766   3.351 -0.3417 -0.5504 -0.3409
 5614SOL     OW28474   1.650   1.022  11.177 -0.1616  0.0520 -0.1611
 5614SOL    HW128475   1.729   1.038  11.229  0.3813  0.7892 -1.2343
 5614SOL    HW228476   1.636   1.101  11.125 -1.8112 -0.7460 -0.9332
 5615SOL     OW28477   0.794   3.936   4.375  0.0728 -0.3161  0.4430
 5615SOL    HW128478   0.705   3.918   4.345 -0.4046  2.5019  0.1558
 5615SOL    HW228479   0.776   3.987   4.455  0.7461  0.5698  0.0355
 5616SOL     OW28480   0.676   4.397   2.757  0.8571  0.2770  0.5532
 5616SOL    HW128481   0.586   4.380   2.784  0.3437  0.5129 -1.0499
 5616SOL    HW228482   0.694   4.356   2.673  2.8047  1.6931  0.2827
 5617SOL     OW28483   2.012   0.848   7.655  0.0359  0.2895  0.1120
 5617SOL    HW128484   1.960   0.767   7.652 -1.7914  1.4774 -0.3993
 5617SOL    HW228485   2.011   0.869   7.749 -0.7652 -0.2939  0.2386
 5618SOL     OW28486   0.171   3.713   5.072 -0.0108 -0.2382 -0.0698
 5618SOL    HW128487   0.265   3.708   5.055  0.7710  2.4385  3.5183
 5618SOL    HW228488   0.166   3.725   5.167  0.0518  1.9183 -0.3338
 5619SOL     OW28489   4.706   4.131   2.751  0.5448  0.0055 -0.2972
 5619SOL    HW128490   0.015   4.047   2.748 -1.1733 -0.9711  0.3328
 5619SOL    HW228491   4.700   4.153   2.658 -2.8431  0.4755  0.0337
 5620SOL     OW28492   3.319   4.522   2.359  0.2705  0.6634  0.1400
 5620SOL    HW128493   3.378   4.448   2.371 -0.5817  0.0999  0.8790
 5620SOL    HW228494   3.272   4.530   2.442  3.2958  0.5754  1.8306
 5621SOL     OW28495   3.948   0.222   4.078  0.4101  0.1184  0.6691
 5621SOL    HW128496   3.863   0.181   4.095  0.5748 -0.5163 -0.0307
 5621SOL    HW228497   3.995   0.185   4.153  1.6165  0.8786  0.2872
 5622SOL     OW28498   2.798   1.281   9.066  0.0218  0.4042  0.0413
 5622SOL    HW128499   2.800   1.246   8.977  0.4344 -2.2244  1.0784
 5622SOL    HW228500   2.812   1.374   9.050  2.1176 -0.1122 -1.1419
 5623SOL     OW28501   3.252   3.424   4.542 -0.1611  0.7463  0.0859
 5623SOL    HW128502   3.245   3.328   4.538  1.3577  0.6196  0.1386
 5623SOL    HW228503   3.211   3.448   4.459 -0.5917  1.2771  0.4567
 5624SOL     OW28504   4.707   2.102   8.267 -0.4557 -0.1207 -0.1456
 5624SOL    HW128505   4.620   2.076   8.296 -1.2517  0.5657 -1.9369
 5624SOL    HW228506   4.719   2.180   8.321 -0.8709  0.4343 -0.8556
 5625SOL     OW28507   0.398   1.040   9.729 -0.1704 -0.0493  0.5793
 5625SOL    HW128508   0.360   0.964   9.685  0.6988 -0.1855  0.0632
 5625SOL    HW228509   0.383   1.035   9.823  1.3776  0.1653  0.8340
 5626SOL     OW28510   3.223   3.414   2.161 -0.2019 -0.3850 -0.2162
 5626SOL    HW128511   3.315   3.430   2.185 -0.0602  1.1661 -1.8231
 5626SOL    HW228512   3.173   3.444   2.237 -0.4647  0.8989 -0.9092
 5627SOL     OW28513   2.312   2.708  17.561 -0.2866 -0.1704 -0.0891
 5627SOL    HW128514   2.326   2.616  17.541 -0.3469  0.0606 -1.1815
 5627SOL    HW228515   2.404   2.727  17.541 -0.0655 -1.5465 -0.3668
 5628SOL     OW28516   4.326   4.279   9.407  0.4168  0.9268  0.2550
 5628SOL    HW128517   4.327   4.352   9.469  0.3512  0.3850  0.8890
 5628SOL    HW228518   4.381   4.322   9.341  4.2367 -0.9898  2.2530
 5629SOL     OW28519   2.204   1.136   8.849 -0.6368 -0.5262  0.4915
 5629SOL    HW128520   2.224   1.191   8.772  0.5294 -1.1700  0.3353
 5629SOL    HW228521   2.163   1.058   8.812 -1.4081  0.6736 -1.2282
 5630SOL     OW28522   0.464   4.486   3.597  0.3019  0.4333  0.0052
 5630SOL    HW128523   0.408   4.560   3.616  2.1227  1.5974  0.8059
 5630SOL    HW228524   0.545   4.503   3.645  1.2829 -3.2269 -0.3103
 5631SOL     OW28525   1.509   0.775   6.390  0.2867  0.1868  0.2473
 5631SOL    HW128526   1.424   0.788   6.349  0.2039 -1.1090  0.0100
 5631SOL    HW228527   1.477   0.719   6.460  0.8345  1.2182  1.3253
 5632SOL     OW28528   0.498   4.064   7.118  0.4641 -0.0286  0.4945
 5632SOL    HW128529   0.513   4.009   7.195  2.3679  1.3716  1.1275
 5632SOL    HW228530   0.548   4.141   7.146  0.7936  0.2634 -0.8993
 5633SOL     OW28531   1.312   0.802   7.836 -0.5232 -0.3999 -0.0037
 5633SOL    HW128532   1.256   0.735   7.875 -0.5193 -0.2050  0.3337
 5633SOL    HW228533   1.244   0.867   7.820  0.4753  0.2097 -1.8580
 5634SOL     OW28534   1.259   0.929   8.872  0.3824  0.1355 -0.1699
 5634SOL    HW128535   1.202   0.975   8.934  0.2238  1.4711 -1.3002
 5634SOL    HW228536   1.211   0.847   8.866  1.5828 -0.6561  0.8657
 5635SOL     OW28537   0.274   0.543  17.624  0.0412  0.6092  0.1069
 5635SOL    HW128538   0.269   0.486  17.701 -1.7331  2.1392  1.1073
 5635SOL    HW228539   0.360   0.582  17.641  0.7294 -1.7131  2.0201
 5636SOL     OW28540   1.985   2.854   8.025  0.2282 -0.1088 -0.5530
 5636SOL    HW128541   2.053   2.912   7.990 -1.5437  0.8285 -2.4310
 5636SOL    HW228542   1.983   2.782   7.962  2.0915 -0.7690  0.1115
 5637SOL     OW28543   1.703   4.153   7.428  0.4870 -0.5287 -0.0165
 5637SOL    HW128544   1.693   4.221   7.360 -1.9618  0.2007  1.0515
 5637SOL    HW228545   1.622   4.102   7.419  2.2432 -3.2885  0.1501
 5638SOL     OW28546   3.771   4.657   4.482  0.0342 -0.1270  0.2867
 5638SOL    HW128547   3.688   4.662   4.436  0.6190  3.8898 -0.3638
 5638SOL    HW228548   3.764   4.567   4.513 -0.4234 -0.3806 -0.5498
 5639SOL     OW28549   0.794   3.778   3.365 -0.4455 -0.2492 -0.1055
 5639SOL    HW128550   0.740   3.786   3.286  0.3317 -0.8992 -0.6974
 5639SOL    HW228551   0.874   3.822   3.338 -1.1761  1.0822 -0.1126
 5640SOL     OW28552   3.940   4.482   4.229 -0.2045  0.4703  0.1571
 5640SOL    HW128553   3.995   4.446   4.159 -0.0449  0.9266  0.0510
 5640SOL    HW228554   3.851   4.464   4.200 -0.8082  0.1071  2.2362
 5641SOL     OW28555   2.473   1.596   9.679 -0.4257  0.6823  0.2551
 5641SOL    HW128556   2.480   1.618   9.586  1.0801 -1.8188 -0.2397
 5641SOL    HW228557   2.415   1.665   9.711 -0.5569  2.0032 -2.8084
 5642SOL     OW28558   2.242   0.265   5.580  0.0878 -0.6935 -0.4657
 5642SOL    HW128559   2.188   0.321   5.525  2.7215  1.1559 -1.1819
 5642SOL    HW228560   2.309   0.329   5.603 -1.2881  0.9494 -1.0219
 5643SOL     OW28561   1.690   0.665  12.236  0.2488 -0.0739 -0.0331
 5643SOL    HW128562   1.616   0.664  12.176  0.0447  2.2113  0.1818
 5643SOL    HW228563   1.653   0.719  12.305 -0.5986  0.4214 -0.8783
 5644SOL     OW28564   1.059   4.502   9.738  0.7111 -0.6777  0.8954
 5644SOL    HW128565   1.037   4.562   9.809 -0.7789 -1.3950  1.0425
 5644SOL    HW228566   1.155   4.501   9.737  0.7223  0.4844  1.0181
 5645SOL     OW28567   1.978   2.651   5.860 -0.0000  0.0665 -0.4055
 5645SOL    HW128568   1.933   2.567   5.860 -0.1907  0.1677 -0.1473
 5645SOL    HW228569   1.964   2.689   5.947 -1.0312 -0.6082 -0.2821
 5646SOL     OW28570   0.680   2.511   8.889  0.3520 -0.1190 -0.6151
 5646SOL    HW128571   0.655   2.421   8.911  1.8916 -0.7829 -1.5312
 5646SOL    HW228572   0.763   2.497   8.843  1.3042 -1.7541  1.6008
 5647SOL     OW28573   0.193   1.851   7.690  0.4593 -0.2879 -0.5800
 5647SOL    HW128574   0.146   1.813   7.764  0.0930 -1.1256 -1.2431
 5647SOL    HW228575   0.285   1.854   7.718  1.0264  0.5205 -2.5082
 5648SOL     OW28576   2.060   0.379  13.025  0.4835  0.7562 -0.0590
 5648SOL    HW128577   2.131   0.337  13.074  1.4130  1.2154 -0.9960
 5648SOL    HW228578   2.056   0.332  12.941 -0.0915  0.7899 -0.0509
 5649SOL     OW28579   4.494   4.256   5.887  0.7396  0.1657  0.2581
 5649SOL    HW128580   4.514   4.349   5.875 -1.1361  0.5670  0.2158
 5649SOL    HW228581   4.434   4.233   5.816 -0.9035 -0.6151  1.9100
 5650SOL     OW28582   2.991   1.736   2.917 -0.3919 -0.6984  0.3562
 5650SOL    HW128583   3.012   1.779   3.000 -0.9718 -2.7272  1.5545
 5650SOL    HW228584   2.896   1.747   2.917 -0.7081 -3.5674  0.3247
 5651SOL     OW28585   1.836   2.044   7.993 -0.2745  0.2952  0.1837
 5651SOL    HW128586   1.801   2.082   7.913  0.1076  0.8671  0.2842
 5651SOL    HW228587   1.810   1.952   7.991 -0.6741  0.3492  3.2225
 5652SOL     OW28588   2.924   1.228   7.154 -0.8278 -0.4113  0.3964
 5652SOL    HW128589   2.919   1.259   7.244  0.0289  2.2456 -0.4760
 5652SOL    HW228590   3.015   1.197   7.150 -0.9388 -0.5828 -0.6693
 5653SOL     OW28591   4.505   2.218   4.830  0.1577  0.2195  0.3204
 5653SOL    HW128592   4.456   2.160   4.772 -2.5137  2.3779  0.4647
 5653SOL    HW228593   4.565   2.159   4.877  1.9804  1.3628 -0.5643
 5654SOL     OW28594   0.924   3.038   8.592  0.7306 -0.3378 -0.2323
 5654SOL    HW128595   0.987   3.040   8.520 -0.3517 -0.9737 -1.1940
 5654SOL    HW228596   0.948   3.118   8.639  0.0376  0.4675 -1.2543
 5655SOL     OW28597   2.881   4.596   9.422 -0.6718 -0.3781  0.0855
 5655SOL    HW128598   2.964   4.641   9.407 -0.6345 -0.5526 -0.2385
 5655SOL    HW228599   2.832   4.666   9.464  0.9534  0.7799  0.0534
 5656SOL     OW28600   4.244   1.654   7.092 -0.2063 -0.8407  0.0507
 5656SOL    HW128601   4.209   1.690   7.011  0.1373 -2.4056 -0.7923
 5656SOL    HW228602   4.336   1.677   7.079 -0.8612  2.6044  1.7578
 5657SOL     OW28603   3.880   2.036   2.564 -0.6743 -0.0795 -0.0819
 5657SOL    HW128604   3.973   2.035   2.541 -0.8819 -5.3568 -0.7031
 5657SOL    HW228605   3.903   2.021   2.656 -0.4482 -0.8254 -0.2647
 5658SOL     OW28606   3.504   2.520   8.956 -0.2451  0.2299 -0.1778
 5658SOL    HW128607   3.586   2.514   8.906 -0.5246 -0.4039 -0.5623
 5658SOL    HW228608   3.535   2.484   9.039 -0.4042  1.9595  0.6258
 5659SOL     OW28609   3.164   4.044   4.797 -0.6182 -0.0031 -0.5958
 5659SOL    HW128610   3.208   4.048   4.712  1.0105  1.1227  0.2927
 5659SOL    HW228611   3.236   4.025   4.857 -0.3789 -1.5780 -1.4053
 5660SOL     OW28612   2.793   4.162  12.012  0.8688  0.1726  0.1132
 5660SOL    HW128613   2.881   4.126  12.009  1.5697  1.9511 -0.7505
 5660SOL    HW228614   2.773   4.172  11.919  2.5465 -1.8754 -0.4616
 5661SOL     OW28615   0.045   2.608   7.974  0.0501  0.4295 -0.0105
 5661SOL    HW128616   4.694   2.643   7.971 -0.0433  0.0388 -1.8519
 5661SOL    HW228617   0.053   2.574   8.063  2.1974 -2.7147 -1.3993
 5662SOL     OW28618   4.603   0.862   6.503 -0.1185  0.4076 -0.2212
 5662SOL    HW128619   4.534   0.818   6.553 -0.4585  0.9061 -0.2615
 5662SOL    HW228620   4.626   0.787   6.448  0.5212  0.2894  0.2109
 5663SOL     OW28621   1.206   0.804   6.254  0.0134  0.2435 -0.0521
 5663SOL    HW128622   1.122   0.783   6.213  0.2872 -0.3056 -0.3273
 5663SOL    HW228623   1.173   0.822   6.342  1.1002  1.8453  0.0225
 5664SOL     OW28624   3.672   3.538  17.280 -0.2047 -0.1494  0.1315
 5664SOL    HW128625   3.677   3.443  17.270 -1.3482 -0.1413 -0.5809
 5664SOL    HW228626   3.733   3.544  17.354 -0.5324  0.6803  0.3283
 5665SOL     OW28627   3.062   2.875   8.350  0.0638 -0.0402  0.0140
 5665SOL    HW128628   2.972   2.905   8.366 -0.3781 -1.4746  0.2122
 5665SOL    HW228629   3.064   2.806   8.416 -0.7428 -0.3042 -0.2276
 5666SOL     OW28630   3.751   0.888   3.028  0.5127  0.0330 -0.1020
 5666SOL    HW128631   3.816   0.958   3.028 -0.0142  0.5275  1.2653
 5666SOL    HW228632   3.768   0.853   2.940 -0.4287 -1.3938  0.2786
 5667SOL     OW28633   0.399   2.564   4.156 -0.3115 -0.0292  0.2632
 5667SOL    HW128634   0.330   2.590   4.094  1.7076 -0.2483 -2.0593
 5667SOL    HW228635   0.378   2.471   4.169 -2.0262  0.0926 -1.5995
 5668SOL     OW28636   1.980   1.320   7.867  0.0525  0.4605 -0.6044
 5668SOL    HW128637   1.913   1.378   7.903 -0.8270  0.3187 -1.9974
 5668SOL    HW228638   2.051   1.384   7.863  0.0176  0.5047 -0.5186
 5669SOL     OW28639   0.480   3.622  15.615 -0.1812 -0.1897  0.4213
 5669SOL    HW128640   0.537   3.698  15.599 -2.2102  0.9556 -1.2979
 5669SOL    HW228641   0.395   3.666  15.615 -1.4490 -2.6563  0.2939
 5670SOL     OW28642   0.426   1.671  11.350 -0.2078 -0.0511  0.0395
 5670SOL    HW128643   0.412   1.587  11.307 -1.8668 -0.2300  0.9552
 5670SOL    HW228644   0.338   1.681  11.387  0.2419  0.9497  0.8550
 5671SOL     OW28645   3.019   4.003   1.710 -0.0380  0.6080 -0.5770
 5671SOL    HW128646   2.998   4.077   1.766 -1.0033 -0.2752  0.2221
 5671SOL    HW228647   2.962   4.021   1.635 -0.6378  1.5884  0.1226
 5672SOL     OW28648   2.602   1.741  17.466  0.4920  0.2920  0.2397
 5672SOL    HW128649   2.579   1.779  17.551  0.2539  0.3535  0.1469
 5672SOL    HW228650   2.668   1.805  17.441  0.8293  0.2854  1.1364
 5673SOL     OW28651   2.628   3.268   1.327  0.1364 -0.1111  0.1194
 5673SOL    HW128652   2.572   3.326   1.276  0.6872  0.2091 -0.1162
 5673SOL    HW228653   2.693   3.240   1.263  0.8871  3.7025 -0.7813
 5674SOL     OW28654   1.381   3.064   9.383  0.5253  0.1011  0.3306
 5674SOL    HW128655   1.347   3.031   9.467 -1.3407 -1.2659 -0.9647
 5674SOL    HW228656   1.347   3.153   9.390 -0.2026 -0.2589  1.4908
 5675SOL     OW28657   3.609   1.255   5.607 -0.4213  0.2791 -0.6331
 5675SOL    HW128658   3.598   1.173   5.559 -2.1502  1.1788 -1.7319
 5675SOL    HW228659   3.541   1.247   5.674 -0.0374 -1.6866 -0.4799
 5676SOL     OW28660   3.128   2.924   4.666  0.0644 -0.0386 -0.6078
 5676SOL    HW128661   3.050   2.877   4.696  0.9301 -0.7187  0.5666
 5676SOL    HW228662   3.177   2.928   4.748 -0.1478  0.3394 -0.4974
 5677SOL     OW28663   1.488   1.988   3.026 -0.7178  0.3200 -0.2749
 5677SOL    HW128664   1.501   1.894   3.021 -1.5136  0.2533 -0.9392
 5677SOL    HW228665   1.502   2.003   3.120  0.5965 -0.7928 -0.3067
 5678SOL     OW28666   4.477   4.401  12.947 -0.6544 -0.1594  0.0912
 5678SOL    HW128667   4.484   4.444  13.033  1.1239  0.4525 -0.3624
 5678SOL    HW228668   4.428   4.466  12.896 -1.8946 -1.1049  0.0741
 5679SOL     OW28669   2.848   2.296   4.491  0.7848  0.1981  0.0383
 5679SOL    HW128670   2.785   2.249   4.437  0.9517  0.1240 -0.0939
 5679SOL    HW228671   2.907   2.222   4.505 -1.8288 -1.7759  0.5437
 5680SOL     OW28672   1.041   1.865  14.082 -0.0931  0.0120  0.0061
 5680SOL    HW128673   0.961   1.917  14.085 -1.3750 -1.9329 -1.0547
 5680SOL    HW228674   1.091   1.915  14.147  0.6687 -1.6905  0.7288
 5681SOL     OW28675   3.930   3.261  12.705  0.3485 -0.5536  0.4191
 5681SOL    HW128676   3.966   3.197  12.766  1.7168  1.0332  1.2818
 5681SOL    HW228677   4.011   3.310  12.689 -0.3917  0.6496  0.3806
 5682SOL     OW28678   3.434   1.116   4.794  0.0672 -0.0953  0.2629
 5682SOL    HW128679   3.479   1.198   4.817 -1.2701  0.8689 -0.5669
 5682SOL    HW228680   3.433   1.115   4.699  0.2435  0.6288  0.2541
 5683SOL     OW28681   2.051   3.122   5.633 -0.2526 -0.7145 -0.0643
 5683SOL    HW128682   1.962   3.106   5.665  0.2749  0.7640  2.1347
 5683SOL    HW228683   2.063   3.209   5.670  2.2827 -0.6469 -1.0190
 5684SOL     OW28684   1.351   2.265   6.569 -0.1703  0.0660 -0.3803
 5684SOL    HW128685   1.290   2.329   6.606 -0.8867  0.2084 -1.7723
 5684SOL    HW228686   1.436   2.302   6.593 -1.1110  2.0922 -0.1594
 5685SOL     OW28687   0.934   4.207   3.999 -0.6908  0.0467 -0.6248
 5685SOL    HW128688   0.952   4.128   4.050 -0.5803 -1.2376 -2.6201
 5685SOL    HW228689   1.002   4.206   3.931 -1.3623  1.0245 -1.3144
 5686SOL     OW28690   1.649   1.845   8.316 -1.1454  0.3395 -0.2773
 5686SOL    HW128691   1.575   1.899   8.287 -0.3078  1.2224 -0.7803
 5686SOL    HW228692   1.721   1.909   8.319 -2.6353  2.0057  0.1013
 5687SOL     OW28693   2.634   3.121  11.198  0.1405  0.6211  0.5473
 5687SOL    HW128694   2.544   3.152  11.187 -0.4824 -1.7388 -1.1916
 5687SOL    HW228695   2.651   3.144  11.289  1.3354  0.5877  0.3237
 5688SOL     OW28696   2.917   4.526   1.780  0.7308 -0.3218  0.0344
 5688SOL    HW128697   3.007   4.501   1.756  0.6688 -0.3660 -0.1544
 5688SOL    HW228698   2.880   4.445   1.744 -2.9341  0.8826  1.1338
 5689SOL     OW28699   0.807   3.772   4.724  0.3657  0.2684 -0.2682
 5689SOL    HW128700   0.813   3.860   4.687 -0.5707  0.5923  0.3489
 5689SOL    HW228701   0.809   3.785   4.818 -2.2161 -2.5301  0.1785
 5690SOL     OW28702   3.584   1.293   1.935  0.4396  0.3969 -0.0143
 5690SOL    HW128703   3.621   1.259   2.016  1.6274 -0.7769 -1.0594
 5690SOL    HW228704   3.510   1.343   1.972 -0.9316 -0.7174 -1.2384
 5691SOL     OW28705   2.637   0.585   6.232  0.5124  0.0515  0.0656
 5691SOL    HW128706   2.710   0.641   6.205  1.4121 -1.2642 -0.2844
 5691SOL    HW228707   2.595   0.558   6.150 -0.9243 -1.5481  1.3420
 5692SOL     OW28708   0.210   1.386  11.382  0.3456  0.5150  0.3618
 5692SOL    HW128709   0.181   1.308  11.336 -0.6225  0.7732  0.5437
 5692SOL    HW228710   0.256   1.343  11.454 -0.4723 -1.1354 -0.0995
 5693SOL     OW28711   1.387   3.086   8.260  0.6861 -0.8972  0.1065
 5693SOL    HW128712   1.327   3.116   8.327  2.5716 -0.6844  1.7019
 5693SOL    HW228713   1.419   3.167   8.221  1.4228 -1.7390 -1.0710
 5694SOL     OW28714   0.109   2.297  11.295 -0.7111 -0.1194  0.2085
 5694SOL    HW128715   0.124   2.206  11.320 -1.9199 -0.6466 -0.9989
 5694SOL    HW228716   0.016   2.291  11.272 -1.0366  3.6779  0.5081
 5695SOL     OW28717   4.289   1.494  12.265 -0.4055 -0.1042 -0.1493
 5695SOL    HW128718   4.225   1.444  12.315  0.1529  0.8823  1.5518
 5695SOL    HW228719   4.351   1.426  12.237  1.1728  0.9987  0.6604
 5696SOL     OW28720   2.175   1.974   2.107  0.3791  0.3358 -0.0337
 5696SOL    HW128721   2.246   1.912   2.122  0.7213  0.7412  0.0060
 5696SOL    HW228722   2.108   1.928   2.159  0.7379  1.3384  1.2925
 5697SOL     OW28723   3.441   3.278   0.628  0.5426 -0.0570  0.1258
 5697SOL    HW128724   3.459   3.221   0.703  0.3333 -1.0879 -0.6148
 5697SOL    HW228725   3.527   3.297   0.591  0.1627  2.0601  0.3344
 5698SOL     OW28726   1.131   0.629   7.914 -0.4574  0.8207 -0.1839
 5698SOL    HW128727   1.090   0.614   7.999 -1.8381  1.5059 -0.7234
 5698SOL    HW228728   1.050   0.646   7.866 -0.0059 -0.5418 -1.4328
 5699SOL     OW28729   3.989   3.790   8.675 -0.5207 -0.1844 -0.2052
 5699SOL    HW128730   3.909   3.756   8.715 -0.1693  1.2852  1.7648
 5699SOL    HW228731   4.036   3.801   8.758  0.1712  2.2097 -0.9353
 5700SOL     OW28732   1.127   0.652   9.609 -0.6334  0.2895  0.4472
 5700SOL    HW128733   1.087   0.609   9.533 -1.3273  1.1967  0.3075
 5700SOL    HW228734   1.088   0.739   9.601  1.0826  1.2653  2.8972
 5701SOL     OW28735   2.713   2.253  10.238 -0.0769 -0.6292  0.7674
 5701SOL    HW128736   2.630   2.216  10.207  0.5189 -1.1067 -0.2287
 5701SOL    HW228737   2.757   2.276  10.157 -2.2284 -1.6160 -0.6745
 5702SOL     OW28738   2.486   3.250   3.122  0.7360  0.1142  0.2503
 5702SOL    HW128739   2.543   3.220   3.050  0.9615  0.6810  0.1920
 5702SOL    HW228740   2.522   3.222   3.206  2.1352  1.2439  0.0458
 5703SOL     OW28741   3.051   1.025   2.303  0.0912  0.2008 -0.2104
 5703SOL    HW128742   3.096   1.107   2.285 -0.8676  0.4957 -1.2743
 5703SOL    HW228743   3.094   0.976   2.233 -0.7479 -2.9353  1.4840
 5704SOL     OW28744   2.713   4.378   3.218 -0.5114  0.2816  0.0148
 5704SOL    HW128745   2.739   4.311   3.154  0.4948  0.6965 -0.0185
 5704SOL    HW228746   2.801   4.400   3.247  0.4214 -2.3190 -0.7835
 5705SOL     OW28747   2.150   4.563   5.506  0.5571  0.4100  0.9109
 5705SOL    HW128748   2.194   4.640   5.469  0.7367 -0.1809 -0.0952
 5705SOL    HW228749   2.095   4.616   5.564 -0.9159 -0.7342  0.5370
 5706SOL     OW28750   1.876   4.695   2.644  0.3879 -0.2994  0.3305
 5706SOL    HW128751   1.809   0.003   2.694 -0.6024  0.2732 -1.5049
 5706SOL    HW228752   1.945   0.015   2.676 -0.8022  0.5470  1.3543
 5707SOL     OW28753   4.379   0.642  14.784 -0.5087  0.4197 -0.5528
 5707SOL    HW128754   4.403   0.556  14.819 -0.9261  0.6653  0.3457
 5707SOL    HW228755   4.283   0.637  14.778 -0.3013 -0.6086 -2.8642
 5708SOL     OW28756   2.526   4.666  17.637  0.1023 -0.7949 -0.4086
 5708SOL    HW128757   2.469   4.615  17.578 -0.4608  0.4217 -0.9267
 5708SOL    HW228758   2.533   0.009  17.584  1.0577  0.5835  1.8093
 5709SOL     OW28759   4.001   0.041  14.372  0.0899 -0.0617 -0.9634
 5709SOL    HW128760   3.970   0.042  14.281 -1.7935  2.4253 -0.2961
 5709SOL    HW228761   4.041   0.126  14.391 -0.6720  0.5496 -2.0271
 5710SOL     OW28762   0.860   4.611   1.155  0.6140 -0.1495 -0.2286
 5710SOL    HW128763   0.920   4.611   1.081 -0.3240 -2.3697 -1.0032
 5710SOL    HW228764   0.891   4.533   1.201 -1.3639 -1.1481 -0.5566
 5711SOL     OW28765   3.611   3.015   9.202 -0.1376  0.4187  0.6541
 5711SOL    HW128766   3.590   2.954   9.273 -2.1874 -1.0626 -1.2081
 5711SOL    HW228767   3.633   2.959   9.127  0.3452  3.8413 -1.7333
 5712SOL     OW28768   3.843   3.449   2.098  0.1248 -0.5981 -0.1998
 5712SOL    HW128769   3.820   3.456   2.005 -0.3777 -0.5878 -0.0775
 5712SOL    HW228770   3.937   3.437   2.090  0.3043 -0.4076  1.7865
 5713SOL     OW28771   3.266   2.428  11.180 -0.4384 -0.5596 -0.0984
 5713SOL    HW128772   3.268   2.524  11.174 -0.7672 -0.6434 -1.5280
 5713SOL    HW228773   3.192   2.403  11.235 -1.0339  2.7494  0.6302
 5714SOL     OW28774   4.343   1.435   4.805 -0.4580 -0.3747 -0.2839
 5714SOL    HW128775   4.362   1.351   4.847  2.8178  0.0849 -0.8632
 5714SOL    HW228776   4.294   1.473   4.878  0.7052  1.1616 -0.2865
 5715SOL     OW28777   2.831   0.286   2.190  0.2530  0.2600 -0.2414
 5715SOL    HW128778   2.800   0.375   2.176  0.9314  1.0400  3.1223
 5715SOL    HW228779   2.861   0.284   2.281  0.2799  1.7210 -0.2249
 5716SOL     OW28780   3.242   1.898  11.613  0.7327  0.1972  0.4546
 5716SOL    HW128781   3.162   1.882  11.563  1.5138 -1.2086 -0.3417
 5716SOL    HW228782   3.271   1.978  11.571 -0.5945  0.1499 -0.5267
 5717SOL     OW28783   0.210   0.635   5.576  0.0931  0.2613 -0.3940
 5717SOL    HW128784   0.289   0.651   5.525  2.7313 -2.3215  2.9061
 5717SOL    HW228785   0.155   0.608   5.503 -0.9254  1.1867  0.0194
 5718SOL     OW28786   0.204   2.644   9.289 -0.0447  0.0336  0.1311
 5718SOL    HW128787   0.121   2.690   9.303 -0.0133  0.5521 -1.4354
 5718SOL    HW228788   0.233   2.647   9.380 -0.7690 -0.2390  0.3659
 5719SOL     OW28789   1.088   1.937   0.334 -0.3823  0.2320 -0.0346
 5719SOL    HW128790   1.130   1.981   0.409 -1.5080 -0.1300  0.8120
 5719SOL    HW228791   1.017   1.890   0.378  1.1255 -1.4414  0.6132
 5720SOL     OW28792   1.671   2.762   5.528 -0.0625  0.3879 -0.1098
 5720SOL    HW128793   1.641   2.752   5.437  2.6742 -1.0275 -0.8532
 5720SOL    HW228794   1.700   2.853   5.522 -0.4277  0.4715 -0.5569
 5721SOL     OW28795   3.706   4.192   5.729 -0.1703 -0.1491  0.2761
 5721SOL    HW128796   3.769   4.194   5.801 -0.2214 -1.8428  0.3661
 5721SOL    HW228797   3.636   4.142   5.770  1.0092 -2.2035 -0.2170
 5722SOL     OW28798   4.566   2.239   1.056 -0.0916  0.2717 -0.6954
 5722SOL    HW128799   4.488   2.284   1.089 -1.3121 -1.8142 -0.6527
 5722SOL    HW228800   4.625   2.239   1.131 -1.3537 -0.3784  0.3132
 5723SOL     OW28801   4.387   1.023   2.841  0.2399 -0.6215 -0.3319
 5723SOL    HW128802   4.478   1.018   2.870 -0.3670  0.7917  1.7519
 5723SOL    HW228803   4.383   1.118   2.838  0.5442 -0.6005 -0.0412
 5724SOL     OW28804   0.565   3.017   3.447  0.2382  0.8702 -0.5353
 5724SOL    HW128805   0.642   2.965   3.472 -0.6251  0.1029  0.5179
 5724SOL    HW228806   0.508   3.014   3.524  2.1150  0.7377  0.8718
 5725SOL     OW28807   1.141   1.651  17.072 -0.4423 -0.4047  0.0614
 5725SOL    HW128808   1.163   1.702  17.149 -1.3898 -1.6288  1.1435
 5725SOL    HW228809   1.078   1.707  17.025  1.9150  0.4196 -2.1244
 5726SOL     OW28810   3.871   2.690   9.395 -0.2874 -0.5055 -0.1825
 5726SOL    HW128811   3.810   2.654   9.330 -1.6083  1.1265  0.1324
 5726SOL    HW228812   3.879   2.784   9.377  2.4017 -0.9385 -1.1936
 5727SOL     OW28813   2.415   3.281   9.240 -0.2187 -0.1733  0.0489
 5727SOL    HW128814   2.503   3.305   9.269  0.7001 -1.6126 -1.6193
 5727SOL    HW228815   2.407   3.203   9.295 -1.0901  0.0562  0.2452
 5728SOL     OW28816   1.023   4.018   5.762  0.3560  0.4809 -0.6301
 5728SOL    HW128817   1.058   4.066   5.837 -2.3769  1.3512  0.0894
 5728SOL    HW228818   1.076   3.938   5.763  1.2698  1.1271  1.8103
 5729SOL     OW28819   1.389   2.299  14.683 -0.5445  0.1718  0.0022
 5729SOL    HW128820   1.370   2.286  14.590 -0.4896 -1.0432  0.1633
 5729SOL    HW228821   1.448   2.224  14.691  2.0435  2.2025  0.0753
 5730SOL     OW28822   3.465   1.139   7.015  0.2634 -0.0170 -0.5960
 5730SOL    HW128823   3.478   1.089   7.096 -0.1646  2.0857  0.8019
 5730SOL    HW228824   3.554   1.121   6.984  0.1965 -2.0803  0.4443
 5731SOL     OW28825   1.401   3.863   3.049  0.2792 -0.3625  0.0618
 5731SOL    HW128826   1.331   3.900   2.995 -0.8315 -0.5031  1.4123
 5731SOL    HW228827   1.476   3.913   3.016 -0.6009  0.8291 -0.1321
 5732SOL     OW28828   3.446   0.997   5.035  0.1559  0.0487 -0.6956
 5732SOL    HW128829   3.426   1.023   4.945  0.7029  0.6165 -0.6617
 5732SOL    HW228830   3.361   0.973   5.072  0.7239  1.6964  1.7087
 5733SOL     OW28831   0.325   3.551   8.378 -0.0869  0.1765  0.1201
 5733SOL    HW128832   0.369   3.634   8.394 -1.7437  1.0178  0.3293
 5733SOL    HW228833   0.307   3.520   8.467 -0.8055 -1.9061 -0.7504
 5734SOL     OW28834   1.695   1.245  14.795  0.5687  0.2277  0.1370
 5734SOL    HW128835   1.704   1.261  14.701  2.3692  2.2116  0.6416
 5734SOL    HW228836   1.670   1.331  14.829 -1.7013 -1.1687  1.9145
 5735SOL     OW28837   1.854   2.139   5.504  0.7055 -0.5442  0.4424
 5735SOL    HW128838   1.921   2.095   5.450  0.5729 -1.7035  1.2390
 5735SOL    HW228839   1.794   2.068   5.525 -0.3394 -0.7402 -3.0947
 5736SOL     OW28840   1.199   0.161   2.761 -0.0443  0.3135  0.5629
 5736SOL    HW128841   1.244   0.198   2.685 -0.9524 -1.3854 -0.7958
 5736SOL    HW228842   1.141   0.101   2.715 -1.0644  2.0661 -0.4496
 5737SOL     OW28843   2.048   3.056   3.339  0.7731 -0.5730 -0.9164
 5737SOL    HW128844   2.054   3.065   3.244 -1.8446 -1.1044 -1.1328
 5737SOL    HW228845   2.045   3.148   3.367 -1.6591 -1.0734  0.4771
 5738SOL     OW28846   0.792   1.323   5.224 -0.0259 -0.0464 -0.4277
 5738SOL    HW128847   0.836   1.300   5.142 -1.8816 -2.1693 -0.8388
 5738SOL    HW228848   0.706   1.348   5.191 -1.3066 -2.1893  1.2647
 5739SOL     OW28849   1.002   0.674   3.112  0.3257 -0.2735  0.8420
 5739SOL    HW128850   1.063   0.747   3.105  0.1284 -0.2114 -0.3113
 5739SOL    HW228851   0.983   0.649   3.021  1.3176 -1.1200  0.8652
 5740SOL     OW28852   2.800   4.599   5.300  0.5592 -0.4332  0.1804
 5740SOL    HW128853   2.832   4.680   5.259 -0.1696  0.5357  1.5435
 5740SOL    HW228854   2.836   4.527   5.248 -0.5798 -1.2363  0.5180
 5741SOL     OW28855   1.026   3.691   9.657  0.2057 -0.3714  0.3227
 5741SOL    HW128856   1.107   3.651   9.690  0.6549  0.4088  0.1748
 5741SOL    HW228857   0.999   3.742   9.734  0.2055  3.1757 -2.0372
 5742SOL     OW28858   3.864   1.653   6.559  0.1310  1.2618  0.2320
 5742SOL    HW128859   3.787   1.675   6.505 -0.0689  3.4461  1.3934
 5742SOL    HW228860   3.879   1.733   6.610 -0.0121  0.4814  1.5035
 5743SOL     OW28861   1.246   4.396  15.234  0.0146  0.1223 -0.2461
 5743SOL    HW128862   1.203   4.456  15.295 -2.2298  0.0235 -1.6844
 5743SOL    HW228863   1.258   4.452  15.157  2.9365  0.2028  0.2909
 5744SOL     OW28864   4.686   3.863   9.581  0.6816 -0.2228 -0.0952
 5744SOL    HW128865   0.028   3.817   9.552 -0.3666 -1.3243 -1.2184
 5744SOL    HW228866   4.712   3.951   9.556  1.4437  0.1030  1.8229
 5745SOL     OW28867   1.781   4.331  17.405 -0.1909  0.6808 -0.4084
 5745SOL    HW128868   1.734   4.249  17.423  2.8611 -0.7837  1.0279
 5745SOL    HW228869   1.818   4.348  17.492  0.0860 -2.3370  0.0592
 5746SOL     OW28870   0.968   1.365  16.231  0.1519 -0.3697 -0.5090
 5746SOL    HW128871   1.061   1.354  16.246  0.1065 -1.6041 -1.1719
 5746SOL    HW228872   0.950   1.460  16.232 -0.4253 -0.4738 -1.0547
 5747SOL     OW28873   1.519   1.728   9.357 -0.1483  0.5169  0.5820
 5747SOL    HW128874   1.558   1.757   9.274 -0.0604 -0.4778  0.2663
 5747SOL    HW228875   1.515   1.632   9.352 -0.6301  0.4930  1.5952
 5748SOL     OW28876   2.592   2.050   6.447  0.0730  0.5803 -0.5803
 5748SOL    HW128877   2.656   2.119   6.463 -3.4166  3.4548  1.3203
 5748SOL    HW228878   2.527   2.100   6.397  0.1238  1.5834  0.3510
 5749SOL     OW28879   2.430   2.112   4.172  0.4657 -0.0437 -0.6906
 5749SOL    HW128880   2.370   2.038   4.180 -0.6953  0.7325 -2.1080
 5749SOL    HW228881   2.365   2.174   4.139  0.6204  0.4421 -0.0779
 5750SOL     OW28882   1.864   0.886  12.616  0.6192 -0.2297  0.2246
 5750SOL    HW128883   1.851   0.958  12.554  0.8416 -0.7306 -0.4064
 5750SOL    HW228884   1.831   0.812  12.566 -2.6271  1.6950 -0.5043
 5751SOL     OW28885   3.985   1.657  10.051 -0.4937  0.2938 -1.0787
 5751SOL    HW128886   3.965   1.588  10.114  0.2016  1.6799  0.6563
 5751SOL    HW228887   3.985   1.735  10.106  2.2890  0.2998 -1.0773
 5752SOL     OW28888   2.692   1.208   7.471  0.2223  0.0035  0.2918
 5752SOL    HW128889   2.625   1.241   7.532 -0.4687  0.6501 -0.8154
 5752SOL    HW228890   2.661   1.237   7.385 -2.0505  1.2700  1.5007
 5753SOL     OW28891   3.165   2.554   9.107 -0.5322  0.1555  0.1025
 5753SOL    HW128892   3.103   2.525   9.174  0.1931  0.5639  0.9643
 5753SOL    HW228893   3.242   2.503   9.132  0.0415  1.5401  1.2178
 5754SOL     OW28894   0.549   1.346   5.105 -0.0146 -0.5105 -0.0974
 5754SOL    HW128895   0.555   1.251   5.113 -1.7924 -0.5428  1.0211
 5754SOL    HW228896   0.542   1.359   5.011 -0.7758 -1.1476 -0.1356
 5755SOL     OW28897   1.216   4.019   5.099  0.3821  0.4482  0.2316
 5755SOL    HW128898   1.288   4.081   5.086  2.2304 -1.8437 -0.4878
 5755SOL    HW228899   1.197   4.006   5.006 -2.1408 -1.2855  0.9867
 5756SOL     OW28900   1.015   2.125   3.255 -0.0435 -0.4527 -0.0035
 5756SOL    HW128901   1.027   2.042   3.209  2.5777 -1.3199  2.2520
 5756SOL    HW228902   0.927   2.122   3.294 -0.1650  0.4242 -0.2009
 5757SOL     OW28903   2.569   2.883   5.944  0.0399  0.0791 -0.0105
 5757SOL    HW128904   2.616   2.963   5.923 -0.4446  0.2607 -0.3960
 5757SOL    HW228905   2.499   2.918   6.000  0.2247  0.3628  0.0422
 5758SOL     OW28906   3.488   0.266   9.159 -0.2082  0.3376  0.4533
 5758SOL    HW128907   3.495   0.323   9.235  0.2329  1.6850 -0.5959
 5758SOL    HW228908   3.580   0.275   9.132  0.1301 -1.1522  1.0903
 5759SOL     OW28909   0.362   2.274  14.196  0.2970 -0.2290  0.7018
 5759SOL    HW128910   0.426   2.260  14.127 -1.3554  0.4697 -0.9797
 5759SOL    HW228911   0.282   2.252  14.148  1.3477 -1.9581 -0.2439
 5760SOL     OW28912   0.352   2.291  11.520  0.2909 -0.7933  0.2128
 5760SOL    HW128913   0.317   2.228  11.583  2.4574 -0.1350  2.0339
 5760SOL    HW228914   0.403   2.341  11.583  0.0422 -0.1195 -0.1198
 5761SOL     OW28915   2.438   3.425   1.151 -0.0791 -1.1896  0.5823
 5761SOL    HW128916   2.349   3.421   1.117  0.2177 -0.7890 -0.2506
 5761SOL    HW228917   2.486   3.441   1.069 -1.0083 -0.7196  0.1380
 5762SOL     OW28918   3.592   1.864   4.741  0.1063 -0.2215  0.1916
 5762SOL    HW128919   3.509   1.846   4.785  0.4188  0.7794  1.2013
 5762SOL    HW228920   3.578   1.959   4.743  0.1435 -0.2199  0.4640
 5763SOL     OW28921   3.333   4.466   4.574 -0.1047 -0.3675  0.4490
 5763SOL    HW128922   3.373   4.413   4.642 -0.0844 -1.7024 -0.6123
 5763SOL    HW228923   3.265   4.517   4.619 -0.6212  1.9852 -2.9134
 5764SOL     OW28924   2.280   1.765   1.841 -0.8542  0.1968 -0.2365
 5764SOL    HW128925   2.324   1.850   1.844  1.0870 -0.9171  2.7073
 5764SOL    HW228926   2.360   1.713   1.849  0.4867  2.3234  0.3170
 5765SOL     OW28927   0.639   0.020   7.593  0.2582  0.0736 -0.1480
 5765SOL    HW128928   0.643   0.069   7.511  0.4477 -0.4887 -0.4707
 5765SOL    HW228929   0.645   0.091   7.657 -2.0558 -0.7943  1.0454
 5766SOL     OW28930   1.590   0.823   3.385 -0.4095  0.5322 -0.2726
 5766SOL    HW128931   1.566   0.847   3.474 -0.4347  3.2621 -1.0122
 5766SOL    HW228932   1.577   0.729   3.393 -1.2757  0.5704 -1.2237
 5767SOL     OW28933   2.177   3.521   6.534 -0.2357  0.6723 -0.0056
 5767SOL    HW128934   2.140   3.464   6.602 -1.2689  0.9745 -0.3128
 5767SOL    HW228935   2.165   3.606   6.577 -1.0928  0.9907 -0.8883
 5768SOL     OW28936   0.560   0.478   2.866  0.0085 -0.3511 -0.4498
 5768SOL    HW128937   0.480   0.486   2.815 -0.6979  0.6604  0.8295
 5768SOL    HW228938   0.574   0.383   2.858  1.5098 -0.1432 -0.2492
 5769SOL     OW28939   2.873   2.918   9.346  0.3562  0.0275 -0.1150
 5769SOL    HW128940   2.879   3.011   9.367 -1.7556 -0.2593  1.8255
 5769SOL    HW228941   2.904   2.917   9.256 -0.6303 -0.7518 -0.4389
 5770SOL     OW28942   3.665   1.322  12.215  0.3443 -0.0990  0.2708
 5770SOL    HW128943   3.692   1.312  12.306 -1.5779 -1.3089  0.7086
 5770SOL    HW228944   3.571   1.305  12.213  0.2521  0.1574  2.2744
 5771SOL     OW28945   4.386   2.969   8.756 -0.1916 -0.1204 -0.5579
 5771SOL    HW128946   4.340   3.005   8.832 -0.7185  1.0272 -1.4189
 5771SOL    HW228947   4.384   2.877   8.783 -1.3280  0.7943  2.5021
 5772SOL     OW28948   1.273   3.861  15.715 -0.0848  0.3839  0.0861
 5772SOL    HW128949   1.348   3.908  15.753 -0.6353  1.7789 -0.5550
 5772SOL    HW228950   1.311   3.799  15.654 -0.3932  0.4416 -0.1620
 5773SOL     OW28951   1.839   0.434   8.376 -0.1055  0.0933  0.7589
 5773SOL    HW128952   1.878   0.365   8.429  0.3786  0.4915  0.9265
 5773SOL    HW228953   1.850   0.513   8.429  1.1531  1.2789 -1.2585
 5774SOL     OW28954   0.394   0.936  13.933 -0.6353 -0.2450 -0.0217
 5774SOL    HW128955   0.403   0.868  13.867  1.5720 -1.8515  1.9442
 5774SOL    HW228956   0.422   1.012  13.882 -0.9804  0.1408  0.3598
 5775SOL     OW28957   1.000   3.579   6.882  0.3305 -0.2841  0.2088
 5775SOL    HW128958   0.982   3.617   6.968  2.2854 -0.1261  0.5537
 5775SOL    HW228959   0.961   3.648   6.829 -0.4472 -1.0902 -0.2624
 5776SOL     OW28960   1.991   3.936   3.265  0.2981  0.1540  0.2413
 5776SOL    HW128961   2.035   3.864   3.221  1.7588  1.5747 -0.6280
 5776SOL    HW228962   1.934   3.972   3.197  2.4313 -0.5526 -1.9100
 5777SOL     OW28963   4.320   1.454   1.479  0.0493 -0.0087 -0.5905
 5777SOL    HW128964   4.370   1.405   1.544 -0.2951  2.2471  1.3511
 5777SOL    HW228965   4.244   1.396   1.479  0.4390 -0.5333 -1.6297
 5778SOL     OW28966   1.759   1.475   1.164 -0.1072 -0.4483  0.1650
 5778SOL    HW128967   1.788   1.509   1.080  1.3422  0.7872  1.1789
 5778SOL    HW228968   1.831   1.492   1.224 -0.2166 -1.4093  0.5657
 5779SOL     OW28969   2.928   1.890   8.782 -0.4801 -0.0104  0.7012
 5779SOL    HW128970   2.914   1.838   8.861 -2.2758  0.3856  0.6481
 5779SOL    HW228971   2.839   1.923   8.772 -1.1591 -2.1133 -0.1810
 5780SOL     OW28972   2.599   0.846   3.395 -0.1739 -0.1285  0.1193
 5780SOL    HW128973   2.677   0.886   3.357 -0.0809 -0.1519  0.2860
 5780SOL    HW228974   2.599   0.884   3.483  0.6147  3.2710 -1.3445
 5781SOL     OW28975   3.130   3.663   4.978  0.6755 -0.2552  0.3631
 5781SOL    HW128976   3.156   3.677   4.887  1.6774 -0.6817  0.5787
 5781SOL    HW228977   3.055   3.606   4.961  0.6629 -0.2392  0.3658
 5782SOL     OW28978   0.947   2.936   7.343 -0.4778  0.3635 -0.1073
 5782SOL    HW128979   1.029   2.939   7.294 -1.3606 -2.8681 -1.7213
 5782SOL    HW228980   0.945   3.023   7.384 -0.2575  0.6134 -0.6257
 5783SOL     OW28981   4.234   2.564   5.035 -0.1890  0.1310  0.5060
 5783SOL    HW128982   4.219   2.523   4.950 -0.4343  2.2675 -0.4695
 5783SOL    HW228983   4.326   2.586   5.016 -0.0304 -1.7051 -0.8921
 5784SOL     OW28984   0.793   1.007   6.314  0.0837 -0.5640  0.0999
 5784SOL    HW128985   0.773   1.071   6.246 -2.5210  2.4533  3.7242
 5784SOL    HW228986   0.707   0.998   6.355 -0.5805  1.2897 -0.8720
 5785SOL     OW28987   1.561   1.353  10.388 -0.1341  0.1158 -0.5582
 5785SOL    HW128988   1.511   1.279  10.355  0.2086 -0.9416  1.2357
 5785SOL    HW228989   1.595   1.385  10.305  0.0967 -1.1932 -0.9739
 5786SOL     OW28990   2.561   4.502   8.159  0.0498 -1.2560  0.4723
 5786SOL    HW128991   2.583   4.586   8.198  1.6787 -0.4309 -2.1920
 5786SOL    HW228992   2.490   4.471   8.216 -1.0106 -2.0490 -1.2847
 5787SOL     OW28993   1.177   4.266   7.276 -0.8469  0.5606  0.6771
 5787SOL    HW128994   1.117   4.281   7.349 -0.6595  1.6916  0.5927
 5787SOL    HW228995   1.196   4.172   7.283 -0.1670  0.6506  0.0357
 5788SOL     OW28996   0.315   3.109   7.527 -0.0370 -0.4006 -0.2535
 5788SOL    HW128997   0.293   3.020   7.556  2.3444 -0.9901 -0.2367
 5788SOL    HW228998   0.322   3.099   7.432 -1.5630  0.5529 -0.4553
 5789SOL     OW28999   0.631   1.013  12.174 -0.0298  0.2126  0.8218
 5789SOL    HW129000   0.579   1.093  12.162  1.2645  0.9913  0.4955
 5789SOL    HW229001   0.594   0.975  12.254  0.3424 -1.7398  0.0624
 5790SOL     OW29002   0.362   1.962   3.395 -0.0915 -0.1657 -0.0739
 5790SOL    HW129003   0.305   1.904   3.447 -1.9299  2.7115  1.1300
 5790SOL    HW229004   0.433   1.965   3.459  0.7926  0.7858 -1.1044
 5791SOL     OW29005   1.894   2.321   5.144 -0.4444 -0.0983 -0.4187
 5791SOL    HW129006   1.897   2.414   5.164 -3.4349  0.6876 -3.6066
 5791SOL    HW229007   1.919   2.317   5.051 -1.0603 -0.7551 -0.5558
 5792SOL     OW29008   3.399   3.054   8.694  0.2761 -0.1936 -0.2036
 5792SOL    HW129009   3.362   2.982   8.642 -0.8369  0.7892 -0.7471
 5792SOL    HW229010   3.383   3.035   8.786 -1.0484  1.6131 -0.0707
 5793SOL     OW29011   0.126   3.569   2.155  0.0437 -0.4007 -0.0267
 5793SOL    HW129012   0.170   3.650   2.130  2.4349 -1.4748  0.7265
 5793SOL    HW229013   0.127   3.513   2.077  0.2100  1.4046 -1.3188
 5794SOL     OW29014   4.498   4.497  13.629  0.1181  0.3021  0.7321
 5794SOL    HW129015   4.453   4.413  13.619  0.1075  0.3768  0.1384
 5794SOL    HW229016   4.483   4.534  13.542 -2.9105 -1.4394  0.5293
 5795SOL     OW29017   0.675   1.814   5.294  0.8078  0.4673 -0.1403
 5795SOL    HW129018   0.765   1.809   5.260  0.7120 -1.5784 -0.0659
 5795SOL    HW229019   0.632   1.744   5.244  2.3924 -1.1741  0.7844
 5796SOL     OW29020   1.173   4.721   6.972 -1.0298  0.0457  0.3396
 5796SOL    HW129021   1.120   0.049   6.926 -0.2851  0.5032  0.1395
 5796SOL    HW229022   1.246   4.723   6.910 -0.5679 -3.8772  0.7517
 5797SOL     OW29023   1.932   0.985  11.543 -0.4880 -0.8513 -1.1409
 5797SOL    HW129024   2.022   0.954  11.549 -0.2726 -0.3639 -1.9514
 5797SOL    HW229025   1.890   0.903  11.568 -0.9253 -0.7442 -1.5137
 5798SOL     OW29026   3.408   0.490   5.838 -0.5376  0.1024 -0.3659
 5798SOL    HW129027   3.387   0.570   5.885  1.3973  0.0159  0.6618
 5798SOL    HW229028   3.502   0.497   5.818 -0.2843  1.3954  1.3089
 5799SOL     OW29029   4.547   3.549   9.634 -0.0846  0.5842 -0.2786
 5799SOL    HW129030   4.510   3.500   9.707  0.3077 -0.2330 -0.6278
 5799SOL    HW229031   4.511   3.638   9.634 -2.4050 -0.3679 -1.1206
 5800SOL     OW29032   3.724   1.554   2.927 -1.0290 -0.4450  0.2378
 5800SOL    HW129033   3.659   1.484   2.932 -1.3042 -0.2150 -0.0803
 5800SOL    HW229034   3.773   1.538   2.846 -1.2972 -0.8777  0.1621
 5801SOL     OW29035   2.183   1.581  13.666  0.5129  0.2837  0.1406
 5801SOL    HW129036   2.162   1.627  13.586  0.1334 -2.3489 -1.2692
 5801SOL    HW229037   2.100   1.578  13.713  0.0579  0.3706 -0.6799
 5802SOL     OW29038   4.663   0.692  12.054 -0.2497  0.2266  0.3776
 5802SOL    HW129039   4.625   0.768  12.098 -0.6888 -0.1275  0.6089
 5802SOL    HW229040   4.584   0.637  12.051  1.3498 -2.0078 -0.7833
 5803SOL     OW29041   0.835   1.890   9.025  0.0831 -0.1752 -0.0652
 5803SOL    HW129042   0.884   1.813   9.055  1.6132  1.2804  1.1529
 5803SOL    HW229043   0.782   1.846   8.959 -0.0542 -3.0879  1.9704
 5804SOL     OW29044   4.419   2.585   1.659  1.0750  0.6387  0.0709
 5804SOL    HW129045   4.470   2.580   1.578  0.8567 -0.7534  0.0147
 5804SOL    HW229046   4.459   2.664   1.694  0.4364  1.5759 -1.3083
 5805SOL     OW29047   1.930   2.669   8.224  0.2836 -0.0728  0.3020
 5805SOL    HW129048   1.903   2.742   8.280 -0.3789 -1.2032  1.4582
 5805SOL    HW229049   1.955   2.709   8.140  1.4657 -0.4724  0.4646
 5806SOL     OW29050   1.020   0.760  15.424 -0.0749 -0.0338 -0.1339
 5806SOL    HW129051   1.021   0.771  15.519 -0.3215  3.1847 -0.4926
 5806SOL    HW229052   1.056   0.673  15.411 -0.3099 -0.2713  0.8041
 5807SOL     OW29053   1.666   3.611   8.301 -0.0068 -0.4788 -0.1449
 5807SOL    HW129054   1.654   3.517   8.287 -0.4962 -0.1621 -1.7902
 5807SOL    HW229055   1.647   3.605   8.394  1.0085  0.4642  0.1295
 5808SOL     OW29056   3.546   4.197  10.429 -0.4557  0.6346 -1.0946
 5808SOL    HW129057   3.598   4.151  10.364  1.0319  2.8928 -1.5020
 5808SOL    HW229058   3.544   4.286  10.392 -1.1299  1.0457 -0.0541
 5809SOL     OW29059   2.235   3.528   3.575 -0.2679 -0.6409  0.6600
 5809SOL    HW129060   2.265   3.443   3.607 -0.4398 -1.0123 -0.1550
 5809SOL    HW229061   2.310   3.576   3.539 -0.2487  0.5151  2.2372
 5810SOL     OW29062   2.546   1.513   8.937 -0.2890 -0.4337 -0.3017
 5810SOL    HW129063   2.499   1.591   8.905 -0.1031  0.1054  0.7520
 5810SOL    HW229064   2.493   1.439   8.910  0.6082 -1.1838  0.0039
 5811SOL     OW29065   0.797   1.982  14.110  0.2087 -0.0040 -0.0597
 5811SOL    HW129066   0.786   2.014  14.021 -0.0266 -0.7193 -0.2838
 5811SOL    HW229067   0.707   1.957  14.133 -0.3733  0.6462 -1.6465
 5812SOL     OW29068   1.850   2.109   2.189 -0.7104 -0.2251  0.5389
 5812SOL    HW129069   1.781   2.092   2.125  0.1393  0.9243 -0.6701
 5812SOL    HW229070   1.887   2.021   2.181 -0.8399  0.0692 -3.2810
 5813SOL     OW29071   4.399   0.525   8.008  0.1576  0.2855  0.2591
 5813SOL    HW129072   4.364   0.615   8.003 -0.1724  0.0474 -1.6083
 5813SOL    HW229073   4.316   0.479   8.017  0.2096  0.3465  1.0652
 5814SOL     OW29074   1.387   4.626  11.659 -0.2868  0.2631  0.0273
 5814SOL    HW129075   1.356   4.710  11.692  1.2131  0.2406  1.4973
 5814SOL    HW229076   1.312   4.568  11.642  0.9120 -0.9020 -1.2719
 5815SOL     OW29077   0.712   3.312   2.101 -0.3091 -0.2167  0.7814
 5815SOL    HW129078   0.675   3.258   2.170  1.3972 -0.6638  1.3343
 5815SOL    HW229079   0.805   3.298   2.120 -0.8517 -1.0555  2.8263
 5816SOL     OW29080   3.570   2.238  10.314  0.3212 -0.4798  0.7026
 5816SOL    HW129081   3.610   2.163  10.358  1.3213  1.1583  2.5577
 5816SOL    HW229082   3.526   2.275  10.390 -0.6083 -0.4023  0.1331
 5817SOL     OW29083   1.451   1.314   2.660  0.1551 -0.8063  0.0407
 5817SOL    HW129084   1.431   1.392   2.607  0.3491  0.8673  2.4218
 5817SOL    HW229085   1.379   1.314   2.723  1.6636  1.0636  1.7816
 5818SOL     OW29086   0.577   1.350   0.668 -0.6232  0.2936 -0.3054
 5818SOL    HW129087   0.606   1.272   0.716  1.8086  1.4143  0.0638
 5818SOL    HW229088   0.561   1.415   0.736  0.9221 -1.4213  1.7393
 5819SOL     OW29089   1.627   4.457   4.630  0.3308  0.2068 -0.9649
 5819SOL    HW129090   1.655   4.531   4.575  0.5288 -0.5500 -1.8901
 5819SOL    HW229091   1.700   4.396   4.621  0.2108 -0.1208  0.3247
 5820SOL     OW29092   1.095   3.268   3.494  0.0960  0.6157 -0.4536
 5820SOL    HW129093   1.170   3.218   3.464  0.4496  0.3459  0.8824
 5820SOL    HW229094   1.125   3.318   3.570 -1.3103 -0.9480  1.1199
 5821SOL     OW29095   4.022   3.135   2.245 -0.0231  0.0777  0.0613
 5821SOL    HW129096   4.009   3.068   2.178  0.0383  0.3227 -0.1971
 5821SOL    HW229097   3.935   3.171   2.233 -0.5375 -0.2898  2.7158
 5822SOL     OW29098   1.324   4.491   8.979  0.4204 -0.2572 -0.1870
 5822SOL    HW129099   1.342   4.546   9.055 -0.0339 -0.1703 -0.1388
 5822SOL    HW229100   1.276   4.416   9.015 -0.7531  1.1039  1.1122
 5823SOL     OW29101   3.359   1.591   4.253 -0.0056 -0.8034 -0.2828
 5823SOL    HW129102   3.295   1.641   4.202  0.4389 -0.6765 -0.7089
 5823SOL    HW229103   3.380   1.642   4.332  0.5340 -0.8531 -0.3990
 5824SOL     OW29104   3.123   1.541  14.219 -0.2108  0.1041  0.2136
 5824SOL    HW129105   3.038   1.499  14.210 -0.6722  0.5987  2.1610
 5824SOL    HW229106   3.111   1.617  14.162  0.2803  0.4826  0.6112
 5825SOL     OW29107   0.692   0.849  15.889  0.2490 -0.5055 -0.0984
 5825SOL    HW129108   0.750   0.886  15.823  1.0110 -0.3850  0.6432
 5825SOL    HW229109   0.671   0.927  15.941 -0.2933  0.0187 -1.1216
 5826SOL     OW29110   0.336   2.656   3.034  0.3949 -0.3972  0.0892
 5826SOL    HW129111   0.268   2.704   3.081 -0.5397 -1.2254 -0.4373
 5826SOL    HW229112   0.364   2.584   3.092 -0.6807 -1.5967 -0.8939
 5827SOL     OW29113   2.245   0.888   9.145 -0.1069  0.2375 -0.5227
 5827SOL    HW129114   2.180   0.850   9.085  0.1297 -0.1652 -0.5210
 5827SOL    HW229115   2.318   0.829   9.125 -1.0492 -0.8715 -0.6762
 5828SOL     OW29116   3.009   1.917   3.799  0.1422  0.5187 -0.3726
 5828SOL    HW129117   2.929   1.971   3.796 -2.0130 -2.7313 -1.6295
 5828SOL    HW229118   3.074   1.984   3.820 -1.7475  1.6873  1.7461
 5829SOL     OW29119   0.507   4.119   8.797  0.1254 -0.4382  0.1709
 5829SOL    HW129120   0.599   4.111   8.771  1.0384 -2.4486  4.0384
 5829SOL    HW229121   0.508   4.084   8.886  1.0932 -0.3841  0.1845
 5830SOL     OW29122   1.432   4.144  11.085 -0.2998 -0.1309 -0.4056
 5830SOL    HW129123   1.490   4.211  11.121 -0.1074 -0.1210 -0.7321
 5830SOL    HW229124   1.446   4.068  11.142  0.2059 -0.5520 -1.0787
 5831SOL     OW29125   4.650   3.110  11.340  0.3504  0.7471 -0.1463
 5831SOL    HW129126   4.633   3.156  11.422 -1.3005  0.6840 -0.4476
 5831SOL    HW229127   4.641   3.018  11.364 -1.2556  0.8972 -0.1488
 5832SOL     OW29128   2.281   0.521   6.752 -0.5400  0.2228  0.0043
 5832SOL    HW129129   2.349   0.469   6.709 -0.0042 -1.6423  3.1525
 5832SOL    HW229130   2.276   0.482   6.839  1.0236  0.1063  0.0477
 5833SOL     OW29131   0.906   3.436   9.488 -0.2060  0.7139 -0.4914
 5833SOL    HW129132   0.947   3.439   9.402  0.8011 -0.9378 -0.0700
 5833SOL    HW229133   0.946   3.513   9.529  0.7501 -0.1147  0.1222
 5834SOL     OW29134   0.249   4.027   9.260  0.4932 -0.7389  0.0559
 5834SOL    HW129135   0.338   4.062   9.257 -0.6529  1.9614 -2.1207
 5834SOL    HW229136   0.276   3.938   9.236  2.5582 -0.5119  1.5760
 5835SOL     OW29137   2.341   1.601  13.116 -0.4087 -0.0605  0.5801
 5835SOL    HW129138   2.329   1.524  13.060 -1.8652  0.8325 -0.3516
 5835SOL    HW229139   2.359   1.673  13.055 -1.4154 -0.7261 -0.5228
 5836SOL     OW29140   3.622   3.345   9.416  0.3516  0.0885  0.0282
 5836SOL    HW129141   3.636   3.438   9.431  0.8849 -0.0341  0.3092
 5836SOL    HW229142   3.537   3.328   9.457  0.9951 -1.3241  0.7821
 5837SOL     OW29143   3.681   4.452  13.366  0.0536  0.1434  0.1675
 5837SOL    HW129144   3.627   4.436  13.443 -1.8791 -0.6034 -1.3395
 5837SOL    HW229145   3.654   4.544  13.370 -0.9481 -0.1235 -0.4245
 5838SOL     OW29146   2.551   4.081  17.030 -0.5134 -0.1445  0.0318
 5838SOL    HW129147   2.511   3.996  17.049  0.4232 -0.9198 -1.3408
 5838SOL    HW229148   2.554   4.068  16.935 -0.9698 -0.1769  0.0259
 5839SOL     OW29149   1.052   4.368   2.332 -0.1354 -0.1609  0.0650
 5839SOL    HW129150   1.106   4.414   2.267  0.6925  0.9234  1.5234
 5839SOL    HW229151   1.011   4.297   2.282 -0.4591  0.0028  0.1037
 5840SOL     OW29152   1.243   0.500   4.176  0.4440 -0.0604  0.0594
 5840SOL    HW129153   1.150   0.502   4.155  0.4177  1.8052  0.3883
 5840SOL    HW229154   1.264   0.581   4.130  2.3118 -1.1944 -1.0925
 5841SOL     OW29155   4.198   0.934   3.017  0.0715 -0.1790 -0.3238
 5841SOL    HW129156   4.226   0.894   3.099 -1.7848  1.6110  1.1981
 5841SOL    HW229157   4.288   0.959   2.996  0.2670 -0.0178  0.6850
 5842SOL     OW29158   0.654   3.525   4.918 -0.2926 -0.5613 -0.0622
 5842SOL    HW129159   0.699   3.609   4.931  2.1852 -2.3838  3.1365
 5842SOL    HW229160   0.696   3.495   4.838  0.2200 -2.2619  0.8407
 5843SOL     OW29161   2.438   0.724   6.678  0.3708 -0.1257  0.2286
 5843SOL    HW129162   2.454   0.690   6.590 -0.9204 -0.6131  0.1769
 5843SOL    HW229163   2.394   0.648   6.716  0.0526  0.8712  1.8655
 5844SOL     OW29164   0.701   3.407   2.648 -0.0169 -0.0018  0.2777
 5844SOL    HW129165   0.700   3.319   2.611 -1.2959 -0.2566  0.9057
 5844SOL    HW229166   0.747   3.458   2.581 -1.3955 -0.1787 -0.7986
 5845SOL     OW29167   1.741   1.722   7.199  0.1542  0.0448 -0.9381
 5845SOL    HW129168   1.836   1.737   7.198  0.0057  1.1514  1.1179
 5845SOL    HW229169   1.752   1.630   7.224  0.0550  0.0207 -0.9852
 5846SOL     OW29170   2.969   3.710  12.219  0.7571  0.1499  0.1037
 5846SOL    HW129171   2.893   3.729  12.164 -0.5597 -1.3342  1.3900
 5846SOL    HW229172   2.950   3.782  12.279  1.3602  0.7607 -0.4416
 5847SOL     OW29173   3.386   1.266   1.445 -0.7155  0.0864  0.2693
 5847SOL    HW129174   3.339   1.219   1.376 -0.8735 -1.0451  1.1519
 5847SOL    HW229175   3.476   1.264   1.414 -0.7213 -0.8779  0.3242
 5848SOL     OW29176   2.725   2.561   1.436  0.2594 -0.2813 -0.0638
 5848SOL    HW129177   2.631   2.573   1.450  0.4756  1.3095  0.0829
 5848SOL    HW229178   2.758   2.510   1.510  2.2302  0.0343 -0.7308
 5849SOL     OW29179   4.067   0.765   2.127  0.7824 -0.3339  0.4016
 5849SOL    HW129180   4.123   0.841   2.110 -1.4396  1.0786 -0.5700
 5849SOL    HW229181   3.983   0.808   2.145  0.4933 -0.5944 -0.3461
 5850SOL     OW29182   1.124   4.605   8.844  0.3249 -0.5840 -0.1154
 5850SOL    HW129183   1.096   4.613   8.935 -1.0651 -0.9449 -0.5067
 5850SOL    HW229184   1.209   4.566   8.860 -0.0411 -1.1973  0.3125
 5851SOL     OW29185   2.382   4.204   8.598 -0.0510  0.2211 -0.2226
 5851SOL    HW129186   2.407   4.269   8.663 -1.3908 -1.0541  1.5672
 5851SOL    HW229187   2.307   4.166   8.645 -1.0290 -0.3715 -2.2334
 5852SOL     OW29188   3.865   0.547  17.148 -0.6027 -0.4842 -0.3707
 5852SOL    HW129189   3.784   0.559  17.097 -0.7252  0.4226  0.0376
 5852SOL    HW229190   3.920   0.492  17.092  0.4685  3.2689 -2.9899
 5853SOL     OW29191   2.838   2.432   3.877  0.3428  0.3202 -0.5466
 5853SOL    HW129192   2.854   2.509   3.824  1.3209 -0.7265 -1.7687
 5853SOL    HW229193   2.881   2.459   3.958  3.0212 -2.1855 -1.1218
 5854SOL     OW29194   1.750   3.508   6.801 -0.1018  0.2242  0.1232
 5854SOL    HW129195   1.673   3.475   6.754 -1.4949  3.0871  0.3988
 5854SOL    HW229196   1.765   3.431   6.856  1.8789  0.8538  0.4585
 5855SOL     OW29197   4.595   0.141   4.438 -0.2461 -0.2522  0.2699
 5855SOL    HW129198   4.532   0.191   4.489 -0.7337  1.6252 -2.1596
 5855SOL    HW229199   4.667   0.141   4.501 -1.8730 -0.3126  2.0978
 5856SOL     OW29200   0.608   0.446   5.757  0.4041  0.1877 -0.3420
 5856SOL    HW129201   0.552   0.429   5.832  0.5000  2.2275  0.1989
 5856SOL    HW229202   0.603   0.541   5.744 -0.8131  0.4541  2.1011
 5857SOL     OW29203   3.695   3.321  12.564  0.1193  0.4794 -0.9575
 5857SOL    HW129204   3.785   3.296  12.583 -0.4964 -0.6816  0.4225
 5857SOL    HW229205   3.703   3.340  12.470  1.8392 -3.5056 -1.6044
 5858SOL     OW29206   1.379   2.846   4.001  0.0237 -0.3082  0.3154
 5858SOL    HW129207   1.353   2.866   3.911 -1.5722  1.6485  1.2141
 5858SOL    HW229208   1.467   2.813   3.984  0.7327  1.2683  0.9110
 5859SOL     OW29209   3.967   3.833  16.731 -0.3707 -0.1086  0.0405
 5859SOL    HW129210   4.009   3.918  16.741 -1.7620  0.8210 -1.8656
 5859SOL    HW229211   3.917   3.833  16.812 -0.4144 -0.4749  0.0154
 5860SOL     OW29212   4.530   2.724  14.618  0.2490 -0.2690 -0.0650
 5860SOL    HW129213   4.561   2.815  14.608 -1.4304 -0.2659 -5.4306
 5860SOL    HW229214   4.604   2.682  14.574  1.5767  2.2957 -0.2903
 5861SOL     OW29215   4.281   0.842   8.173  0.3127  0.4403 -0.8253
 5861SOL    HW129216   4.307   0.793   8.250  1.1223 -1.4435 -2.2926
 5861SOL    HW229217   4.336   0.919   8.183 -1.3131  1.3957  0.7520
 5862SOL     OW29218   3.131   1.657   5.289  0.1138 -0.1271  0.1803
 5862SOL    HW129219   3.117   1.567   5.260  0.1054 -0.6009  1.6725
 5862SOL    HW229220   3.126   1.699   5.203  0.1553 -1.4091 -0.4493
 5863SOL     OW29221   1.045   1.923  14.503  0.1298 -0.7194  0.2944
 5863SOL    HW129222   1.115   1.929  14.438 -0.6490 -0.5593 -0.5195
 5863SOL    HW229223   1.007   1.850  14.455  0.7190 -1.0245  0.2833
 5864SOL     OW29224   2.869   0.192   4.948  0.2910  0.2979 -0.3473
 5864SOL    HW129225   2.928   0.135   4.899 -1.1397  1.2030 -3.1180
 5864SOL    HW229226   2.904   0.271   4.905  1.3888  0.1758  0.3229
 5865SOL     OW29227   3.637   3.925   2.854 -0.0044  0.3974  0.2308
 5865SOL    HW129228   3.546   3.906   2.877 -0.1954  0.3050 -0.5984
 5865SOL    HW229229   3.630   3.973   2.771  2.2916  0.7210  0.2246
 5866SOL     OW29230   0.727   3.042   0.644  0.4029  0.4396 -1.0726
 5866SOL    HW129231   0.692   2.998   0.566  0.2787 -0.5063 -0.4933
 5866SOL    HW229232   0.812   2.998   0.643 -0.5233 -1.4426  0.6148
 5867SOL     OW29233   3.874   0.469  13.653 -0.4228  0.3368  0.5195
 5867SOL    HW129234   3.947   0.432  13.702  0.4039  2.6983  1.0875
 5867SOL    HW229235   3.814   0.395  13.659 -0.9926  0.6573 -1.4102
 5868SOL     OW29236   1.046   1.376   7.243 -0.3081 -0.4853 -0.2166
 5868SOL    HW129237   1.019   1.345   7.330  0.2530 -1.4287 -0.3847
 5868SOL    HW229238   1.060   1.467   7.269 -0.5407 -0.5715  0.2132
 5869SOL     OW29239   3.532   4.167   4.073 -0.5013  0.2915  0.0305
 5869SOL    HW129240   3.600   4.153   4.139 -0.5519 -1.3220 -0.2468
 5869SOL    HW229241   3.587   4.172   3.995 -2.7279  1.1662 -1.4922
 5870SOL     OW29242   3.981   2.281  15.023  0.6048 -0.1594  0.2528
 5870SOL    HW129243   4.047   2.349  15.026  1.4616 -0.8714 -2.0679
 5870SOL    HW229244   3.991   2.238  15.107 -0.8626 -0.2431  0.3950
 5871SOL     OW29245   3.363   2.787   7.350 -0.5368  0.3300 -0.3523
 5871SOL    HW129246   3.414   2.706   7.356 -0.4120  0.2960 -1.8913
 5871SOL    HW229247   3.431   2.844   7.315 -2.1937  2.0116 -0.8242
 5872SOL     OW29248   2.418   2.298  13.924  0.3144 -0.3313 -0.1534
 5872SOL    HW129249   2.366   2.337  13.853 -0.9741 -2.2139 -0.2549
 5872SOL    HW229250   2.398   2.206  13.908 -3.5359  0.8759 -2.4063
 5873SOL     OW29251   1.209   0.118   9.018  0.0147 -0.1256  0.1698
 5873SOL    HW129252   1.137   0.165   8.974 -0.0949  0.5864  1.1130
 5873SOL    HW229253   1.160   0.074   9.087 -1.3352  0.7710 -0.2106
 5874SOL     OW29254   4.530   1.473   7.305  0.4469 -0.1691  0.6497
 5874SOL    HW129255   4.536   1.469   7.401  0.5158 -0.5405  0.6304
 5874SOL    HW229256   4.434   1.474   7.298  0.6894 -0.1856 -2.6529
 5875SOL     OW29257   2.766   4.312   7.074  0.0576  0.1699 -0.6717
 5875SOL    HW129258   2.798   4.229   7.038  0.2218 -0.0438 -0.0373
 5875SOL    HW229259   2.672   4.293   7.077 -0.2684  2.3082  2.9976
 5876SOL     OW29260   3.706   3.799  16.640 -0.6156  0.2425 -0.0349
 5876SOL    HW129261   3.659   3.882  16.634  1.6833  1.6182  1.0817
 5876SOL    HW229262   3.795   3.822  16.665 -0.7512  0.8467 -0.1114
 5877SOL     OW29263   0.132   3.866   2.417 -0.0388  0.5604 -0.0540
 5877SOL    HW129264   0.172   3.952   2.429 -0.8740  0.9719 -0.2022
 5877SOL    HW229265   0.066   3.891   2.352 -2.5614 -1.3489  1.7710
 5878SOL     OW29266   2.646   4.506   4.893 -0.3139 -0.2389  0.0133
 5878SOL    HW129267   2.664   4.584   4.840 -2.0349  0.8696  1.0601
 5878SOL    HW229268   2.692   4.439   4.843 -0.6172 -2.0345  2.1877
 5879SOL     OW29269   0.362   1.697   4.746  0.6609 -0.0004  0.4870
 5879SOL    HW129270   0.374   1.726   4.656 -1.0517 -1.7671 -0.3127
 5879SOL    HW229271   0.266   1.694   4.746  0.5579  2.7783  0.8974
 5880SOL     OW29272   3.647   1.337   6.871 -0.1190  0.0133 -0.1410
 5880SOL    HW129273   3.706   1.409   6.895 -1.0548  0.5694  0.5149
 5880SOL    HW229274   3.630   1.303   6.959  0.7390  1.6682  0.6810
 5881SOL     OW29275   4.356   0.913  15.458 -0.3772 -0.6049  0.5192
 5881SOL    HW129276   4.446   0.890  15.433  0.3189  0.0293  2.4324
 5881SOL    HW229277   4.375   0.946  15.546  1.1510  1.7066 -0.6541
 5882SOL     OW29278   1.037   2.630   9.146 -0.1514 -0.5320  0.0354
 5882SOL    HW129279   1.054   2.616   9.239  3.4200 -0.4481 -0.6145
 5882SOL    HW229280   1.112   2.587   9.104 -0.6058  0.2726 -1.6150
 5883SOL     OW29281   1.671   3.700   8.577  0.2520 -0.2351 -0.3205
 5883SOL    HW129282   1.762   3.673   8.571  0.4540  0.5645 -0.8261
 5883SOL    HW229283   1.672   3.720   8.671 -0.2781 -4.3119  0.5431
 5884SOL     OW29284   3.445   1.631  14.349 -0.4318  0.2461  0.0887
 5884SOL    HW129285   3.410   1.678  14.425  0.9905 -0.2377  1.0414
 5884SOL    HW229286   3.374   1.573  14.323 -1.5836  0.9047  1.7782
 5885SOL     OW29287   2.311   0.889   1.989 -0.1100 -0.3304 -0.0144
 5885SOL    HW129288   2.224   0.878   1.950  0.7197  0.4905 -2.0945
 5885SOL    HW229289   2.299   0.959   2.052  0.9308  0.7375 -1.0119
 5886SOL     OW29290   1.359   1.073   7.384 -0.2194 -0.3317  0.0203
 5886SOL    HW129291   1.343   1.139   7.451  0.7883 -0.8849  0.8054
 5886SOL    HW229292   1.311   1.101   7.306 -1.4170 -0.1818  0.8068
 5887SOL     OW29293   3.560   1.555  15.076 -0.0664  0.4269  0.2233
 5887SOL    HW129294   3.561   1.577  15.169 -2.1631  3.0347 -0.3594
 5887SOL    HW229295   3.612   1.625  15.036  2.2267 -0.6956  1.2270
 5888SOL     OW29296   2.965   2.488   4.361  0.8682  0.2402  0.2693
 5888SOL    HW129297   2.912   2.438   4.422  0.2235 -0.4718 -0.8849
 5888SOL    HW229298   2.956   2.571   4.409 -0.4158  0.2511  0.0086
 5889SOL     OW29299   0.443   4.112   3.164  0.4929 -0.8653  0.0560
 5889SOL    HW129300   0.528   4.148   3.138 -1.3382  3.5759  0.3298
 5889SOL    HW229301   0.433   4.025   3.124 -2.2518  0.6608 -2.5228
 5890SOL     OW29302   2.433   2.661  13.677 -0.0788 -0.0001 -0.1674
 5890SOL    HW129303   2.436   2.663  13.581 -2.4869  2.2376 -0.1984
 5890SOL    HW229304   2.434   2.755  13.692 -2.2288  0.1867 -1.2699
 5891SOL     OW29305   1.930   4.572   9.169  0.4142 -0.2743 -0.3717
 5891SOL    HW129306   1.845   4.529   9.175  0.1648  0.2629  0.0780
 5891SOL    HW229307   1.908   4.644   9.110  0.5936 -2.8832 -3.5568
 5892SOL     OW29308   3.862   2.071  11.511 -0.2755  0.1611 -0.2983
 5892SOL    HW129309   3.901   2.010  11.573  0.3292  0.0423 -0.8067
 5892SOL    HW229310   3.923   2.140  11.539 -0.7877  1.0033 -1.2441
 5893SOL     OW29311   3.895   2.130   1.391  0.0178 -0.6756 -0.6069
 5893SOL    HW129312   3.930   2.042   1.404  0.4848 -0.4079 -0.0661
 5893SOL    HW229313   3.966   2.171   1.340 -1.0085 -0.7660 -2.1102
 5894SOL     OW29314   0.332   3.342  13.063  0.1796 -0.4580  0.5042
 5894SOL    HW129315   0.400   3.320  12.999  0.4070 -1.1311  0.9771
 5894SOL    HW229316   0.297   3.262  13.101  0.2197 -0.9345 -0.4519
 5895SOL     OW29317   1.101   1.421   0.525 -0.2775  0.0143 -0.2321
 5895SOL    HW129318   1.041   1.478   0.477 -0.1190  0.3571 -0.0219
 5895SOL    HW229319   1.149   1.488   0.572  0.6003 -0.0623 -1.0098
 5896SOL     OW29320   0.440   2.777   7.560 -0.4630  0.5041  0.7212
 5896SOL    HW129321   0.454   2.690   7.521  0.6149  1.4331 -0.9832
 5896SOL    HW229322   0.492   2.780   7.640  1.0976 -0.4274 -0.2560
 5897SOL     OW29323   2.065   0.645   4.645 -0.1831  0.4243 -1.0130
 5897SOL    HW129324   2.129   0.575   4.658 -1.6724 -1.0247 -1.5278
 5897SOL    HW229325   2.125   0.719   4.640  2.7450 -1.4399  5.6363
 5898SOL     OW29326   2.140   4.449   6.321  0.7978  0.4510  0.5795
 5898SOL    HW129327   2.157   4.543   6.332 -2.5910  1.3778 -2.1376
 5898SOL    HW229328   2.208   4.432   6.257  1.0268  2.3876  0.2868
 5899SOL     OW29329   1.390   3.210   5.710  0.3357  0.3850  0.1790
 5899SOL    HW129330   1.324   3.151   5.673 -1.1235  1.5973  0.8223
 5899SOL    HW229331   1.434   3.146   5.767 -0.2139  0.3708  0.5957
 5900SOL     OW29332   3.736   0.330   9.094 -0.4288 -0.0845 -0.1012
 5900SOL    HW129333   3.780   0.410   9.121  1.7136 -1.8866  1.7896
 5900SOL    HW229334   3.813   0.277   9.072 -1.3659 -1.2509 -0.5638
 5901SOL     OW29335   1.654   3.194   4.678 -0.0032 -0.4717  0.7083
 5901SOL    HW129336   1.622   3.180   4.589  1.2359 -1.8007  0.4631
 5901SOL    HW229337   1.575   3.228   4.719 -0.6552 -1.3475  0.1784
 5902SOL     OW29338   1.771   1.510   4.917 -0.5337 -0.3704 -0.4579
 5902SOL    HW129339   1.677   1.527   4.905 -0.6791 -0.6813  0.2434
 5902SOL    HW229340   1.772   1.475   5.006 -0.2158 -0.5568 -0.5376
 5903SOL     OW29341   1.481   2.233   7.159 -0.1404 -0.0579 -0.2312
 5903SOL    HW129342   1.502   2.260   7.069  1.2660 -0.9452 -0.1658
 5903SOL    HW229343   1.538   2.156   7.168  0.1853  0.3904  1.5415
 5904SOL     OW29344   2.038   1.941   5.407 -0.2516 -0.1501 -0.3128
 5904SOL    HW129345   1.949   1.907   5.399  0.0611 -0.7708 -1.1763
 5904SOL    HW229346   2.082   1.935   5.322 -0.1553 -0.4328 -0.2409
 5905SOL     OW29347   0.558   2.109   5.780 -0.4792  0.4259 -0.5570
 5905SOL    HW129348   0.577   2.203   5.774 -0.2458  0.4063 -0.0982
 5905SOL    HW229349   0.473   2.104   5.825  0.2672 -2.2401  0.5587
 5906SOL     OW29350   0.938   2.537   0.453  0.7885 -0.6296  0.1133
 5906SOL    HW129351   1.019   2.529   0.504  1.4599  0.3184 -0.7987
 5906SOL    HW229352   0.903   2.449   0.460 -4.4125  1.4869  0.7170
 5907SOL     OW29353   3.940   3.312   8.620  0.3873 -0.9836  0.2600
 5907SOL    HW129354   3.879   3.332   8.691  1.1940 -0.5646  0.8377
 5907SOL    HW229355   3.977   3.228   8.649  1.0143 -0.7768  0.0758
 5908SOL     OW29356   4.535   2.036  12.326 -0.0415 -0.2106 -0.2587
 5908SOL    HW129357   4.459   1.989  12.360 -0.4778  1.7915  1.4914
 5908SOL    HW229358   4.509   2.128  12.319  1.3286  0.2830  1.1118
 5909SOL     OW29359   4.378   4.663   6.012  0.3091 -0.3739 -0.0702
 5909SOL    HW129360   4.466   4.640   6.043 -0.1075 -1.3306  0.4010
 5909SOL    HW229361   4.333   4.584   6.040  1.9439 -1.3281 -0.1394
 5910SOL     OW29362   1.228   0.075  15.008 -0.1404 -0.6185  0.1158
 5910SOL    HW129363   1.321   0.094  15.019 -0.2255  0.1041 -0.4172
 5910SOL    HW229364   1.216   0.006  15.074 -0.1547  1.3051  2.1463
 5911SOL     OW29365   0.666   2.706   7.771 -0.5756  0.1602  0.2237
 5911SOL    HW129366   0.716   2.637   7.727  2.6379  3.6895 -1.6605
 5911SOL    HW229367   0.609   2.649   7.823 -0.2010 -1.4874 -1.1366
 5912SOL     OW29368   3.922   0.705   3.515  0.6149  0.2719 -0.2151
 5912SOL    HW129369   3.904   0.742   3.602 -0.3849 -0.1130 -0.2537
 5912SOL    HW229370   3.915   0.613   3.539 -0.7278 -0.1480 -2.2285
 5913SOL     OW29371   0.001   0.203  17.236 -0.2442  0.2835  0.2714
 5913SOL    HW129372   0.001   0.299  17.235  0.2145  0.2816  0.0328
 5913SOL    HW229373   4.726   0.186  17.143 -0.8322 -0.1678  0.4318
 5914SOL     OW29374   0.284   3.116   1.230  0.4696  0.0444 -0.2006
 5914SOL    HW129375   0.352   3.168   1.272  2.1472 -0.3727 -2.4112
 5914SOL    HW229376   0.339   3.052   1.186 -0.6270  0.3579 -2.0460
 5915SOL     OW29377   4.684   3.875  10.278  0.3624  0.0862 -0.4522
 5915SOL    HW129378   0.038   3.890  10.303 -1.0891  3.7005  2.7808
 5915SOL    HW229379   4.656   3.813  10.345  0.8539  2.0750  1.5780
 5916SOL     OW29380   3.126   2.343   1.322 -0.4997 -0.0647 -0.0521
 5916SOL    HW129381   3.136   2.319   1.415  0.6478  1.4118  0.2099
 5916SOL    HW229382   3.221   2.336   1.309 -0.4160  1.3566 -0.2591
 5917SOL     OW29383   0.589   3.129  10.620 -0.6644 -0.2938  0.2060
 5917SOL    HW129384   0.630   3.064  10.563  1.2440  0.3397  0.8593
 5917SOL    HW229385   0.503   3.088  10.629 -1.9584  1.8011 -2.8177
 5918SOL     OW29386   4.166   0.891   9.866 -0.8639  0.2305 -0.6071
 5918SOL    HW129387   4.122   0.816   9.827 -1.3329 -0.2839  0.9146
 5918SOL    HW229388   4.150   0.882   9.960 -0.7324  1.0419 -0.5075
 5919SOL     OW29389   0.457   0.980  12.409  0.4952  0.2812 -0.3147
 5919SOL    HW129390   0.417   0.893  12.412 -1.1695  0.9254 -3.2270
 5919SOL    HW229391   0.464   0.998  12.503 -1.3138  0.5900 -0.2352
 5920SOL     OW29392   3.078   3.624   7.912 -0.1301  0.2508  0.4026
 5920SOL    HW129393   3.105   3.674   7.989 -1.6096 -0.3391  1.3021
 5920SOL    HW229394   2.998   3.590   7.952  1.6738 -1.4841  2.5376
 5921SOL     OW29395   2.634   1.478   4.670 -0.1445  0.0930  0.2100
 5921SOL    HW129396   2.649   1.566   4.704  3.2764 -0.3259 -0.2631
 5921SOL    HW229397   2.606   1.510   4.584  1.7503  2.1074  0.3598
 5922SOL     OW29398   2.563   4.353   2.402  0.2123  0.0628  0.4365
 5922SOL    HW129399   2.592   4.273   2.358  2.3983  1.3081 -0.3929
 5922SOL    HW229400   2.601   4.424   2.351  0.8644 -2.3028 -2.3395
 5923SOL     OW29401   3.818   0.797   4.369  0.5452  0.0251  0.2104
 5923SOL    HW129402   3.899   0.838   4.397 -0.2857  0.1927  2.4183
 5923SOL    HW229403   3.752   0.846   4.419 -1.6619 -1.2351 -1.4302
 5924SOL     OW29404   4.677   1.463   1.052 -0.7233  0.7562 -0.3838
 5924SOL    HW129405   4.644   1.510   1.129 -0.7959 -1.0847  0.7088
 5924SOL    HW229406   0.013   1.519   1.031 -0.2202  0.1057 -0.3689
 5925SOL     OW29407   1.740   3.213   0.283  0.0313  0.4643 -0.0325
 5925SOL    HW129408   1.684   3.234   0.208  0.0940 -1.7860 -0.7041
 5925SOL    HW229409   1.809   3.276   0.260  0.6542 -0.2644 -0.1474
 5926SOL     OW29410   3.397   3.992   4.962 -0.0769  0.5224  0.4178
 5926SOL    HW129411   3.457   4.063   4.987  0.2907  0.3568 -0.0005
 5926SOL    HW229412   3.432   3.919   5.011  1.4560  0.2836 -1.0251
 5927SOL     OW29413   1.798   2.983   6.160 -0.3225  0.2683  0.4271
 5927SOL    HW129414   1.756   3.063   6.191  1.6353  2.1275 -1.7135
 5927SOL    HW229415   1.848   3.021   6.088  0.5592  0.4767  1.1550
 5928SOL     OW29416   0.184   4.085  13.102 -0.1032  0.0541  0.5885
 5928SOL    HW129417   0.261   4.040  13.138  0.3608  0.1398 -0.2931
 5928SOL    HW229418   0.141   4.006  13.069 -0.0468  0.0564  0.5082
 5929SOL     OW29419   4.137   1.113   9.061 -0.6996  0.1696  0.6698
 5929SOL    HW129420   4.072   1.068   9.115 -0.1694 -0.6840  0.6031
 5929SOL    HW229421   4.101   1.103   8.973 -1.2534 -0.4730  0.9755
 5930SOL     OW29422   1.092   2.914  17.351 -0.0978  0.3009  0.5326
 5930SOL    HW129423   1.030   2.984  17.372 -0.2917 -0.2201  1.6661
 5930SOL    HW229424   1.071   2.865  17.430 -0.1321  0.2296  0.4795
 5931SOL     OW29425   4.565   4.510   5.366 -0.1431 -0.2255 -0.3776
 5931SOL    HW129426   4.632   4.546   5.308 -1.9515 -0.3493 -2.5711
 5931SOL    HW229427   4.586   4.417   5.355 -1.1020 -0.4296 -0.4772
 5932SOL     OW29428   1.468   4.032   7.411  0.3083  0.2505 -0.2791
 5932SOL    HW129429   1.431   4.036   7.322  0.9547 -2.4002 -0.6818
 5932SOL    HW229430   1.388   4.012   7.459  1.8499  0.4031  2.3412
 5933SOL     OW29431   4.393   3.235   7.753  0.0424  0.6097 -0.4459
 5933SOL    HW129432   4.304   3.261   7.775 -0.1972  1.1069 -2.0047
 5933SOL    HW229433   4.427   3.180   7.824 -1.8859 -2.1809 -1.6931
 5934SOL     OW29434   2.717   0.807   2.428  0.2475 -0.6409  0.1235
 5934SOL    HW129435   2.654   0.735   2.432 -0.1322 -0.1705  2.2305
 5934SOL    HW229436   2.805   0.772   2.415  0.8777  0.7255  0.6941
 5935SOL     OW29437   0.446   1.412   5.329 -0.2191  0.4930 -0.3469
 5935SOL    HW129438   0.473   1.347   5.394  1.1157  2.2612  0.8762
 5935SOL    HW229439   0.474   1.378   5.245  0.3392  1.9606 -0.7409
 5936SOL     OW29440   3.167   0.483   7.645  0.2037  0.1737 -0.2843
 5936SOL    HW129441   3.245   0.537   7.661 -1.6712  2.2662  1.6885
 5936SOL    HW229442   3.172   0.424   7.720  1.0861 -0.1345 -0.5828
 5937SOL     OW29443   1.669   3.842   0.933  0.4859  0.2916 -0.0639
 5937SOL    HW129444   1.611   3.802   0.869 -0.6042 -0.4099  1.3695
 5937SOL    HW229445   1.741   3.778   0.931  1.4969  1.4649 -1.1391
 5938SOL     OW29446   4.483   2.666   1.041 -0.1201  0.4409 -0.2292
 5938SOL    HW129447   4.395   2.702   1.033 -0.3504  0.2046  1.2327
 5938SOL    HW229448   4.468   2.586   1.092 -2.7126  0.6494 -0.6784
 5939SOL     OW29449   4.028   3.251   4.492 -0.8777  0.4995 -0.3754
 5939SOL    HW129450   3.989   3.179   4.542  1.7057 -1.5040 -1.2487
 5939SOL    HW229451   4.078   3.202   4.426 -0.5103  0.5732 -0.1517
 5940SOL     OW29452   2.971   2.117   1.284  0.0148 -0.1120  0.7203
 5940SOL    HW129453   3.022   2.127   1.365  0.7380 -0.9413  0.3631
 5940SOL    HW229454   2.998   2.195   1.235 -0.2779 -0.8122 -0.5503
 5941SOL     OW29455   2.744   0.655  10.473  0.3210  0.2342  0.6927
 5941SOL    HW129456   2.819   0.708  10.499  2.0532 -1.2670 -1.1996
 5941SOL    HW229457   2.671   0.667  10.534  0.6519 -1.6787  1.4870
 5942SOL     OW29458   3.497   0.489  10.565  0.5054  0.6972 -0.4188
 5942SOL    HW129459   3.571   0.546  10.542 -0.8572  2.4075 -0.6110
 5942SOL    HW229460   3.461   0.493  10.476 -0.2672  0.0014 -0.1325
 5943SOL     OW29461   0.309   2.728   2.085  0.2109  0.4119  0.1038
 5943SOL    HW129462   0.334   2.808   2.130 -0.5883  0.7453 -0.0303
 5943SOL    HW229463   0.225   2.723   2.131  1.0722 -1.0359  1.5037
 5944SOL     OW29464   2.692   1.828   9.585  0.3496  0.2537 -0.1327
 5944SOL    HW129465   2.698   1.908   9.532  2.2267  0.5160  0.4643
 5944SOL    HW229466   2.636   1.776   9.528 -0.8782  1.9264 -0.4579
 5945SOL     OW29467   1.898   4.581  16.228 -0.2588 -0.0865  0.4406
 5945SOL    HW129468   1.964   4.542  16.171 -0.2770  0.3426  0.1254
 5945SOL    HW229469   1.841   4.633  16.172  2.7043  1.0028 -1.5304
 5946SOL     OW29470   4.042   1.943   4.013  0.5011 -0.1080 -0.5309
 5946SOL    HW129471   4.070   2.012   3.952 -1.9634  0.0815 -1.4693
 5946SOL    HW229472   4.120   1.890   4.027 -0.2767 -0.8560  1.0250
 5947SOL     OW29473   1.969   4.641   6.051 -0.1161  0.5614  0.2756
 5947SOL    HW129474   1.936   4.607   6.135  0.0559  2.1116  0.9816
 5947SOL    HW229475   1.948   4.574   5.986  2.2315  1.6332 -1.5823
 5948SOL     OW29476   4.045   0.599   5.857  0.2030  0.2090  0.3394
 5948SOL    HW129477   4.019   0.513   5.892 -1.2388  0.5369  0.0609
 5948SOL    HW229478   4.037   0.576   5.765 -0.1916  1.7049  0.0027
 5949SOL     OW29479   3.986   1.424   7.078 -0.0354  1.0002  0.2306
 5949SOL    HW129480   4.045   1.385   7.142  1.0630  0.0021 -1.3709
 5949SOL    HW229481   3.903   1.421   7.125 -0.8141 -0.5824 -1.2262
 5950SOL     OW29482   4.093   0.969   5.110  0.0201 -0.1209  0.6433
 5950SOL    HW129483   4.000   0.954   5.096  0.0169  1.4310 -1.0025
 5950SOL    HW229484   4.129   0.972   5.021 -0.8154  1.9074  0.3691
 5951SOL     OW29485   0.366   2.863  10.963  0.0819  0.0994  0.0189
 5951SOL    HW129486   0.361   2.827  11.052  0.4327  2.8264  1.1387
 5951SOL    HW229487   0.417   2.943  10.972  0.9077 -0.2196 -1.7571
 5952SOL     OW29488   0.195   1.758  15.510 -0.2734  0.3476  0.0720
 5952SOL    HW129489   0.228   1.712  15.433  0.9445  0.3396  0.6144
 5952SOL    HW229490   0.115   1.708  15.527 -0.5911  0.5507 -0.8149
 5953SOL     OW29491   4.678   0.660   1.900  0.1527  0.8747 -0.2392
 5953SOL    HW129492   4.610   0.594   1.891  0.0340  0.6823  2.1349
 5953SOL    HW229493   4.667   0.698   1.987  0.7129  3.4381 -1.2924
 5954SOL     OW29494   3.082   1.908   7.932  0.5048 -0.3499  0.2431
 5954SOL    HW129495   3.062   1.987   7.883  2.1819  0.6189  1.1049
 5954SOL    HW229496   3.030   1.929   8.009  0.1228 -2.0167  0.4448
 5955SOL     OW29497   1.173   1.463  10.159 -1.1493 -0.1181 -0.4605
 5955SOL    HW129498   1.199   1.547  10.122 -0.9756  0.9289  1.9921
 5955SOL    HW229499   1.089   1.442  10.118 -2.8338  0.5585  2.6119
 5956SOL     OW29500   0.581   3.823   6.657 -0.0895  0.0196  0.2318
 5956SOL    HW129501   0.652   3.808   6.719  0.6234  0.9421 -0.3807
 5956SOL    HW229502   0.542   3.899   6.700  0.5614  0.2465  0.4187
 5957SOL     OW29503   4.683   2.044   1.592 -0.2190  0.2635 -0.2691
 5957SOL    HW129504   4.640   1.987   1.527 -0.9482 -1.1366  1.4256
 5957SOL    HW229505   0.005   2.099   1.542  0.4703  0.3268  0.6259
 5958SOL     OW29506   4.114   1.185   5.681  0.5908 -0.2559  0.2522
 5958SOL    HW129507   4.143   1.201   5.771  1.2480  2.0446 -0.3759
 5958SOL    HW229508   4.024   1.217   5.684  0.5604 -0.3047 -0.2098
 5959SOL     OW29509   1.695   1.488  17.298 -0.1215 -0.6976 -0.4995
 5959SOL    HW129510   1.736   1.408  17.265  0.9773  0.1259 -1.1465
 5959SOL    HW229511   1.750   1.504  17.375  0.9775  2.6683 -1.9479
 5960SOL     OW29512   2.117   3.010   3.059  0.5518 -0.1620  0.3651
 5960SOL    HW129513   2.098   3.056   2.977  3.3932  0.8703  0.2787
 5960SOL    HW229514   2.123   2.920   3.027 -2.1431  0.1007 -0.9397
 5961SOL     OW29515   1.666   1.715   8.600  0.5204  0.2487 -0.4004
 5961SOL    HW129516   1.671   1.801   8.643  0.9425  0.8894 -1.7516
 5961SOL    HW229517   1.613   1.737   8.524  0.5088  0.7401 -0.2469
 5962SOL     OW29518   4.684   1.067   3.570 -0.1465  0.1772  0.3153
 5962SOL    HW129519   4.668   0.992   3.514 -0.5985 -0.3963  1.2044
 5962SOL    HW229520   4.658   1.019   3.649  2.1212 -1.5856  0.0095
 5963SOL     OW29521   1.970   3.765   2.415  0.3728 -0.4237 -0.1295
 5963SOL    HW129522   1.892   3.819   2.424 -0.2960 -1.6041  1.2194
 5963SOL    HW229523   2.033   3.831   2.443 -0.1522  1.4630 -3.3957
 5964SOL     OW29524   4.729   4.613   7.391 -0.7955  0.2880  0.1159
 5964SOL    HW129525   4.668   4.573   7.453  0.1101 -1.3671 -0.0542
 5964SOL    HW229526   4.721   4.542   7.327 -1.0710 -0.3004  0.8080
 5965SOL     OW29527   4.344   3.262   1.060 -0.6729  0.2066  0.0029
 5965SOL    HW129528   4.417   3.260   1.122  0.3021 -0.1655 -1.1464
 5965SOL    HW229529   4.366   3.337   1.004  0.3104 -1.1584 -1.4486
 5966SOL     OW29530   1.522   3.112   7.675  0.0514 -0.2165 -0.2753
 5966SOL    HW129531   1.527   3.161   7.594 -1.5057 -0.0918 -0.2870
 5966SOL    HW229532   1.436   3.070   7.674  0.5752 -1.2734 -1.4647
 5967SOL     OW29533   4.551   0.144   6.707 -0.5443 -0.4223 -0.0284
 5967SOL    HW129534   4.557   0.050   6.722  1.1827 -0.1716  0.7474
 5967SOL    HW229535   4.631   0.178   6.667 -0.4344 -0.0502  0.5106
 5968SOL     OW29536   3.294   2.911   3.925 -0.0060 -0.4596  0.5466
 5968SOL    HW129537   3.363   2.975   3.946  2.3177 -2.0680 -2.1813
 5968SOL    HW229538   3.280   2.916   3.831 -2.9565  1.0530  1.0624
 5969SOL     OW29539   1.283   3.880   0.033 -0.3428  0.0722 -0.2791
 5969SOL    HW129540   1.362   3.869   0.085  0.1006  0.0298 -0.9567
 5969SOL    HW229541   1.236   3.797   0.042  1.1340 -0.6699  0.5342
 5970SOL     OW29542   3.845   0.383  11.352  0.6671  0.8230 -0.2818
 5970SOL    HW129543   3.935   0.351  11.354  0.8667  1.5399  1.7709
 5970SOL    HW229544   3.832   0.385  11.257  0.6200 -2.2433 -0.3112
 5971SOL     OW29545   0.499   2.301  17.670  0.5401  0.2639 -0.5180
 5971SOL    HW129546   0.550   2.289   0.002  0.2500  0.0519 -0.3643
 5971SOL    HW229547   0.547   2.247  17.607  0.6270 -0.2951  0.0299
 5972SOL     OW29548   3.789   0.191   3.611 -0.7330 -0.0169 -0.2536
 5972SOL    HW129549   3.778   0.284   3.593  0.9157  0.0734 -0.8003
 5972SOL    HW229550   3.826   0.174   3.525 -1.9803 -0.1639 -0.7567
 5973SOL     OW29551   2.092   4.199   5.288  0.3211  0.0232  0.1153
 5973SOL    HW129552   2.158   4.227   5.351 -3.3363  3.1476  2.5144
 5973SOL    HW229553   2.091   4.272   5.227 -0.8015 -0.1618 -0.0859
 5974SOL     OW29554   3.280   0.053   8.390  0.2389  0.1229 -0.0741
 5974SOL    HW129555   3.238   0.054   8.304  2.2584  0.9543 -1.0777
 5974SOL    HW229556   3.313   0.141   8.369  1.8169 -0.2553  0.7613
 5975SOL     OW29557   0.167   3.127   3.043  0.3224  0.2459 -0.0228
 5975SOL    HW129558   0.089   3.167   3.083 -0.3032 -0.6583 -0.3370
 5975SOL    HW229559   0.238   3.144   3.106 -1.1458 -1.2429  2.0511
 5976SOL     OW29560   3.330   4.042  12.086  0.3031 -0.2562  0.0659
 5976SOL    HW129561   3.414   4.014  12.049  1.2802  0.7892  1.4979
 5976SOL    HW229562   3.294   3.957  12.112  2.1824 -1.1813 -0.2986
 5977SOL     OW29563   0.855   1.459   7.045  0.1042  0.4833  0.4118
 5977SOL    HW129564   0.912   1.387   7.071 -0.1252  0.1182 -0.1070
 5977SOL    HW229565   0.906   1.512   6.983 -2.6554  2.3240 -0.2942
 5978SOL     OW29566   4.705   0.517  17.646  0.1778  0.7422  0.4015
 5978SOL    HW129567   4.692   0.591  17.587  0.1118 -0.4080 -1.0176
 5978SOL    HW229568   4.637   0.459  17.612  0.5480 -1.0101  2.7122
 5979SOL     OW29569   0.072   1.279   4.717  0.1966 -1.1033 -0.0236
 5979SOL    HW129570   0.140   1.285   4.650 -2.0036 -3.6818 -2.4622
 5979SOL    HW229571   0.007   1.224   4.673 -2.8681  1.7203  0.9353
 5980SOL     OW29572   0.795   4.655  16.161 -0.3078  0.1615 -0.0660
 5980SOL    HW129573   0.754   4.673  16.077 -1.6258  0.0986  0.5553
 5980SOL    HW229574   0.809   0.009  16.188  0.8063 -0.6537  2.0938
 5981SOL     OW29575   2.079   3.633   9.054  0.2214 -0.0227 -0.0499
 5981SOL    HW129576   1.997   3.626   9.104 -0.2792 -1.7261 -1.1046
 5981SOL    HW229577   2.121   3.699   9.109 -0.6680 -0.0945  0.7390
 5982SOL     OW29578   2.500   2.568  10.265  0.2595  0.3585 -0.1930
 5982SOL    HW129579   2.410   2.540  10.251  0.3588 -0.2868  0.4944
 5982SOL    HW229580   2.528   2.606  10.181  0.7721  0.1037 -0.1415
 5983SOL     OW29581   3.214   0.194   4.742 -0.2765 -0.0975  0.4443
 5983SOL    HW129582   3.201   0.190   4.836 -0.0870 -0.4107  0.4572
 5983SOL    HW229583   3.258   0.278   4.732 -0.8070  0.2567  1.0854
 5984SOL     OW29584   3.004   2.640  14.164 -0.6051 -0.4770  0.0765
 5984SOL    HW129585   2.912   2.642  14.136  0.7361  2.2780 -4.0568
 5984SOL    HW229586   3.047   2.694  14.098  1.7981 -0.0818  1.9420
 5985SOL     OW29587   2.608   1.771   2.772 -0.5535 -0.1426 -0.2425
 5985SOL    HW129588   2.589   1.865   2.776 -0.8355 -0.1606 -1.0756
 5985SOL    HW229589   2.602   1.756   2.677  0.6829  0.0712 -0.3458
 5986SOL     OW29590   4.000   3.488   1.136  0.0320 -0.4058  0.3233
 5986SOL    HW129591   3.950   3.557   1.179 -0.1624 -0.5375  0.3115
 5986SOL    HW229592   3.965   3.496   1.047 -0.8805  0.6486  0.7726
 5987SOL     OW29593   0.613   4.479   4.353  0.4468  0.2716 -0.2418
 5987SOL    HW129594   0.574   4.426   4.283  0.6379 -0.0563 -0.0945
 5987SOL    HW229595   0.690   4.431   4.384  1.4753  1.9334 -0.2183
 5988SOL     OW29596   3.268   2.711  11.442 -0.3331 -0.4187  0.7149
 5988SOL    HW129597   3.217   2.671  11.371 -1.2236  2.5997 -0.3311
 5988SOL    HW229598   3.205   2.773  11.478 -1.0896 -0.2980 -0.8313
 5989SOL     OW29599   3.997   0.822   7.803 -0.3514 -0.4060  0.1272
 5989SOL    HW129600   4.041   0.902   7.830 -0.0036 -0.2599 -0.8743
 5989SOL    HW229601   4.050   0.747   7.830 -0.3123 -0.1431  0.7745
 5990SOL     OW29602   3.531   2.761  12.367  0.0602  0.9030  0.2070
 5990SOL    HW129603   3.581   2.679  12.370 -1.7816 -0.2486 -0.4431
 5990SOL    HW229604   3.470   2.749  12.440  0.2741 -0.0117  0.2409
 5991SOL     OW29605   0.701   3.521  11.891 -0.5003  0.0676 -0.2098
 5991SOL    HW129606   0.773   3.465  11.920 -1.1514 -1.7126 -2.0195
 5991SOL    HW229607   0.697   3.521  11.796 -0.6536 -0.3701 -0.2050
 5992SOL     OW29608   2.533   1.728   5.588 -0.2778 -0.1967  0.7779
 5992SOL    HW129609   2.598   1.740   5.657  1.3259  0.2178 -0.7912
 5992SOL    HW229610   2.485   1.653   5.623 -2.2421  1.8051  2.2971
 5993SOL     OW29611   1.155   2.222   6.374 -0.0239  0.2270  0.4986
 5993SOL    HW129612   1.186   2.308   6.346 -1.2552  0.0032 -1.5823
 5993SOL    HW229613   1.214   2.201   6.446  0.6647 -0.6364 -0.3207
 5994SOL     OW29614   2.738   2.292   6.519 -0.0737  0.3730  0.3029
 5994SOL    HW129615   2.713   2.374   6.477  0.5209 -0.8283 -2.3773
 5994SOL    HW229616   2.739   2.320   6.610 -0.3791 -0.5761  0.6001
 5995SOL     OW29617   4.246   0.242  16.817  0.1764 -0.5933  0.3879
 5995SOL    HW129618   4.217   0.235  16.726  1.5629  2.7868 -0.3114
 5995SOL    HW229619   4.177   0.185  16.853 -2.7529  2.3411 -0.5361
 5996SOL     OW29620   0.764   0.072   9.089 -0.0903  0.3570  0.5846
 5996SOL    HW129621   0.731   0.103   9.173 -1.2161  0.9957 -0.1000
 5996SOL    HW229622   0.707   4.732   9.083  1.8377 -1.0149  0.0508
 5997SOL     OW29623   4.184   0.808   3.845  0.6002  0.1017 -0.1920
 5997SOL    HW129624   4.261   0.768   3.885 -1.4919 -2.3341  1.4186
 5997SOL    HW229625   4.209   0.835   3.757 -0.4503 -0.2436 -0.5873
 5998SOL     OW29626   1.669   1.003   4.203 -0.6749 -0.2480  0.2721
 5998SOL    HW129627   1.716   1.085   4.185 -1.2060 -0.3488 -1.6120
 5998SOL    HW229628   1.634   0.989   4.115 -0.8267 -0.8420  0.4284
 5999SOL     OW29629   1.319   2.952   7.377 -0.1534 -0.5198 -0.2045
 5999SOL    HW129630   1.259   2.897   7.326 -1.8359  0.9426  0.1885
 5999SOL    HW229631   1.272   2.969   7.458  2.6484  0.3809  1.2318
 6000SOL     OW29632   3.533   2.603   3.857  0.0712 -0.1225  0.4179
 6000SOL    HW129633   3.486   2.644   3.785  0.5900 -0.5412 -0.1554
 6000SOL    HW229634   3.604   2.560   3.810 -0.0287  0.6130 -0.4139
 6001SOL     OW29635   2.863   1.122  16.209  0.0335 -0.2603 -0.4485
 6001SOL    HW129636   2.846   1.028  16.200 -3.1354  0.3231 -0.6345
 6001SOL    HW229637   2.913   1.127  16.128 -1.1817  0.1269 -1.1797
 6002SOL     OW29638   3.621   1.874   6.820  0.1009 -0.4808  0.3262
 6002SOL    HW129639   3.580   1.788   6.805  1.8025 -0.8828 -1.9898
 6002SOL    HW229640   3.563   1.936   6.777  0.8650 -1.4065 -1.9956
 6003SOL     OW29641   3.637   1.457   3.623 -0.0937  0.4451 -0.2150
 6003SOL    HW129642   3.671   1.400   3.554 -1.5539 -0.2328 -0.3552
 6003SOL    HW229643   3.649   1.393   3.693 -0.9764 -0.4302 -0.8724
 6004SOL     OW29644   1.791   2.093  15.695  0.3821  0.3484  0.4603
 6004SOL    HW129645   1.800   2.094  15.599  2.5988  1.2099  0.6707
 6004SOL    HW229646   1.878   2.098  15.733  0.3197  1.7352  0.4436
 6005SOL     OW29647   2.599   0.554   2.440 -0.3469  0.0892  0.3085
 6005SOL    HW129648   2.675   0.528   2.491  0.0500 -0.3131 -0.4813
 6005SOL    HW229649   2.616   0.516   2.354 -1.8437  2.0175 -0.8541
 6006SOL     OW29650   3.012   2.290   2.437 -0.1355  0.5234 -0.2260
 6006SOL    HW129651   3.070   2.251   2.372 -1.2038  2.3018 -2.2806
 6006SOL    HW229652   3.037   2.383   2.445  0.5914  0.3040  0.0279
 6007SOL     OW29653   4.291   0.350   1.567 -0.0191  0.6947  0.1107
 6007SOL    HW129654   4.203   0.350   1.603  0.5316  1.7689  1.4637
 6007SOL    HW229655   4.334   0.333   1.651 -1.2246 -2.0672  0.1645
 6008SOL     OW29656   2.327   4.629  17.464  0.0394 -0.0837 -0.2889
 6008SOL    HW129657   2.279   4.711  17.459  1.7653  0.6998 -3.9497
 6008SOL    HW229658   2.262   4.561  17.449  1.1767 -0.9439 -1.3853
 6009SOL     OW29659   0.970   1.173  17.742  0.3034 -0.0689  0.6067
 6009SOL    HW129660   1.006   1.191  17.655 -0.4950  1.4129  0.5828
 6009SOL    HW229661   0.875   1.173  17.732  0.3644  2.4786  0.0123
 6010SOL     OW29662   2.062   3.311   9.034 -0.3744 -0.2841  0.7276
 6010SOL    HW129663   2.141   3.363   9.020  0.4548 -1.4067  1.2231
 6010SOL    HW229664   2.006   3.374   9.079  0.4598  0.3737  0.8364
 6011SOL     OW29665   0.388   1.597   7.919 -0.2453  0.0670 -0.1053
 6011SOL    HW129666   0.391   1.605   8.015 -0.2887 -0.3496 -0.0653
 6011SOL    HW229667   0.422   1.679   7.884  2.0615 -0.3509  1.2095
 6012SOL     OW29668   1.643   0.465  15.734 -0.1862  0.2464 -0.2878
 6012SOL    HW129669   1.569   0.410  15.708  1.0436 -1.0920 -0.9450
 6012SOL    HW229670   1.671   0.445  15.823 -0.8237 -2.3423 -0.6800
 6013SOL     OW29671   0.302   2.032   4.535  0.8203  0.0627 -0.4250
 6013SOL    HW129672   0.249   2.040   4.614  0.8476  0.0840 -0.4085
 6013SOL    HW229673   0.242   2.043   4.462  0.0221 -0.0311  0.2132
 6014SOL     OW29674   3.423   2.072   4.130 -0.4054 -0.4270 -0.4088
 6014SOL    HW129675   3.477   1.997   4.106  0.0249 -0.9321  2.1981
 6014SOL    HW229676   3.430   2.123   4.049  0.2001 -0.8034 -0.5900
 6015SOL     OW29677   0.268   4.451   9.439 -0.1281 -0.8302  0.4573
 6015SOL    HW129678   0.214   4.437   9.517 -1.0052  0.9468  0.1693
 6015SOL    HW229679   0.337   4.385   9.442  2.2951  1.7571  0.7985
 6016SOL     OW29680   1.133   1.721   8.473 -0.4662  0.1876 -0.4978
 6016SOL    HW129681   1.144   1.766   8.389  2.1581  0.4059 -0.0370
 6016SOL    HW229682   1.094   1.638   8.447  0.9280 -0.9747  1.1514
 6017SOL     OW29683   2.391   0.862  13.716  0.0859  0.4772  0.1764
 6017SOL    HW129684   2.380   0.938  13.660 -1.6408  0.8041  0.9663
 6017SOL    HW229685   2.343   0.796  13.667  2.8935 -1.3919 -0.0794
 6018SOL     OW29686   1.402   0.979  17.521  0.0728  0.0778 -0.2879
 6018SOL    HW129687   1.358   0.898  17.499  1.2920 -0.1737 -1.8146
 6018SOL    HW229688   1.431   0.998  17.431 -1.1136 -1.6237 -1.0220
 6019SOL     OW29689   1.732   0.828  10.986 -0.3840 -0.4047 -0.1757
 6019SOL    HW129690   1.669   0.879  10.936  0.1390  0.3458 -0.0634
 6019SOL    HW229691   1.734   0.870  11.072  1.4721  1.6180 -1.2113
 6020SOL     OW29692   1.126   0.993   9.102 -0.1521 -0.1877  0.2932
 6020SOL    HW129693   1.170   0.930   9.158  2.7909  1.0245 -0.6306
 6020SOL    HW229694   1.133   1.071   9.157  2.9129 -0.7349  0.6973
 6021SOL     OW29695   3.291   1.808   8.108  0.3374 -0.2680 -0.1870
 6021SOL    HW129696   3.217   1.753   8.136  0.2939 -0.4436 -0.6525
 6021SOL    HW229697   3.242   1.881   8.071 -1.3733 -0.1960  2.2145
 6022SOL     OW29698   0.843   0.441  16.266 -0.2273  0.2246 -0.4095
 6022SOL    HW129699   0.802   0.407  16.187  0.2282  0.5481 -0.7768
 6022SOL    HW229700   0.905   0.372  16.288 -0.4929  0.1867  0.2548
 6023SOL     OW29701   3.589   2.682   4.535 -0.5878 -0.1803  0.2352
 6023SOL    HW129702   3.537   2.604   4.517 -0.8250  0.0632 -0.1446
 6023SOL    HW229703   3.574   2.734   4.456 -1.7563 -2.9100 -1.3428
 6024SOL     OW29704   3.638   2.654   9.224  0.1269 -0.0291  0.6028
 6024SOL    HW129705   3.672   2.708   9.152  1.8001  1.3945  2.4594
 6024SOL    HW229706   3.556   2.700   9.239 -0.1440 -0.5904  0.8123
 6025SOL     OW29707   3.143   2.672   7.253 -0.2623 -0.5624  0.1079
 6025SOL    HW129708   3.163   2.642   7.164  0.0957 -0.8037  0.2735
 6025SOL    HW229709   3.223   2.714   7.285 -0.4588 -0.0333 -0.0882
 6026SOL     OW29710   0.582   3.132   6.639  0.1353  0.1872  0.3014
 6026SOL    HW129711   0.531   3.195   6.588 -1.2821 -0.7585  0.5216
 6026SOL    HW229712   0.520   3.120   6.712  0.9878 -1.1767  0.8134
 6027SOL     OW29713   2.128   2.629   8.977  0.4475 -0.7376  0.3289
 6027SOL    HW129714   2.101   2.654   8.888  3.1054 -0.3583 -0.3734
 6027SOL    HW229715   2.096   2.702   9.029 -1.7578 -0.4269 -1.4131
 6028SOL     OW29716   0.949   0.007   6.592 -0.0243 -0.1975  0.8033
 6028SOL    HW129717   0.870   0.060   6.574  0.3916 -0.3690 -1.5097
 6028SOL    HW229718   0.936   4.668   6.536 -0.4726  0.7645 -0.4204
 6029SOL     OW29719   2.732   3.581  13.821 -0.0104 -0.3814  0.1019
 6029SOL    HW129720   2.661   3.643  13.837 -0.7618 -0.2372 -3.6088
 6029SOL    HW229721   2.764   3.609  13.735  1.0242 -0.3113  0.5074
 6030SOL     OW29722   1.033   2.251   7.516 -0.6302 -0.4914 -0.3442
 6030SOL    HW129723   1.032   2.193   7.592  0.1789 -0.3438 -0.2198
 6030SOL    HW229724   1.112   2.236   7.464  0.1228 -1.4724  1.0677
 6031SOL     OW29725   4.598   1.929  12.698  0.0077  0.2306 -0.2617
 6031SOL    HW129726   4.666   1.917  12.631 -0.7354 -1.9533 -0.6374
 6031SOL    HW229727   4.591   2.022  12.718  1.8141  0.6995 -1.7482
 6032SOL     OW29728   2.227   1.612  13.360 -0.4412 -0.1781 -0.2264
 6032SOL    HW129729   2.186   1.526  13.345  0.9343 -0.7804 -0.4687
 6032SOL    HW229730   2.278   1.617  13.279  1.8219 -0.7434  1.1767
 6033SOL     OW29731   4.369   2.567   9.030 -0.5678 -0.0244 -0.2922
 6033SOL    HW129732   4.456   2.533   9.052 -0.3028  0.1051 -1.1459
 6033SOL    HW229733   4.333   2.571   9.119  0.4184  1.2088  0.0586
 6034SOL     OW29734   4.382   0.784   7.326 -0.0347  0.5456 -0.1601
 6034SOL    HW129735   4.310   0.749   7.380 -0.1706 -1.6607 -1.7711
 6034SOL    HW229736   4.429   0.836   7.392  1.5075 -0.0254 -0.8221
 6035SOL     OW29737   1.130   2.415   7.289 -0.5185 -0.3498  0.3425
 6035SOL    HW129738   1.059   2.402   7.226  0.3460  0.3721 -0.7737
 6035SOL    HW229739   1.155   2.323   7.301 -0.9526 -0.5625 -0.4161
 6036SOL     OW29740   2.947   4.405   8.726 -0.1059 -0.9956 -0.0131
 6036SOL    HW129741   3.025   4.353   8.745 -1.4735 -2.7216  0.9662
 6036SOL    HW229742   2.932   4.439   8.814 -1.7416 -2.8367  0.4283
 6037SOL     OW29743   3.728   0.048   2.522  0.1356 -0.1368 -0.0805
 6037SOL    HW129744   3.636   0.073   2.507 -0.7377 -2.5729  1.1433
 6037SOL    HW229745   3.757   0.136   2.544 -0.3946 -0.4042  1.7201
 6038SOL     OW29746   2.014   1.191   2.803 -0.0354 -0.1735 -0.0989
 6038SOL    HW129747   1.978   1.201   2.891  2.6347  0.1888  0.9683
 6038SOL    HW229748   1.965   1.112   2.778  1.1101 -0.8920 -0.0836
 6039SOL     OW29749   0.943   3.867  10.237 -0.2988  0.1741 -0.3961
 6039SOL    HW129750   0.965   3.920  10.313  2.3028 -2.1699  0.4560
 6039SOL    HW229751   0.999   3.790  10.239  0.7648  0.9585 -0.0747
 6040SOL     OW29752   1.502   1.798   6.518  0.2116  0.7860  0.0419
 6040SOL    HW129753   1.506   1.830   6.428 -2.0916  0.1463 -0.2920
 6040SOL    HW229754   1.420   1.748   6.522  0.1795  0.7552 -1.0450
 6041SOL     OW29755   1.823   1.311   6.647  0.1234 -0.5449 -0.9874
 6041SOL    HW129756   1.787   1.231   6.685 -0.2258 -0.1291 -0.4318
 6041SOL    HW229757   1.808   1.374   6.718  0.6271 -0.2615 -1.1329
 6042SOL     OW29758   2.519   0.258   8.540  0.1880 -0.1349 -0.5675
 6042SOL    HW129759   2.605   0.279   8.576  0.1554  0.7751 -1.0292
 6042SOL    HW229760   2.481   0.214   8.616  2.7623  0.8009  1.2766
 6043SOL     OW29761   2.019   0.787   9.016  0.2903 -0.5240  0.1510
 6043SOL    HW129762   1.937   0.820   9.053  0.1629 -1.2507  0.5074
 6043SOL    HW229763   2.014   0.704   9.063 -5.0402 -0.8734 -1.0111
 6044SOL     OW29764   3.729   1.241   3.482  0.4788 -0.3363 -0.2515
 6044SOL    HW129765   3.755   1.209   3.395 -0.0972 -0.7299 -0.2802
 6044SOL    HW229766   3.791   1.199   3.542  2.4914  2.2925 -0.4813
 6045SOL     OW29767   0.535   2.697   0.527  0.2280  0.3198 -0.0998
 6045SOL    HW129768   0.471   2.646   0.478  0.7186  0.7953 -1.2412
 6045SOL    HW229769   0.543   2.652   0.611  1.5937 -1.5362 -1.2292
 6046SOL     OW29770   4.043   4.570   8.715  0.2413  0.2064  0.5648
 6046SOL    HW129771   4.118   4.517   8.746  2.0789  1.6828 -1.3678
 6046SOL    HW229772   4.031   4.548   8.623 -5.5195  1.8726  0.9248
 6047SOL     OW29773   4.535   3.451  16.073  0.1564  0.3537 -0.1331
 6047SOL    HW129774   4.442   3.451  16.095  0.7778 -1.0545  2.5495
 6047SOL    HW229775   4.573   3.517  16.131  1.7217 -1.3000  0.7617
 6048SOL     OW29776   4.662   4.038   3.035 -0.3001  0.2461  0.2718
 6048SOL    HW129777   4.630   3.962   2.987  1.8951 -1.5674  1.7345
 6048SOL    HW229778   4.719   4.084   2.973  0.3694  0.2043  0.8575
 6049SOL     OW29779   3.764   1.141   9.615  0.0769  0.3909  0.0536
 6049SOL    HW129780   3.701   1.069   9.610  0.4624  0.0622 -0.0658
 6049SOL    HW229781   3.711   1.210   9.655 -1.2851 -0.4605 -0.2743
 6050SOL     OW29782   0.917   2.810   6.839 -0.4447  0.4075 -0.1327
 6050SOL    HW129783   0.919   2.861   6.920  0.1523 -0.2923  0.2989
 6050SOL    HW229784   0.887   2.879   6.780  0.7290  0.7139 -0.3598
 6051SOL     OW29785   3.357   2.468   1.571 -0.3643  0.4054 -0.2217
 6051SOL    HW129786   3.405   2.427   1.499 -1.6791  1.5823 -1.7689
 6051SOL    HW229787   3.420   2.469   1.643 -3.5643  2.1098  2.5575
 6052SOL     OW29788   0.426   2.339  12.196 -0.1694  0.1106 -0.2887
 6052SOL    HW129789   0.452   2.266  12.252 -1.3771 -0.0950  0.0211
 6052SOL    HW229790   0.348   2.298  12.158 -1.0413  2.1943 -0.7188
 6053SOL     OW29791   2.181   1.812   3.022 -0.3160 -0.0165  0.1598
 6053SOL    HW129792   2.274   1.789   3.012 -0.1690 -0.2665  2.2116
 6053SOL    HW229793   2.174   1.850   3.109 -0.8662 -1.1544  0.5990
 6054SOL     OW29794   3.944   4.010   5.671  0.3378  0.0742 -0.2921
 6054SOL    HW129795   3.985   4.063   5.603  0.6939  0.2635  0.0705
 6054SOL    HW229796   3.852   4.035   5.667  1.0704  2.7610 -0.0257
 6055SOL     OW29797   0.622   4.210  17.270  0.0945  0.1932 -0.2615
 6055SOL    HW129798   0.713   4.189  17.290  0.2146  0.2083 -0.8154
 6055SOL    HW229799   0.617   4.304  17.289  0.3817  0.3996 -1.2597
 6056SOL     OW29800   2.002   0.983   3.070 -0.1396  0.3430 -0.4011
 6056SOL    HW129801   2.073   0.954   3.013 -0.7474 -1.4227 -0.2590
 6056SOL    HW229802   1.949   0.913   3.031 -0.2173  1.0230 -1.4981
 6057SOL     OW29803   3.420   0.234   3.342 -0.7159  0.0386  0.6980
 6057SOL    HW129804   3.491   0.287   3.377  1.1814 -2.5720  0.7917
 6057SOL    HW229805   3.359   0.218   3.414 -0.6724 -0.3865  0.6381
 6058SOL     OW29806   3.540   0.797   7.716 -0.3898  0.6252  0.4392
 6058SOL    HW129807   3.572   0.791   7.626 -0.5070 -0.3958  0.4638
 6058SOL    HW229808   3.484   0.720   7.722 -0.0112  0.1099 -2.6026
 6059SOL     OW29809   2.142   4.680   8.506  0.2681  0.0267  0.0298
 6059SOL    HW129810   2.071   4.616   8.514  0.0258  0.1560 -1.0610
 6059SOL    HW229811   2.142   4.700   8.412  0.1237  1.9353  0.4305
 6060SOL     OW29812   4.240   1.445   7.275 -0.6030 -0.0708 -0.3977
 6060SOL    HW129813   4.263   1.381   7.207 -0.6789 -0.3747 -0.1382
 6060SOL    HW229814   4.204   1.518   7.225  1.9052  0.9498 -0.6951
 6061SOL     OW29815   3.656   4.640   8.267 -0.3652 -0.2997  0.2676
 6061SOL    HW129816   3.578   4.589   8.290 -0.9546 -0.6060 -2.4010
 6061SOL    HW229817   3.642   4.708   8.332 -1.4913 -0.8778  0.6306
 6062SOL     OW29818   2.729   3.385   2.918 -0.1638 -0.0748  0.4051
 6062SOL    HW129819   2.691   3.459   2.965 -0.9163  0.5443 -1.1761
 6062SOL    HW229820   2.657   3.327   2.896  0.3210 -0.4081 -0.3105
 6063SOL     OW29821   0.089   3.694   4.231 -0.1139 -0.0514 -0.5158
 6063SOL    HW129822   0.156   3.715   4.166 -1.2315  0.1263 -1.5880
 6063SOL    HW229823   0.012   3.740   4.197  0.8038  0.6746 -1.6157
 6064SOL     OW29824   3.760   0.912  12.837  0.1064  0.1783 -0.1436
 6064SOL    HW129825   3.835   0.854  12.852 -1.0978 -0.9411  1.4368
 6064SOL    HW229826   3.799   0.999  12.850 -1.6205  0.7268  1.3900
 6065SOL     OW29827   3.223   1.380  12.437  0.3233 -0.1413 -0.3941
 6065SOL    HW129828   3.263   1.447  12.381  1.7586 -0.4472  0.2715
 6065SOL    HW229829   3.296   1.349  12.490  0.9839  0.5335 -0.9059
 6066SOL     OW29830   2.049   4.041   9.089  0.5029 -0.3553 -0.2758
 6066SOL    HW129831   1.988   3.996   9.146  1.7482 -0.3351  1.0770
 6066SOL    HW229832   2.008   4.023   9.004  1.1412  0.1599 -0.6956
 6067SOL     OW29833   4.576   3.993   5.441 -0.0644  0.0534  0.4723
 6067SOL    HW129834   4.575   3.900   5.422  0.3811  0.1782 -0.1808
 6067SOL    HW229835   4.524   3.994   5.521  0.0639 -2.1198  0.5845
 6068SOL     OW29836   1.352   3.767   4.078 -0.8174  0.1964 -0.5006
 6068SOL    HW129837   1.268   3.808   4.098 -0.6239  0.1087  0.4694
 6068SOL    HW229838   1.372   3.720   4.159  0.6235  1.1073 -0.3327
 6069SOL     OW29839   0.668   2.831  15.266 -0.5128 -0.1191 -0.4246
 6069SOL    HW129840   0.701   2.889  15.198  0.6107  1.6021  1.5795
 6069SOL    HW229841   0.693   2.878  15.346 -2.4646 -0.0980  0.1723
 6070SOL     OW29842   0.332   0.908  16.980 -0.1146  0.1537 -0.0365
 6070SOL    HW129843   0.348   0.840  16.916  1.0555 -0.0399  0.4618
 6070SOL    HW229844   0.401   0.968  16.950  0.6446 -1.6191 -1.8282
 6071SOL     OW29845   3.825   4.156   4.592  0.1893 -0.3570  0.1777
 6071SOL    HW129846   3.895   4.198   4.542 -2.7538  4.0850 -0.2228
 6071SOL    HW229847   3.824   4.212   4.670 -1.0705 -0.7493  0.4474
 6072SOL     OW29848   1.487   1.465  15.116 -0.1699 -0.1520 -0.0981
 6072SOL    HW129849   1.401   1.478  15.077 -0.2256  1.1843  0.4685
 6072SOL    HW229850   1.542   1.540  15.093 -0.9514  0.1202 -1.0731
 6073SOL     OW29851   0.782   0.708   8.184 -0.2727 -0.5174 -0.5056
 6073SOL    HW129852   0.836   0.756   8.122  0.6959 -0.2684  0.5277
 6073SOL    HW229853   0.699   0.718   8.137  0.1526  0.9394 -0.9356
 6074SOL     OW29854   3.776   1.718   0.018 -0.2103 -0.0834  0.3584
 6074SOL    HW129855   3.743   1.632   0.046 -2.0482  1.3616  2.5777
 6074SOL    HW229856   3.862   1.688  17.736 -0.8030 -0.6427 -0.7698
 6075SOL     OW29857   0.339   2.455   3.218 -0.2041 -0.3026 -0.0404
 6075SOL    HW129858   0.308   2.366   3.236 -0.3947 -0.7011 -2.4023
 6075SOL    HW229859   0.434   2.447   3.208 -0.2821  0.1195 -1.1562
 6076SOL     OW29860   2.550   2.120   3.025  0.3628  0.3872 -0.3049
 6076SOL    HW129861   2.461   2.134   3.057  0.2671 -2.2231  0.5903
 6076SOL    HW229862   2.572   2.073   3.105 -1.5570 -0.9246 -0.5356
 6077SOL     OW29863   2.588   2.732  17.550  0.0034 -0.0804 -0.3828
 6077SOL    HW129864   2.678   2.704  17.533  0.0217  0.6730 -1.4714
 6077SOL    HW229865   2.590   2.805  17.489  1.7744  0.8223  0.7437
 6078SOL     OW29866   0.154   1.315   0.370  0.1836  0.7207  0.2921
 6078SOL    HW129867   0.212   1.351   0.437  1.2417 -2.7519  1.2493
 6078SOL    HW229868   0.208   1.264   0.310 -1.5907 -0.7645 -0.0256
 6079SOL     OW29869   3.448   3.334   5.529  0.1399  0.7991 -0.4408
 6079SOL    HW129870   3.357   3.350   5.555  0.1470 -0.1887  0.1785
 6079SOL    HW229871   3.484   3.412   5.487  1.8326  0.7374  0.9269
 6080SOL     OW29872   3.160   4.185   3.602 -0.2552 -0.1425 -0.1182
 6080SOL    HW129873   3.177   4.172   3.696  1.1494 -0.4541 -0.4281
 6080SOL    HW229874   3.128   4.275   3.593  0.7169  0.0915 -1.1209
 6081SOL     OW29875   1.193   3.855   3.729  1.0607  0.0250 -0.1771
 6081SOL    HW129876   1.237   3.800   3.664  2.3155 -0.6441  1.2560
 6081SOL    HW229877   1.255   3.922   3.757 -0.6405  1.6283 -0.2335
 6082SOL     OW29878   0.771   4.241   5.006  0.0725 -0.5134 -0.9404
 6082SOL    HW129879   0.747   4.329   5.036  0.5991 -0.8082  0.3674
 6082SOL    HW229880   0.733   4.241   4.919 -0.0881  1.7600 -0.8928
 6083SOL     OW29881   2.216   4.527   7.708 -0.1413 -0.0222 -0.1126
 6083SOL    HW129882   2.213   4.461   7.639  0.3251 -1.1695  0.9705
 6083SOL    HW229883   2.188   4.478   7.786 -2.8113  0.7795 -0.5552
 6084SOL     OW29884   1.525   0.700   5.008 -0.6333  0.1328  0.7292
 6084SOL    HW129885   1.461   0.716   4.938  3.0953  2.3168 -2.1629
 6084SOL    HW229886   1.559   0.789   5.021 -0.7298  0.3200 -0.2659
 6085SOL     OW29887   4.431   0.366   7.133 -0.4883  0.3235 -0.1961
 6085SOL    HW129888   4.408   0.339   7.222  0.7271  0.4125  0.1404
 6085SOL    HW229889   4.422   0.285   7.084  1.4485  1.3445 -2.2281
 6086SOL     OW29890   0.781   4.662  17.113  0.2485  0.4856  0.5419
 6086SOL    HW129891   0.763   4.689  17.203  0.2493 -0.3330  0.7862
 6086SOL    HW229892   0.862   4.611  17.115 -1.4664 -2.2166  1.1559
 6087SOL     OW29893   2.461   3.634   4.648  0.3986  0.1651 -0.4383
 6087SOL    HW129894   2.377   3.660   4.611  0.3083 -3.6378 -2.8298
 6087SOL    HW229895   2.446   3.675   4.733  0.9463 -1.6473  0.5170
 6088SOL     OW29896   2.583   4.330   0.149 -0.0345  0.3897  0.1631
 6088SOL    HW129897   2.550   4.325   0.059  1.0439  0.1480 -0.2124
 6088SOL    HW229898   2.576   4.238   0.176 -2.4496  0.3978 -0.4259
 6089SOL     OW29899   0.156   2.297  14.493  0.1509  0.3374 -0.0537
 6089SOL    HW129900   0.142   2.233  14.562  0.2296 -0.7891 -1.0838
 6089SOL    HW229901   0.239   2.268  14.454 -0.0187  0.7547 -0.7269
 6090SOL     OW29902   0.530   4.460  11.548  0.2590  0.1657  0.1973
 6090SOL    HW129903   0.481   4.398  11.494 -0.2145  0.6432  0.0813
 6090SOL    HW229904   0.594   4.404  11.592 -1.5383 -2.3994 -0.4739
 6091SOL     OW29905   3.853   4.732   4.782  0.1479  0.1285  0.3279
 6091SOL    HW129906   3.787   4.670   4.811 -1.2523  2.3099  1.8345
 6091SOL    HW229907   3.849   4.716   4.687  0.9986  1.9626 -0.0301
 6092SOL     OW29908   3.482   2.924  13.659  0.0633  0.3485  0.2897
 6092SOL    HW129909   3.438   2.854  13.708  0.6331 -0.4111 -0.2887
 6092SOL    HW229910   3.570   2.890  13.643  0.0569  0.5978 -0.2816
 6093SOL     OW29911   2.348   0.559   4.145  0.0016 -0.2529  0.7618
 6093SOL    HW129912   2.384   0.477   4.113 -0.7884  0.0946 -1.0219
 6093SOL    HW229913   2.412   0.618   4.104  1.6520 -1.6089  1.4288
 6094SOL     OW29914   1.597   4.225  13.832  0.1370  0.6053 -0.3490
 6094SOL    HW129915   1.618   4.244  13.923 -0.8007 -0.9228  0.2033
 6094SOL    HW229916   1.506   4.255  13.834 -0.5433 -1.4448  0.1911
 6095SOL     OW29917   2.295   3.272   9.702 -0.0407  0.8666  0.0593
 6095SOL    HW129918   2.260   3.219   9.773  3.1689 -0.5809  0.5699
 6095SOL    HW229919   2.223   3.271   9.640 -0.5337  2.5247  0.6028
 6096SOL     OW29920   0.418   2.292  12.600 -0.6422  1.0077  0.4119
 6096SOL    HW129921   0.387   2.242  12.525  1.1221 -0.4898  0.6622
 6096SOL    HW229922   0.340   2.314  12.651  0.8122 -1.1801  3.5979
 6097SOL     OW29923   3.243   0.728   3.235  0.0783  0.3830  0.3618
 6097SOL    HW129924   3.265   0.807   3.283  0.2445  0.2292  0.5406
 6097SOL    HW229925   3.161   0.707   3.280  0.6544 -1.4108  0.5989
 6098SOL     OW29926   1.595   4.528  15.325 -0.2848 -0.0687 -0.1262
 6098SOL    HW129927   1.550   4.611  15.340 -0.6676 -0.4270  0.6788
 6098SOL    HW229928   1.567   4.487  15.243 -1.3900  0.2164  0.1104
 6099SOL     OW29929   4.653   1.126   1.811  0.1357  0.2882  0.3364
 6099SOL    HW129930   4.695   1.084   1.736 -1.4750 -0.2992 -0.2331
 6099SOL    HW229931   4.719   1.193   1.829  0.6850 -0.0244 -0.4823
 6100SOL     OW29932   1.277   2.543   7.510 -0.1214  0.8066 -1.1258
 6100SOL    HW129933   1.238   2.630   7.524 -0.5450  0.3875  0.3047
 6100SOL    HW229934   1.242   2.507   7.429 -2.2246  0.7191 -0.1677
 6101SOL     OW29935   3.965   0.558   6.798 -0.2173 -0.0139 -0.2273
 6101SOL    HW129936   3.886   0.525   6.756  0.8821  0.7967 -2.9302
 6101SOL    HW229937   3.986   0.495   6.867 -0.1713 -0.2086 -0.4188
 6102SOL     OW29938   0.835   1.993   1.652 -0.6638 -0.1262 -0.0364
 6102SOL    HW129939   0.914   1.968   1.604  0.9656  2.2285  1.4260
 6102SOL    HW229940   0.876   2.000   1.739 -0.2898 -2.4836 -0.0107
 6103SOL     OW29941   1.858   0.581  12.909  0.4317 -0.4749  0.1784
 6103SOL    HW129942   1.853   0.513  12.841 -2.1469  0.8238 -0.9228
 6103SOL    HW229943   1.918   0.538  12.970  1.4474 -0.5585 -0.8911
 6104SOL     OW29944   2.602   4.659  14.603  0.1021  0.1389  0.1722
 6104SOL    HW129945   2.536   4.728  14.592  1.0116  0.6933 -1.8090
 6104SOL    HW229946   2.667   4.695  14.543 -3.1390  0.3864 -3.2172
 6105SOL     OW29947   2.927   2.887   1.636  0.2225  0.4432  0.2554
 6105SOL    HW129948   2.890   2.962   1.682 -0.5107  0.6212 -0.6239
 6105SOL    HW229949   3.005   2.885   1.691 -1.3590  0.7893  2.4934
 6106SOL     OW29950   1.402   1.716  12.106  0.6434 -1.1437 -1.0951
 6106SOL    HW129951   1.412   1.763  12.189 -1.1906 -0.0793 -1.4807
 6106SOL    HW229952   1.322   1.664  12.113 -1.2637  2.0565  0.8975
 6107SOL     OW29953   4.376   1.433   0.265  0.5877  0.4803  0.4079
 6107SOL    HW129954   4.446   1.468   0.320  1.3363  2.1748 -1.6217
 6107SOL    HW229955   4.422   1.382   0.198 -1.3883 -0.0639 -0.5271
 6108SOL     OW29956   3.197   3.646   1.943  0.0606  0.3083 -0.4054
 6108SOL    HW129957   3.217   3.721   1.887  0.0756  1.7725  1.5728
 6108SOL    HW229958   3.258   3.586   1.899 -0.0086  2.0542 -2.8494
 6109SOL     OW29959   2.064   3.400   6.762 -0.0902 -0.1910 -0.2687
 6109SOL    HW129960   2.110   3.417   6.844  0.3632  0.0266 -0.5684
 6109SOL    HW229961   1.975   3.381   6.793  0.9737 -0.9415  2.3142
 6110SOL     OW29962   0.854   0.271   9.471 -0.4295 -0.7500  0.5561
 6110SOL    HW129963   0.795   0.283   9.397  0.0085  0.3080  0.3794
 6110SOL    HW229964   0.798   0.267   9.549 -1.6756 -2.3209 -0.4245
 6111SOL     OW29965   4.171   3.654  15.083 -0.0319 -0.0433  0.1024
 6111SOL    HW129966   4.199   3.593  15.014  0.8753 -1.7130  1.9246
 6111SOL    HW229967   4.098   3.705  15.049  0.6965  2.1866  1.8499
 6112SOL     OW29968   2.182   4.594  14.746 -0.1207 -0.0382  0.1559
 6112SOL    HW129969   2.238   4.567  14.819 -1.9393 -0.0307  1.5512
 6112SOL    HW229970   2.141   4.508  14.733  2.9402 -1.1562 -1.9819
 6113SOL     OW29971   0.429   1.389   9.312 -0.0871  0.0451  0.4363
 6113SOL    HW129972   0.382   1.393   9.395  0.5038  0.8928  0.7328
 6113SOL    HW229973   0.381   1.466   9.281  2.1078  0.4361 -1.9722
 6114SOL     OW29974   4.024   4.180   8.636  0.1503 -0.3004  0.4376
 6114SOL    HW129975   4.044   4.092   8.603  1.3957 -0.3535  1.3591
 6114SOL    HW229976   3.948   4.202   8.583  0.1182 -2.9280 -0.6522
 6115SOL     OW29977   0.746   0.657   2.365  0.2009 -0.7181  0.0719
 6115SOL    HW129978   0.655   0.661   2.337 -0.1531 -0.0306  1.2787
 6115SOL    HW229979   0.795   0.684   2.287  0.9066 -0.1573  0.6989
 6116SOL     OW29980   3.578   3.835   8.568  0.2110 -0.7727  0.5411
 6116SOL    HW129981   3.545   3.763   8.622 -2.3885  0.3515  0.4000
 6116SOL    HW229982   3.506   3.851   8.507 -0.2949 -3.3766  0.4530
 6117SOL     OW29983   0.981   4.086   7.870  0.2881  0.4625  0.3344
 6117SOL    HW129984   0.925   4.009   7.855  0.4779  0.6120 -1.1646
 6117SOL    HW229985   0.926   4.127   7.936 -1.9769 -0.9939 -0.6329
 6118SOL     OW29986   0.907   4.400   4.240 -0.0164  0.2180  0.0568
 6118SOL    HW129987   0.928   4.486   4.202  0.3970 -0.4859 -1.2811
 6118SOL    HW229988   0.913   4.339   4.166 -4.4171 -1.1913  0.8566
 6119SOL     OW29989   0.854   4.179   1.322 -0.1151  0.0789 -0.0729
 6119SOL    HW129990   0.785   4.120   1.289  0.5349  0.2576 -1.7469
 6119SOL    HW229991   0.926   4.120   1.343 -0.5002  0.2269  1.6300
 6120SOL     OW29992   4.450   2.921   7.519  0.6120 -0.6121 -0.0847
 6120SOL    HW129993   4.515   2.988   7.500 -0.6646  1.3198  2.3553
 6120SOL    HW229994   4.372   2.966   7.552 -1.5360 -2.7120 -2.2706
 6121SOL     OW29995   0.926   0.733   9.914 -0.0996  0.5328 -0.0147
 6121SOL    HW129996   1.009   0.734   9.962 -0.4181  0.3394  0.5408
 6121SOL    HW229997   0.890   0.646   9.930 -0.4663  0.7515  0.3453
 6122SOL     OW29998   4.482   4.310   3.964 -0.1554  0.8129  0.1289
 6122SOL    HW129999   4.421   4.262   4.021 -0.4391 -0.4254 -1.2126
 6122SOL    HW230000   4.521   4.247   3.904  1.6685  1.1707  0.9255
 6123SOL     OW30001   1.906   4.621  11.617 -0.7224  0.9952  0.1272
 6123SOL    HW130002   1.981   4.664  11.659  0.6993  0.2150 -1.5991
 6123SOL    HW230003   1.831   4.661  11.661 -0.0794  1.5006  0.7737
 6124SOL     OW30004   4.583   4.184   2.188  0.4079 -0.3855 -0.2097
 6124SOL    HW130005   4.541   4.106   2.150 -3.7813  1.5899  0.2842
 6124SOL    HW230006   4.527   4.199   2.264  1.1253 -1.9589  0.6140
 6125SOL     OW30007   3.442   0.295  13.675 -0.3575  0.1761 -0.1623
 6125SOL    HW130008   3.488   0.255  13.749 -0.2255  2.0437  0.7914
 6125SOL    HW230009   3.350   0.285  13.699  0.0162 -1.5926  0.5117
 6126SOL     OW30010   2.973   2.603   7.867  0.0735 -0.1181 -0.0212
 6126SOL    HW130011   3.042   2.610   7.932  1.6284 -1.5962 -1.5269
 6126SOL    HW230012   2.960   2.697   7.851  1.2007  0.2421  1.2745
 6127SOL     OW30013   0.849   2.577   6.915 -0.1491  0.5231  0.0565
 6127SOL    HW130014   0.900   2.646   6.874  0.7455  0.4399  1.0285
 6127SOL    HW230015   0.761   2.615   6.908  0.0224  0.7742 -0.7190
 6128SOL     OW30016   1.432   0.320   3.408  0.2654 -0.3056  0.1645
 6128SOL    HW130017   1.442   0.234   3.450 -0.1137 -0.5124 -0.1742
 6128SOL    HW230018   1.337   0.311   3.404  0.1488  2.0143 -3.1405
 6129SOL     OW30019   0.258   4.103   0.832  0.1154 -0.6718 -0.0754
 6129SOL    HW130020   0.206   4.060   0.764  0.6666 -1.2379 -0.1323
 6129SOL    HW230021   0.287   4.182   0.787  1.9893 -0.8214  0.8516
 6130SOL     OW30022   3.628   0.400   3.420 -0.4969  0.4824 -0.0644
 6130SOL    HW130023   3.648   0.402   3.327 -2.8726 -1.1194 -0.5848
 6130SOL    HW230024   3.711   0.433   3.455 -0.8627  1.9202 -0.5464
 6131SOL     OW30025   4.512   0.722   5.617 -0.7886  0.0288  0.1704
 6131SOL    HW130026   4.456   0.743   5.691  0.5324 -0.2201  1.2313
 6131SOL    HW230027   4.446   0.669   5.571  1.4329 -2.8124  0.2160
 6132SOL     OW30028   2.177   3.321   7.573  0.1607  0.6777 -0.0606
 6132SOL    HW130029   2.192   3.397   7.629  0.6524  1.9550 -1.8966
 6132SOL    HW230030   2.187   3.363   7.487  0.9485 -2.2892 -1.4429
 6133SOL     OW30031   0.353   2.329   9.292 -0.0306 -0.1800 -0.2648
 6133SOL    HW130032   0.327   2.251   9.242  1.1715 -0.8901  0.2114
 6133SOL    HW230033   0.349   2.386   9.216 -2.3636 -2.8770 -2.1680
 6134SOL     OW30034   0.041   3.716  15.493 -0.2878  0.6304 -0.3468
 6134SOL    HW130035   4.685   3.713  15.513 -0.0391 -0.3710  0.6339
 6134SOL    HW230036   0.062   3.623  15.487  1.6365  0.9109  2.3299
 6135SOL     OW30037   3.052   3.497   2.404  0.5222  0.1987 -0.3832
 6135SOL    HW130038   3.015   3.564   2.460  1.3917 -1.0042  1.6251
 6135SOL    HW230039   3.107   3.439   2.457  3.2077  2.1764 -1.0079
 6136SOL     OW30040   3.550   0.589   4.698 -0.1665 -0.4390  0.5909
 6136SOL    HW130041   3.528   0.658   4.760  0.2933  1.5656 -1.4576
 6136SOL    HW230042   3.643   0.586   4.720  0.0919  0.3569 -0.3677
 6137SOL     OW30043   4.056   3.762   5.207  0.1970 -0.9391 -0.5167
 6137SOL    HW130044   4.023   3.679   5.241 -1.2240  0.1583  0.7349
 6137SOL    HW230045   4.092   3.729   5.124  0.3305  0.6248 -1.0830
 6138SOL     OW30046   0.013   1.462   4.932 -0.3910 -0.3254 -0.6869
 6138SOL    HW130047   0.015   1.389   4.870  0.1045  0.2822 -1.3835
 6138SOL    HW230048   4.680   1.511   4.889 -1.0222 -0.2471  0.4578
 6139SOL     OW30049   0.341   3.538   3.031  0.3580  0.0064  0.1175
 6139SOL    HW130050   0.302   3.618   2.995 -0.8202 -0.4526  0.3896
 6139SOL    HW230051   0.403   3.523   2.959  1.1368 -2.8959  1.4188
 6140SOL     OW30052   0.257   3.275   5.401  0.1871 -0.6318 -0.3009
 6140SOL    HW130053   0.261   3.205   5.336  0.5201 -0.6747 -0.2326
 6140SOL    HW230054   0.352   3.286   5.401  0.3594 -2.1732 -0.6260
 6141SOL     OW30055   1.968   4.170   2.530 -0.6371 -0.3199  0.2031
 6141SOL    HW130056   1.970   4.257   2.491  2.5661  0.1802  1.4467
 6141SOL    HW230057   2.020   4.116   2.471  1.7406  1.3717  0.7682
 6142SOL     OW30058   3.812   4.515   3.614  0.8356  0.0195  0.0107
 6142SOL    HW130059   3.784   4.511   3.523 -0.8450  2.7174  0.4224
 6142SOL    HW230060   3.832   4.422   3.623  2.5857  0.4080  0.1734
 6143SOL     OW30061   0.061   2.285   9.056 -0.1954  0.5371  0.0187
 6143SOL    HW130062   0.153   2.266   9.042 -0.0087  0.5441  1.2522
 6143SOL    HW230063   0.034   2.207   9.105 -1.3744 -0.0061 -1.5052
 6144SOL     OW30064   0.122   3.904   2.770 -0.3157  0.0143 -0.2552
 6144SOL    HW130065   0.204   3.871   2.807  0.4972  0.0957 -1.9895
 6144SOL    HW230066   0.099   3.840   2.703 -0.8971  1.5147 -1.4789
 6145SOL     OW30067   0.647   1.041  16.086 -0.9099  0.1880 -0.2617
 6145SOL    HW130068   0.625   1.062  16.177  0.5889 -1.8692  0.5780
 6145SOL    HW230069   0.695   1.118  16.057 -1.9122  1.1284  0.5379
 6146SOL     OW30070   0.504   1.287   9.068 -0.3500 -0.3503 -0.3078
 6146SOL    HW130071   0.500   1.294   9.164 -2.7654 -2.8388 -0.2223
 6146SOL    HW230072   0.476   1.371   9.033  1.7072 -1.2494 -4.1085
 6147SOL     OW30073   0.747   0.348  16.021  0.0337 -0.8348 -0.4101
 6147SOL    HW130074   0.793   0.408  15.962 -0.2240 -1.3612 -1.1495
 6147SOL    HW230075   0.738   0.270  15.965  1.8064 -2.9747  2.3001
 6148SOL     OW30076   3.454   2.455   6.863  0.9484  0.4110 -0.3710
 6148SOL    HW130077   3.391   2.430   6.796  0.6431 -1.3599  0.5516
 6148SOL    HW230078   3.530   2.456   6.805 -0.3081  2.0462 -1.9488
 6149SOL     OW30079   4.671   4.602   6.732 -0.5555  0.3995 -0.3593
 6149SOL    HW130080   4.727   4.576   6.805  0.0096 -1.5150 -1.4743
 6149SOL    HW230081   0.005   4.638   6.679 -0.2102  0.4303  0.1302
 6150SOL     OW30082   0.090   3.199   7.710 -0.1836 -0.0504 -0.0480
 6150SOL    HW130083   0.163   3.174   7.653  0.7272  0.8966  0.7168
 6150SOL    HW230084   0.133   3.267   7.761 -2.1437  2.1765 -1.4031
 6151SOL     OW30085   0.543   2.235   3.461 -0.3366  0.1408  0.1419
 6151SOL    HW130086   0.559   2.311   3.517 -0.0807  0.6750 -0.6762
 6151SOL    HW230087   0.452   2.244   3.431 -0.1686 -1.5039 -0.8534
 6152SOL     OW30088   2.834   3.660   8.956  0.2663  0.0839  0.3898
 6152SOL    HW130089   2.821   3.573   8.920  0.1804  0.3597 -0.2483
 6152SOL    HW230090   2.755   3.708   8.933  0.5848  0.4670  0.0886
 6153SOL     OW30091   2.038   2.436  10.392 -0.3916 -0.0995  0.6020
 6153SOL    HW130092   2.010   2.370  10.455  0.3424  0.0158  1.0413
 6153SOL    HW230093   2.036   2.521  10.435  1.1520  0.2080  0.0609
 6154SOL     OW30094   4.228   1.591  15.314 -0.6228  0.3478  0.6682
 6154SOL    HW130095   4.323   1.581  15.317 -0.7875 -0.8173  2.1870
 6154SOL    HW230096   4.208   1.529  15.244 -1.0182  0.6091  0.5501
 6155SOL     OW30097   3.179   2.544  11.766  0.5480  0.0932  0.2866
 6155SOL    HW130098   3.218   2.524  11.851  0.8789  1.2479  0.4097
 6155SOL    HW230099   3.183   2.639  11.757  2.1640 -0.0541 -0.7396
 6156SOL     OW30100   2.904   0.099   5.214 -0.3683  0.0097 -0.0623
 6156SOL    HW130101   2.857   0.171   5.256 -0.2655 -0.9299  1.6455
 6156SOL    HW230102   2.903   0.128   5.122  1.0839 -0.0486 -0.0873
 6157SOL     OW30103   4.178   1.509   8.963 -0.1571  0.5323  0.0585
 6157SOL    HW130104   4.193   1.581   8.903 -0.2134 -0.2328 -0.8723
 6157SOL    HW230105   4.108   1.455   8.926  1.0116 -0.3927 -0.7801
 6158SOL     OW30106   1.408   4.719  15.358 -0.1767  0.6723  0.3929
 6158SOL    HW130107   1.321   4.715  15.317 -0.3318  2.3865  0.5734
 6158SOL    HW230108   1.389   4.706  15.450  2.3447  3.1451  1.2610
 6159SOL     OW30109   2.644   4.691   3.410  0.4779 -0.2109 -0.0937
 6159SOL    HW130110   2.617   0.036   3.368 -0.4146 -2.0070 -3.1035
 6159SOL    HW230111   2.736   4.691   3.385  0.1020  0.8706 -1.4860
 6160SOL     OW30112   2.295   0.711   7.124 -0.7512  0.2554 -0.0722
 6160SOL    HW130113   2.212   0.712   7.173  0.5325  0.1544  2.1078
 6160SOL    HW230114   2.349   0.734   7.199  0.1709 -3.0624  0.2693
 6161SOL     OW30115   3.797   2.187   7.444 -0.5016  0.3652 -0.8859
 6161SOL    HW130116   3.849   2.258   7.406 -0.0720  0.8096  0.5156
 6161SOL    HW230117   3.870   2.127   7.459 -0.6322  0.1510 -1.1018
 6162SOL     OW30118   0.014   3.058   7.472  0.1150  0.0309 -0.2804
 6162SOL    HW130119   4.697   3.133   7.496 -0.6583 -0.6483  0.0966
 6162SOL    HW230120   0.020   3.017   7.558  1.8335 -2.5591 -1.6559
 6163SOL     OW30121   3.885   3.944   1.681  0.7944  0.7055 -0.0038
 6163SOL    HW130122   3.882   3.882   1.608 -2.2238  0.9342 -0.0758
 6163SOL    HW230123   3.961   3.910   1.728  0.9144  2.8999  1.3870
 6164SOL     OW30124   0.745   3.997   9.060 -0.1588  0.6898 -0.0315
 6164SOL    HW130125   0.677   4.009   9.125 -1.2115  0.9871 -1.1886
 6164SOL    HW230126   0.776   3.909   9.083  1.8606  1.6447  0.8677
 6165SOL     OW30127   2.584   2.086   6.726  0.4239  0.6740 -0.4610
 6165SOL    HW130128   2.584   2.181   6.718 -0.1583  0.8325  1.5088
 6165SOL    HW230129   2.583   2.060   6.634 -1.5877  1.2582 -0.6045
 6166SOL     OW30130   2.089   2.849  13.726 -0.2306  0.3382 -0.7008
 6166SOL    HW130131   2.035   2.773  13.748 -0.4155 -0.1817 -2.9563
 6166SOL    HW230132   2.141   2.866  13.804  0.2269 -1.4731 -0.6143
 6167SOL     OW30133   2.525   3.601  16.890  0.0259  0.3064 -0.1223
 6167SOL    HW130134   2.553   3.538  16.823  1.1538 -1.7916  2.3477
 6167SOL    HW230135   2.598   3.663  16.886  0.2666 -0.0252 -0.8859
 6168SOL     OW30136   0.998   0.173   3.913  0.1413 -0.4039  0.5508
 6168SOL    HW130137   1.088   0.183   3.880 -0.0620  1.1655  0.4832
 6168SOL    HW230138   0.977   0.105   3.849  1.8465 -0.3940 -0.0247
 6169SOL     OW30139   3.984   1.631   5.164 -0.0811 -0.0332  0.3070
 6169SOL    HW130140   4.015   1.604   5.250  0.1994  1.6536  0.7198
 6169SOL    HW230141   4.053   1.586   5.115 -0.6585 -1.5308  0.8451
 6170SOL     OW30142   0.961   1.393   9.514  0.1016  0.3284  0.2168
 6170SOL    HW130143   0.872   1.401   9.481  0.6335  1.2486 -0.9853
 6170SOL    HW230144   1.004   1.338   9.448  0.4301  0.0219  0.6790
 6171SOL     OW30145   1.019   4.172   3.435 -0.1203  0.3030 -0.1630
 6171SOL    HW130146   1.091   4.234   3.430  0.9366 -0.7227  2.5305
 6171SOL    HW230147   1.020   4.138   3.524  1.8366  2.5160  0.6565
 6172SOL     OW30148   4.653   2.443   0.632  0.2543 -0.1770 -0.3526
 6172SOL    HW130149   4.721   2.491   0.586  1.1652 -0.7516  0.4011
 6172SOL    HW230150   4.619   2.512   0.690  1.2738 -0.6385  0.7883
 6173SOL     OW30151   1.584   4.333   3.750 -0.1397 -0.2871 -0.0547
 6173SOL    HW130152   1.642   4.298   3.817 -0.3988  0.3729  0.5165
 6173SOL    HW230153   1.607   4.270   3.682 -0.2078 -2.6371  2.1122
 6174SOL     OW30154   2.644   4.651  12.934  0.8785 -0.1618  0.5610
 6174SOL    HW130155   2.612   4.642  12.845 -0.0642  0.3005  0.8547
 6174SOL    HW230156   2.665   4.561  12.958  3.7723 -0.0042 -1.4171
 6175SOL     OW30157   1.480   4.613   6.940  0.0343 -0.0862 -0.4191
 6175SOL    HW130158   1.460   4.690   6.886  1.2485  1.1695  0.9012
 6175SOL    HW230159   1.448   4.545   6.881 -1.8268 -0.4393  0.9949
 6176SOL     OW30160   0.652   2.852  10.775  0.0753  0.4093  0.1147
 6176SOL    HW130161   0.604   2.780  10.816  0.9366 -1.3099 -1.9229
 6176SOL    HW230162   0.612   2.930  10.813  0.4769  0.8253 -0.3213
 6177SOL     OW30163   0.578   1.377   7.515  0.0453  0.5145 -0.4019
 6177SOL    HW130164   0.575   1.446   7.448  0.1170  0.7224 -0.1924
 6177SOL    HW230165   0.610   1.423   7.593 -3.9856  0.6498  1.1523
 6178SOL     OW30166   4.259   1.749   6.530  0.0273  0.0604  0.5586
 6178SOL    HW130167   4.215   1.720   6.449 -0.1807  2.5010 -0.1997
 6178SOL    HW230168   4.236   1.842   6.537  0.0598  0.1005  0.1259
 6179SOL     OW30169   3.159   0.236   7.496 -0.3891 -1.0306 -0.1490
 6179SOL    HW130170   3.153   0.325   7.528  0.8401 -0.4925 -1.4032
 6179SOL    HW230171   3.085   0.224   7.436 -0.7645  0.0543  0.1046
 6180SOL     OW30172   0.820   4.080   5.610 -0.0082 -0.4945  0.1172
 6180SOL    HW130173   0.743   4.035   5.645 -1.9040  1.6798 -1.2695
 6180SOL    HW230174   0.891   4.034   5.655 -2.4413 -2.2501  2.1518
 6181SOL     OW30175   2.466   3.967   1.255  0.4385  0.0943  0.0783
 6181SOL    HW130176   2.491   3.942   1.344 -0.6127 -2.4762 -0.3331
 6181SOL    HW230177   2.527   4.034   1.226 -1.6816  1.4736 -1.1993
 6182SOL     OW30178   1.700   1.828   3.350  0.1953 -0.1241  0.1867
 6182SOL    HW130179   1.763   1.787   3.291  1.0943  1.2610  0.1714
 6182SOL    HW230180   1.767   1.868   3.407  1.6871 -0.0468 -1.6075
 6183SOL     OW30181   2.640   2.958   8.793 -0.5007  0.6396 -0.1982
 6183SOL    HW130182   2.570   2.911   8.838  2.1037 -1.3260  1.8084
 6183SOL    HW230183   2.667   2.884   8.738  0.0435 -0.2770  1.2937
 6184SOL     OW30184   4.114   4.220   5.892 -0.6582  0.2630  0.0040
 6184SOL    HW130185   4.183   4.246   5.953 -0.5142 -1.5368  0.6039
 6184SOL    HW230186   4.130   4.127   5.877  1.5282  0.5143  0.7635
 6185SOL     OW30187   1.938   2.642  13.753  0.2457  0.0870 -0.1549
 6185SOL    HW130188   1.940   2.583  13.677  0.3100 -1.4311  1.0396
 6185SOL    HW230189   1.989   2.591  13.815 -2.8000 -1.6659  0.8999
 6186SOL     OW30190   2.399   3.045   5.001 -0.1181  0.0907 -0.0346
 6186SOL    HW130191   2.342   2.976   4.968 -0.4835  0.6383 -0.5434
 6186SOL    HW230192   2.355   3.125   4.974  0.1497 -0.1269 -1.1146
 6187SOL     OW30193   0.168   3.480  11.751 -0.1838  0.0378 -0.0138
 6187SOL    HW130194   0.082   3.442  11.765  0.9309 -2.0472  1.1460
 6187SOL    HW230195   0.160   3.563  11.799  1.1514  0.4711 -0.5491
 6188SOL     OW30196   3.862   0.480   4.453 -0.4814  0.1249 -0.2005
 6188SOL    HW130197   3.849   0.573   4.438 -1.6046  0.0293  0.1193
 6188SOL    HW230198   3.772   0.447   4.444 -1.4809  3.1293 -1.0211
 6189SOL     OW30199   0.130   2.546   7.721 -0.0488 -0.5870  0.0619
 6189SOL    HW130200   0.075   2.609   7.674  0.1285  0.0931  0.7776
 6189SOL    HW230201   0.119   2.575   7.811 -3.0714  0.7318 -0.7141
 6190SOL     OW30202   3.726   3.358   4.431 -0.4135  0.4098  0.0255
 6190SOL    HW130203   3.811   3.403   4.429 -1.2806  2.0554  0.6068
 6190SOL    HW230204   3.679   3.406   4.499 -0.2760  0.0302  0.3906
 6191SOL     OW30205   2.994   1.525  16.551  0.0780 -0.8272 -0.5444
 6191SOL    HW130206   2.927   1.457  16.538  1.2848 -1.4106 -3.8328
 6191SOL    HW230207   3.032   1.537  16.464 -0.0366  3.1925 -0.0436
 6192SOL     OW30208   3.659   2.704   6.245  0.4810 -0.4446 -0.3832
 6192SOL    HW130209   3.620   2.720   6.159  0.9177  0.6561 -0.3737
 6192SOL    HW230210   3.631   2.616   6.269 -4.0281  0.6867 -1.5622
 6193SOL     OW30211   1.920   2.927   4.480  0.2982  0.6552 -0.0002
 6193SOL    HW130212   1.928   2.990   4.409  0.3967  1.2067  0.4952
 6193SOL    HW230213   1.824   2.931   4.488  0.1749 -1.4706 -0.4799
 6194SOL     OW30214   2.378   3.974   8.943 -0.5368  0.1601  0.4978
 6194SOL    HW130215   2.351   4.058   8.979  1.6225  0.8932  0.3682
 6194SOL    HW230216   2.314   3.954   8.875  0.3045 -1.9776  0.3182
 6195SOL     OW30217   0.814   2.598  14.670 -0.0228 -0.3132 -0.0542
 6195SOL    HW130218   0.833   2.649  14.591 -1.2535 -0.0266 -0.1541
 6195SOL    HW230219   0.812   2.662  14.741 -3.7669 -0.2472 -0.2658
 6196SOL     OW30220   2.487   3.313   2.219  0.2532  0.2764 -0.3515
 6196SOL    HW130221   2.566   3.265   2.242 -0.0877  0.9787  2.3827
 6196SOL    HW230222   2.437   3.236   2.191  1.1112 -1.4715  2.9295
 6197SOL     OW30223   2.343   1.495   8.145 -0.6538 -0.0245 -0.2947
 6197SOL    HW130224   2.365   1.466   8.233 -1.4361 -0.1761 -0.1540
 6197SOL    HW230225   2.389   1.433   8.088 -0.6068 -1.2332  1.0589
 6198SOL     OW30226   0.213   0.356   3.150 -0.4615  0.0865 -0.1357
 6198SOL    HW130227   0.166   0.306   3.217  1.3129 -1.1203  0.2109
 6198SOL    HW230228   0.138   0.390   3.101 -0.3688  1.0187  0.3649
 6199SOL     OW30229   2.295   2.754  10.702 -0.9512  0.0974  0.3092
 6199SOL    HW130230   2.316   2.718  10.788  1.4350  1.2363  0.2017
 6199SOL    HW230231   2.353   2.715  10.637 -0.6296 -0.2185  0.7898
 6200SOL     OW30232   0.346   3.244  10.526  0.4120 -0.1417 -0.0701
 6200SOL    HW130233   0.297   3.181  10.580  0.6950 -1.7525 -1.6710
 6200SOL    HW230234   0.378   3.204  10.445 -1.1288  0.6392 -1.0596
 6201SOL     OW30235   2.482   1.345   4.435 -0.0694  0.3344 -0.1782
 6201SOL    HW130236   2.447   1.377   4.352  0.7251  1.0795 -0.2302
 6201SOL    HW230237   2.406   1.339   4.492  1.1452  0.6406  1.4488
 6202SOL     OW30238   3.802   0.316   2.191 -0.0517  0.2951 -0.5767
 6202SOL    HW130239   3.758   0.278   2.115 -4.0886 -0.0930  1.9781
 6202SOL    HW230240   3.813   0.407   2.163 -4.0132  1.0616  0.3179
 6203SOL     OW30241   3.725   0.485   2.752 -0.2307  0.7849  0.2401
 6203SOL    HW130242   3.671   0.450   2.822  0.9846  0.7827  1.1640
 6203SOL    HW230243   3.811   0.487   2.794 -1.0975  0.8332  2.0124
 6204SOL     OW30244   3.621   0.110   8.047 -0.2954  0.2666  0.3712
 6204SOL    HW130245   3.627   0.036   8.108  0.8759 -1.9419 -2.4390
 6204SOL    HW230246   3.691   0.168   8.078 -1.8096  0.8884  2.6369
 6205SOL     OW30247   2.778   1.049   4.119 -0.5889  0.3338 -0.7800
 6205SOL    HW130248   2.807   1.075   4.032  1.6515  1.3678  0.2794
 6205SOL    HW230249   2.845   1.086   4.177 -1.1000 -1.2637  0.8359
 6206SOL     OW30250   4.444   4.022   5.657  0.0568  0.3998  0.3321
 6206SOL    HW130251   4.381   4.091   5.636 -0.2778  0.3850  1.2722
 6206SOL    HW230252   4.390   3.979   5.723  0.9953 -1.0879  0.1290
 6207SOL     OW30253   4.456   2.413   2.580  0.7898 -0.6235  0.5923
 6207SOL    HW130254   4.363   2.434   2.568  1.0720  0.6185  0.4844
 6207SOL    HW230255   4.482   2.497   2.619 -0.5913  0.1292 -0.0598
 6208SOL     OW30256   0.037   0.412   0.169  0.1112 -0.6363 -0.2465
 6208SOL    HW130257   0.008   0.440   0.083  1.3632 -2.1933 -1.1668
 6208SOL    HW230258   4.700   0.366   0.207 -0.4507  0.0114 -0.5732
 6209SOL     OW30259   3.798   4.593   9.847 -0.4115 -0.1091 -0.1527
 6209SOL    HW130260   3.879   4.606   9.797  0.6149 -2.2170  0.9792
 6209SOL    HW230261   3.742   4.619   9.773 -2.1378  0.3637  1.3261
 6210SOL     OW30262   4.414   3.584   5.737  0.0924 -0.1482  0.0624
 6210SOL    HW130263   4.475   3.657   5.742  0.5443 -0.3732 -2.0920
 6210SOL    HW230264   4.481   3.521   5.709  0.3323 -0.1660  0.6866
 6211SOL     OW30265   4.381   0.524   2.842 -0.6281  0.4576  0.4550
 6211SOL    HW130266   4.387   0.458   2.772  0.0131  0.8926  0.0934
 6211SOL    HW230267   4.403   0.479   2.923 -2.0293  1.2573  1.2805
 6212SOL     OW30268   3.020   0.380   7.025 -0.5299 -0.1617 -0.4867
 6212SOL    HW130269   2.977   0.347   6.946 -2.2846 -1.7806  1.1423
 6212SOL    HW230270   3.075   0.307   7.051 -0.4649  0.5142  1.2486
 6213SOL     OW30271   4.157   3.058   4.823  0.4613 -0.5121  0.1411
 6213SOL    HW130272   4.150   3.108   4.904  0.4922 -0.1851 -0.0589
 6213SOL    HW230273   4.212   2.987   4.855 -0.7416 -1.7705 -0.5384
 6214SOL     OW30274   4.397   0.169  11.840  0.1201 -0.3436  0.4777
 6214SOL    HW130275   4.400   0.124  11.756  0.0332 -2.9348  1.8584
 6214SOL    HW230276   4.470   0.231  11.832  1.1814 -1.7854 -1.0273
 6215SOL     OW30277   2.717   0.281   3.447 -0.3704 -0.1969  0.3006
 6215SOL    HW130278   2.689   0.370   3.467  0.9660  0.6121 -1.3831
 6215SOL    HW230279   2.714   0.284   3.351 -0.4197  1.4496  0.3580
 6216SOL     OW30280   4.661   1.443   1.974  0.5144 -0.2452  0.0061
 6216SOL    HW130281   4.660   1.483   2.061  0.7912  0.7817 -0.4584
 6216SOL    HW230282   4.673   1.523   1.923 -1.6001  0.1602  0.1306
 6217SOL     OW30283   1.317   4.014   5.554  0.7462  0.1601  0.6177
 6217SOL    HW130284   1.295   4.079   5.621  2.5729  1.7051 -0.2629
 6217SOL    HW230285   1.238   4.012   5.501  0.8514  1.3748  0.4225
 6218SOL     OW30286   2.836   4.074   7.481 -0.2965  0.8703  0.6481
 6218SOL    HW130287   2.912   4.026   7.450 -0.7585  0.8483 -0.4515
 6218SOL    HW230288   2.835   4.148   7.421 -0.7204  0.6862  0.4254
 6219SOL     OW30289   3.325   0.588   8.341 -0.1193 -0.3362  0.0904
 6219SOL    HW130290   3.263   0.519   8.317 -0.6809  0.5655 -1.0080
 6219SOL    HW230291   3.403   0.532   8.341 -1.0650 -1.6708  1.0697
 6220SOL     OW30292   3.242   1.520   2.307 -0.1497 -0.1527  0.1141
 6220SOL    HW130293   3.261   1.567   2.388  0.6141 -0.3352  0.0426
 6220SOL    HW230294   3.261   1.594   2.249  0.5943  0.7460  1.5057
 6221SOL     OW30295   3.873   3.777  17.451 -0.1578  0.2922 -0.0828
 6221SOL    HW130296   3.915   3.714  17.393 -1.1377 -1.1921  0.8266
 6221SOL    HW230297   3.815   3.804  17.379  0.8609  0.4676 -0.8388
 6222SOL     OW30298   3.287   1.736   2.134  0.5408  0.0371  0.6732
 6222SOL    HW130299   3.307   1.829   2.122 -2.4158  0.5004 -0.9306
 6222SOL    HW230300   3.329   1.699   2.056 -0.5664 -2.3915  1.2131
 6223SOL     OW30301   3.487   4.281   3.608 -0.3327  0.4260  0.2691
 6223SOL    HW130302   3.426   4.268   3.535 -0.6563 -1.9428  0.9632
 6223SOL    HW230303   3.464   4.372   3.627 -0.8016  0.7872 -2.0634
 6224SOL     OW30304   4.044   3.974  10.496 -0.3784  0.6590  0.5763
 6224SOL    HW130305   4.117   4.035  10.509  1.1119 -0.6450 -1.6784
 6224SOL    HW230306   4.067   3.894  10.543 -2.4839 -0.2184  0.0982
 6225SOL     OW30307   1.696   4.111   0.938  0.7790  0.1424  0.0804
 6225SOL    HW130308   1.706   4.095   0.844 -0.6315 -0.1901 -0.0077
 6225SOL    HW230309   1.683   4.019   0.962  0.6554  0.3777  0.9004
 6226SOL     OW30310   1.210   1.305   1.764 -0.4879  0.1494  0.3162
 6226SOL    HW130311   1.299   1.276   1.744 -0.7447 -0.0691 -0.5601
 6226SOL    HW230312   1.178   1.360   1.691  0.5857  1.2684  0.6962
 6227SOL     OW30313   0.474   4.094  17.505 -0.1587 -0.3554 -0.0795
 6227SOL    HW130314   0.520   4.113  17.423  0.1485  0.9854  0.4001
 6227SOL    HW230315   0.392   4.128  17.469  0.8922  0.5601 -1.6103
 6228SOL     OW30316   3.483   0.653   2.681  0.1560  0.2746 -0.1599
 6228SOL    HW130317   3.546   0.596   2.637  0.5841  0.3130  0.4025
 6228SOL    HW230318   3.417   0.594   2.717  0.7149 -1.1598 -1.4599
 6229SOL     OW30319   4.216   0.159   7.059  0.1284  0.0061  0.2354
 6229SOL    HW130320   4.276   0.097   7.099  0.8489 -0.1634 -1.1011
 6229SOL    HW230321   4.204   0.117   6.973 -1.6929 -0.7331  0.8442
 6230SOL     OW30322   3.582   1.599   2.401 -0.0963  0.6604 -0.3685
 6230SOL    HW130323   3.648   1.665   2.422  1.2879 -1.2239  1.3146
 6230SOL    HW230324   3.536   1.586   2.484  0.6209 -0.9132 -0.2032
 6231SOL     OW30325   0.941   3.426   1.084 -0.1689  0.1122  0.1883
 6231SOL    HW130326   1.032   3.399   1.076 -0.1475  0.2329  0.0235
 6231SOL    HW230327   0.934   3.444   0.990 -3.3892  0.7654  0.5641
 6232SOL     OW30328   1.848   0.575   6.241  0.3021 -0.4575 -0.1568
 6232SOL    HW130329   1.876   0.540   6.156  1.6812  2.3217 -0.8344
 6232SOL    HW230330   1.868   0.493   6.287  0.1765 -0.3134  0.1464
 6233SOL     OW30331   3.068   4.274   9.773 -0.3827  0.1782  0.6656
 6233SOL    HW130332   2.996   4.299   9.715 -1.9505 -1.5360  1.8547
 6233SOL    HW230333   3.025   4.205   9.824 -0.6134 -2.5472 -3.2820
 6234SOL     OW30334   2.536   2.921  16.708  0.2057 -0.3861 -0.2201
 6234SOL    HW130335   2.557   3.014  16.695 -0.2577 -0.3402 -0.6511
 6234SOL    HW230336   2.619   2.873  16.706  0.7897  0.5615  1.3872
 6235SOL     OW30337   0.144   3.306   2.508  0.2604 -0.6002  0.4285
 6235SOL    HW130338   0.120   3.397   2.494  2.4189 -0.2101 -0.7601
 6235SOL    HW230339   0.070   3.258   2.470  0.1439 -1.3063  1.5500
 6236SOL     OW30340   3.775   2.691  16.325 -0.1181  0.1706  0.1893
 6236SOL    HW130341   3.700   2.632  16.315 -1.4976  2.2852 -1.9535
 6236SOL    HW230342   3.850   2.635  16.307 -0.6686 -0.3040 -0.6127
 6237SOL     OW30343   1.335   2.723  13.404 -0.4287 -0.2690 -0.0914
 6237SOL    HW130344   1.295   2.783  13.342  0.3202  0.6686  0.3380
 6237SOL    HW230345   1.423   2.754  13.426 -0.1472 -1.4023  0.4065
 6238SOL     OW30346   1.517   2.285   3.111  0.0665  0.1133  0.3602
 6238SOL    HW130347   1.524   2.364   3.057  1.3977  1.0171  1.8432
 6238SOL    HW230348   1.422   2.282   3.116  0.1893 -1.1580  1.9652
 6239SOL     OW30349   1.043   4.357   5.892 -0.5312  0.7081 -0.0156
 6239SOL    HW130350   0.955   4.373   5.926 -0.4318  1.4358 -0.0913
 6239SOL    HW230351   1.080   4.437   5.930 -0.8013  1.1311 -0.6336
 6240SOL     OW30352   1.362   2.373   4.170 -0.1955 -0.2970 -0.4808
 6240SOL    HW130353   1.348   2.374   4.076  1.8474 -1.3206 -0.7830
 6240SOL    HW230354   1.336   2.464   4.186  0.5918 -0.4457  1.6362
 6241SOL     OW30355   1.753   0.266  12.082 -0.8125  0.1981  0.4623
 6241SOL    HW130356   1.696   0.282  12.007 -1.3549 -0.9678  0.6318
 6241SOL    HW230357   1.823   0.222  12.032 -0.3416 -0.8617  2.0660
 6242SOL     OW30358   1.458   1.181  15.369  0.0743 -0.0994 -0.0148
 6242SOL    HW130359   1.408   1.259  15.389  0.5891  0.2343 -0.0305
 6242SOL    HW230360   1.413   1.148  15.292 -2.0758 -1.7076  1.9331
 6243SOL     OW30361   2.409   1.298   4.707 -0.2138  0.3420  0.7172
 6243SOL    HW130362   2.351   1.358   4.756  0.1781  2.1684 -1.0455
 6243SOL    HW230363   2.492   1.338   4.733  0.6734 -2.3165  1.8897
 6244SOL     OW30364   4.723   0.838  12.380 -0.2198 -0.1818  0.4095
 6244SOL    HW130365   0.074   0.816  12.411 -0.6134 -1.0876  0.8521
 6244SOL    HW230366   0.002   0.902  12.310  2.4860  0.5628  1.7058
 6245SOL     OW30367   4.220   2.051   3.791  0.4293  0.2780  0.2597
 6245SOL    HW130368   4.205   2.026   3.699  0.8366 -0.8831  0.5188
 6245SOL    HW230369   4.213   2.146   3.778 -0.2113  0.1866 -0.0729
 6246SOL     OW30370   1.122   2.320   8.047 -0.6602  0.8244 -0.1380
 6246SOL    HW130371   1.147   2.236   8.088  0.5727  1.7920  1.0924
 6246SOL    HW230372   1.209   2.348   8.019 -0.3315 -0.1249 -0.0749
 6247SOL     OW30373   1.639   4.159   8.493  0.2427  0.3058 -0.3592
 6247SOL    HW130374   1.581   4.138   8.567  2.3911 -0.5015  1.1083
 6247SOL    HW230375   1.623   4.253   8.486 -2.2724  0.0723  2.0628
 6248SOL     OW30376   2.063   4.401   9.350 -0.2651  0.3605  0.3223
 6248SOL    HW130377   2.009   4.450   9.287 -1.4664 -0.9584  0.3280
 6248SOL    HW230378   1.996   4.357   9.402  0.6259 -0.9529  0.3379
 6249SOL     OW30379   0.755   4.212  16.160 -0.3837 -0.2673 -0.1587
 6249SOL    HW130380   0.666   4.208  16.195  0.5079 -1.2531  1.9966
 6249SOL    HW230381   0.739   4.163  16.079 -0.6192 -0.8351  0.2274
 6250SOL     OW30382   1.242   1.912   6.918  0.0758 -0.0976  0.3666
 6250SOL    HW130383   1.160   1.877   6.885  1.2114 -1.6131 -0.8306
 6250SOL    HW230384   1.286   1.921   6.834  0.1683 -1.6834  0.2488
 6251SOL     OW30385   3.465   3.897  16.399 -0.2680 -0.0838 -0.3774
 6251SOL    HW130386   3.540   3.944  16.435 -0.7965  1.0021 -0.6757
 6251SOL    HW230387   3.503   3.823  16.353 -0.7591 -0.7121  0.2295
 6252SOL     OW30388   1.988   0.563  13.233  0.1893 -0.3528  0.0827
 6252SOL    HW130389   2.022   0.507  13.164  1.4297  0.9598 -0.3777
 6252SOL    HW230390   2.049   0.554  13.306 -0.7196 -0.1465  0.8676
 6253SOL     OW30391   1.323   2.714   5.050  0.1964 -0.3420  0.0522
 6253SOL    HW130392   1.291   2.803   5.064 -0.4907 -0.6761  0.5987
 6253SOL    HW230393   1.303   2.680   5.137 -1.8201  2.6973  0.7521
 6254SOL     OW30394   2.396   2.963   2.988 -0.2830 -0.7925  0.1492
 6254SOL    HW130395   2.473   2.970   3.044 -1.9801  0.0955  2.3849
 6254SOL    HW230396   2.326   3.009   3.033  1.4972 -0.1658  2.2671
 6255SOL     OW30397   4.500   3.218  13.475 -0.1428 -0.3697  0.0383
 6255SOL    HW130398   4.543   3.144  13.517  0.1402 -0.6648 -0.7645
 6255SOL    HW230399   4.413   3.217  13.515 -0.3237 -0.4487 -0.3494
 6256SOL     OW30400   2.973   0.774   8.007  0.1670  0.2719  0.0449
 6256SOL    HW130401   2.912   0.814   7.946  1.2663  1.4514 -0.2887
 6256SOL    HW230402   3.042   0.753   7.943 -2.0623 -0.6558 -2.0269
 6257SOL     OW30403   3.068   2.590   5.700  0.0193  0.5924  0.3433
 6257SOL    HW130404   3.023   2.613   5.782 -2.0435  1.0930 -0.9411
 6257SOL    HW230405   2.987   2.569   5.653  0.0392  0.0061  0.5724
 6258SOL     OW30406   0.260   3.381   9.362  0.2280 -0.3887 -0.5167
 6258SOL    HW130407   0.179   3.332   9.376  2.3237 -3.7863 -0.3071
 6258SOL    HW230408   0.317   3.316   9.320  0.5403 -0.4777  0.0476
 6259SOL     OW30409   2.862   0.917   3.656  0.1167 -0.2497  0.4130
 6259SOL    HW130410   2.952   0.920   3.690 -0.1482 -1.8271  1.2508
 6259SOL    HW230411   2.845   1.011   3.647  1.9471 -0.0667 -1.2722
 6260SOL     OW30412   2.660   4.016   9.721 -0.0059  0.0882 -0.5252
 6260SOL    HW130413   2.744   4.024   9.676  0.4807 -0.5162  0.2672
 6260SOL    HW230414   2.658   4.084   9.788 -0.9877  0.2697 -0.7363
 6261SOL     OW30415   2.777   4.194  11.749  0.0048 -0.4326 -0.2704
 6261SOL    HW130416   2.804   4.159  11.664 -0.6800 -1.6571  0.0138
 6261SOL    HW230417   2.799   4.286  11.739  0.3421 -0.2673  2.0489
 6262SOL     OW30418   1.846   2.495  12.866  0.1377  0.0531  0.1630
 6262SOL    HW130419   1.908   2.510  12.938 -0.6860  0.0544  0.8708
 6262SOL    HW230420   1.798   2.416  12.889  1.2970 -1.4235 -2.5280
 6263SOL     OW30421   4.466   1.391   1.692  0.1593  0.1871 -0.2532
 6263SOL    HW130422   4.516   1.450   1.748  0.2458  0.1190 -0.2588
 6263SOL    HW230423   4.518   1.310   1.697  1.4779  0.9204 -2.0961
 6264SOL     OW30424   1.852   2.719  15.746 -0.6030  0.6953  0.1656
 6264SOL    HW130425   1.833   2.651  15.681 -1.8290  0.4521  0.7622
 6264SOL    HW230426   1.927   2.755  15.699 -1.4032 -0.1886 -1.7950
 6265SOL     OW30427   1.144   1.971   5.959 -0.0197 -0.6295 -0.2079
 6265SOL    HW130428   1.142   1.878   5.937 -1.2266 -0.3309 -1.3972
 6265SOL    HW230429   1.194   2.004   5.884 -0.3030 -1.7927 -0.9087
 6266SOL     OW30430   2.665   2.324  10.707  0.1630 -0.1013  0.5599
 6266SOL    HW130431   2.648   2.359  10.620 -0.2028 -2.9957 -0.5120
 6266SOL    HW230432   2.750   2.366  10.723 -1.3319  3.7027 -1.3877
 6267SOL     OW30433   2.183   1.870   6.592  0.2346 -0.3847 -0.5752
 6267SOL    HW130434   2.236   1.901   6.665 -1.6104 -0.8743  0.9911
 6267SOL    HW230435   2.139   1.796   6.635 -0.0171  0.3708  0.4504
 6268SOL     OW30436   3.841   0.724   9.630  0.0206  0.0141 -0.1257
 6268SOL    HW130437   3.826   0.633   9.605  0.2098  0.4560 -1.8565
 6268SOL    HW230438   3.905   0.715   9.700 -1.1357  2.1803  1.2262
 6269SOL     OW30439   4.217   3.981   5.278  0.2789  0.5133  0.3415
 6269SOL    HW130440   4.302   3.939   5.291  1.1083  0.4057 -5.3620
 6269SOL    HW230441   4.156   3.908   5.289  1.8891 -1.0817 -1.2802
 6270SOL     OW30442   3.610   3.497   5.101  0.4546 -0.1662  0.0563
 6270SOL    HW130443   3.680   3.432   5.111 -0.5460 -1.1437  0.7230
 6270SOL    HW230444   3.644   3.559   5.036 -0.9992  0.4842 -0.0747
 6271SOL     OW30445   1.497   1.960   6.264 -0.1089 -0.0854 -0.4553
 6271SOL    HW130446   1.491   1.903   6.188  0.3286 -0.7867  0.0341
 6271SOL    HW230447   1.407   1.990   6.271 -0.6774 -1.7318 -0.7210
 6272SOL     OW30448   3.177   3.123   3.270 -0.5345  0.0694  0.0865
 6272SOL    HW130449   3.159   3.138   3.362 -0.4285 -2.0832  0.4737
 6272SOL    HW230450   3.216   3.035   3.272 -3.5782 -1.3593 -2.4572
 6273SOL     OW30451   4.314   0.795  13.193 -0.1319  0.1015  0.8721
 6273SOL    HW130452   4.260   0.835  13.125 -1.9749 -1.4703  1.4354
 6273SOL    HW230453   4.339   0.711  13.152  1.5154  1.0959 -0.1725
 6274SOL     OW30454   3.232   3.925  16.085  0.4260 -0.3198  0.2945
 6274SOL    HW130455   3.236   3.895  16.176  1.0808  1.9170  0.9955
 6274SOL    HW230456   3.155   3.981  16.098  0.3064 -0.4690  0.2323
 6275SOL     OW30457   0.469   4.580   4.597  0.1334 -0.7560 -0.0214
 6275SOL    HW130458   0.381   4.554   4.625 -0.2908 -0.0389 -0.7059
 6275SOL    HW230459   0.478   4.546   4.508  0.4972 -0.1987 -0.1973
 6276SOL     OW30460   2.594   4.708   8.331 -0.0035  0.1970  0.2564
 6276SOL    HW130461   2.564   0.059   8.307  2.7012  0.6789 -1.3757
 6276SOL    HW230462   2.558   4.707   8.419 -0.6288  0.3295  0.0036
 6277SOL     OW30463   3.816   2.354   8.034 -0.2086  0.5976  0.3137
 6277SOL    HW130464   3.888   2.382   7.976 -1.2633 -2.4380 -2.4983
 6277SOL    HW230465   3.750   2.328   7.969  0.5881 -0.7784  0.0447
 6278SOL     OW30466   0.131   2.870   5.267  0.0193 -0.4540  0.0805
 6278SOL    HW130467   0.179   2.951   5.253 -0.8994 -0.0874 -0.9294
 6278SOL    HW230468   0.200   2.804   5.259  0.6145  0.0376  1.1793
 6279SOL     OW30469   4.582   1.845  17.031 -0.0187 -0.1165 -0.1215
 6279SOL    HW130470   4.629   1.898  16.966  0.2905  0.8496  0.8761
 6279SOL    HW230471   4.647   1.786  17.069  0.9784  0.1025 -1.5067
 6280SOL     OW30472   4.734   2.635   0.475 -0.2119  0.8596  0.0736
 6280SOL    HW130473   0.081   2.672   0.501  0.7688 -1.1379 -0.2947
 6280SOL    HW230474   4.715   2.693   0.402  0.2931  0.9618  0.0258
 6281SOL     OW30475   1.448   2.680  14.121 -0.6395 -0.5225  0.2465
 6281SOL    HW130476   1.457   2.612  14.188 -0.7502 -0.9100 -0.1310
 6281SOL    HW230477   1.537   2.711  14.109 -0.6764  0.5626  2.8939
 6282SOL     OW30478   0.863   2.269   8.424 -0.2499 -0.2395 -0.7377
 6282SOL    HW130479   0.814   2.303   8.499  1.2508  0.1190  0.0701
 6282SOL    HW230480   0.785   2.218   8.398 -1.6327  0.2395  2.4974
 6283SOL     OW30481   1.441   3.270  13.315 -0.0555  0.3072 -0.0437
 6283SOL    HW130482   1.385   3.333  13.361 -2.1298 -0.7048 -1.1608
 6283SOL    HW230483   1.528   3.308  13.322 -0.0048  0.1970 -0.0770
 6284SOL     OW30484   4.681   0.787   2.570 -0.0003 -0.5910  0.2990
 6284SOL    HW130485   4.589   0.793   2.597 -0.3629 -0.3517 -1.0149
 6284SOL    HW230486   4.698   0.880   2.581  1.0343 -0.6628 -0.7694
 6285SOL     OW30487   3.008   1.340   3.844 -0.3200  0.5375  0.1440
 6285SOL    HW130488   3.020   1.400   3.771  2.9314  1.1520  1.2014
 6285SOL    HW230489   3.086   1.354   3.897  1.1907 -0.2074 -1.8639
 6286SOL     OW30490   1.543   0.231   9.464  0.1494 -0.6882  0.0015
 6286SOL    HW130491   1.528   0.189   9.380 -1.4562 -3.5204  1.6810
 6286SOL    HW230492   1.636   0.214   9.477  0.4224  1.4703  0.8534
 6287SOL     OW30493   3.184   2.842   9.988 -0.0667 -0.0615 -0.1555
 6287SOL    HW130494   3.266   2.794  10.000 -0.4609 -0.6616  0.0890
 6287SOL    HW230495   3.192   2.915  10.050 -2.5897 -1.1092  1.3565
 6288SOL     OW30496   3.233   3.711  11.922  0.6871 -0.4332 -0.6782
 6288SOL    HW130497   3.139   3.701  11.910  0.3080  0.6308  1.4274
 6288SOL    HW230498   3.243   3.727  12.016 -0.3269 -0.7726 -0.5141
 6289SOL     OW30499   1.350   4.049   1.105  0.1756  0.0127 -0.0717
 6289SOL    HW130500   1.278   4.094   1.151  0.4859  0.1349  0.2940
 6289SOL    HW230501   1.406   4.118   1.071 -2.6084  1.4409 -1.7900
 6290SOL     OW30502   3.573   0.673   5.304 -0.8673  0.0507  0.2939
 6290SOL    HW130503   3.525   0.678   5.220  1.2769 -0.5080 -0.9594
 6290SOL    HW230504   3.602   0.582   5.304 -1.4850 -0.1499 -0.9539
 6291SOL     OW30505   3.062   1.287   3.245 -0.1991  0.1204 -0.0023
 6291SOL    HW130506   3.034   1.325   3.329 -2.3060  1.0371 -1.1358
 6291SOL    HW230507   3.119   1.359   3.220 -1.0300 -0.0843 -2.5055
 6292SOL     OW30508   4.328   3.643   1.689  0.3553 -0.1959 -0.1174
 6292SOL    HW130509   4.311   3.575   1.754 -0.4073 -2.6272 -2.8523
 6292SOL    HW230510   4.281   3.614   1.610 -0.6948 -0.5765  0.6453
 6293SOL     OW30511   3.206   1.586   0.024 -0.5114  0.2391 -0.2537
 6293SOL    HW130512   3.142   1.583   0.094  0.2875 -1.2692  0.4147
 6293SOL    HW230513   3.165   1.614  17.690  2.9415 -1.4711 -2.5793
 6294SOL     OW30514   0.091   2.992   7.230 -0.1629  0.5544 -0.2379
 6294SOL    HW130515   0.126   2.907   7.258 -2.2466 -0.4316 -0.6046
 6294SOL    HW230516   0.069   3.028   7.316  0.8729  1.3841 -0.3327
 6295SOL     OW30517   1.747   2.168   7.469 -0.6833 -0.1760  0.6093
 6295SOL    HW130518   1.780   2.079   7.457  0.4457  0.1947  0.9002
 6295SOL    HW230519   1.824   2.223   7.459 -0.8176  0.1697  1.4611
 6296SOL     OW30520   1.148   0.550   3.472  0.4141  0.3334  0.1669
 6296SOL    HW130521   1.161   0.512   3.559  2.0227 -1.1786 -0.7198
 6296SOL    HW230522   1.136   0.638   3.507 -2.0803  0.7047 -1.5767
 6297SOL     OW30523   3.694   1.775  14.954  0.0794  0.2578 -0.3801
 6297SOL    HW130524   3.776   1.815  14.924  1.3492 -0.8369  1.6723
 6297SOL    HW230525   3.676   1.825  15.034 -0.4028  0.0790 -0.3793
 6298SOL     OW30526   3.805   1.314   3.195  0.3970  0.2142 -0.6423
 6298SOL    HW130527   3.896   1.307   3.226 -0.2065 -2.1481  0.6087
 6298SOL    HW230528   3.775   1.224   3.211  0.6337  0.2681  0.1305
 6299SOL     OW30529   4.378   1.921   3.090  0.4693  0.2854  0.3675
 6299SOL    HW130530   4.310   1.988   3.093 -1.6307 -1.8877  1.2788
 6299SOL    HW230531   4.417   1.945   3.006 -1.1014  1.1399 -0.1120
 6300SOL     OW30532   1.705   1.295   1.622 -0.8698  0.1742  0.7879
 6300SOL    HW130533   1.785   1.303   1.674 -0.2067 -1.0497 -0.0440
 6300SOL    HW230534   1.674   1.385   1.629 -0.7906  0.1742  1.1366
 6301SOL     OW30535   2.420   2.408  12.325 -0.1365  0.1589 -0.7986
 6301SOL    HW130536   2.326   2.422  12.335 -0.2099 -1.3052  0.4741
 6301SOL    HW230537   2.459   2.459  12.396 -0.6105 -0.1083 -0.3476
 6302SOL     OW30538   0.864   1.183  12.853 -0.1769 -0.0265 -1.0060
 6302SOL    HW130539   0.865   1.130  12.932 -0.0470 -0.1240 -1.0714
 6302SOL    HW230540   0.944   1.234  12.870  1.9405 -3.5008 -0.6208
 6303SOL     OW30541   0.167   2.893  16.583 -0.4647  0.6457  0.5899
 6303SOL    HW130542   0.174   2.806  16.622 -1.8326  1.5865  2.9477
 6303SOL    HW230543   0.153   2.947  16.660 -1.5766  0.7905  0.2956
 6304SOL     OW30544   1.731   1.667   5.169 -0.3751  0.6105  0.1132
 6304SOL    HW130545   1.704   1.576   5.184 -1.8413  0.8164 -1.3242
 6304SOL    HW230546   1.652   1.704   5.129  0.9659  0.8853 -2.2313
 6305SOL     OW30547   3.797   0.660   3.177  0.6678 -0.0130 -0.0447
 6305SOL    HW130548   3.782   0.732   3.115 -0.1035 -1.8956 -2.0630
 6305SOL    HW230549   3.846   0.702   3.248 -0.5429  1.6313 -0.1473
 6306SOL     OW30550   4.249   4.265   5.323  0.2284 -0.3158 -0.3877
 6306SOL    HW130551   4.252   4.178   5.284 -2.2122  0.0958 -1.4773
 6306SOL    HW230552   4.285   4.317   5.251 -1.9137  0.7488 -0.6834
 6307SOL     OW30553   3.997   3.387  11.606 -0.0721  0.1275 -0.2993
 6307SOL    HW130554   3.912   3.382  11.648  0.6770  0.2275  1.2283
 6307SOL    HW230555   3.995   3.300  11.566  1.6526  0.9225 -2.1711
 6308SOL     OW30556   1.798   4.642   9.438  0.0367 -0.3237 -0.6133
 6308SOL    HW130557   1.809   4.547   9.439 -2.0057 -0.5709 -0.5871
 6308SOL    HW230558   1.884   4.654   9.399 -1.0427 -2.1473 -3.5606
 6309SOL     OW30559   3.864   0.385  17.378 -0.0797 -0.1198 -0.7462
 6309SOL    HW130560   3.863   0.440  17.299 -1.1943  1.7745  0.5997
 6309SOL    HW230561   3.776   0.381  17.414  0.6632  2.8791  1.3897
 6310SOL     OW30562   4.112   3.674   2.128 -0.2997  0.1050  0.3724
 6310SOL    HW130563   4.092   3.690   2.220  1.6606  1.3955  0.5960
 6310SOL    HW230564   4.126   3.580   2.129  0.0752  0.1592  0.6656
 6311SOL     OW30565   4.411   4.637   5.559  0.2236  0.5538  0.3617
 6311SOL    HW130566   4.476   4.596   5.501  1.9681  2.0303  1.2669
 6311SOL    HW230567   4.345   4.666   5.496  2.3767 -1.2805 -2.7632
 6312SOL     OW30568   4.603   2.555  11.310  0.1007  0.5469 -0.0250
 6312SOL    HW130569   4.685   2.506  11.305  1.6961  3.4281 -2.4922
 6312SOL    HW230570   4.600   2.597  11.224  2.5701  0.8539  0.0228
 6313SOL     OW30571   3.483   1.822   2.861 -0.0040  0.1749  0.0414
 6313SOL    HW130572   3.450   1.753   2.804 -2.5130 -0.5493  2.3759
 6313SOL    HW230573   3.455   1.783   2.944  0.8351 -0.8057 -0.1395
 6314SOL     OW30574   2.216   3.944   7.944  0.6003 -0.2490 -0.6879
 6314SOL    HW130575   2.215   3.940   7.848 -0.6509 -0.5208 -0.6570
 6314SOL    HW230576   2.295   3.998   7.953 -1.3700  2.7835 -1.3877
 6315SOL     OW30577   2.819   3.820   2.779  0.1876 -0.3235 -0.1562
 6315SOL    HW130578   2.859   3.904   2.799 -0.0524 -0.3980  0.6549
 6315SOL    HW230579   2.732   3.830   2.818 -0.2785 -0.2030 -1.2344
 6316SOL     OW30580   0.848   1.617  16.331  0.2852 -0.3977 -0.4723
 6316SOL    HW130581   0.868   1.639  16.422  1.2289 -0.6430 -0.6225
 6316SOL    HW230582   0.881   1.694  16.284 -0.1811  0.1908  0.1646
 6317SOL     OW30583   1.916   2.731   3.822  0.5909  0.1049  0.3932
 6317SOL    HW130584   1.909   2.666   3.891 -1.2402  1.0481  1.0973
 6317SOL    HW230585   2.009   2.718   3.801  0.6585  0.2507  0.6004
 6318SOL     OW30586   1.970   1.184  14.528  0.3479  0.0718  0.3225
 6318SOL    HW130587   1.976   1.260  14.587  1.4153 -1.5636  2.3143
 6318SOL    HW230588   1.948   1.111  14.586 -0.3070 -1.0016 -1.2866
 6319SOL     OW30589   3.981   0.433   6.275  0.0911 -0.7293 -0.0439
 6319SOL    HW130590   3.963   0.482   6.195  1.9868  0.0917  0.0460
 6319SOL    HW230591   3.969   0.346   6.237  0.2512 -0.7282 -0.0938
 6320SOL     OW30592   4.006   4.008   2.521  0.1780 -0.5528 -0.1177
 6320SOL    HW130593   4.070   4.068   2.483  0.1486 -0.8510 -0.6419
 6320SOL    HW230594   4.001   4.048   2.608  0.6146 -2.7750  0.9329
 6321SOL     OW30595   4.340   1.783   8.010 -0.1238 -0.0582 -0.3670
 6321SOL    HW130596   4.258   1.759   7.967 -0.3094  1.9189 -1.1292
 6321SOL    HW230597   4.339   1.708   8.069 -2.4427 -0.8022 -1.3764
 6322SOL     OW30598   3.745   3.350   1.822  0.5060  0.2060  0.4714
 6322SOL    HW130599   3.680   3.417   1.799  1.8743  1.3868  0.0157
 6322SOL    HW230600   3.825   3.374   1.777 -0.2199  2.1695  0.2129
 6323SOL     OW30601   2.305   3.291   3.675  0.4533  0.1034  0.1876
 6323SOL    HW130602   2.286   3.217   3.732  1.9282  0.5406  1.2230
 6323SOL    HW230603   2.310   3.258   3.585  0.4417  0.3078  0.1108
 6324SOL     OW30604   1.335   1.250   0.356 -0.1478 -0.0112  0.2663
 6324SOL    HW130605   1.274   1.272   0.285  2.4017 -1.5188 -2.3993
 6324SOL    HW230606   1.294   1.288   0.434  1.1818 -0.1404  1.0276
 6325SOL     OW30607   0.310   1.038   5.794  0.5531 -0.4313  0.0423
 6325SOL    HW130608   0.259   1.042   5.712  1.5719 -0.8118 -0.6056
 6325SOL    HW230609   0.392   1.083   5.774  0.6266  0.0469  1.4463
 6326SOL     OW30610   0.825   0.870  12.039 -0.1271  0.0286  0.3506
 6326SOL    HW130611   0.792   0.880  11.950  1.1775 -1.2611 -0.2796
 6326SOL    HW230612   0.780   0.935  12.094  1.1923 -0.3854  1.9451
 6327SOL     OW30613   1.194   3.049   9.828  0.5398  0.9439  0.0209
 6327SOL    HW130614   1.148   3.051   9.912  0.0173  0.9528 -0.2631
 6327SOL    HW230615   1.286   3.038   9.851  0.8709 -0.4489 -2.0986
 6328SOL     OW30616   3.493   2.143   4.653  0.0779  0.2652 -0.0862
 6328SOL    HW130617   3.451   2.072   4.605  0.5997  0.1938 -0.4345
 6328SOL    HW230618   3.530   2.198   4.584  0.0976  0.9898  0.4957
 6329SOL     OW30619   1.392   0.544   4.736 -0.4454 -0.2446 -0.1815
 6329SOL    HW130620   1.443   0.494   4.799 -1.1878  0.6073  1.0791
 6329SOL    HW230621   1.333   0.471   4.716  0.4832 -0.2149 -3.1055
 6330SOL     OW30622   0.552   1.973  12.111  0.1750 -0.1678  0.0304
 6330SOL    HW130623   0.461   2.003  12.104  0.5137  1.0861  1.0456
 6330SOL    HW230624   0.557   1.918  12.190 -0.8378 -1.8046 -1.0388
 6331SOL     OW30625   3.246   3.573   4.211  0.5216 -0.4918 -0.5653
 6331SOL    HW130626   3.152   3.575   4.225  0.6984  1.6017  0.2111
 6331SOL    HW230627   3.260   3.646   4.271 -0.2110 -0.2265 -0.7237
 6332SOL     OW30628   0.622   2.367   5.735 -0.5993  0.1756  0.2926
 6332SOL    HW130629   0.712   2.397   5.733 -0.0710 -1.3852  0.6387
 6332SOL    HW230630   0.571   2.448   5.731  0.0826  0.6509  1.3298
 6333SOL     OW30631   1.955   3.024   0.329 -0.3040 -0.2236  0.5864
 6333SOL    HW130632   1.878   3.076   0.351  0.6944  0.5464  2.2450
 6333SOL    HW230633   2.008   3.080   0.272  0.3521 -1.1574  0.2712
 6334SOL     OW30634   0.913   3.083   3.740  0.4672  0.6319  0.3242
 6334SOL    HW130635   0.846   3.054   3.802 -1.4538  1.3186 -1.4424
 6334SOL    HW230636   0.870   3.159   3.700 -1.0204  0.6829  2.0418
 6335SOL     OW30637   4.210   0.399   5.270  0.2470  0.2506  0.3124
 6335SOL    HW130638   4.165   0.350   5.201  0.1903  1.6329 -0.6066
 6335SOL    HW230639   4.226   0.475   5.215  1.0922 -0.9852 -1.1414
 6336SOL     OW30640   3.601   1.807   4.389 -0.0906 -0.2458 -0.6508
 6336SOL    HW130641   3.570   1.891   4.421  1.4188 -0.8936  2.5160
 6336SOL    HW230642   3.691   1.824   4.360 -1.1779  1.8326 -2.8288
 6337SOL     OW30643   3.310   2.029   1.985 -0.6585  0.5331 -0.0518
 6337SOL    HW130644   3.380   1.965   1.970 -1.0538 -0.6482  3.1415
 6337SOL    HW230645   3.238   2.007   1.927 -0.8685  1.8223 -0.2823
 6338SOL     OW30646   2.302   2.493   5.398 -0.4306 -0.3836  0.9520
 6338SOL    HW130647   2.325   2.460   5.486 -0.9057  1.0129  1.5932
 6338SOL    HW230648   2.245   2.422   5.368  1.6501 -2.0917  1.0098
 6339SOL     OW30649   3.667   0.651   9.108  0.1030  0.5429  0.1031
 6339SOL    HW130650   3.734   0.608   9.161 -1.4576 -0.0352  1.6185
 6339SOL    HW230651   3.715   0.724   9.069  1.3817  0.5095  1.6054
 6340SOL     OW30652   2.239   4.418   6.581 -0.2723 -0.0245 -0.0619
 6340SOL    HW130653   2.293   4.342   6.559 -0.2641 -0.0543  0.0597
 6340SOL    HW230654   2.174   4.418   6.511  1.2327 -0.5882 -1.4387
 6341SOL     OW30655   2.837   0.777   3.060  0.1206  0.1330  0.0396
 6341SOL    HW130656   2.766   0.839   3.049  1.4989  1.5584 -0.8816
 6341SOL    HW230657   2.917   0.825   3.081  1.9426 -3.3885  1.2823
 6342SOL     OW30658   2.737   0.782   1.894 -0.0042 -0.1138  0.2575
 6342SOL    HW130659   2.819   0.791   1.943  0.4482 -1.4876 -0.2480
 6342SOL    HW230660   2.740   0.687   1.883 -1.8810 -0.3779  2.0941
 6343SOL     OW30661   2.591   3.958   5.840  0.2600 -0.0555 -0.2031
 6343SOL    HW130662   2.553   4.046   5.849  1.0850 -0.1039  3.8216
 6343SOL    HW230663   2.521   3.903   5.806 -1.0553  0.5759  1.4245
 6344SOL     OW30664   0.381   4.689   9.564 -0.1521 -0.4208  0.3303
 6344SOL    HW130665   0.372   4.660   9.655 -0.2697 -0.8490  0.1853
 6344SOL    HW230666   0.346   4.615   9.513 -0.1845 -0.6875  0.7353
 6345SOL     OW30667   1.662   3.038  15.451 -0.0411  0.9685  0.1737
 6345SOL    HW130668   1.726   3.001  15.389 -0.6621  0.2024 -0.0129
 6345SOL    HW230669   1.675   3.132  15.439 -2.7906  1.3624  0.4201
 6346SOL     OW30670   0.707   4.587   5.652 -0.1321  0.5143 -0.0757
 6346SOL    HW130671   0.705   4.493   5.673  1.2401  0.8771  1.6246
 6346SOL    HW230672   0.795   4.615   5.676  0.2769  0.1328 -1.1525
 6347SOL     OW30673   0.632   4.010   6.106 -0.0969 -0.0384 -0.1381
 6347SOL    HW130674   0.701   3.952   6.074  0.0723  0.6680 -1.0602
 6347SOL    HW230675   0.564   3.947   6.131  0.0074  1.0208  2.8692
 6348SOL     OW30676   4.222   2.064   8.899  0.0049 -0.2318  0.0721
 6348SOL    HW130677   4.127   2.067   8.910  0.2698  1.6905  1.8115
 6348SOL    HW230678   4.250   2.141   8.849 -1.1368  1.1113  1.5070
 6349SOL     OW30679   0.919   3.677   7.119  0.3368  0.8664  0.6289
 6349SOL    HW130680   0.825   3.682   7.100  0.1820 -0.6320  1.0369
 6349SOL    HW230681   0.910   3.670   7.214  0.9188  1.2292  0.7154
 6350SOL     OW30682   4.495   1.288   6.684  0.3300 -0.1881  0.1909
 6350SOL    HW130683   4.438   1.233   6.631  1.4327 -0.1563 -1.0349
 6350SOL    HW230684   4.482   1.370   6.636  0.9783  0.2543  0.7701
 6351SOL     OW30685   2.992   1.867  17.046 -0.2596 -0.1165  0.2827
 6351SOL    HW130686   2.968   1.911  16.964  0.4040  4.3173  2.4583
 6351SOL    HW230687   2.915   1.816  17.071 -0.1978 -0.2670  0.1644
 6352SOL     OW30688   0.334   1.533   5.545  0.8041 -0.3270 -0.0577
 6352SOL    HW130689   0.254   1.479   5.547  0.3704  0.2516 -1.3144
 6352SOL    HW230690   0.371   1.530   5.457  0.4696  2.6327 -0.2968
 6353SOL     OW30691   2.871   1.908  14.507 -0.3733 -0.0284  0.0546
 6353SOL    HW130692   2.915   1.825  14.525 -0.4454 -0.7752 -3.1601
 6353SOL    HW230693   2.924   1.976  14.549  2.1081  0.4990 -3.9263
 6354SOL     OW30694   3.067   0.543   5.459 -0.2950 -0.1325  0.0998
 6354SOL    HW130695   3.019   0.463   5.481  1.4354 -1.0332  0.5938
 6354SOL    HW230696   3.153   0.528   5.499 -0.4208 -1.8532 -0.2421
 6355SOL     OW30697   1.869   4.466  16.472 -0.7756 -0.4847  0.0667
 6355SOL    HW130698   1.774   4.477  16.460 -0.7270 -0.8659 -0.6810
 6355SOL    HW230699   1.906   4.488  16.387 -1.5588 -1.0625 -0.4318
 6356SOL     OW30700   2.833   0.523  16.004  0.3914 -0.1142 -0.2974
 6356SOL    HW130701   2.911   0.576  16.021 -1.2470  1.8041  1.3230
 6356SOL    HW230702   2.789   0.589  15.949 -2.9637 -1.5799  0.6128
 6357SOL     OW30703   3.513   1.861   1.919 -0.1665 -0.4851  0.3775
 6357SOL    HW130704   3.528   1.771   1.889  1.3781 -0.9245  2.4979
 6357SOL    HW230705   3.600   1.897   1.901 -0.4627 -0.7695 -1.6902
 6358SOL     OW30706   1.037   0.508   8.625  0.4464 -0.1642  0.2743
 6358SOL    HW130707   1.045   0.523   8.531 -2.3657  0.2416  0.1215
 6358SOL    HW230708   0.977   0.433   8.626  0.7799 -0.4739 -2.5757
 6359SOL     OW30709   4.632   2.613  13.160  0.1193 -0.7457  0.2150
 6359SOL    HW130710   4.634   2.684  13.224  0.2378  1.1163 -1.8579
 6359SOL    HW230711   4.604   2.538  13.212  0.7372 -1.3962 -0.3943
 6360SOL     OW30712   3.777   0.775   7.932  0.1741 -0.2138  0.0303
 6360SOL    HW130713   3.703   0.820   7.892  0.4223  1.3852  1.3989
 6360SOL    HW230714   3.856   0.799   7.883 -0.5258 -2.1532 -2.0491
 6361SOL     OW30715   4.609   4.531   7.098 -0.3676 -0.6344  0.1808
 6361SOL    HW130716   4.682   4.472   7.117 -1.0447 -1.7421 -0.7083
 6361SOL    HW230717   4.539   4.495   7.152 -2.3844 -0.5539 -2.3845
 6362SOL     OW30718   4.480   4.238   4.489 -0.5706  0.2606 -0.3546
 6362SOL    HW130719   4.446   4.149   4.496 -0.8411  0.2480 -1.8889
 6362SOL    HW230720   4.483   4.275   4.577 -1.3007 -0.9649  0.1826
 6363SOL     OW30721   2.610   3.289   1.608  0.0443  0.7607  0.3138
 6363SOL    HW130722   2.625   3.269   1.516  2.5418 -2.3579  1.4022
 6363SOL    HW230723   2.628   3.203   1.647  1.6200  0.4367 -1.1189
 6364SOL     OW30724   1.149   2.621   5.270 -0.0793 -0.4582 -0.0200
 6364SOL    HW130725   1.217   2.564   5.308 -0.6194 -1.5130 -0.6456
 6364SOL    HW230726   1.141   2.673   5.350 -3.8074 -0.1761 -0.5984
 6365SOL     OW30727   2.554   4.459   5.338 -0.5779  0.1871  0.0137
 6365SOL    HW130728   2.546   4.526   5.270 -0.0132  1.4086  1.1547
 6365SOL    HW230729   2.642   4.483   5.368 -1.1729  2.2430  0.1116
 6366SOL     OW30730   1.880   0.395   3.303 -0.0525  0.1617 -0.0561
 6366SOL    HW130731   1.872   0.403   3.208  1.8261 -0.3271 -0.2547
 6366SOL    HW230732   1.891   0.488   3.321  2.0739 -0.1991  0.4206
 6367SOL     OW30733   3.536   0.546  10.092 -0.4383 -0.2135  0.9782
 6367SOL    HW130734   3.523   0.557   9.998  0.4183  1.5725  1.0601
 6367SOL    HW230735   3.524   0.451  10.101  2.7724 -0.5936  1.4410
 6368SOL     OW30736   3.542   0.796   5.650 -0.8242  0.2108 -0.0544
 6368SOL    HW130737   3.612   0.740   5.684  0.6806  1.7095 -0.6752
 6368SOL    HW230738   3.519   0.860   5.719  0.4442  0.0376  0.5223
 6369SOL     OW30739   0.641   0.029  13.988 -0.4982 -0.0634 -0.2272
 6369SOL    HW130740   0.726   0.072  13.977 -0.3006 -1.0938 -2.6590
 6369SOL    HW230741   0.651   4.683  13.943  1.1615  0.7986 -1.4676
 6370SOL     OW30742   2.144   2.642   5.656  0.4665  0.1432 -0.0965
 6370SOL    HW130743   2.084   2.643   5.731  0.5346  1.5643 -0.0644
 6370SOL    HW230744   2.096   2.606   5.582  1.3349 -0.3230 -0.4290
 6371SOL     OW30745   3.820   0.266  12.927  0.2881 -0.5208  0.5145
 6371SOL    HW130746   3.766   0.249  13.004  1.3255  0.9172  1.5442
 6371SOL    HW230747   3.748   0.274  12.864 -0.8993  1.2269  2.1303
 6372SOL     OW30748   1.377   0.569  13.563  0.4374 -0.1957  0.1978
 6372SOL    HW130749   1.286   0.597  13.568  0.7186  0.5619  1.0276
 6372SOL    HW230750   1.420   0.645  13.601  2.2620 -1.2621  0.2563
 6373SOL     OW30751   1.250   0.012  12.528  0.1513 -0.1095 -0.6328
 6373SOL    HW130752   1.235   0.054  12.613 -0.0898 -1.7719  0.1618
 6373SOL    HW230753   1.241   0.089  12.474  1.6306 -0.0427 -0.7792
 6374SOL     OW30754   0.097   4.723   6.329 -0.1556 -0.5068 -0.0073
 6374SOL    HW130755   0.145   4.699   6.250 -1.8142 -0.3287 -1.0717
 6374SOL    HW230756   0.081   0.077   6.304 -1.3409 -1.0081 -1.1092
 6375SOL     OW30757   4.350   3.070   9.236 -0.6898  0.4402 -0.2683
 6375SOL    HW130758   4.297   3.042   9.311  0.3635  0.2803  0.4036
 6375SOL    HW230759   4.318   3.152   9.199  0.7512  2.1095  2.1494
 6376SOL     OW30760   1.849   1.331   8.288 -0.3539  0.0216  0.1567
 6376SOL    HW130761   1.837   1.396   8.357  1.3850 -0.8967  1.3309
 6376SOL    HW230762   1.761   1.335   8.251 -0.3447  5.8290  0.8443
 6377SOL     OW30763   0.344   3.504   4.846 -0.2393  0.5134 -0.1294
 6377SOL    HW130764   0.401   3.481   4.772 -0.0930 -1.4500  0.5999
 6377SOL    HW230765   0.263   3.525   4.800 -0.0940 -0.8963 -1.0053
 6378SOL     OW30766   2.393   2.021  13.915  0.5707 -0.2523  0.1518
 6378SOL    HW130767   2.394   1.948  13.852 -3.5056  0.2686 -0.5242
 6378SOL    HW230768   2.474   2.002  13.961  1.1340  2.1779  0.1155
 6379SOL     OW30769   4.020   1.783   5.454  0.6682 -0.9870 -0.0018
 6379SOL    HW130770   4.063   1.830   5.383  0.8370  2.1114  2.1943
 6379SOL    HW230771   3.980   1.864   5.485  1.3565 -1.0132  0.9339
 6380SOL     OW30772   0.759   1.101   0.589  0.0925  0.3166  0.0082
 6380SOL    HW130773   0.706   1.078   0.665  2.8505  0.5075  1.9824
 6380SOL    HW230774   0.835   1.137   0.635  0.9693 -0.6152 -0.6941
 6381SOL     OW30775   4.505   3.478   3.535 -0.4240 -0.4496 -0.3685
 6381SOL    HW130776   4.534   3.549   3.593  2.5930 -0.9254 -1.3065
 6381SOL    HW230777   4.430   3.513   3.487 -0.2611  0.3749 -0.0320
 6382SOL     OW30778   4.572   1.299   4.207 -0.0338 -0.8133  0.5122
 6382SOL    HW130779   4.576   1.273   4.115  0.4298  0.5566  0.1466
 6382SOL    HW230780   4.644   1.252   4.249  0.7991  1.1771  1.2923
 6383SOL     OW30781   2.655   2.613   3.182  0.9147  0.1352  0.2017
 6383SOL    HW130782   2.725   2.650   3.235  0.1809 -1.0856  1.9984
 6383SOL    HW230783   2.682   2.623   3.090 -0.8930 -4.6382 -0.8785
 6384SOL     OW30784   2.656   3.411   5.364  0.5947 -0.0389 -0.0320
 6384SOL    HW130785   2.689   3.403   5.453 -2.1128 -0.7369  0.9165
 6384SOL    HW230786   2.564   3.386   5.370  0.6982  0.0287  1.6625
 6385SOL     OW30787   0.422   2.916  10.623 -0.5839 -0.6194 -0.0843
 6385SOL    HW130788   0.350   2.921  10.687 -0.2336  0.8238  0.2009
 6385SOL    HW230789   0.438   2.823  10.637 -0.0596 -0.2959  1.5464
 6386SOL     OW30790   2.665   1.336   6.111 -0.3922  0.0810  0.7746
 6386SOL    HW130791   2.653   1.426   6.142 -3.4880 -0.1045  0.1111
 6386SOL    HW230792   2.705   1.352   6.026 -3.5826 -1.7400 -1.0379
 6387SOL     OW30793   3.344   4.243   3.872 -0.1034 -0.6773 -0.2150
 6387SOL    HW130794   3.297   4.315   3.830 -0.0386 -0.2683  0.4088
 6387SOL    HW230795   3.431   4.282   3.878 -0.3468 -0.2316  0.5168
 6388SOL     OW30796   2.176   0.271  15.665 -0.2800 -0.0477  0.0264
 6388SOL    HW130797   2.269   0.246  15.667 -0.3389 -0.1363  1.8259
 6388SOL    HW230798   2.154   0.241  15.577  0.7544 -0.8742  0.0437
 6389SOL     OW30799   3.191   3.349   7.048  0.3422 -0.1785 -0.2439
 6389SOL    HW130800   3.253   3.289   7.007 -0.9495 -1.3143 -0.5085
 6389SOL    HW230801   3.164   3.302   7.127  1.1492 -1.5401 -0.7878
 6390SOL     OW30802   0.556   3.863   2.512 -0.2228 -0.6509  0.4625
 6390SOL    HW130803   0.651   3.876   2.503 -0.0230 -1.6445  1.1018
 6390SOL    HW230804   0.524   3.940   2.465 -0.5445  0.5896  2.7206
 6391SOL     OW30805   1.061   0.310   7.769  0.2472 -0.3552  0.0440
 6391SOL    HW130806   0.994   0.357   7.720 -0.6473  0.2230  1.8441
 6391SOL    HW230807   1.145   0.351   7.750  0.2138 -0.4521 -0.3244
 6392SOL     OW30808   2.741   3.379   5.106  0.3144  0.1033 -0.7168
 6392SOL    HW130809   2.694   3.425   5.175 -1.4689  1.2178 -2.6459
 6392SOL    HW230810   2.791   3.311   5.151 -0.0944  0.0024 -0.4153
 6393SOL     OW30811   1.668   3.205   7.974 -0.1953 -0.8495 -0.3611
 6393SOL    HW130812   1.646   3.200   7.881  0.6180 -0.7961 -0.5515
 6393SOL    HW230813   1.697   3.115   7.980  1.0758 -0.4130 -0.0298
 6394SOL     OW30814   0.074   1.596   3.506 -0.0441  0.0540 -1.4213
 6394SOL    HW130815   0.023   1.597   3.425 -1.2578 -1.1813 -0.6875
 6394SOL    HW230816   0.012   1.597   3.579  0.6279  0.0417 -0.8516
 6395SOL     OW30817   2.836   3.935   2.145 -0.4165 -0.3388  0.0778
 6395SOL    HW130818   2.817   3.844   2.121 -0.9577 -0.2310  0.1142
 6395SOL    HW230819   2.902   3.954   2.078 -0.6330 -0.1532 -0.0805
 6396SOL     OW30820   2.490   4.633   6.141  0.2916  0.0666 -0.0995
 6396SOL    HW130821   2.494   4.601   6.051 -0.1473  1.8962 -0.7585
 6396SOL    HW230822   2.552   4.566   6.171  1.9479  2.2093  1.2967
 6397SOL     OW30823   2.187   4.247   3.740  0.1011  0.0271  0.0991
 6397SOL    HW130824   2.249   4.272   3.671  1.6571 -2.6628  0.5043
 6397SOL    HW230825   2.186   4.315   3.807  0.6495 -0.9545  1.1117
 6398SOL     OW30826   0.575   2.296   7.686  0.0048  0.0280 -0.0847
 6398SOL    HW130827   0.640   2.363   7.665 -2.1898  2.0701 -0.3622
 6398SOL    HW230828   0.499   2.350   7.666 -0.9598 -1.6334 -0.8931
 6399SOL     OW30829   0.805   2.318   7.356  0.2227  0.1630 -0.0666
 6399SOL    HW130830   0.851   2.332   7.273 -1.5204  1.4713 -0.8038
 6399SOL    HW230831   0.876   2.297   7.417  1.1648  0.5378 -1.0178
 6400SOL     OW30832   2.970   1.573   0.175  0.0068  0.1700  0.2631
 6400SOL    HW130833   2.915   1.651   0.161  1.0503  0.7413 -0.6127
 6400SOL    HW230834   2.953   1.542   0.264  1.0336 -1.4723 -0.1078
 6401SOL     OW30835   2.445   4.159  14.485 -0.1867 -0.4168  0.1291
 6401SOL    HW130836   2.501   4.197  14.552  2.4325 -1.1048 -1.6958
 6401SOL    HW230837   2.359   4.155  14.526  0.0514  0.6025  0.7148
 6402SOL     OW30838   0.715   4.422   4.609 -0.5892 -0.3458  0.4813
 6402SOL    HW130839   0.713   4.516   4.591 -0.8411 -0.3876  0.3002
 6402SOL    HW230840   0.662   4.425   4.688  1.7342  1.7274  1.9799
 6403SOL     OW30841   1.712   4.174   8.122 -0.0574  0.1045 -0.5547
 6403SOL    HW130842   1.677   4.101   8.173 -2.3183 -0.0869 -2.3390
 6403SOL    HW230843   1.775   4.208   8.185 -0.4315 -0.8633  0.3335
 6404SOL     OW30844   0.528   3.921   7.346  0.2220  0.0532  0.4509
 6404SOL    HW130845   0.593   3.853   7.328 -0.0889 -0.5048  1.4546
 6404SOL    HW230846   0.530   3.912   7.441  2.7059 -2.8762  0.1190
 6405SOL     OW30847   3.379   3.519   2.899 -0.4656 -0.0607  0.1949
 6405SOL    HW130848   3.461   3.565   2.920 -1.2782  2.9462 -3.1352
 6405SOL    HW230849   3.317   3.590   2.915 -2.8484 -1.7449 -1.6567
 6406SOL     OW30850   2.304   3.791  15.524 -0.2046 -0.5378 -0.1264
 6406SOL    HW130851   2.225   3.764  15.572  0.7890 -0.8274  1.3557
 6406SOL    HW230852   2.361   3.758  15.593 -1.6832 -2.7076  0.0972
 6407SOL     OW30853   3.347   3.363   9.484 -0.0254  0.0253  0.5116
 6407SOL    HW130854   3.286   3.320   9.424 -0.0355  0.9966 -0.1739
 6407SOL    HW230855   3.325   3.332   9.571  1.2514  0.4776  0.9964
 6408SOL     OW30856   0.846   4.189  10.056  0.3721  0.4341  0.0508
 6408SOL    HW130857   0.866   4.205   9.964  1.8327  1.9943  0.6420
 6408SOL    HW230858   0.919   4.224  10.108 -2.1194  2.3731  2.2248
 6409SOL     OW30859   4.039   1.381   8.579  0.0954  0.3269  0.3536
 6409SOL    HW130860   3.951   1.378   8.540  0.0852 -0.3385  0.4243
 6409SOL    HW230861   4.031   1.463   8.629 -0.1895  2.0594 -2.5625
 6410SOL     OW30862   2.060   2.455   1.614  0.2189 -0.0367  0.0463
 6410SOL    HW130863   2.145   2.418   1.638  0.9177  0.3588 -1.8655
 6410SOL    HW230864   2.002   2.427   1.685  0.7249 -0.1492  0.4198
 6411SOL     OW30865   2.696   3.186   6.300 -0.4821 -0.6150 -0.3100
 6411SOL    HW130866   2.778   3.139   6.284 -1.8056 -2.4478 -1.6540
 6411SOL    HW230867   2.635   3.114   6.287 -0.7836 -0.5136  0.5245
 6412SOL     OW30868   3.930   4.234   7.941  0.5437  0.2568 -0.0178
 6412SOL    HW130869   4.022   4.233   7.915  0.8133  0.9873  0.8874
 6412SOL    HW230870   3.887   4.202   7.862  2.7144 -0.0399 -1.0890
 6413SOL     OW30871   4.724   2.268   7.754  0.4037  0.1678 -0.0441
 6413SOL    HW130872   0.015   2.357   7.777  1.4893 -0.9188  2.8945
 6413SOL    HW230873   0.036   2.252   7.674 -0.1384 -1.6003 -0.0327
 6414SOL     OW30874   3.610   1.602  14.722 -0.4950 -0.1709  0.1626
 6414SOL    HW130875   3.627   1.666  14.791  1.6217  1.5218 -1.9353
 6414SOL    HW230876   3.667   1.534  14.760  1.2081  1.0752 -0.1423
 6415SOL     OW30877   2.409   1.076  15.745 -0.5751 -0.0022 -0.4880
 6415SOL    HW130878   2.435   1.029  15.825 -3.6901  0.2048  0.6847
 6415SOL    HW230879   2.314   1.060  15.754 -0.3659 -1.9086 -1.6494
 6416SOL     OW30880   3.019   0.293   3.464 -0.1385 -0.3687  0.0724
 6416SOL    HW130881   3.025   0.321   3.373  2.9610  2.7150  1.1916
 6416SOL    HW230882   2.935   0.327   3.495 -0.3411 -1.1538  0.3820
 6417SOL     OW30883   3.413   0.318   8.569 -0.0901  0.0012 -0.6438
 6417SOL    HW130884   3.442   0.379   8.638 -0.4780  0.0583 -0.5333
 6417SOL    HW230885   3.350   0.265   8.618  0.0994 -0.4862 -0.9255
 6418SOL     OW30886   0.358   3.247  13.895  0.3871  0.7337  0.3547
 6418SOL    HW130887   0.376   3.337  13.922 -1.6189  1.8721 -2.1809
 6418SOL    HW230888   0.289   3.213  13.953  3.3395 -3.1282  1.6259
 6419SOL     OW30889   1.796   2.361  11.000  0.0791  0.0185 -0.6576
 6419SOL    HW130890   1.841   2.335  11.080  0.3182 -0.0284 -0.8087
 6419SOL    HW230891   1.712   2.317  11.017 -1.0461  1.0099 -3.6528
 6420SOL     OW30892   3.151   1.399   4.499  0.7303 -0.1865  0.0076
 6420SOL    HW130893   3.064   1.400   4.458 -0.1648  1.3835  1.9286
 6420SOL    HW230894   3.140   1.352   4.582 -1.8260 -0.0742 -0.2761
 6421SOL     OW30895   2.223   4.408  15.658 -0.1358  0.4502  0.1782
 6421SOL    HW130896   2.318   4.422  15.661 -0.6603  3.3778  2.9730
 6421SOL    HW230897   2.192   4.483  15.607  3.0633  0.2088 -2.1047
 6422SOL     OW30898   2.907   4.722  17.515  0.1243 -0.2477 -0.6471
 6422SOL    HW130899   2.847   0.007  17.443 -1.4268 -2.5159 -0.0705
 6422SOL    HW230900   2.859   0.011  17.594 -0.4167 -1.3528 -0.5965
 6423SOL     OW30901   1.146   2.350   8.797  0.2876 -0.5619  0.1483
 6423SOL    HW130902   1.050   2.346   8.801  0.2020  0.9934 -0.4108
 6423SOL    HW230903   1.164   2.411   8.725  0.2453 -1.2590 -0.4464
 6424SOL     OW30904   4.447   1.940   5.085  0.3800 -0.1904  0.0421
 6424SOL    HW130905   4.376   1.925   5.022 -1.7558 -1.1606  2.6483
 6424SOL    HW230906   4.482   1.852   5.080  3.6583  1.1720 -0.6349
 6425SOL     OW30907   1.938   2.870  12.064 -0.4445 -0.0092 -0.1645
 6425SOL    HW130908   1.969   2.958  12.084  2.8327 -0.8976 -1.2432
 6425SOL    HW230909   1.926   2.839  12.154 -0.3639  0.6839  0.0803
 6426SOL     OW30910   2.557   1.451   5.223  0.2290  0.2479  0.1867
 6426SOL    HW130911   2.469   1.428   5.194  0.6137 -1.9597  0.7573
 6426SOL    HW230912   2.536   1.419   5.311  2.2044 -1.1895  0.1278
 6427SOL     OW30913   0.063   2.049   3.141 -0.2676 -0.4700 -0.5116
 6427SOL    HW130914   0.118   1.981   3.103 -0.1252 -2.0642  2.5047
 6427SOL    HW230915   0.105   2.132   3.119 -2.3329  0.4258 -1.1058
 6428SOL     OW30916   4.306   1.825  17.328  0.2757  0.1111  0.4863
 6428SOL    HW130917   4.273   1.745  17.288  0.6255  0.6662 -0.9163
 6428SOL    HW230918   4.303   1.821  17.424 -1.2823  0.0545  0.4386
 6429SOL     OW30919   1.450   0.888   2.672  0.6445 -0.0131 -0.2646
 6429SOL    HW130920   1.507   0.894   2.749 -1.5735  0.7122  1.3356
 6429SOL    HW230921   1.365   0.884   2.715  1.4253 -1.1011  1.1600
 6430SOL     OW30922   4.195   3.156   5.623 -0.4094 -0.0108 -0.0374
 6430SOL    HW130923   4.211   3.223   5.689  2.0863 -0.1478 -0.4861
 6430SOL    HW230924   4.110   3.187   5.592  0.1061  0.4588 -0.9875
 6431SOL     OW30925   2.293   1.042  14.975 -0.3149 -0.0627 -0.2161
 6431SOL    HW130926   2.337   0.966  15.013  0.5630  1.2961  1.4725
 6431SOL    HW230927   2.370   1.097  14.959 -0.5355  0.3122  0.0211
 6432SOL     OW30928   3.248   0.466   3.203 -0.2160 -0.3660  0.5813
 6432SOL    HW130929   3.254   0.561   3.193  0.2749 -0.2151  2.3186
 6432SOL    HW230930   3.342   0.451   3.206 -0.4176 -2.0063 -1.5528
 6433SOL     OW30931   0.311   2.382   7.634  0.5514 -0.5545  0.0606
 6433SOL    HW130932   0.239   2.350   7.580  0.4663 -1.2638  0.5987
 6433SOL    HW230933   0.261   2.461   7.652 -0.1726 -0.5824 -1.8141
 6434SOL     OW30934   4.159   0.875   5.376  0.0815  0.5697  0.1313
 6434SOL    HW130935   4.132   0.892   5.286 -1.5856  1.1112  0.7197
 6434SOL    HW230936   4.242   0.835   5.354 -0.1791  0.0558  0.0851
 6435SOL     OW30937   0.426   1.487   4.484 -0.2742  0.7104  0.7102
 6435SOL    HW130938   0.515   1.489   4.521  0.1186  0.0708 -0.2017
 6435SOL    HW230939   0.391   1.576   4.488 -3.3501 -0.5079  0.4961
 6436SOL     OW30940   1.190   0.307  16.471  0.6043  0.2478  0.2453
 6436SOL    HW130941   1.253   0.341  16.407 -0.8863  2.8974  0.1832
 6436SOL    HW230942   1.138   0.386  16.480  1.2873  0.6792  0.3762
 6437SOL     OW30943   1.892   0.099   7.889  0.1199  0.6183  0.2371
 6437SOL    HW130944   1.862   0.008   7.886  2.4694 -0.0954 -1.6494
 6437SOL    HW230945   1.916   0.108   7.981  1.8874  0.2107 -0.1826
 6438SOL     OW30946   4.702   1.837   2.685  0.6723 -0.4150 -0.1982
 6438SOL    HW130947   0.008   1.922   2.675 -0.2606  0.3644  2.4421
 6438SOL    HW230948   0.039   1.777   2.692 -0.3000 -1.5403  0.5196
 6439SOL     OW30949   1.942   3.583   1.201 -0.3642 -0.0447 -0.5472
 6439SOL    HW130950   1.877   3.518   1.173  1.0063 -2.2296  1.3251
 6439SOL    HW230951   1.885   3.648   1.243  2.3440  1.0532  1.4729
 6440SOL     OW30952   4.217   0.146   4.695 -0.3619  1.0493  0.3876
 6440SOL    HW130953   4.276   0.203   4.646  1.6168 -0.6278  0.8389
 6440SOL    HW230954   4.131   0.169   4.658  0.3874  0.6175 -1.6345
 6441SOL     OW30955   0.087   2.019  11.290  0.3988  0.3642 -0.1470
 6441SOL    HW130956   0.064   1.929  11.265  1.8565 -0.8493  2.8566
 6441SOL    HW230957   0.181   2.017  11.275  0.5770 -0.3164  1.1118
 6442SOL     OW30958   1.986   2.971   8.834  0.1774 -0.0303  0.2924
 6442SOL    HW130959   1.927   2.990   8.762 -0.7119 -2.4787  0.3567
 6442SOL    HW230960   1.928   2.924   8.895  0.1368  1.1582  1.1707
 6443SOL     OW30961   4.254   1.514  14.191  0.0411  0.3043  0.0340
 6443SOL    HW130962   4.260   1.607  14.210 -2.1170  0.4508 -0.0449
 6443SOL    HW230963   4.330   1.496  14.135 -1.4671 -1.1483 -1.5877
 6444SOL     OW30964   2.515   3.799   5.129  0.5784 -0.0759 -0.0546
 6444SOL    HW130965   2.521   3.777   5.222 -0.4002  0.0741  0.0401
 6444SOL    HW230966   2.447   3.866   5.130 -0.6377 -1.2974  0.1221
 6445SOL     OW30967   4.491   3.228  17.577  0.3439 -0.4227 -0.3339
 6445SOL    HW130968   4.514   3.141  17.543 -0.5913 -0.6654 -0.3532
 6445SOL    HW230969   4.419   3.249  17.517  1.2565 -0.3497 -1.4193
 6446SOL     OW30970   1.782   3.878   7.840 -0.1260  0.6490  0.2292
 6446SOL    HW130971   1.782   3.792   7.882  1.4275  0.9856  0.9094
 6446SOL    HW230972   1.816   3.927   7.915  1.9486 -1.5514  0.7157
 6447SOL     OW30973   1.108   3.475   5.274  0.3030  0.3887  0.3966
 6447SOL    HW130974   1.029   3.438   5.236 -0.3217  0.8439  1.2569
 6447SOL    HW230975   1.174   3.458   5.207  1.5918  2.7669  1.0525
 6448SOL     OW30976   2.575   1.719  16.628  0.1284  0.0216 -0.3679
 6448SOL    HW130977   2.537   1.765  16.554  1.5131 -0.6555 -1.5025
 6448SOL    HW230978   2.642   1.666  16.584  0.5730  1.3824 -1.3152
 6449SOL     OW30979   2.537   2.824   2.034 -0.0546 -0.8247  0.1682
 6449SOL    HW130980   2.543   2.769   1.956 -0.7245 -0.9445  0.2022
 6449SOL    HW230981   2.602   2.785   2.093  0.4316  0.4862  0.5106
 6450SOL     OW30982   1.270   1.286  15.648  0.7731  0.4983  0.6910
 6450SOL    HW130983   1.268   1.191  15.640 -1.9328  0.4810  1.6364
 6450SOL    HW230984   1.361   1.311  15.633  0.1644  0.4365 -3.0331
 6451SOL     OW30985   2.112   4.496   3.865 -0.0884 -0.5101 -0.4427
 6451SOL    HW130986   2.068   4.529   3.943  1.2487  1.3615 -0.4835
 6451SOL    HW230987   2.193   4.546   3.855  0.1912 -1.1527 -1.3565
 6452SOL     OW30988   4.228   3.755   8.357  0.1029 -0.2684  0.2584
 6452SOL    HW130989   4.234   3.793   8.269  1.9884 -0.8006  0.1645
 6452SOL    HW230990   4.298   3.691   8.345  0.9635  0.5519  0.8950
 6453SOL     OW30991   2.466   3.548  14.760 -0.9543 -0.4760 -0.0646
 6453SOL    HW130992   2.549   3.536  14.714 -0.8099 -0.1255  0.1030
 6453SOL    HW230993   2.494   3.563  14.851  2.7222  0.5261 -1.3692
 6454SOL     OW30994   0.459   0.116   1.876 -0.3355 -0.6938  0.4494
 6454SOL    HW130995   0.525   0.081   1.935  0.5304 -0.5282 -0.4223
 6454SOL    HW230996   0.502   0.122   1.791 -2.7987  0.0397 -0.7549
 6455SOL     OW30997   4.052   2.038   8.134  0.2693 -0.0873  0.1602
 6455SOL    HW130998   4.073   2.131   8.146  1.5424 -0.3073 -0.3694
 6455SOL    HW230999   3.983   2.043   8.067 -0.6086  1.7033  1.1933
 6456SOL     OW31000   3.778   1.664  11.704  0.4841 -0.1197  0.7430
 6456SOL    HW131001   3.805   1.593  11.646  1.7218 -0.5780  1.8694
 6456SOL    HW231002   3.858   1.717  11.708  1.1275 -1.1268  1.2189
 6457SOL     OW31003   3.023   3.947   5.423  0.2811  0.8880  0.0754
 6457SOL    HW131004   3.070   3.907   5.350  0.5131  0.9915  0.1675
 6457SOL    HW231005   2.932   3.922   5.409 -0.0738  2.3746 -0.2687
 6458SOL     OW31006   1.383   0.487  11.896  0.4026  0.3389 -0.0754
 6458SOL    HW131007   1.289   0.467  11.896  0.6943 -1.0681 -1.1086
 6458SOL    HW231008   1.381   0.567  11.844 -1.1713  1.2772  1.4413
 6459SOL     OW31009   3.645   4.592   0.977  0.0177 -0.1464  0.2975
 6459SOL    HW131010   3.631   4.584   1.071 -0.5455  1.9091  0.3857
 6459SOL    HW231011   3.601   4.676   0.964  0.6307  0.1415  0.0939
 6460SOL     OW31012   2.231   3.896   7.692  0.0150  0.4830 -0.5279
 6460SOL    HW131013   2.141   3.918   7.669  0.1209  2.3723  0.9089
 6460SOL    HW231014   2.264   3.919   7.605 -0.7735 -4.4865 -2.1583
 6461SOL     OW31015   4.169   3.305   1.250  0.2654 -0.3618 -0.5063
 6461SOL    HW131016   4.105   3.369   1.218  1.4965  1.4719  0.6650
 6461SOL    HW231017   4.220   3.296   1.170  0.9991  0.6973 -0.1650
 6462SOL     OW31018   1.420   0.136  11.864  0.4018  0.6345  0.7407
 6462SOL    HW131019   1.447   0.060  11.916 -2.4821 -0.1671  1.0653
 6462SOL    HW231020   1.501   0.185  11.852  0.5634  0.6717  1.9819
 6463SOL     OW31021   0.090   2.068   5.632 -0.2344 -0.2130  0.4927
 6463SOL    HW131022   0.017   2.024   5.675 -0.1331 -1.7774 -0.9546
 6463SOL    HW231023   0.137   1.997   5.588  1.1954  1.1066 -0.1081
 6464SOL     OW31024   2.271   1.465   6.495 -0.0357  0.2975  0.6956
 6464SOL    HW131025   2.317   1.398   6.445  0.7726  0.2326  1.5112
 6464SOL    HW231026   2.206   1.408   6.535  1.6559 -1.7240  0.5435
 6465SOL     OW31027   2.742   3.749   4.262 -0.3506  0.1668 -0.3636
 6465SOL    HW131028   2.741   3.813   4.334 -0.8355  0.2283 -0.4244
 6465SOL    HW231029   2.824   3.701   4.271 -1.1390 -1.0137  0.7203
 6466SOL     OW31030   2.375   1.802   2.222 -0.3893 -0.5800  0.7767
 6466SOL    HW131031   2.369   1.719   2.175 -0.9155 -1.4026  2.2841
 6466SOL    HW231032   2.470   1.809   2.232 -0.6341  1.8126  1.2396
 6467SOL     OW31033   2.012   0.753  12.221 -0.2214 -0.7192 -0.7656
 6467SOL    HW131034   2.003   0.671  12.172 -3.5430 -0.4696 -0.6108
 6467SOL    HW231035   2.001   0.722  12.311  3.3138  3.9085  1.2231
 6468SOL     OW31036   1.207   4.573   7.453  0.0689  0.1759  0.3118
 6468SOL    HW131037   1.180   4.645   7.509  1.7912  0.3719  0.8965
 6468SOL    HW231038   1.241   4.613   7.373  0.6837  1.6701  1.3312
 6469SOL     OW31039   1.876   3.074   8.604  1.0214 -0.8131 -0.0814
 6469SOL    HW131040   1.802   3.098   8.549  1.3966 -0.6858 -0.5286
 6469SOL    HW231041   1.946   3.096   8.542 -0.9754  0.9622 -1.7218
 6470SOL     OW31042   3.898   2.904  14.132  0.9716 -0.6283 -0.2691
 6470SOL    HW131043   3.956   2.827  14.131  0.5241 -0.9761  0.4478
 6470SOL    HW231044   3.926   2.946  14.214  0.2221 -1.3729  0.3739
 6471SOL     OW31045   0.026   0.977   0.789  0.4989 -0.8970 -0.0051
 6471SOL    HW131046   0.070   1.037   0.728 -1.6415  0.7468  0.1105
 6471SOL    HW231047   4.729   1.041   0.850  1.0952  0.3319 -0.9517
 6472SOL     OW31048   3.873   3.388   8.190 -0.4258 -0.3079 -0.5069
 6472SOL    HW131049   3.795   3.412   8.140 -0.9843 -1.3593 -0.1293
 6472SOL    HW231050   3.839   3.353   8.272  0.8832 -3.3985 -1.2891
 6473SOL     OW31051   2.845   3.772   9.680  0.5180  0.6091 -0.3527
 6473SOL    HW131052   2.854   3.732   9.767  2.0042  2.0417  0.1593
 6473SOL    HW231053   2.871   3.863   9.694 -0.3525  0.6688  0.9623
 6474SOL     OW31054   1.990   3.373  13.194  0.5289  0.6176 -0.2349
 6474SOL    HW131055   2.058   3.306  13.193 -2.2846 -2.2823  2.5323
 6474SOL    HW231056   2.026   3.447  13.145  0.4651  0.2293 -0.8573
 6475SOL     OW31057   1.907   3.639   7.009 -0.5280 -0.3099 -0.4727
 6475SOL    HW131058   1.836   3.617   6.948 -0.9868 -0.9718  0.3060
 6475SOL    HW231059   1.946   3.553   7.026 -1.2782 -0.6751 -0.5922
 6476SOL     OW31060   3.824   1.089   3.679 -0.0750  0.0914  0.5711
 6476SOL    HW131061   3.758   1.052   3.737 -0.0759 -1.0742 -0.1619
 6476SOL    HW231062   3.879   1.013   3.661  2.3220  1.8501  0.4363
 6477SOL     OW31063   0.322   0.435   1.743  0.3960  0.2169  0.2389
 6477SOL    HW131064   0.414   0.432   1.766  0.3171  1.7954  0.7144
 6477SOL    HW231065   0.287   0.482   1.818 -0.1480  0.0274  0.1081
 6478SOL     OW31066   3.133   2.197   4.792  0.2066 -0.2655 -0.1719
 6478SOL    HW131067   3.156   2.220   4.702  2.3851  1.2671  0.7686
 6478SOL    HW231068   3.180   2.263   4.844  0.7061 -0.6791 -0.0975
 6479SOL     OW31069   2.115   1.365  16.634 -0.1276  0.6121  0.0891
 6479SOL    HW131070   2.077   1.452  16.643  0.3383  0.7968  0.2952
 6479SOL    HW231071   2.034   1.314  16.634 -1.3632  2.5793 -0.4751
 6480SOL     OW31072   3.033   2.982   5.111 -0.1627 -0.1748 -0.2153
 6480SOL    HW131073   3.100   3.002   5.177 -0.6786 -2.3043  0.9389
 6480SOL    HW231074   3.021   2.888   5.103  0.3716 -0.0077 -2.7412
 6481SOL     OW31075   0.862   4.608   7.430 -0.0958 -0.1164  0.8977
 6481SOL    HW131076   0.926   4.585   7.362 -0.2443  2.3401 -0.0522
 6481SOL    HW231077   0.877   4.702   7.434  0.6754 -0.2275  0.7386
 6482SOL     OW31078   2.889   1.209   6.233  0.1308  0.0999 -0.2449
 6482SOL    HW131079   2.878   1.117   6.209 -1.3001 -0.0178  0.8554
 6482SOL    HW231080   2.802   1.248   6.232  0.2635  0.5385  4.9221
 6483SOL     OW31081   1.171   0.375  17.434 -0.0572  0.5509 -0.0852
 6483SOL    HW131082   1.259   0.341  17.450 -0.8595 -2.0170 -1.1152
 6483SOL    HW231083   1.125   0.291  17.427 -0.3522  0.6363  0.8961
 6484SOL     OW31084   1.159   3.044   5.735  0.0743 -0.0413 -0.3695
 6484SOL    HW131085   1.074   3.049   5.692  0.8628  1.7215 -1.7287
 6484SOL    HW231086   1.171   2.949   5.743 -0.3592 -0.1972 -1.5615
 6485SOL     OW31087   1.214   4.387   5.005  0.5949 -0.1312 -0.7705
 6485SOL    HW131088   1.294   4.438   4.993  0.7204 -0.3941 -1.0430
 6485SOL    HW231089   1.202   4.349   4.918  0.5571 -0.6641 -0.5383
 6486SOL     OW31090   4.146   0.647   7.476  0.5359  0.1421  0.3431
 6486SOL    HW131091   4.071   0.698   7.507  1.3875  0.3171  2.1178
 6486SOL    HW231092   4.132   0.621   7.385 -1.4522  3.7894 -0.4087
 6487SOL     OW31093   2.930   1.484  12.111 -0.0998  0.7408  0.4617
 6487SOL    HW131094   3.005   1.447  12.065 -1.0567  0.8825 -1.2221
 6487SOL    HW231095   2.957   1.576  12.108  1.1724  0.4323  2.2232
 6488SOL     OW31096   2.480   3.679   7.622  0.3811 -0.1314  0.2960
 6488SOL    HW131097   2.481   3.691   7.527  0.5393  2.5084  0.6338
 6488SOL    HW231098   2.523   3.758   7.653 -0.7628  0.3902  0.5406
 6489SOL     OW31099   2.912   2.813   1.089  0.8595  0.0213 -0.2851
 6489SOL    HW131100   2.891   2.803   1.182  1.4706  1.5536  0.0144
 6489SOL    HW231101   3.007   2.805   1.085  0.9086  0.0613  0.6411
 6490SOL     OW31102   1.618   4.441   7.747  0.9906 -0.0976  0.5740
 6490SOL    HW131103   1.660   4.466   7.665 -0.9916  2.3271  0.3150
 6490SOL    HW231104   1.592   4.352   7.722  0.8331  0.3627 -0.9177
 6491SOL     OW31105   2.093   0.015   3.063 -0.1006 -0.4111  0.1342
 6491SOL    HW131106   2.178   4.729   3.026  0.4933  2.7375 -0.4257
 6491SOL    HW231107   2.105   0.109   3.056 -0.8848 -0.3852 -0.9764
 6492SOL     OW31108   0.087   3.597   4.795 -0.5397 -0.6990  0.5902
 6492SOL    HW131109   0.060   3.595   4.887 -1.8372  0.6080  0.2339
 6492SOL    HW231110   0.058   3.509   4.772 -0.6708 -0.7132  0.8064
 6493SOL     OW31111   0.542   1.453   8.301  0.5510  0.1591 -0.5571
 6493SOL    HW131112   0.611   1.436   8.366 -0.3096 -0.0073  0.3093
 6493SOL    HW231113   0.472   1.400   8.340  1.3380  0.1966  0.9203
 6494SOL     OW31114   3.753   1.214   4.661  0.3806 -0.0968 -0.1826
 6494SOL    HW131115   3.838   1.254   4.638  0.1884  1.9939  2.7618
 6494SOL    HW231116   3.696   1.290   4.676  0.5675 -0.0143  0.1122
 6495SOL     OW31117   1.804   1.030  15.291 -0.1558  0.2167  0.3319
 6495SOL    HW131118   1.741   1.057  15.358  1.2934  0.1462  1.7208
 6495SOL    HW231119   1.870   1.098  15.301  1.3328 -0.9519 -1.6398
 6496SOL     OW31120   3.580   1.058  10.676  0.1837  0.3201 -0.6828
 6496SOL    HW131121   3.517   1.009  10.622  0.9745 -0.7878 -0.5983
 6496SOL    HW231122   3.663   1.016  10.655 -0.3509 -2.0983  2.0718
 6497SOL     OW31123   2.123   0.297   8.798 -0.1668 -0.1663 -0.0460
 6497SOL    HW131124   2.143   0.205   8.817  2.9797  0.6869  0.8623
 6497SOL    HW231125   2.206   0.332   8.832 -2.3910  2.8878  2.1966
 6498SOL     OW31126   0.377   3.120  15.453 -0.8816  0.0794 -0.0935
 6498SOL    HW131127   0.316   3.168  15.397  0.1025  1.7555  0.2454
 6498SOL    HW231128   0.382   3.173  15.533  2.4427  3.1573 -2.3208
 6499SOL     OW31129   4.478   3.477   0.956 -0.1041 -0.7712  0.0496
 6499SOL    HW131130   4.522   3.461   0.872  1.0786  1.9996  0.1313
 6499SOL    HW231131   4.549   3.488   1.019 -1.1598  1.6259  0.8024
 6500SOL     OW31132   0.486   3.766   3.661  0.2398 -0.4034  0.0600
 6500SOL    HW131133   0.451   3.850   3.631  0.1374 -0.9302 -1.2995
 6500SOL    HW231134   0.579   3.784   3.650  0.4162  0.3172  2.6115
 6501SOL     OW31135   4.412   3.626  12.420  0.4641 -0.2572 -0.2889
 6501SOL    HW131136   4.442   3.707  12.378  1.8633  0.1576  1.5537
 6501SOL    HW231137   4.494   3.602  12.463  0.1378 -1.9535 -0.6123
 6502SOL     OW31138   3.270   3.608   5.958 -0.4584 -0.4667 -0.1216
 6502SOL    HW131139   3.218   3.613   6.039 -1.3293 -1.3495 -0.6169
 6502SOL    HW231140   3.347   3.562   5.992 -0.6988 -0.0763  0.9732
 6503SOL     OW31141   1.853   3.904  11.962  0.2238 -0.0852 -0.7012
 6503SOL    HW131142   1.838   3.952  11.881 -0.9241 -1.0525 -1.0482
 6503SOL    HW231143   1.912   3.970  11.999 -2.8979  1.5603  1.3684
 6504SOL     OW31144   1.207   0.435   2.653  0.3684 -0.2279  0.4093
 6504SOL    HW131145   1.112   0.440   2.642  0.3175 -3.1203 -0.5938
 6504SOL    HW231146   1.241   0.471   2.571 -0.0511  3.0408  1.6528
 6505SOL     OW31147   0.389   3.992   6.416  0.3213  0.0393 -0.0079
 6505SOL    HW131148   0.406   3.915   6.362  0.7881  2.0825 -2.8354
 6505SOL    HW231149   0.294   3.995   6.404  0.4533  0.0209 -1.0584
 6506SOL     OW31150   3.725   2.824   8.568  0.4001 -0.1823  0.4089
 6506SOL    HW131151   3.640   2.787   8.542 -0.2494  0.5476  1.5014
 6506SOL    HW231152   3.730   2.887   8.496 -0.0735  1.1193  1.5226
 6507SOL     OW31153   0.426   0.844   0.077 -0.1437 -0.7522  0.5262
 6507SOL    HW131154   0.370   0.907   0.122  1.3065  0.7739  0.2150
 6507SOL    HW231155   0.434   0.879  17.735  1.4571 -1.0615  0.5485
 6508SOL     OW31156   3.327   0.550   3.473  0.4317 -0.2691  0.0853
 6508SOL    HW131157   3.317   0.511   3.387  1.7239 -0.4346  0.0094
 6508SOL    HW231158   3.264   0.621   3.463  0.4071 -0.3320 -0.2045
 6509SOL     OW31159   0.025   1.868   0.239 -0.1539  0.0586  0.0699
 6509SOL    HW131160   0.022   1.914   0.323  0.8706  0.6160 -0.1927
 6509SOL    HW231161   0.031   1.939   0.176  0.2712  0.8050  0.9465
 6510SOL     OW31162   2.116   3.036  12.175  0.0351 -0.1109 -0.7556
 6510SOL    HW131163   2.138   3.098  12.244 -0.1697 -1.3110  0.3744
 6510SOL    HW231164   2.158   2.956  12.207  1.8199  0.5394 -1.4571
 6511SOL     OW31165   1.400   1.980  17.426 -0.9060  0.4565  0.3297
 6511SOL    HW131166   1.426   1.901  17.379  0.4433  0.9524  0.2415
 6511SOL    HW231167   1.335   2.021  17.370 -1.1012  1.9797  1.6997
 6512SOL     OW31168   0.732   0.714   8.798 -0.0432  0.2629 -0.2023
 6512SOL    HW131169   0.816   0.675   8.820  0.1710 -0.5016 -2.3664
 6512SOL    HW231170   0.674   0.639   8.816  1.1054 -0.7163 -0.5964
 6513SOL     OW31171   4.538   1.819   8.743 -0.1268  0.3798  0.0565
 6513SOL    HW131172   4.531   1.748   8.807  1.4892  0.1777  0.0112
 6513SOL    HW231173   4.578   1.767   8.674 -0.0387 -0.3512  0.6492
 6514SOL     OW31174   0.537   0.650  17.664  0.2679 -0.0846 -0.4396
 6514SOL    HW131175   0.511   0.704  17.738  1.7192  0.8290 -0.6012
 6514SOL    HW231176   0.627   0.620  17.679  0.2026  0.0234  0.1342
 6515SOL     OW31177   3.670   2.237   6.509  0.2846  0.0692 -0.6630
 6515SOL    HW131178   3.614   2.199   6.441 -1.3722  3.7616 -1.4248
 6515SOL    HW231179   3.714   2.170   6.561 -0.9356  0.6024  1.0878
 6516SOL     OW31180   0.436   0.038   2.472  0.2133 -0.0601 -0.1295
 6516SOL    HW131181   0.376   0.020   2.543 -1.9402  1.2599 -1.5894
 6516SOL    HW231182   0.432   0.134   2.467 -3.2532 -0.2489 -0.7599
 6517SOL     OW31183   0.669   1.545   4.595 -0.2608 -0.4867 -0.3168
 6517SOL    HW131184   0.689   1.583   4.681 -1.7782  2.4803 -1.2787
 6517SOL    HW231185   0.760   1.552   4.565  0.1127  1.6459  1.2399
 6518SOL     OW31186   0.276   2.788   8.026  0.3517 -0.6729  0.5334
 6518SOL    HW131187   0.218   2.750   7.960 -1.2193  1.3988  0.7513
 6518SOL    HW231188   0.213   2.812   8.093  0.1976  0.3470  0.0249
 6519SOL     OW31189   0.645   1.090   5.109 -0.1019 -0.3155 -0.5716
 6519SOL    HW131190   0.733   1.079   5.147 -0.2191  0.7688  0.0439
 6519SOL    HW231191   0.660   1.049   5.024  2.0590 -1.2640  0.2655
 6520SOL     OW31192   4.339   4.178   3.462 -0.3083 -0.0249  0.5252
 6520SOL    HW131193   4.338   4.273   3.460  0.1850 -0.0364 -0.0804
 6520SOL    HW231194   4.314   4.164   3.553  2.1527 -1.3524  0.9809
 6521SOL     OW31195   2.421   1.475  12.651 -0.4610 -0.4703 -0.1273
 6521SOL    HW131196   2.483   1.505  12.717 -2.1784  2.9800 -0.0906
 6521SOL    HW231197   2.342   1.512  12.690 -1.2499 -1.4903 -0.7772
 6522SOL     OW31198   4.234   3.102   4.360  0.0179  0.4283 -0.6589
 6522SOL    HW131199   4.218   3.014   4.327 -1.6865  0.8837 -1.0628
 6522SOL    HW231200   4.258   3.144   4.278 -0.7606 -1.0281 -1.6216
 6523SOL     OW31201   1.506   2.887   9.895  0.2612 -0.3889  0.0276
 6523SOL    HW131202   1.463   2.881   9.980  0.4065  1.0475  0.1985
 6523SOL    HW231203   1.577   2.950   9.903  0.6685 -0.9472  0.8170
 6524SOL     OW31204   0.617   0.389   6.831  0.1490  0.3104 -0.1353
 6524SOL    HW131205   0.677   0.339   6.775 -1.7755 -1.0932 -0.9225
 6524SOL    HW231206   0.669   0.469   6.844  1.7832 -0.7169 -0.3078
 6525SOL     OW31207   4.512   3.528   4.799 -0.1412  0.3146 -0.2407
 6525SOL    HW131208   4.547   3.537   4.888  0.5345  0.5839 -0.5387
 6525SOL    HW231209   4.546   3.439   4.798 -0.4038  0.1905  1.3744
 6526SOL     OW31210   2.908   1.131   6.738 -0.2397  0.3643  0.5017
 6526SOL    HW131211   2.852   1.147   6.814  0.4154  2.5674  0.5193
 6526SOL    HW231212   2.926   1.220   6.708  0.6208  0.4546  1.2492
 6527SOL     OW31213   0.189   3.170   4.642  0.3150 -0.3449  0.0093
 6527SOL    HW131214   0.201   3.168   4.736 -0.0715  0.5162  0.0770
 6527SOL    HW231215   0.203   3.079   4.617 -1.0054 -0.7304  0.6825
 6528SOL     OW31216   3.320   1.067   5.454 -0.2623  0.4725  0.3515
 6528SOL    HW131217   3.323   0.972   5.459 -0.0948  0.4716  0.2320
 6528SOL    HW231218   3.270   1.088   5.532  2.2349  1.1210  1.7750
 6529SOL     OW31219   2.937   1.099   1.540  0.4120 -0.5953 -0.0488
 6529SOL    HW131220   2.859   1.074   1.590  1.4921 -2.5419  0.6562
 6529SOL    HW231221   2.959   1.185   1.577 -0.0808 -0.2741 -0.5053
 6530SOL     OW31222   4.459   4.083   8.495 -0.2310  0.0575  0.5025
 6530SOL    HW131223   4.447   3.990   8.515 -0.9246  0.0512  0.0504
 6530SOL    HW231224   4.465   4.116   8.585  2.8498  0.4808  0.1433
 6531SOL     OW31225   3.172   4.308   6.769 -0.4781 -0.0223  0.1342
 6531SOL    HW131226   3.168   4.312   6.865 -1.7778 -1.6172  0.1446
 6531SOL    HW231227   3.164   4.398   6.738  3.3806  1.0464  2.2818
 6532SOL     OW31228   4.265   0.028   3.797  0.0526  0.1881 -0.1330
 6532SOL    HW131229   4.249   4.676   3.827  1.1064  0.6423  1.7696
 6532SOL    HW231230   4.181   0.044   3.755  0.5481 -1.2812 -1.7079
 6533SOL     OW31231   2.014   0.285  12.763 -0.0720  0.2726  0.4019
 6533SOL    HW131232   1.934   0.299  12.711  0.6279  0.4981 -0.6299
 6533SOL    HW231233   2.072   0.260  12.690  0.3289  0.2950  0.7151
 6534SOL     OW31234   3.759   3.366  12.301 -0.4182 -0.3941  0.9202
 6534SOL    HW131235   3.852   3.369  12.278 -1.0054  3.8945 -0.8755
 6534SOL    HW231236   3.730   3.294  12.245 -0.2246  0.4520 -0.2905
 6535SOL     OW31237   1.363   3.925   7.166  0.1472 -0.0084  0.0769
 6535SOL    HW131238   1.415   3.849   7.194  1.2077  0.4816 -0.5753
 6535SOL    HW231239   1.402   3.959   7.086  1.6284  2.0057  1.6436
 6536SOL     OW31240   0.704   4.214   9.477 -0.0615 -0.2598  0.0304
 6536SOL    HW131241   0.722   4.136   9.529 -1.0983 -1.3488 -1.2380
 6536SOL    HW231242   0.772   4.277   9.502  0.5834 -1.1047  0.3947
 6537SOL     OW31243   0.556   4.088  12.478 -0.4321 -0.2038  0.1041
 6537SOL    HW131244   0.483   4.151  12.479 -0.0644  0.2189  0.3228
 6537SOL    HW231245   0.571   4.080  12.572  0.8444 -0.5138 -0.1325
 6538SOL     OW31246   4.156   3.317  15.070  0.4349 -0.0214 -0.3633
 6538SOL    HW131247   4.177   3.230  15.036 -3.3805 -0.4861 -1.5450
 6538SOL    HW231248   4.201   3.381  15.015  0.2378  0.2542 -0.2075
 6539SOL     OW31249   3.773   3.376   3.574  0.1161 -0.1332 -0.3867
 6539SOL    HW131250   3.804   3.461   3.606 -1.8553  0.9929 -1.5159
 6539SOL    HW231251   3.811   3.308   3.629  0.3562  0.5182  0.2601
 6540SOL     OW31252   2.475   0.149   8.805  0.3511  0.2907 -0.2644
 6540SOL    HW131253   2.555   0.174   8.850  0.7096  1.9465 -1.7866
 6540SOL    HW231254   2.419   0.126   8.879 -0.8205 -1.0170 -1.5549
 6541SOL     OW31255   1.203   1.712   2.259 -0.0442 -0.2789  1.3336
 6541SOL    HW131256   1.182   1.725   2.352  0.3700  0.6349  1.3035
 6541SOL    HW231257   1.149   1.635   2.241 -0.9630  0.3941  1.2254
 6542SOL     OW31258   3.596   1.812  13.875  0.1665 -0.3772 -0.0545
 6542SOL    HW131259   3.553   1.809  13.790  0.1124  0.8531 -0.0699
 6542SOL    HW231260   3.593   1.720  13.901  0.0783  0.2553  2.2575
 6543SOL     OW31261   2.443   0.951  16.018  0.0241 -0.0945 -0.5280
 6543SOL    HW131262   2.493   0.965  16.098 -1.2612 -1.8241  0.5879
 6543SOL    HW231263   2.431   0.856  16.014 -1.8857  0.1579 -0.6645
 6544SOL     OW31264   1.204   4.659   2.423  0.3931  0.4791  0.0627
 6544SOL    HW131265   1.249   4.732   2.381  0.1291  0.8535  0.4252
 6544SOL    HW231266   1.272   4.593   2.432 -0.0660  0.2668  2.1725
 6545SOL     OW31267   4.466   0.976   1.922 -0.2542  0.2348 -0.3534
 6545SOL    HW131268   4.542   1.014   1.878 -0.6186  1.5620  0.1725
 6545SOL    HW231269   4.471   1.020   2.006  0.8684  0.1849 -0.3904
 6546SOL     OW31270   4.204   2.626  11.389  0.1947 -0.0510  0.4734
 6546SOL    HW131271   4.249   2.652  11.308 -3.0546  1.8743 -0.7178
 6546SOL    HW231272   4.157   2.545  11.369 -1.1968  1.0336 -0.7111
 6547SOL     OW31273   1.875   0.836   5.176 -0.6751  0.4272 -0.1981
 6547SOL    HW131274   1.942   0.902   5.158  1.3971 -2.1917 -2.0906
 6547SOL    HW231275   1.793   0.879   5.152 -1.4487 -0.3798  1.0181
 6548SOL     OW31276   2.367   1.099   0.917 -0.2266 -0.2686  0.1568
 6548SOL    HW131277   2.461   1.091   0.932  0.0487 -1.8571 -2.4420
 6548SOL    HW231278   2.332   1.047   0.990 -1.1625 -0.7107 -0.6225
 6549SOL     OW31279   1.068   4.361   2.905 -0.3207 -0.0779  0.3794
 6549SOL    HW131280   0.996   4.421   2.922 -1.4808 -0.7988 -2.0041
 6549SOL    HW231281   1.058   4.352   2.810  2.9858 -1.8161  0.1919
 6550SOL     OW31282   1.151   1.451   3.773  0.0078  0.0469  0.1003
 6550SOL    HW131283   1.244   1.445   3.795  0.2873  1.1381 -0.7699
 6550SOL    HW231284   1.154   1.489   3.685 -0.7355 -0.4824 -0.1566
 6551SOL     OW31285   4.257   0.882  13.690 -0.3627  0.4015  0.3056
 6551SOL    HW131286   4.289   0.793  13.701 -2.2063 -0.3565 -0.4834
 6551SOL    HW231287   4.223   0.863  13.603  1.6477  2.5080 -0.9548
 6552SOL     OW31288   3.606   2.014  16.379 -0.4749 -0.6787 -0.1385
 6552SOL    HW131289   3.533   1.953  16.389 -2.1480  1.1043 -1.3027
 6552SOL    HW231290   3.561   2.099  16.373 -0.0671 -0.6417 -2.4697
 6553SOL     OW31291   4.120   0.397   9.282  0.1902  0.5867 -0.2179
 6553SOL    HW131292   4.117   0.301   9.287  0.7920  0.7181  2.7430
 6553SOL    HW231293   4.119   0.419   9.375 -1.6780 -1.8905  0.3459
 6554SOL     OW31294   3.891   4.119   7.377  0.4696 -0.3874  0.3014
 6554SOL    HW131295   3.841   4.054   7.426  0.5922 -0.5193  0.2522
 6554SOL    HW231296   3.831   4.142   7.306 -0.2180  0.4180  1.1511
 6555SOL     OW31297   1.960   0.647   3.127 -0.3568  0.5405 -0.2758
 6555SOL    HW131298   2.000   0.580   3.071  0.4166 -0.5163  1.5478
 6555SOL    HW231299   2.016   0.649   3.205  0.3180  1.3862 -0.7802
 6556SOL     OW31300   2.727   3.152  10.395 -0.4858 -0.4614 -0.3374
 6556SOL    HW131301   2.808   3.202  10.402 -0.5480 -0.6914  1.7940
 6556SOL    HW231302   2.668   3.209  10.444 -2.3159 -0.4932 -2.4968
 6557SOL     OW31303   1.736   1.217   7.772 -0.1023  0.1567 -0.1542
 6557SOL    HW131304   1.748   1.124   7.753  1.7489  0.8865 -2.5645
 6557SOL    HW231305   1.816   1.252   7.810  0.5080  1.3830 -2.5630
 6558SOL     OW31306   1.050   3.645  13.198 -0.5106 -0.7109  0.0058
 6558SOL    HW131307   1.053   3.700  13.276 -1.0593  0.8347 -1.0526
 6558SOL    HW231308   1.095   3.712  13.147 -0.1128 -0.5266  0.5999
 6559SOL     OW31309   2.066   1.285  12.142 -0.0007 -0.2040 -0.7154
 6559SOL    HW131310   2.112   1.212  12.184  0.6305  0.9050  0.5223
 6559SOL    HW231311   2.112   1.361  12.178 -2.2088  0.8187 -0.0442
 6560SOL     OW31312   2.016   1.032   9.281 -0.1603 -0.3168 -0.2586
 6560SOL    HW131313   2.066   1.113   9.286 -3.0125  1.3832  0.4225
 6560SOL    HW231314   2.084   0.965   9.288  1.7541  1.7995  1.0725
 6561SOL     OW31315   2.907   0.704   9.616 -0.2939 -0.2872 -0.3129
 6561SOL    HW131316   2.980   0.757   9.647  0.6522  0.0473 -3.2040
 6561SOL    HW231317   2.948   0.618   9.626  3.0295  1.3848  0.1858
 6562SOL     OW31318   2.189   0.930   2.643  0.4181  0.0798  0.5775
 6562SOL    HW131319   2.208   1.024   2.640 -0.3626  0.2299  0.4314
 6562SOL    HW231320   2.094   0.920   2.640  0.9938 -5.1985 -0.6528
 6563SOL     OW31321   2.584   4.429   2.704 -0.0707  0.5394  0.2046
 6563SOL    HW131322   2.564   4.402   2.614 -1.6465 -0.4987  0.8851
 6563SOL    HW231323   2.580   4.522   2.682  2.2821 -0.0637 -2.8542
 6564SOL     OW31324   0.492   3.706   9.282 -0.1528  0.6026 -0.2019
 6564SOL    HW131325   0.443   3.631   9.248 -0.2385  0.7020 -0.2932
 6564SOL    HW231326   0.582   3.675   9.274  0.0490  1.0752  0.2416
 6565SOL     OW31327   3.280   3.017   8.233 -0.0037  0.9088  0.5010
 6565SOL    HW131328   3.221   2.946   8.261  2.2335 -0.8918  0.6821
 6565SOL    HW231329   3.360   2.971   8.209 -0.6581 -1.4255  2.8042
 6566SOL     OW31330   1.313   1.977   3.963  0.1119  0.4567  0.3324
 6566SOL    HW131331   1.397   2.019   3.978 -0.9447  3.0962 -0.9877
 6566SOL    HW231332   1.340   1.927   3.886 -1.6256 -0.6319  0.4087
 6567SOL     OW31333   0.013   1.623   7.967  0.1704 -1.0762 -0.1244
 6567SOL    HW131334   4.711   1.691   8.022 -1.6014 -1.1234 -1.3430
 6567SOL    HW231335   0.093   1.603   8.016 -0.2183 -0.2519  0.8547
 6568SOL     OW31336   0.434   2.522   1.918  0.0901  0.1239  0.6871
 6568SOL    HW131337   0.458   2.473   1.996  1.0683  0.0185  0.3226
 6568SOL    HW231338   0.395   2.597   1.963  1.9681  1.1617  0.5781
 6569SOL     OW31339   2.337   0.723   2.381  0.1230  0.2902  0.3164
 6569SOL    HW131340   2.319   0.671   2.302 -1.0002  0.4286  0.4795
 6569SOL    HW231341   2.367   0.649   2.432  0.1746 -0.8680 -1.3846
 6570SOL     OW31342   1.955   0.800  13.324  0.4687 -0.1586 -0.2165
 6570SOL    HW131343   1.942   0.783  13.417  0.5391 -2.1750 -0.5592
 6570SOL    HW231344   1.942   0.710  13.293 -1.4213  1.6407 -4.7499
 6571SOL     OW31345   2.846   0.064   9.173  0.5696 -0.0069  0.3868
 6571SOL    HW131346   2.781   4.736   9.200 -1.9862  3.1649  1.9566
 6571SOL    HW231347   2.912   0.054   9.241  1.3937  1.3996 -0.2069
 6572SOL     OW31348   4.056   0.189  11.610  0.3065  0.1216  0.0214
 6572SOL    HW131349   4.069   0.145  11.526 -0.2038 -2.9205  1.5328
 6572SOL    HW231350   4.044   0.114  11.669 -0.8142  0.3271  0.0598
 6573SOL     OW31351   2.243   0.096   4.132  0.4187  0.3821  0.0750
 6573SOL    HW131352   2.263   0.175   4.182  0.0812  0.2905  0.3612
 6573SOL    HW231353   2.207   0.130   4.050  2.1851  0.6917 -0.5662
 6574SOL     OW31354   2.114   3.755   6.675  0.6482  0.3690  0.3987
 6574SOL    HW131355   2.127   3.819   6.605  0.3836  1.2634  1.1707
 6574SOL    HW231356   2.019   3.761   6.668  0.6934  0.3619 -0.2296
 6575SOL     OW31357   1.968   0.235   9.067 -0.0575 -0.1250 -0.1536
 6575SOL    HW131358   2.007   0.219   9.153 -0.5316  2.7642  0.6077
 6575SOL    HW231359   2.024   0.201   8.998 -1.3421  0.0728 -1.3015
 6576SOL     OW31360   1.816   1.398  16.649 -0.6708 -0.0258  0.4662
 6576SOL    HW131361   1.774   1.484  16.645 -0.0173  0.2824  0.2240
 6576SOL    HW231362   1.772   1.355  16.575 -0.7813  0.9999 -0.0629
 6577SOL     OW31363   2.539   2.980   6.240  0.2988 -0.1882 -0.1855
 6577SOL    HW131364   2.630   2.956   6.219  0.0455 -0.9063 -0.4656
 6577SOL    HW231365   2.492   2.906   6.201  0.6459 -0.3964 -0.2101
 6578SOL     OW31366   1.358   2.330   2.364  0.0820  0.2385  0.0134
 6578SOL    HW131367   1.413   2.253   2.376  1.1448  1.1252  0.8277
 6578SOL    HW231368   1.345   2.362   2.453  1.1311  0.7112  0.0076
 6579SOL     OW31369   2.483   3.324   7.366  0.5084  0.4274 -0.2832
 6579SOL    HW131370   2.488   3.296   7.457 -1.6569 -1.5744 -0.7845
 6579SOL    HW231371   2.561   3.380   7.367  2.5604 -2.4275  1.5756
 6580SOL     OW31372   1.456   4.398  15.492  0.5012 -0.1110  0.2329
 6580SOL    HW131373   1.528   4.431  15.439 -1.5564  1.9788 -1.2385
 6580SOL    HW231374   1.412   4.480  15.511  0.8756  0.7292 -2.5377
 6581SOL     OW31375   0.531   1.084   7.880  0.2797  0.2476 -0.0839
 6581SOL    HW131376   0.501   1.173   7.897  0.0025 -0.1278  1.3938
 6581SOL    HW231377   0.611   1.112   7.835 -0.3257  0.8738 -0.7828
 6582SOL     OW31378   1.045   4.138   4.692  0.0871  0.0365 -0.0272
 6582SOL    HW131379   1.017   4.179   4.610  0.0604  0.6248  0.2761
 6582SOL    HW231380   1.013   4.204   4.753 -2.4564 -0.3585 -0.9014
 6583SOL     OW31381   2.343   0.415  15.324  0.7693  0.0691 -0.8067
 6583SOL    HW131382   2.326   0.361  15.402 -0.0095 -0.6128 -1.4413
 6583SOL    HW231383   2.252   0.432  15.302  1.4498  2.0247 -2.0839
 6584SOL     OW31384   3.088   3.019   1.284 -0.8259  0.3691  0.6791
 6584SOL    HW131385   3.116   3.056   1.368  0.8921  0.7200 -0.0412
 6584SOL    HW231386   3.023   2.958   1.318 -1.2578  0.8509  0.7199
 6585SOL     OW31387   4.141   0.364  12.358  0.1305 -0.3882  0.2168
 6585SOL    HW131388   4.183   0.450  12.368 -1.1067 -0.0659  2.5286
 6585SOL    HW231389   4.049   0.388  12.365 -0.0108 -0.3853 -1.6527
 6586SOL     OW31390   1.542   3.321   8.183 -0.2210  0.6090 -0.0046
 6586SOL    HW131391   1.598   3.281   8.117  0.8833 -0.9790  1.9041
 6586SOL    HW231392   1.522   3.406   8.144  2.6481  0.7461 -1.1305
 6587SOL     OW31393   3.132   4.572   7.879  0.1448 -0.3637 -0.0150
 6587SOL    HW131394   3.074   4.538   7.810  1.3382  2.1250 -2.2471
 6587SOL    HW231395   3.080   4.530   7.947 -2.3899  1.3495 -0.8930
 6588SOL     OW31396   3.949   2.890   1.790 -0.4099  0.3049 -0.0401
 6588SOL    HW131397   3.945   2.957   1.721  0.1647  0.3224 -0.0502
 6588SOL    HW231398   3.941   2.808   1.742 -1.6584  1.0167 -1.0489
 6589SOL     OW31399   2.448   3.681  11.294 -0.4121  0.3717  0.2755
 6589SOL    HW131400   2.400   3.646  11.219 -2.2255  0.5815  1.3192
 6589SOL    HW231401   2.509   3.743  11.256 -1.4863  0.9521 -0.5067
 6590SOL     OW31402   4.396   0.749   6.671 -0.5067  0.3421 -0.5791
 6590SOL    HW131403   4.419   0.789   6.755  3.6194 -1.7900 -0.7348
 6590SOL    HW231404   4.311   0.707   6.682  0.3714 -1.1142  0.5259
 6591SOL     OW31405   0.787   3.770   3.651  0.0415 -0.4673 -0.1151
 6591SOL    HW131406   0.776   3.678   3.673 -0.8825 -0.2399  0.3807
 6591SOL    HW231407   0.820   3.759   3.561  1.5688  1.7997  0.1629
 6592SOL     OW31408   3.851   1.501   2.698  0.6632  0.0901 -0.2066
 6592SOL    HW131409   3.939   1.539   2.700  0.2530  1.1869 -3.1934
 6592SOL    HW231410   3.871   1.414   2.663  1.5451 -0.3487  1.3964
 6593SOL     OW31411   4.147   0.542   7.783 -0.2934  0.2845 -0.2070
 6593SOL    HW131412   4.216   0.608   7.788  0.3632 -0.4070 -0.0498
 6593SOL    HW231413   4.113   0.549   7.694  1.6973  1.1270 -0.9155
 6594SOL     OW31414   1.680   3.279   5.916 -0.7089  0.1214 -0.1240
 6594SOL    HW131415   1.766   3.309   5.887 -0.1777 -2.2640 -0.9767
 6594SOL    HW231416   1.673   3.185   5.899  0.2834  0.6364 -3.2203
 6595SOL     OW31417   4.301   1.226   5.218  0.7783 -0.0356 -0.0588
 6595SOL    HW131418   4.260   1.144   5.247 -0.6016  1.9895  3.7324
 6595SOL    HW231419   4.335   1.250   5.304 -1.0405  1.1444  0.3298
 6596SOL     OW31420   0.224   4.059  16.417  0.4451  1.0216 -0.1205
 6596SOL    HW131421   0.199   3.989  16.477  0.6835  0.9185 -0.1384
 6596SOL    HW231422   0.288   4.109  16.470 -0.0593  1.3624  0.1653
 6597SOL     OW31423   1.459   1.160  17.003  0.0847  0.5386 -0.1871
 6597SOL    HW131424   1.384   1.122  16.956  0.1967  0.8795 -0.6463
 6597SOL    HW231425   1.505   1.210  16.935  1.1200 -0.5951 -0.3332
 6598SOL     OW31426   1.019   3.128   8.974 -0.2095 -0.8020 -0.1119
 6598SOL    HW131427   1.100   3.099   9.014  1.7212  3.1307 -1.1428
 6598SOL    HW231428   0.970   3.048   8.956  0.1374 -1.0861  0.2046
 6599SOL     OW31429   0.507   3.230   0.413  0.3537 -0.4689 -0.0253
 6599SOL    HW131430   0.508   3.255   0.321  1.7265  0.6721  0.2978
 6599SOL    HW231431   0.533   3.138   0.408  0.1860 -0.4965 -0.4032
 6600SOL     OW31432   3.548   2.235   2.590  0.5426  0.1832  0.5002
 6600SOL    HW131433   3.586   2.209   2.506  1.8787  0.1513  1.1144
 6600SOL    HW231434   3.579   2.166   2.648  0.4392 -0.5965 -0.3877
 6601SOL     OW31435   1.666   2.221   2.427  0.7917  0.9745  0.2106
 6601SOL    HW131436   1.653   2.138   2.381 -0.6105  0.3668  1.7017
 6601SOL    HW231437   1.722   2.183   2.494  0.5163 -2.0328 -1.3005
 6602SOL     OW31438   2.273   2.518   6.143  0.0692  0.0594  0.1667
 6602SOL    HW131439   2.182   2.495   6.124  0.1267  1.0694 -1.3605
 6602SOL    HW231440   2.312   2.491   6.060 -0.6342  0.2469 -0.2288
 6603SOL     OW31441   1.291   4.532  10.250  0.1380  0.1179  0.4453
 6603SOL    HW131442   1.322   4.454  10.205 -0.4028 -1.2035  2.3719
 6603SOL    HW231443   1.368   4.551  10.303 -0.4131 -0.1464  1.3454
 6604SOL     OW31444   0.998   0.633  10.301  0.6197  0.4701  0.1043
 6604SOL    HW131445   0.985   0.579  10.379 -2.0543  1.9654  0.7044
 6604SOL    HW231446   0.939   0.705  10.323 -0.4433 -0.1248 -0.7907
 6605SOL     OW31447   4.002   3.965   8.374  0.0905  0.4471  0.0278
 6605SOL    HW131448   3.944   3.979   8.300  1.1823 -0.2923 -0.9776
 6605SOL    HW231449   4.088   3.986   8.335  0.0773 -0.2820 -0.3903
 6606SOL     OW31450   3.010   0.764   4.808  0.3195  0.1788 -0.5590
 6606SOL    HW131451   2.975   0.848   4.839 -0.8165 -0.0202 -1.3158
 6606SOL    HW231452   2.950   0.756   4.734 -1.2265  1.1069  0.6056
 6607SOL     OW31453   0.325   2.866   0.301  0.5596 -0.2597  0.3838
 6607SOL    HW131454   0.242   2.869   0.254 -0.7084 -2.8314  2.4210
 6607SOL    HW231455   0.385   2.834   0.233  0.0829 -1.6029  0.5879
 6608SOL     OW31456   1.420   0.348  13.372  0.3735 -0.3035  0.4899
 6608SOL    HW131457   1.347   0.390  13.326  1.2883  1.4031  0.5827
 6608SOL    HW231458   1.409   0.384  13.460  0.6204 -1.0309  0.8198
 6609SOL     OW31459   2.005   4.575  15.028  0.2475  0.2957 -0.0290
 6609SOL    HW131460   1.964   4.490  15.039  0.9784 -0.1727 -0.9410
 6609SOL    HW231461   2.095   4.559  14.998  0.9741  0.8743  1.7873
 6610SOL     OW31462   4.642   1.489   0.784  0.0619 -0.4401  0.2044
 6610SOL    HW131463   4.632   1.477   0.879 -0.6567  0.0701  0.1918
 6610SOL    HW231464   4.582   1.559   0.758 -0.1886 -0.7268  0.0060
 6611SOL     OW31465   3.873   1.311   5.372 -0.4559  0.3059 -0.0747
 6611SOL    HW131466   3.897   1.237   5.428 -0.6144 -1.5532 -2.4733
 6611SOL    HW231467   3.899   1.387   5.424 -0.8940  1.1215 -1.0392
 6612SOL     OW31468   3.188   4.462   2.622  0.0172 -0.1823 -0.6048
 6612SOL    HW131469   3.094   4.445   2.622  0.1469 -0.8957 -0.6429
 6612SOL    HW231470   3.203   4.440   2.714  0.1989 -1.4158 -0.9245
 6613SOL     OW31471   1.698   2.010   9.408 -0.1161  0.3710 -0.2876
 6613SOL    HW131472   1.641   2.086   9.392  0.0002  0.1192 -1.9016
 6613SOL    HW231473   1.655   1.932   9.374  1.5113 -0.7274  0.2120
 6614SOL     OW31474   2.151   3.605  17.610  0.2911 -0.5239  0.3602
 6614SOL    HW131475   2.206   3.581  17.536  1.6635 -0.3040  1.3074
 6614SOL    HW231476   2.072   3.632  17.562  1.1729 -0.2765 -0.9421
 6615SOL     OW31477   1.759   3.202  12.700 -0.6015  0.1500  0.2349
 6615SOL    HW131478   1.721   3.159  12.777 -0.6018 -0.3985 -0.0665
 6615SOL    HW231479   1.805   3.126  12.663 -1.4658 -1.1583  1.8068
 6616SOL     OW31480   1.486   2.466   2.618 -0.5768  0.3033  0.7331
 6616SOL    HW131481   1.517   2.404   2.684 -1.5310 -1.7469 -0.7124
 6616SOL    HW231482   1.546   2.437   2.549 -1.1341  0.3386  0.2301
 6617SOL     OW31483   2.350   1.008   8.290  0.4691 -0.2013  0.0589
 6617SOL    HW131484   2.432   0.983   8.246  0.0770  0.7200 -1.1920
 6617SOL    HW231485   2.393   1.067   8.352  2.1148 -1.9251  0.5940
 6618SOL     OW31486   4.388   2.683  11.155 -0.0618  0.0262 -0.8432
 6618SOL    HW131487   4.480   2.694  11.132  0.2930 -0.2968  0.4067
 6618SOL    HW231488   4.346   2.743  11.093 -2.4705 -0.8730 -0.0631
 6619SOL     OW31489   1.823   3.951   5.730  0.2911  0.3506 -0.5059
 6619SOL    HW131490   1.841   3.968   5.638  0.6781  0.5825 -0.3883
 6619SOL    HW231491   1.728   3.961   5.724  0.3673  1.7160  0.6073
 6620SOL     OW31492   1.608   3.552   0.292  0.2050  0.5791 -0.5609
 6620SOL    HW131493   1.680   3.503   0.253  1.0382  0.2715  1.3825
 6620SOL    HW231494   1.542   3.485   0.306 -0.3278  0.9366 -1.3583
 6621SOL     OW31495   3.559   3.334   5.858  0.4324 -0.5850 -0.2689
 6621SOL    HW131496   3.502   3.376   5.923  0.8674 -0.8560  0.2888
 6621SOL    HW231497   3.646   3.342   5.896  0.6343 -1.2402 -0.6010
 6622SOL     OW31498   1.175   2.506   8.546 -0.1770  0.0463  0.4287
 6622SOL    HW131499   1.190   2.591   8.588  0.7943  0.9163 -1.6884
 6622SOL    HW231500   1.128   2.539   8.470 -0.2182  0.2813  0.5562
 6623SOL     OW31501   2.763   2.397   9.216 -0.1650 -1.1468  0.1503
 6623SOL    HW131502   2.823   2.380   9.289 -1.5705 -0.0676  1.5472
 6623SOL    HW231503   2.678   2.390   9.259 -1.6678 -0.4164 -2.6484
 6624SOL     OW31504   2.008   4.101   9.487 -0.1620 -0.3458 -0.5063
 6624SOL    HW131505   2.081   4.048   9.455  0.1420 -1.0333  1.3510
 6624SOL    HW231506   2.044   4.134   9.569 -0.7830 -1.5572  0.2456
 6625SOL     OW31507   2.083   2.957   4.688  0.2483  0.3691 -0.2284
 6625SOL    HW131508   2.146   3.012   4.643  0.3260  0.5819  0.1396
 6625SOL    HW231509   2.021   2.946   4.616 -1.0753  1.3617  0.7645
 6626SOL     OW31510   0.264   0.834   2.749 -0.1707 -0.1227 -0.2810
 6626SOL    HW131511   0.198   0.894   2.785  0.8755  1.3838 -0.8933
 6626SOL    HW231512   0.303   0.887   2.679 -1.1667  0.2559 -0.5512
 6627SOL     OW31513   4.454   0.037   6.444  0.6158 -0.3096  0.2684
 6627SOL    HW131514   4.393   0.045   6.517 -0.5832 -0.8002 -0.6772
 6627SOL    HW231515   4.505   4.695   6.458  1.1180 -0.0170  0.1097
 6628SOL     OW31516   3.957   3.355   9.486  0.2293  0.1516 -0.0459
 6628SOL    HW131517   3.933   3.262   9.485 -0.1390  0.2771 -2.1996
 6628SOL    HW231518   4.000   3.367   9.570  2.5538 -0.9770 -1.0867
 6629SOL     OW31519   2.427   4.198   7.486 -0.1906  0.1217  0.2431
 6629SOL    HW131520   2.419   4.206   7.581  0.4021 -0.9876  0.3782
 6629SOL    HW231521   2.501   4.255   7.467 -0.3921  0.5493  0.7536
 6630SOL     OW31522   2.922   3.021   7.144 -0.2169 -0.0918 -0.1743
 6630SOL    HW131523   2.910   3.114   7.165  0.8592  0.1917 -0.7867
 6630SOL    HW231524   3.015   3.009   7.163  0.1236 -0.7276 -2.2420
 6631SOL     OW31525   0.317   2.819   6.742  0.1721 -0.1536  0.3418
 6631SOL    HW131526   0.234   2.841   6.701  0.8188 -1.1482 -1.5278
 6631SOL    HW231527   0.369   2.899   6.745 -1.0543  0.6612 -0.4946
 6632SOL     OW31528   2.800   3.803   6.863 -0.1678 -0.0953 -0.5251
 6632SOL    HW131529   2.865   3.759   6.807 -1.2662  0.0302 -1.8842
 6632SOL    HW231530   2.735   3.811   6.794 -1.7205  1.4214  1.1029
 6633SOL     OW31531   4.719   0.508   2.225  0.0273  0.0993  0.3606
 6633SOL    HW131532   4.714   0.448   2.150 -0.4178 -0.9495  1.2238
 6633SOL    HW231533   4.632   0.489   2.261 -0.8629  1.2374 -1.1894
 6634SOL     OW31534   4.654   4.238   0.961  0.1030  0.1480 -0.3181
 6634SOL    HW131535   4.582   4.211   0.904  0.3550  0.9395 -1.0071
 6634SOL    HW231536   4.631   4.327   0.987  3.0747 -0.1627  3.2826
 6635SOL     OW31537   4.552   1.924   9.058  0.4428 -0.0306  0.0848
 6635SOL    HW131538   4.464   1.953   9.080  0.1090 -1.8678  1.1388
 6635SOL    HW231539   4.544   1.841   9.013  0.7156 -0.0505  0.0721
 6636SOL     OW31540   2.640   3.421   5.884 -0.2380 -0.6170  0.1570
 6636SOL    HW131541   2.717   3.377   5.848  0.0928 -0.0715  0.1940
 6636SOL    HW231542   2.564   3.371   5.856  0.1192 -1.4748  0.7103
 6637SOL     OW31543   2.210   1.642  16.370 -0.0820 -0.4553 -0.0292
 6637SOL    HW131544   2.294   1.598  16.381  0.5413  1.3115  2.3159
 6637SOL    HW231545   2.195   1.625  16.277  2.5581  2.5415 -0.9906
 6638SOL     OW31546   3.323   4.217  14.551  0.2266  0.4759 -0.7698
 6638SOL    HW131547   3.377   4.252  14.623 -0.6751  1.1074 -0.4057
 6638SOL    HW231548   3.310   4.129  14.586 -1.5614  0.3692 -1.6974
 6639SOL     OW31549   4.122   2.934   7.350 -0.2980 -0.0519  0.2305
 6639SOL    HW131550   4.178   2.955   7.425 -0.1051  2.6669 -0.6770
 6639SOL    HW231551   4.186   2.930   7.278 -1.4382  0.5185 -0.8077
 6640SOL     OW31552   0.207   2.036  12.606  0.3282 -0.1138  0.2918
 6640SOL    HW131553   0.141   1.989  12.556 -0.3152  2.4739 -1.2804
 6640SOL    HW231554   0.230   1.962  12.662 -1.1689 -0.8820 -0.1003
 6641SOL     OW31555   1.342   1.830  11.841  0.0588  0.2651 -0.4730
 6641SOL    HW131556   1.248   1.830  11.861  0.2262  0.9178  0.3292
 6641SOL    HW231557   1.371   1.786  11.921  0.7083  1.3911 -0.1031
 6642SOL     OW31558   0.894   0.281   0.583 -0.2088 -0.2173  0.1335
 6642SOL    HW131559   0.914   0.215   0.516  1.9943 -0.0010  0.5778
 6642SOL    HW231560   0.827   0.235   0.633  0.5378 -1.8645 -0.3727
 6643SOL     OW31561   4.542   2.659  16.633  0.2825 -0.0371  0.1933
 6643SOL    HW131562   4.578   2.725  16.692  1.4371  0.6325 -1.2591
 6643SOL    HW231563   4.578   2.685  16.548 -0.8362  0.7164 -0.0479
 6644SOL     OW31564   1.353   0.689   9.469 -0.2993  0.0061  0.7401
 6644SOL    HW131565   1.393   0.603   9.457  0.6897  0.4310  0.9681
 6644SOL    HW231566   1.273   0.671   9.518 -0.6917  1.4479  0.6253
 6645SOL     OW31567   2.700   1.519   1.087 -0.2997  0.2876  0.2337
 6645SOL    HW131568   2.661   1.599   1.053  1.1344  1.9771  2.5312
 6645SOL    HW231569   2.689   1.471   1.005  0.2846 -1.8368  1.3836
 6646SOL     OW31570   2.435   1.047   7.326 -0.0245 -0.6515 -0.0001
 6646SOL    HW131571   2.463   0.963   7.292  1.9277  0.7195 -1.7898
 6646SOL    HW231572   2.409   1.088   7.243 -1.6700 -1.8192 -0.0691
 6647SOL     OW31573   2.998   1.525   6.297  0.3087  0.1946 -0.7461
 6647SOL    HW131574   2.998   1.486   6.210 -0.8019 -0.9351 -0.2231
 6647SOL    HW231575   2.998   1.618   6.272  0.5836  0.1153 -1.0341
 6648SOL     OW31576   0.356   0.714  15.866 -0.1865  0.4536 -0.5351
 6648SOL    HW131577   0.319   0.651  15.928 -0.5730 -0.2580 -1.4885
 6648SOL    HW231578   0.401   0.778  15.921 -0.6474 -0.6980  1.1846
 6649SOL     OW31579   0.397   0.134   9.243  0.1494  0.0265 -0.2582
 6649SOL    HW131580   0.349   0.169   9.168 -2.9959  0.7864  2.0939
 6649SOL    HW231581   0.339   0.062   9.268 -1.1269  2.2114  3.1460
 6650SOL     OW31582   1.960   0.685  13.584  1.1320  0.5477  0.4196
 6650SOL    HW131583   1.958   0.593  13.613 -0.8094 -0.6689 -3.6851
 6650SOL    HW231584   1.866   0.702  13.576  1.2204  1.0880  0.5468
 6651SOL     OW31585   1.352   4.251   4.078 -0.0024  0.4018 -0.3477
 6651SOL    HW131586   1.403   4.200   4.141  2.3348  0.5252 -2.1165
 6651SOL    HW231587   1.266   4.258   4.118 -0.7758 -1.0833 -1.7616
 6652SOL     OW31588   4.196   2.446  15.018 -0.1394 -0.2204 -0.3983
 6652SOL    HW131589   4.261   2.413  15.079 -1.3466 -2.1526 -0.1664
 6652SOL    HW231590   4.247   2.504  14.960 -1.4681  1.1470 -0.1974
 6653SOL     OW31591   4.648   1.159   6.398  0.0871 -0.3719 -0.1806
 6653SOL    HW131592   4.589   1.193   6.464  0.6609 -2.5413  1.4784
 6653SOL    HW231593   4.647   1.066   6.421 -1.4581 -0.3236 -0.0747
 6654SOL     OW31594   4.668   0.280   5.870  0.0412  0.3532  0.4097
 6654SOL    HW131595   4.585   0.322   5.891  0.3914  1.2893 -0.0370
 6654SOL    HW231596   4.711   0.346   5.815 -2.0566 -0.7897 -2.5554
 6655SOL     OW31597   1.905   3.039   5.213  0.7989  0.5815  0.3492
 6655SOL    HW131598   1.963   2.971   5.179  0.6753  0.7918 -0.2792
 6655SOL    HW231599   1.933   3.114   5.161 -2.2320  1.3240 -0.1802
 6656SOL     OW31600   3.357   0.109  16.289 -0.1091 -0.6349 -0.0871
 6656SOL    HW131601   3.424   0.168  16.322  0.1855 -0.6568 -0.6496
 6656SOL    HW231602   3.390   0.025  16.319  0.7670  0.1641  1.1625
 6657SOL     OW31603   0.000   2.075   5.016  0.4509  0.2062 -0.5018
 6657SOL    HW131604   4.670   2.023   5.058  1.3153 -3.8812 -4.0904
 6657SOL    HW231605   0.076   2.016   5.017 -0.9912 -1.6229  0.7181
 6658SOL     OW31606   2.692   0.313  16.160  0.1331  0.2094 -0.0062
 6658SOL    HW131607   2.688   0.389  16.102 -0.1769 -1.8280 -2.6302
 6658SOL    HW231608   2.777   0.331  16.200 -0.0902  0.7263  0.2344
 6659SOL     OW31609   0.751   1.230   7.866 -0.1622 -0.9871  0.2007
 6659SOL    HW131610   0.763   1.246   7.960 -1.1511 -1.3915  0.3937
 6659SOL    HW231611   0.708   1.309   7.835  0.7898 -0.0021  1.4104
 6660SOL     OW31612   3.557   4.274  17.109 -0.1600  0.6451  0.4576
 6660SOL    HW131613   3.580   4.269  17.202  1.2806  0.9937  0.1138
 6660SOL    HW231614   3.469   4.237  17.117  0.4650 -0.8947  0.3180
 6661SOL     OW31615   0.429   4.432   1.684 -0.5107 -0.3925  0.1769
 6661SOL    HW131616   0.378   4.500   1.727  0.7420  0.7765 -0.1862
 6661SOL    HW231617   0.513   4.440   1.729 -0.6782  0.0700  0.3958
 6662SOL     OW31618   0.234   4.736   2.637  0.1778  0.0608 -0.0333
 6662SOL    HW131619   0.250   0.086   2.674 -0.8245  0.4005 -0.4210
 6662SOL    HW231620   0.140   4.733   2.650  0.4330 -2.4933  1.1036
 6663SOL     OW31621   1.038   4.567   6.077 -0.6231 -0.2098  0.9693
 6663SOL    HW131622   1.062   4.489   6.128  1.4315 -1.1370 -1.4228
 6663SOL    HW231623   0.989   4.618   6.142  0.1888  1.3819  0.3318
 6664SOL     OW31624   1.085   1.153   4.460  0.9361  0.3470  0.3547
 6664SOL    HW131625   1.029   1.083   4.493  1.4484  0.0443  0.5964
 6664SOL    HW231626   1.075   1.229   4.518  0.3904 -1.0422  2.0681
 6665SOL     OW31627   3.374   1.821   4.885 -0.0904 -0.2518 -0.1021
 6665SOL    HW131628   3.291   1.858   4.856 -0.9524 -1.0601  1.3701
 6665SOL    HW231629   3.373   1.826   4.981 -0.1402  0.5676 -0.1420
 6666SOL     OW31630   1.991   2.492   2.928  0.2397 -0.3641  0.8896
 6666SOL    HW131631   1.948   2.502   2.843  1.7328  1.0148  0.3036
 6666SOL    HW231632   2.019   2.401   2.931  1.5587  0.0089 -0.2164
 6667SOL     OW31633   3.350   0.607   9.635  0.4402  0.5176  0.4180
 6667SOL    HW131634   3.375   0.550   9.708 -1.9745  0.5110  1.2371
 6667SOL    HW231635   3.430   0.657   9.619  1.9062 -2.2225 -0.8933
 6668SOL     OW31636   0.863   4.084  11.707 -0.0739 -0.2864 -0.6061
 6668SOL    HW131637   0.877   4.022  11.779  1.6346  1.1173  0.2601
 6668SOL    HW231638   0.951   4.120  11.698 -0.5311  0.8820 -0.3684
 6669SOL     OW31639   1.852   4.662   3.161 -0.0074 -0.2359 -0.2225
 6669SOL    HW131640   1.920   4.692   3.101 -0.5546 -0.4916 -0.9787
 6669SOL    HW231641   1.896   4.674   3.245  1.7954 -1.7000 -0.9449
 6670SOL     OW31642   3.489   1.972   2.205  0.2443  0.4149  0.1230
 6670SOL    HW131643   3.564   2.020   2.239  1.1954 -0.0386 -1.3656
 6670SOL    HW231644   3.454   2.035   2.141  1.0390  1.8021  1.0419
 6671SOL     OW31645   2.608   3.259   3.418 -0.0593 -0.0649 -0.4743
 6671SOL    HW131646   2.673   3.255   3.487  0.3624  0.5979 -0.8354
 6671SOL    HW231647   2.525   3.238   3.461 -0.9318  1.3621 -1.4272
 6672SOL     OW31648   3.314   4.592   4.043 -0.0982  0.0518 -0.1388
 6672SOL    HW131649   3.316   4.561   4.133 -0.3387 -1.5607 -0.6848
 6672SOL    HW231650   3.237   4.648   4.040 -1.1880 -1.4542 -0.7270
 6673SOL     OW31651   1.237   3.965   4.282 -0.0742  0.2124 -0.0260
 6673SOL    HW131652   1.194   3.897   4.334 -1.0175  1.5775  0.9648
 6673SOL    HW231653   1.158   4.006   4.247 -0.2807  0.3763  0.6400
 6674SOL     OW31654   3.793   0.762   8.673 -0.3521  0.1425  0.2480
 6674SOL    HW131655   3.812   0.687   8.730  0.5453  0.0613 -0.1498
 6674SOL    HW231656   3.862   0.753   8.607  0.2085  0.1385  0.8318
 6675SOL     OW31657   0.510   3.083   4.498  0.3051  0.0231 -0.0376
 6675SOL    HW131658   0.484   3.105   4.408  2.3127  0.0859 -0.5983
 6675SOL    HW231659   0.510   2.988   4.490 -1.8543 -0.0504  0.8818
 6676SOL     OW31660   2.100   1.788   9.168 -0.2412  0.4046  0.0911
 6676SOL    HW131661   2.026   1.733   9.140  1.6724 -1.0157 -2.1596
 6676SOL    HW231662   2.055   1.845   9.231  1.7859  1.1748  0.8360
 6677SOL     OW31663   3.780   0.502   9.497 -0.7574 -0.2924 -0.5311
 6677SOL    HW131664   3.696   0.478   9.458 -2.0000  2.1539  0.6405
 6677SOL    HW231665   3.811   0.415   9.521 -1.6192 -0.9073 -1.6452
 6678SOL     OW31666   2.193   2.277  12.631 -0.0545 -0.5410 -0.3137
 6678SOL    HW131667   2.207   2.300  12.723  0.9202 -0.2644 -0.5280
 6678SOL    HW231668   2.283   2.245  12.625 -0.1748 -0.7950 -0.7897
 6679SOL     OW31669   0.700   3.367   9.925  0.5566  0.2967  0.1306
 6679SOL    HW131670   0.753   3.446   9.926  3.0076 -1.3480 -0.0972
 6679SOL    HW231671   0.686   3.351   9.831 -1.5108  0.5755  0.3838
 6680SOL     OW31672   0.313   2.169   5.867 -0.3226 -0.7795 -0.4126
 6680SOL    HW131673   0.285   2.160   5.776 -0.0238  1.5785 -0.7346
 6680SOL    HW231674   0.245   2.116   5.908 -0.9714  0.5291  0.1711
 6681SOL     OW31675   4.049   1.850   6.119  0.1621 -0.8175 -0.3167
 6681SOL    HW131676   4.084   1.761   6.114 -0.1860 -1.0273  1.1831
 6681SOL    HW231677   4.108   1.880   6.188  0.5728 -1.3478 -0.4356
 6682SOL     OW31678   1.662   4.198   8.969 -0.7216 -0.0993 -0.1106
 6682SOL    HW131679   1.636   4.165   9.055 -0.2867 -2.3801 -0.8447
 6682SOL    HW231680   1.682   4.291   8.982 -2.6372  0.1478  1.0273
 6683SOL     OW31681   3.453   4.032   8.800  0.8024  0.2601 -0.1932
 6683SOL    HW131682   3.496   4.020   8.716  0.2748  0.3039 -0.4730
 6683SOL    HW231683   3.420   3.947   8.830  2.4828 -0.0037  0.8799
 6684SOL     OW31684   0.113   2.749   8.974  0.5134  0.4336  0.3131
 6684SOL    HW131685   0.130   2.709   8.889  1.0881 -0.3412  0.7874
 6684SOL    HW231686   0.032   2.699   8.978  1.0779 -0.5742 -0.7824
 6685SOL     OW31687   1.414   2.411   7.731 -0.6543  0.2692  0.4467
 6685SOL    HW131688   1.429   2.320   7.706 -3.7864 -0.5824  1.6961
 6685SOL    HW231689   1.378   2.449   7.651 -0.6165 -0.4358  0.0915
 6686SOL     OW31690   3.417   0.871  13.354 -0.6667  0.5371 -0.6293
 6686SOL    HW131691   3.439   0.890  13.445 -1.8107  1.0336 -0.4544
 6686SOL    HW231692   3.381   0.959  13.338  0.6690  1.1623 -0.2046
 6687SOL     OW31693   3.367   4.293  12.126  0.8388  0.0952  0.6351
 6687SOL    HW131694   3.321   4.339  12.056 -1.2356  0.6876  2.3804
 6687SOL    HW231695   3.351   4.200  12.108 -2.5810  0.9984 -1.0530
 6688SOL     OW31696   4.306   4.267   3.701 -0.0997  0.0115  0.1633
 6688SOL    HW131697   4.325   4.355   3.668 -0.7408 -0.0416 -0.3384
 6688SOL    HW231698   4.352   4.270   3.785 -2.1479 -1.8025  1.3386
 6689SOL     OW31699   0.814   1.273  16.010  0.2108 -0.7108  0.2191
 6689SOL    HW131700   0.837   1.308  16.096 -0.2718  1.7806 -0.6611
 6689SOL    HW231701   0.786   1.358  15.975  2.6679 -0.2483 -0.6115
 6690SOL     OW31702   2.849   3.872   4.697 -0.3951 -0.1296 -0.6107
 6690SOL    HW131703   2.878   3.947   4.749  2.2102 -0.5976 -1.3503
 6690SOL    HW231704   2.774   3.912   4.654 -0.3334  3.0227  2.1643
 6691SOL     OW31705   3.888   0.934   6.811 -0.4396  0.6901 -0.4567
 6691SOL    HW131706   3.900   0.887   6.729 -1.0466  0.7012 -0.5463
 6691SOL    HW231707   3.802   0.898   6.832 -0.2572  0.4744 -0.0764
 6692SOL     OW31708   4.346   4.721   1.952 -0.1290 -0.4106 -0.3913
 6692SOL    HW131709   4.369   0.054   1.892 -0.1077 -1.2938 -1.4311
 6692SOL    HW231710   4.363   0.023   2.038 -1.0800  1.1445 -0.9151
 6693SOL     OW31711   1.228   3.927   9.800 -0.1660 -0.2489  0.0743
 6693SOL    HW131712   1.273   3.946   9.882  1.3125 -0.3191 -0.7187
 6693SOL    HW231713   1.140   3.912   9.836  0.4349  0.8497  1.9820
 6694SOL     OW31714   3.716   1.368  14.830 -0.0804 -0.3420  0.1531
 6694SOL    HW131715   3.730   1.335  14.918  0.0492 -0.0958  0.2241
 6694SOL    HW231716   3.794   1.329  14.791 -1.5974 -2.2681 -0.9385
 6695SOL     OW31717   2.443   3.566  16.265  0.4836 -0.1433  0.5440
 6695SOL    HW131718   2.508   3.603  16.205  1.6015 -1.0912  1.1548
 6695SOL    HW231719   2.376   3.554  16.198  0.0332  2.0624  0.6031
 6696SOL     OW31720   1.973   3.136   2.350 -0.0369 -0.1653 -0.2471
 6696SOL    HW131721   2.065   3.135   2.325 -0.2744 -1.2288 -1.0740
 6696SOL    HW231722   1.933   3.199   2.290 -0.9446 -0.6748 -0.1797
 6697SOL     OW31723   1.035   2.778   3.820 -0.2131 -0.0417  0.1668
 6697SOL    HW131724   1.024   2.841   3.749  1.7928  1.0282  0.7851
 6697SOL    HW231725   1.093   2.835   3.871  2.1852 -2.1341 -0.2525
 6698SOL     OW31726   0.235   0.914   1.961 -0.5119  0.5414  0.5340
 6698SOL    HW131727   0.184   0.901   2.041 -1.0998  1.1836  0.2687
 6698SOL    HW231728   0.245   1.009   1.969 -0.9242  0.5046  1.4865
 6699SOL     OW31729   2.442   1.824  11.032 -0.7192 -0.0655  0.5397
 6699SOL    HW131730   2.467   1.848  11.121  2.4137  0.6396 -0.5529
 6699SOL    HW231731   2.418   1.913  11.008 -0.0648  0.3228  1.3809
 6700SOL     OW31732   0.018   3.740  12.670  0.5788 -0.3985 -0.7425
 6700SOL    HW131733   4.728   3.828  12.698  2.5656  0.6822 -2.2408
 6700SOL    HW231734   0.089   3.718  12.730  1.3002 -1.3445 -1.9566
 6701SOL     OW31735   3.934   1.380   8.976  0.1856  0.3579 -0.5568
 6701SOL    HW131736   3.971   1.303   8.932  0.4633  1.0826 -1.5954
 6701SOL    HW231737   3.932   1.364   9.070  2.4600 -1.0009 -0.7214
 6702SOL     OW31738   4.190   2.155   3.517  0.2127  0.2152 -0.6257
 6702SOL    HW131739   4.277   2.155   3.476  1.1805  0.0793  1.4344
 6702SOL    HW231740   4.185   2.234   3.571 -1.2937  0.0481 -0.5371
 6703SOL     OW31741   0.932   0.719   5.030  0.0441 -0.3153 -0.2967
 6703SOL    HW131742   0.992   0.703   5.103 -0.3263  1.1750  0.3505
 6703SOL    HW231743   0.845   0.732   5.070  0.0457  0.9814 -0.7094
 6704SOL     OW31744   2.766   1.167   8.055 -0.1436  0.5932  0.4362
 6704SOL    HW131745   2.834   1.151   7.989 -0.6902  0.1972 -0.0370
 6704SOL    HW231746   2.782   1.080   8.092 -0.9300  0.1704 -0.2191
 6705SOL     OW31747   1.078   0.020   7.646 -0.7313  0.1881 -0.2152
 6705SOL    HW131748   1.036   0.054   7.567 -0.9257  1.8938  0.6271
 6705SOL    HW231749   1.061   0.097   7.701 -0.3896 -0.1126  0.3185
 6706SOL     OW31750   2.539   3.046   8.335 -0.2895  0.2818  0.5036
 6706SOL    HW131751   2.533   2.967   8.390 -0.7887 -0.0929 -0.0906
 6706SOL    HW231752   2.626   3.076   8.360  1.2179 -2.6170 -1.2407
 6707SOL     OW31753   3.697   4.406   4.459 -0.0605 -0.1564 -0.2403
 6707SOL    HW131754   3.629   4.340   4.445  3.0388 -3.3139 -0.7423
 6707SOL    HW231755   3.735   4.412   4.371 -0.0059 -0.7590 -0.2601
 6708SOL     OW31756   0.272   0.528   1.348 -0.7856  0.1234 -0.2794
 6708SOL    HW131757   0.209   0.600   1.347  1.1752  1.8382 -1.6323
 6708SOL    HW231758   0.351   0.567   1.309  0.8563 -1.6303  1.2713
 6709SOL     OW31759   3.092   1.232   5.075 -0.0036 -1.1116 -0.5680
 6709SOL    HW131760   3.108   1.254   5.167  0.2642 -0.6640 -0.7228
 6709SOL    HW231761   3.045   1.311   5.051 -1.1210 -1.7042 -0.3004
 6710SOL     OW31762   1.345   0.057   4.644 -0.2586 -0.1200 -0.1440
 6710SOL    HW131763   1.334   0.031   4.552  0.2046  0.5439 -0.3891
 6710SOL    HW231764   1.298   4.722   4.684 -1.1708  0.5622  0.0211
 6711SOL     OW31765   3.504   2.759   7.012  0.0751 -0.1674 -0.0157
 6711SOL    HW131766   3.568   2.814   7.058 -0.7877  1.0990 -0.3113
 6711SOL    HW231767   3.431   2.816   7.038 -1.3821 -1.8827 -0.3852
 6712SOL     OW31768   3.014   2.362   8.726 -0.0654  0.2288  0.1260
 6712SOL    HW131769   2.971   2.286   8.687  2.2526 -1.7123  1.3414
 6712SOL    HW231770   3.107   2.339   8.717 -0.4349 -0.6592 -1.4812
 6713SOL     OW31771   3.116   1.047   1.349  0.3215  0.2739  0.0809
 6713SOL    HW131772   3.057   1.065   1.422  0.4064 -0.4358  0.3267
 6713SOL    HW231773   3.115   1.129   1.300  1.4743  0.9928  1.2939
 6714SOL     OW31774   4.694   0.432  10.750 -0.4955 -0.0068 -0.4706
 6714SOL    HW131775   4.727   0.360  10.804  0.8741 -0.1926 -1.5581
 6714SOL    HW231776   4.713   0.505  10.809  0.8547 -2.3878  2.0533
 6715SOL     OW31777   2.577   2.938   1.620 -0.2332 -0.7159  0.2803
 6715SOL    HW131778   2.550   2.992   1.693  1.6722  0.0036  0.4433
 6715SOL    HW231779   2.535   2.853   1.632 -1.5559  0.3396  2.9809
 6716SOL     OW31780   4.631   2.051   4.212  0.1991  0.1489 -0.0359
 6716SOL    HW131781   4.599   1.992   4.144  1.5988 -0.6832  0.0051
 6716SOL    HW231782   4.574   2.026   4.284  0.2206  2.1306  0.6733
 6717SOL     OW31783   2.667   0.902   5.363  0.2611  0.7517  0.0847
 6717SOL    HW131784   2.605   0.854   5.308 -0.1528  0.1285  1.0845
 6717SOL    HW231785   2.724   0.930   5.292  0.1458 -3.1362 -1.5218
 6718SOL     OW31786   3.845   1.125   8.358  0.5463 -0.4671 -0.5746
 6718SOL    HW131787   3.909   1.073   8.406 -0.2179  0.4590  1.4210
 6718SOL    HW231788   3.848   1.074   8.277  3.4271 -1.2750  0.0420
 6719SOL     OW31789   3.012   0.096   5.912  0.1468 -0.1470  0.1195
 6719SOL    HW131790   3.086   0.111   5.854 -0.9526 -1.3066 -1.5876
 6719SOL    HW231791   3.034   0.014   5.956  0.0051 -0.6232 -0.7082
 6720SOL     OW31792   2.407   3.569   2.864  0.4426  0.4890  0.8635
 6720SOL    HW131793   2.325   3.551   2.818 -0.6265  1.5878  2.3748
 6720SOL    HW231794   2.468   3.530   2.801  0.4551  0.4337  0.9094
 6721SOL     OW31795   2.800   3.018  14.686 -0.6215 -0.7009  0.5885
 6721SOL    HW131796   2.719   2.969  14.699 -1.0984  0.4455  1.9642
 6721SOL    HW231797   2.835   2.979  14.605 -1.0253  0.1093  0.0205
 6722SOL     OW31798   1.424   3.002  15.737  0.2882  0.2783  0.5232
 6722SOL    HW131799   1.484   3.062  15.781 -1.0183  0.1762  2.4582
 6722SOL    HW231800   1.362   3.061  15.694  0.4032  0.0005 -0.0249
 6723SOL     OW31801   1.663   2.645  12.495  0.3546 -0.4510 -0.1175
 6723SOL    HW131802   1.588   2.588  12.480  0.8664 -1.3539  0.7721
 6723SOL    HW231803   1.645   2.676  12.584 -1.9447  0.5240 -0.9224
 6724SOL     OW31804   4.620   3.101   7.859  0.2836 -0.0261  0.3996
 6724SOL    HW131805   4.631   3.184   7.905  0.9293 -0.7667  1.5876
 6724SOL    HW231806   4.705   3.090   7.817  0.7754  3.8909  0.4066
 6725SOL     OW31807   1.555   0.438   6.218  0.4487 -0.1691  0.3833
 6725SOL    HW131808   1.503   0.517   6.203 -1.5947 -0.9922  3.1325
 6725SOL    HW231809   1.551   0.390   6.136 -1.4491  0.8922 -0.1391
 6726SOL     OW31810   0.814   0.808  10.418  0.1587  0.2947 -0.9151
 6726SOL    HW131811   0.855   0.820  10.504 -0.4478  0.7965 -0.6942
 6726SOL    HW231812   0.794   0.899  10.397 -0.4053  0.6263  1.0730
 6727SOL     OW31813   1.611   3.834   9.310  0.0870  0.4758 -0.1953
 6727SOL    HW131814   1.620   3.739   9.317  1.2997  0.6995  1.1373
 6727SOL    HW231815   1.705   3.852   9.309 -0.3496  2.6991 -2.1301
 6728SOL     OW31816   0.475   3.930   5.196  0.6036  0.0339 -0.2727
 6728SOL    HW131817   0.429   3.846   5.201 -1.5373  1.0709 -2.7631
 6728SOL    HW231818   0.568   3.908   5.192  0.3045 -2.1293  3.9114
 6729SOL     OW31819   0.358   1.839  16.391 -0.0637  0.2645 -0.6617
 6729SOL    HW131820   0.280   1.802  16.349 -1.6821  1.2004  1.5313
 6729SOL    HW231821   0.360   1.787  16.472  0.2890  0.4672 -0.5416
 6730SOL     OW31822   2.358   3.312  17.007  0.0523 -0.6045  0.1472
 6730SOL    HW131823   2.401   3.234  16.973 -1.6582 -1.4867  0.0464
 6730SOL    HW231824   2.333   3.335  16.918  0.0249  1.5368  0.6936
 6731SOL     OW31825   2.889   0.380   4.109 -0.9110  0.4869 -0.7075
 6731SOL    HW131826   2.822   0.321   4.075 -0.8257 -1.0269  1.7374
 6731SOL    HW231827   2.955   0.380   4.040  0.4192 -0.3000  0.5629
 6732SOL     OW31828   4.039   3.388   9.228  0.7330 -0.0638 -0.3669
 6732SOL    HW131829   4.129   3.374   9.258  1.0801  1.3170 -0.7857
 6732SOL    HW231830   4.001   3.385   9.316 -2.9272 -0.6551 -1.9897
 6733SOL     OW31831   4.147   0.583   1.731 -0.4156  0.0136 -0.1081
 6733SOL    HW131832   4.209   0.653   1.753  0.9760 -0.5855 -2.2258
 6733SOL    HW231833   4.153   0.528   1.809  1.0015 -1.6958 -1.4340
 6734SOL     OW31834   2.775   3.763  10.206 -0.5770  0.2561 -0.4574
 6734SOL    HW131835   2.712   3.759  10.278 -1.0823  0.5048 -0.8900
 6734SOL    HW231836   2.855   3.783  10.255 -0.2016  1.1852 -1.4564
 6735SOL     OW31837   0.715   1.960   5.602  0.0166  0.1073 -0.2258
 6735SOL    HW131838   0.682   1.889   5.547  0.3364  0.1383 -0.4585
 6735SOL    HW231839   0.644   2.024   5.608 -0.0616  0.0788 -0.8219
 6736SOL     OW31840   3.234   1.670  12.580 -0.4896 -0.4991  0.2501
 6736SOL    HW131841   3.145   1.644  12.606  0.7203 -3.5106  1.4996
 6736SOL    HW231842   3.235   1.647  12.487 -0.5006  0.2830  0.0624
 6737SOL     OW31843   3.130   2.425   7.392  0.0337  0.1518 -0.3693
 6737SOL    HW131844   3.117   2.502   7.337  1.1365  0.9935  0.5434
 6737SOL    HW231845   3.148   2.473   7.473  0.8751 -2.2277  0.8850
 6738SOL     OW31846   2.052   0.596  16.756 -0.4451  0.4029  0.7844
 6738SOL    HW131847   2.119   0.662  16.772  0.6649 -0.2530 -1.0361
 6738SOL    HW231848   2.073   0.532  16.824 -0.6818  0.4895  0.9383
 6739SOL     OW31849   4.561   0.660   7.127  0.7460 -0.0557  0.2290
 6739SOL    HW131850   4.485   0.693   7.175  0.2796  2.5324 -2.3149
 6739SOL    HW231851   4.596   0.615   7.204 -0.7001 -0.0874  0.8799
 6740SOL     OW31852   4.393   2.716   2.018 -1.1260 -0.3728 -0.0193
 6740SOL    HW131853   4.351   2.767   2.087  1.1099 -0.0654  1.1235
 6740SOL    HW231854   4.358   2.753   1.938  0.7936  0.5295 -0.4575
 6741SOL     OW31855   4.103   3.803   2.920  0.0431  0.4026 -0.3413
 6741SOL    HW131856   4.106   3.724   2.974 -0.2171 -0.3194 -1.3655
 6741SOL    HW231857   4.023   3.843   2.954 -0.6747 -1.7609  0.5159
 6742SOL     OW31858   0.917   2.302   2.901 -0.1798  0.3277  0.0224
 6742SOL    HW131859   0.887   2.281   2.812  1.6500 -1.0415 -0.2590
 6742SOL    HW231860   0.936   2.211   2.924  2.9255  1.3409  1.3236
 6743SOL     OW31861   1.455   2.839  15.454  1.0478 -0.0621  0.1746
 6743SOL    HW131862   1.472   2.828  15.548 -0.4523 -0.1153  0.4317
 6743SOL    HW231863   1.511   2.913  15.434 -0.8467  1.0488 -0.9867
 6744SOL     OW31864   3.358   0.081  15.815  0.4695 -0.0302  0.4584
 6744SOL    HW131865   3.341   0.093  15.908 -3.8753  1.7123 -0.5682
 6744SOL    HW231866   3.366   4.724  15.799  1.1685 -0.0070  0.6883
 6745SOL     OW31867   1.483   1.040   8.998  0.3341  0.5087 -0.0776
 6745SOL    HW131868   1.402   1.002   8.965 -0.0730  1.9492 -0.7005
 6745SOL    HW231869   1.511   0.971   9.058 -1.9750 -0.1020  0.2922
 6746SOL     OW31870   2.594   3.832   6.674 -0.3816 -0.3907  0.5195
 6746SOL    HW131871   2.573   3.901   6.736  0.3375  1.9287 -1.8440
 6746SOL    HW231872   2.530   3.868   6.613  0.5110  0.3795  0.0429
 6747SOL     OW31873   2.498   1.682   9.430 -0.5079  0.3261 -0.5513
 6747SOL    HW131874   2.425   1.724   9.385 -0.7750  0.6280  0.1714
 6747SOL    HW231875   2.539   1.635   9.357  0.1779 -2.0961  1.3841
 6748SOL     OW31876   2.714   0.746   0.935  0.1630 -0.8385  0.2405
 6748SOL    HW131877   2.639   0.753   0.875 -0.0000 -0.6637  0.4635
 6748SOL    HW231878   2.690   0.797   1.013 -0.8591 -1.4717  0.3469
 6749SOL     OW31879   3.635   3.704   4.512  0.8304  0.0567  0.0227
 6749SOL    HW131880   3.627   3.668   4.600 -0.5073  2.4325  0.8467
 6749SOL    HW231881   3.617   3.797   4.521  1.3191  0.1962 -0.4038
 6750SOL     OW31882   3.056   2.941   5.974 -0.0092  0.4601  0.8832
 6750SOL    HW131883   3.135   2.963   5.925  0.3475 -0.5020  1.0310
 6750SOL    HW231884   2.998   2.918   5.902  1.1950  0.0254  0.0443
 6751SOL     OW31885   2.270   4.204   4.819  0.1086  0.2720 -0.0936
 6751SOL    HW131886   2.196   4.235   4.766  0.7267  0.6763 -0.7338
 6751SOL    HW231887   2.254   4.264   4.892 -0.4470 -0.8009  0.6470
 6752SOL     OW31888   1.701   2.727  11.973 -0.7523  0.6968  0.0226
 6752SOL    HW131889   1.717   2.663  12.042 -2.8690  0.9814  0.7702
 6752SOL    HW231890   1.752   2.794  12.020  1.8600  2.1362 -4.8138
 6753SOL     OW31891   3.425   1.211   4.066  0.7304 -0.0941  0.5211
 6753SOL    HW131892   3.427   1.279   4.134  1.6875 -0.7367  1.1371
 6753SOL    HW231893   3.365   1.156   4.117 -0.9404  0.4742 -0.8228
 6754SOL     OW31894   0.437   0.661   5.448 -0.4107  0.1174  0.4553
 6754SOL    HW131895   0.458   0.661   5.355  0.4503  2.9310  0.6468
 6754SOL    HW231896   0.520   0.696   5.481 -1.0671  0.9715  1.2202
 6755SOL     OW31897   0.057   2.784   4.770 -1.0760 -0.2716 -0.0112
 6755SOL    HW131898   0.021   2.873   4.775  0.5411  0.4651 -1.5778
 6755SOL    HW231899   0.093   2.771   4.858 -1.1516 -1.4098 -0.1524
 6756SOL     OW31900   4.688   3.465   1.174  0.1586 -0.3933 -0.0060
 6756SOL    HW131901   4.679   3.541   1.231  0.1758  0.6230 -1.3615
 6756SOL    HW231902   0.045   3.451   1.183  0.1342 -1.0974 -0.8001
 6757SOL     OW31903   3.581   2.362   1.670 -0.1327  0.4546 -0.4334
 6757SOL    HW131904   3.643   2.293   1.695 -0.5958  0.7308  1.4476
 6757SOL    HW231905   3.510   2.310   1.633  0.5405  0.7296 -2.1299
 6758SOL     OW31906   1.533   4.626   9.558 -0.0323 -0.9219 -0.0737
 6758SOL    HW131907   1.623   4.652   9.540 -0.3266 -1.9036 -2.9929
 6758SOL    HW231908   1.494   4.713   9.554 -0.5378 -1.2590 -3.0110
 6759SOL     OW31909   1.819   4.048  17.125  0.3161  0.2953  0.3799
 6759SOL    HW131910   1.836   4.137  17.093 -2.7690  1.5641  2.2971
 6759SOL    HW231911   1.730   4.029  17.097 -0.0959 -0.2757  2.0763
 6760SOL     OW31912   3.070   1.767  14.096  0.1543  0.7959  0.3697
 6760SOL    HW131913   3.088   1.820  14.174  0.7865  0.5421  0.3910
 6760SOL    HW231914   3.021   1.834  14.047 -1.7936 -0.5939  0.4267
 6761SOL     OW31915   0.985   3.768   8.829 -0.1129  0.1823  0.1917
 6761SOL    HW131916   0.969   3.678   8.856 -1.3006  0.3178 -0.0569
 6761SOL    HW231917   0.951   3.761   8.740  0.0435  0.6127  0.0987
 6762SOL     OW31918   2.259   2.312   7.049  0.1719  0.6569  0.0060
 6762SOL    HW131919   2.193   2.367   7.006  0.3417  2.0359  1.5185
 6762SOL    HW231920   2.322   2.301   6.978  1.5793  1.7944  1.0864
 6763SOL     OW31921   0.972   2.793  17.573  0.6799 -0.1188  0.2409
 6763SOL    HW131922   0.916   2.715  17.573  1.1438 -0.4577  3.2830
 6763SOL    HW231923   0.911   2.862  17.601  1.0606  0.3463 -0.0709
 6764SOL     OW31924   0.606   4.413   2.180  0.1660 -0.0098 -0.0138
 6764SOL    HW131925   0.516   4.432   2.155 -0.0467  1.0968  1.5759
 6764SOL    HW231926   0.602   4.441   2.272 -2.3165 -1.0933  0.1996
 6765SOL     OW31927   0.105   3.728   9.371 -0.3516 -0.1401 -0.3335
 6765SOL    HW131928   0.020   3.687   9.385 -0.3134  0.1020  0.6019
 6765SOL    HW231929   0.111   3.726   9.276 -1.8778  1.7642 -0.4729
 6766SOL     OW31930   2.817   2.882  12.758 -0.1349 -0.0484  0.2346
 6766SOL    HW131931   2.825   2.906  12.851  1.1738  1.2578 -0.2134
 6766SOL    HW231932   2.878   2.950  12.728 -1.7407  0.6603 -1.4471
 6767SOL     OW31933   3.535   3.314   8.126  0.6536  0.3522 -0.6883
 6767SOL    HW131934   3.566   3.348   8.211 -1.2365  1.7094 -0.5543
 6767SOL    HW231935   3.451   3.359   8.126 -0.2551 -1.3549  0.3346
 6768SOL     OW31936   4.338   3.845   8.583 -0.1690 -0.3043 -0.2793
 6768SOL    HW131937   4.267   3.860   8.645 -0.7628 -1.2375 -0.7516
 6768SOL    HW231938   4.289   3.823   8.504  1.9258  0.4834 -1.7934
 6769SOL     OW31939   0.120   4.186   5.401  0.2453 -0.1018  0.6635
 6769SOL    HW131940   0.041   4.233   5.377 -0.1997 -0.2696  1.7870
 6769SOL    HW231941   0.092   4.133   5.476  0.7697 -0.4407  0.6212
 6770SOL     OW31942   2.664   2.984   2.397 -0.1460  0.2528 -0.0140
 6770SOL    HW131943   2.744   2.963   2.446 -0.0659  1.1203  0.2292
 6770SOL    HW231944   2.608   3.024   2.464 -2.1837  0.0103 -1.5623
 6771SOL     OW31945   2.118   0.908   5.398 -0.1542 -0.2033 -0.3985
 6771SOL    HW131946   2.158   0.882   5.481  2.6086  2.1533 -1.0134
 6771SOL    HW231947   2.153   0.995   5.383  3.4215 -1.4079  0.8641
 6772SOL     OW31948   0.172   0.913   7.347  0.3184 -0.1996  0.3971
 6772SOL    HW131949   0.087   0.884   7.316  0.6493  0.0435 -0.7180
 6772SOL    HW231950   0.225   0.835   7.331  2.0101  0.4954  2.5291
 6773SOL     OW31951   0.917   2.507   8.695 -0.1172  0.4119  0.0361
 6773SOL    HW131952   0.906   2.602   8.704 -1.0645 -0.0544  3.6651
 6773SOL    HW231953   0.943   2.502   8.603  2.3205  0.2041  0.7575
 6774SOL     OW31954   2.403   3.056  16.900  0.5327  0.2672 -0.2592
 6774SOL    HW131955   2.449   3.017  16.825 -0.7164 -1.3445 -0.1859
 6774SOL    HW231956   2.447   3.003  16.967 -0.9371 -0.8854 -0.2027
 6775SOL     OW31957   0.517   2.727  12.047  0.2158 -0.0372  0.0954
 6775SOL    HW131958   0.557   2.790  12.107  3.3696  0.8253 -2.9052
 6775SOL    HW231959   0.502   2.651  12.103  1.6799 -0.0117  0.5366
 6776SOL     OW31960   1.106   0.781  17.195 -0.2207  0.0550  0.0691
 6776SOL    HW131961   1.111   0.788  17.099  0.4775 -0.5615  0.0561
 6776SOL    HW231962   1.078   0.690  17.208 -0.0951  0.0931  0.5837
 6777SOL     OW31963   4.037   4.674   4.395  0.0286 -0.8291  0.5868
 6777SOL    HW131964   4.019   4.594   4.346 -0.6484 -1.8705  2.5415
 6777SOL    HW231965   3.952   4.686   4.437 -0.5250 -0.0572 -0.7469
 6778SOL     OW31966   3.093   0.037   3.977  0.2084 -0.3163 -0.0544
 6778SOL    HW131967   3.158   0.103   3.949 -2.0804  0.9827 -2.3007
 6778SOL    HW231968   3.034   0.047   3.902 -0.3506 -0.9320  0.3102
 6779SOL     OW31969   0.737   3.218  15.571  0.1718  0.0700  0.2810
 6779SOL    HW131970   0.719   3.230  15.478 -2.1068  1.0337  0.8479
 6779SOL    HW231971   0.723   3.308  15.600 -1.7408 -0.5240  1.1670
 6780SOL     OW31972   2.496   0.213  17.510 -0.2894  0.0267 -0.0377
 6780SOL    HW131973   2.407   0.244  17.527 -0.8638 -2.0989  0.7324
 6780SOL    HW231974   2.546   0.265  17.574 -0.0738 -2.0397  1.4577
 6781SOL     OW31975   1.373   3.542   7.070  0.5689 -0.2991 -0.1163
 6781SOL    HW131976   1.311   3.542   7.143  0.8100  0.1556  0.0876
 6781SOL    HW231977   1.430   3.470   7.096  0.2102 -1.1615 -1.7271
 6782SOL     OW31978   4.068   0.371   5.497  0.3993  0.3738 -0.0912
 6782SOL    HW131979   4.091   0.370   5.404  3.0341  2.4738  0.5397
 6782SOL    HW231980   4.076   0.465   5.516  1.0214  0.4533 -0.7440
 6783SOL     OW31981   1.737   2.342   4.546  0.5144  0.1611  0.2985
 6783SOL    HW131982   1.711   2.358   4.455 -0.2539  0.2629  0.5342
 6783SOL    HW231983   1.657   2.376   4.585  0.6964  0.8353  0.0808
 6784SOL     OW31984   3.252   0.293   2.459  0.6924  0.4246  0.9224
 6784SOL    HW131985   3.206   0.372   2.431  0.0436 -1.0738 -2.1439
 6784SOL    HW231986   3.275   0.237   2.386 -0.6924  0.5580  0.3938
 6785SOL     OW31987   2.264   2.287   4.054 -0.4953  0.8381 -0.0433
 6785SOL    HW131988   2.187   2.242   4.088  0.1737 -1.1182 -1.0604
 6785SOL    HW231989   2.234   2.308   3.966  1.1527  1.5368 -0.4335
 6786SOL     OW31990   3.473   1.358   4.291 -0.2246 -0.6575  0.3206
 6786SOL    HW131991   3.418   1.436   4.278  0.8675  0.4111  2.0857
 6786SOL    HW231992   3.549   1.398   4.334 -0.1029 -0.2542 -0.2658
 6787SOL     OW31993   2.556   1.340   7.968  0.2070 -0.6204 -0.1527
 6787SOL    HW131994   2.615   1.287   8.022  0.0771 -2.3689 -1.7438
 6787SOL    HW231995   2.535   1.275   7.901 -2.2910  1.8511 -1.7245
 6788SOL     OW31996   1.822   3.013   6.799  0.4114  0.1776  0.6206
 6788SOL    HW131997   1.904   2.969   6.777  0.5292  0.4876  0.4422
 6788SOL    HW231998   1.802   3.037   6.709  0.0031 -0.2082  0.6051
 6789SOL     OW31999   0.293   1.482   7.681  0.0557  0.7303 -0.4142
 6789SOL    HW132000   0.328   1.507   7.766 -0.7866 -2.4990  0.8596
 6789SOL    HW232001   0.346   1.543   7.629 -2.4901  2.6592 -0.7757
 6790SOL     OW32002   3.645   4.655   5.642 -0.2770 -0.5411  0.5141
 6790SOL    HW132003   3.681   4.567   5.656 -0.7649 -0.7393  0.5452
 6790SOL    HW232004   3.552   4.633   5.635 -0.0711 -0.4721 -2.2674
 6791SOL     OW32005   4.459   1.940  14.621  0.0411  0.0714 -0.7018
 6791SOL    HW132006   4.380   1.938  14.568  1.2562 -1.4903 -2.4275
 6791SOL    HW232007   4.453   1.852  14.658 -0.6142  0.7602  0.8546
 6792SOL     OW32008   4.166   0.140   9.773  0.2463  0.6117 -0.3632
 6792SOL    HW132009   4.242   0.087   9.747 -0.8243 -2.0466  1.8578
 6792SOL    HW232010   4.098   0.072   9.778  0.8091  0.1379  1.0668
 6793SOL     OW32011   4.031   3.432  12.265 -0.0351  0.2927 -0.0753
 6793SOL    HW132012   4.019   3.496  12.335  0.3697 -2.2510  2.3006
 6793SOL    HW232013   4.095   3.370  12.299 -0.2593  0.0393 -0.1136
 6794SOL     OW32014   2.493   0.778   7.311 -0.0034 -0.0273 -0.2492
 6794SOL    HW132015   2.548   0.734   7.246  1.4681  0.4986  0.6382
 6794SOL    HW232016   2.555   0.779   7.385  1.3246 -2.9238 -1.2969
 6795SOL     OW32017   2.936   3.545   6.826 -0.2906  0.0591  0.3315
 6795SOL    HW132018   2.843   3.535   6.847 -0.0761 -0.2928  1.1038
 6795SOL    HW232019   2.949   3.466   6.774 -1.1472 -0.6679  1.2246
 6796SOL     OW32020   0.343   0.743   5.097  0.0032  0.0379 -0.2234
 6796SOL    HW132021   0.318   0.725   5.006  1.2765 -0.1203 -0.5392
 6796SOL    HW232022   0.393   0.664   5.118  0.3827  0.0773 -0.9827
 6797SOL     OW32023   4.369   4.302   8.711  0.7145  0.5443 -0.1804
 6797SOL    HW132024   4.363   4.330   8.620 -1.7385 -0.2359 -0.2531
 6797SOL    HW232025   4.342   4.380   8.759  4.1698  1.0631  0.9504
 6798SOL     OW32026   0.758   0.230   5.787 -0.0286  0.5116 -0.0348
 6798SOL    HW132027   0.723   0.319   5.776 -0.9945  0.3430  1.6316
 6798SOL    HW232028   0.691   0.179   5.742  0.4358 -0.6471  0.5994
 6799SOL     OW32029   0.020   1.089  16.728 -0.0284 -0.1553 -0.2799
 6799SOL    HW132030   0.084   1.025  16.695 -0.4376  0.5021 -2.3581
 6799SOL    HW232031   4.689   1.065  16.665 -2.2190  0.7969  1.6948
 6800SOL     OW32032   0.614   4.430  14.583 -0.5771 -0.0655  0.0477
 6800SOL    HW132033   0.688   4.379  14.617 -2.2799  0.1487  4.1197
 6800SOL    HW232034   0.647   4.517  14.606 -1.3524 -0.0304  1.0843
 6801SOL     OW32035   0.070   2.023  15.583 -0.2062  0.0401  0.9496
 6801SOL    HW132036   4.729   1.973  15.604 -0.8626  0.6303 -0.1277
 6801SOL    HW232037   0.128   1.953  15.556 -1.7828 -0.6793 -0.5428
 6802SOL     OW32038   3.345   0.781   6.772 -0.0705  0.0570  0.1940
 6802SOL    HW132039   3.279   0.724   6.732  1.5107 -2.1027  0.7378
 6802SOL    HW232040   3.392   0.820   6.698  1.7744 -2.9702 -0.2243
 6803SOL     OW32041   1.758   4.182   4.987  0.8054  0.0267 -0.0410
 6803SOL    HW132042   1.793   4.181   4.898  2.6094 -1.8333  0.6852
 6803SOL    HW232043   1.835   4.158   5.037  0.4839 -0.0442  0.4191
 6804SOL     OW32044   2.017   2.995   1.610  0.3258 -0.2778  0.0036
 6804SOL    HW132045   2.042   3.015   1.519 -0.4854  1.8468  0.2641
 6804SOL    HW232046   2.043   2.903   1.603  1.1901 -0.0802  0.6063
 6805SOL     OW32047   3.143   2.669  11.151 -0.3201 -0.5716  0.1239
 6805SOL    HW132048   3.124   2.633  11.064  1.6958 -0.0043 -0.5481
 6805SOL    HW232049   3.061   2.717  11.166  0.8860  1.6761 -0.5732
 6806SOL     OW32050   3.758   1.923   1.750  0.3230  0.0920 -0.5550
 6806SOL    HW132051   3.691   1.886   1.692  0.4998  1.0684 -1.3839
 6806SOL    HW232052   3.774   2.005   1.704 -1.0052  1.3173  1.1301
 6807SOL     OW32053   2.161   1.852  13.512 -0.5038 -0.1799 -0.0460
 6807SOL    HW132054   2.148   1.917  13.443 -0.3661 -0.3279 -0.2116
 6807SOL    HW232055   2.189   1.777  13.458  0.7817  0.5705 -0.4197
 6808SOL     OW32056   3.853   3.381   2.415 -0.3173  0.5337  0.0071
 6808SOL    HW132057   3.810   3.397   2.331  1.8373 -1.4048 -1.4397
 6808SOL    HW232058   3.822   3.292   2.429 -1.5149  0.6953 -1.6468
 6809SOL     OW32059   1.050   2.404   2.507  0.2629 -0.6750  0.8843
 6809SOL    HW132060   0.979   2.414   2.571 -0.2514 -2.7617  0.6522
 6809SOL    HW232061   1.063   2.497   2.490 -0.3926 -0.7692 -0.1097
 6810SOL     OW32062   4.072   2.462   2.288 -0.9383  0.1025 -0.1499
 6810SOL    HW132063   4.051   2.547   2.249 -2.6183  1.0227  2.7359
 6810SOL    HW232064   4.145   2.445   2.229 -2.1225  0.2933 -1.6745
 6811SOL     OW32065   1.389   4.151  13.126 -0.3224 -0.6913 -0.0931
 6811SOL    HW132066   1.383   4.173  13.033 -2.0723 -2.1140 -0.3160
 6811SOL    HW232067   1.444   4.225  13.152  1.1231 -1.1385 -1.9057
 6812SOL     OW32068   4.016   1.300   5.138 -0.1059  0.2286 -0.3284
 6812SOL    HW132069   4.038   1.254   5.219 -0.1106  0.1398 -0.3779
 6812SOL    HW232070   3.934   1.335   5.174 -0.0601  0.1240 -0.1214
 6813SOL     OW32071   2.711   0.950   1.681  0.2744 -0.2784 -0.0616
 6813SOL    HW132072   2.641   0.968   1.744 -0.3634 -2.1586 -0.2395
 6813SOL    HW232073   2.755   0.902   1.751  1.7225  0.0812 -0.7253
 6814SOL     OW32074   1.567   0.198   2.625  0.7549 -0.2954  0.0241
 6814SOL    HW132075   1.537   0.107   2.618  1.6405 -0.5775 -0.1135
 6814SOL    HW232076   1.558   0.213   2.720  0.3387 -2.4104  0.3231
 6815SOL     OW32077   3.815   4.216   1.757  0.4262  0.2891 -0.5246
 6815SOL    HW132078   3.809   4.179   1.845 -2.8753  1.3405 -0.2946
 6815SOL    HW232079   3.819   4.138   1.701  0.1381 -0.9464  1.1765
 6816SOL     OW32080   2.606   4.687  11.645 -0.6330 -0.3318 -0.3961
 6816SOL    HW132081   2.595   4.716  11.555  1.8373 -0.5526 -0.7839
 6816SOL    HW232082   2.614   0.034  11.690  2.0311 -0.6154 -0.2908
 6817SOL     OW32083   1.989   1.806   7.000  0.5972  0.0280 -0.0023
 6817SOL    HW132084   2.074   1.791   7.041  1.1505 -1.1162 -1.5594
 6817SOL    HW232085   1.957   1.717   6.982 -0.3656  0.5510 -0.9148
 6818SOL     OW32086   2.774   1.537   7.189 -0.3841  0.0120 -0.1814
 6818SOL    HW132087   2.797   1.628   7.169 -0.3740  0.2740  1.0042
 6818SOL    HW232088   2.848   1.516   7.246 -1.1519 -0.0143  0.8269
 6819SOL     OW32089   3.773   4.633   1.808  0.1252 -0.2012 -0.3014
 6819SOL    HW132090   3.832   4.665   1.877 -0.3245 -0.8776  0.3887
 6819SOL    HW232091   3.799   4.679   1.728 -0.1712  0.2794 -0.1234
 6820SOL     OW32092   2.381   4.712  13.576  0.4341  0.5096 -0.1687
 6820SOL    HW132093   2.374   0.028  13.496 -0.0086  1.0274  0.2242
 6820SOL    HW232094   2.386   0.042  13.644 -1.0245 -1.9647  2.3512
 6821SOL     OW32095   0.133   2.950   6.605 -0.0696  0.0761  0.1322
 6821SOL    HW132096   0.145   2.990   6.519 -1.4484 -0.8372 -0.4856
 6821SOL    HW232097   0.042   2.967   6.629  0.0143 -1.3058  1.4303
 6822SOL     OW32098   0.592   3.481   7.544 -0.0824 -0.0441  0.3079
 6822SOL    HW132099   0.683   3.476   7.571  0.1819 -1.9926 -0.9254
 6822SOL    HW232100   0.574   3.392   7.572  0.9199 -0.6096 -0.8644
 6823SOL     OW32101   4.545   2.185   7.388 -0.8076 -0.0750 -0.3031
 6823SOL    HW132102   4.532   2.114   7.326  0.5844  0.8566 -1.6543
 6823SOL    HW232103   4.533   2.130   7.466 -0.2501 -1.0335 -0.9004
 6824SOL     OW32104   1.732   2.488   7.634  0.0683  0.3757 -0.0853
 6824SOL    HW132105   1.783   2.483   7.553  1.2009 -1.8922  0.7683
 6824SOL    HW232106   1.647   2.482   7.591 -0.5928 -1.1693  1.4454
 6825SOL     OW32107   1.359   1.612  16.902 -0.0842  0.1483 -0.1816
 6825SOL    HW132108   1.454   1.615  16.913 -0.3230  0.5369  1.6901
 6825SOL    HW232109   1.319   1.620  16.989  1.2071 -2.3027  0.6384
 6826SOL     OW32110   2.915   1.849   0.844 -0.8155 -0.0028 -0.0381
 6826SOL    HW132111   2.904   1.915   0.912 -0.4399 -0.3646  0.3767
 6826SOL    HW232112   2.906   1.892   0.759  1.7607 -1.0580 -0.8444
 6827SOL     OW32113   0.816   1.498  17.134 -0.4351 -0.4598  0.5236
 6827SOL    HW132114   0.875   1.424  17.125 -0.1329 -0.2940  1.0997
 6827SOL    HW232115   0.787   1.487  17.225  1.2962 -0.4125  1.0949
 6828SOL     OW32116   0.786   2.444   2.436  0.1648 -0.6946  0.9497
 6828SOL    HW132117   0.782   2.401   2.350 -1.6069  2.0759 -0.3762
 6828SOL    HW232118   0.740   2.522   2.406  1.2113 -0.3853  0.1357
 6829SOL     OW32119   1.722   1.032   6.605 -0.1496 -0.3432  0.0739
 6829SOL    HW132120   1.806   0.995   6.581  1.2127  2.1978  0.9093
 6829SOL    HW232121   1.696   0.957   6.658  1.0512  0.2349  1.4715
 6830SOL     OW32122   0.242   1.415  10.101 -0.6473  0.5448  0.5808
 6830SOL    HW132123   0.296   1.336  10.105  0.0476  1.0064  0.2790
 6830SOL    HW232124   0.156   1.373  10.110 -1.1847  1.2274 -1.5689
 6831SOL     OW32125   2.409   3.437   8.190  0.2344 -0.7474  0.3330
 6831SOL    HW132126   2.314   3.453   8.184  1.0070  2.6651 -2.6902
 6831SOL    HW232127   2.434   3.466   8.103 -0.6366  1.2237  0.7434
 6832SOL     OW32128   0.953   3.503   5.681  0.4570  0.1087  0.0528
 6832SOL    HW132129   0.995   3.424   5.715  0.6513  0.8187  1.4966
 6832SOL    HW232130   1.016   3.574   5.694  1.3097 -0.1440 -2.7062
 6833SOL     OW32131   3.376   4.079   9.282  0.4784 -0.7040  0.1662
 6833SOL    HW132132   3.321   4.002   9.263 -1.2443  0.4086  0.6339
 6833SOL    HW232133   3.450   4.061   9.224  1.0977  1.1045  0.4100
 6834SOL     OW32134   1.578   0.307   6.757 -0.7449 -0.3072 -0.3683
 6834SOL    HW132135   1.641   0.379   6.762  1.2756 -2.0159 -1.4045
 6834SOL    HW232136   1.546   0.334   6.671  1.4685  0.4523 -0.9345
 6835SOL     OW32137   2.007   0.524   2.139  0.5363  0.0248  0.0972
 6835SOL    HW132138   1.998   0.429   2.147 -0.1709  0.0569 -0.3020
 6835SOL    HW232139   1.917   0.558   2.135  0.2611 -0.5365  1.5742
 6836SOL     OW32140   3.879   2.739   2.727 -0.2665  0.0341 -0.1550
 6836SOL    HW132141   3.938   2.768   2.657 -3.1154  1.0528 -2.0998
 6836SOL    HW232142   3.871   2.644   2.716 -2.5640  0.4009 -1.5894
 6837SOL     OW32143   4.074   1.725   7.769  0.1397  0.6523  0.2637
 6837SOL    HW132144   3.997   1.745   7.715  2.2116 -2.2087 -3.7445
 6837SOL    HW232145   4.037   1.712   7.856  0.6621  0.9692  0.5285
 6838SOL     OW32146   2.209   4.442   2.641  0.2623 -0.5911  0.1400
 6838SOL    HW132147   2.263   4.366   2.663  1.7713  0.9333  1.6573
 6838SOL    HW232148   2.129   4.390   2.633  0.3901 -0.4881 -1.9268
 6839SOL     OW32149   3.175   2.869   3.591 -0.0955 -0.4721 -0.1417
 6839SOL    HW132150   3.172   2.851   3.497 -1.1494  1.8650 -0.5440
 6839SOL    HW232151   3.151   2.961   3.587 -0.7929 -0.7264 -2.1130
 6840SOL     OW32152   0.970   4.412   1.287 -0.3894 -0.5521  0.1974
 6840SOL    HW132153   0.917   4.334   1.305  0.3760 -1.1473 -0.1361
 6840SOL    HW232154   0.986   4.457   1.370 -0.6626 -0.5545  0.2514
 6841SOL     OW32155   0.791   2.730   0.531 -0.1077 -0.2223  0.0272
 6841SOL    HW132156   0.696   2.725   0.527 -0.1206 -0.5565  0.7349
 6841SOL    HW232157   0.813   2.656   0.474 -1.7492  0.1276 -1.0427
 6842SOL     OW32158   2.503   2.335   9.882 -0.6137  0.2683  0.3266
 6842SOL    HW132159   2.477   2.309   9.970 -2.2726 -3.6134 -1.3441
 6842SOL    HW232160   2.558   2.267   9.844  0.4337  0.0783  2.1752
 6843SOL     OW32161   3.777   0.909  10.581 -0.2619  0.1416  0.0155
 6843SOL    HW132162   3.741   0.945  10.500 -0.6028 -1.2422 -0.4537
 6843SOL    HW232163   3.858   0.873  10.545 -0.3087 -0.9286  0.9764
 6844SOL     OW32164   4.262   2.467   5.494 -1.1012 -0.0205 -0.0474
 6844SOL    HW132165   4.304   2.464   5.408 -0.6134 -2.0120  0.2577
 6844SOL    HW232166   4.276   2.376   5.521 -1.1198 -0.5769 -1.9448
 6845SOL     OW32167   2.936   2.574   3.664 -0.7478 -0.2734 -0.0138
 6845SOL    HW132168   2.968   2.531   3.584  0.4618  1.4777 -0.4715
 6845SOL    HW232169   2.891   2.655   3.639  0.3228  0.9259  2.0331
 6846SOL     OW32170   3.376   3.885   2.775  0.1280 -0.1363  0.1443
 6846SOL    HW132171   3.317   3.895   2.700  0.4423  1.7014  0.1442
 6846SOL    HW232172   3.326   3.827   2.832  0.9302  1.9643  2.9649
 6847SOL     OW32173   2.427   2.151   2.116  0.0999 -0.1503  0.6991
 6847SOL    HW132174   2.465   2.157   2.204 -0.4707 -0.8049  0.9954
 6847SOL    HW232175   2.349   2.204   2.134  0.3137  0.2821  0.3604
 6848SOL     OW32176   4.234   3.008   0.958 -0.6401 -0.3509 -0.6020
 6848SOL    HW132177   4.181   3.062   0.900  1.1480  0.6263 -1.3219
 6848SOL    HW232178   4.240   3.061   1.038  0.0078 -0.4279 -0.6024
 6849SOL     OW32179   2.652   0.487   9.110 -0.0931  0.8022 -0.2023
 6849SOL    HW132180   2.656   0.581   9.127 -0.6408  0.9535 -0.9433
 6849SOL    HW232181   2.743   0.459   9.117 -0.4085  0.1899  1.4591
 6850SOL     OW32182   1.005   3.421   3.255  0.2487 -0.7051 -0.1832
 6850SOL    HW132183   1.028   3.354   3.320  3.1634 -0.9647 -1.4850
 6850SOL    HW232184   1.063   3.492   3.279 -1.1414  0.1796  0.5444
 6851SOL     OW32185   0.450   1.819   7.755  0.8155  0.5079 -0.1295
 6851SOL    HW132186   0.523   1.785   7.704 -0.6030 -1.1048 -1.0826
 6851SOL    HW232187   0.492   1.902   7.776  0.9326  1.2343 -3.3458
 6852SOL     OW32188   2.393   3.007   5.622  0.9783  0.4752  0.0645
 6852SOL    HW132189   2.330   2.993   5.692 -0.4460  1.8304 -0.9598
 6852SOL    HW232190   2.358   2.958   5.547  1.6341  1.7481 -1.0809
 6853SOL     OW32191   1.199   0.720  15.142 -0.0080  0.6763  0.5383
 6853SOL    HW132192   1.258   0.730  15.067  1.5562 -0.2279  1.6579
 6853SOL    HW232193   1.243   0.655  15.196 -0.6852 -0.0550  0.2163
 6854SOL     OW32194   2.394   0.381   6.268 -0.1596 -0.3098  0.6840
 6854SOL    HW132195   2.400   0.296   6.225  0.3248  0.5394 -0.9207
 6854SOL    HW232196   2.469   0.368   6.326  0.2335  0.6900  0.4000
 6855SOL     OW32197   0.815   3.269   9.674 -0.0457 -0.2513 -0.1084
 6855SOL    HW132198   0.817   3.180   9.638 -2.7751 -0.8579  1.2498
 6855SOL    HW232199   0.845   3.323   9.601 -0.7908  2.6358  1.7301
 6856SOL     OW32200   4.242   1.300   7.003  0.1551 -0.3448  0.1372
 6856SOL    HW132201   4.222   1.224   6.949  1.6590 -1.6289  1.3708
 6856SOL    HW232202   4.190   1.363   6.955 -2.3447 -1.8750  0.8356
 6857SOL     OW32203   1.253   3.761   6.466  0.3665 -0.0943 -0.3094
 6857SOL    HW132204   1.249   3.666   6.469  1.4708 -0.1548 -0.7981
 6857SOL    HW232205   1.321   3.768   6.534  1.2358 -2.2080 -0.9578
 6858SOL     OW32206   1.058   2.308   5.507 -0.1752 -0.2701  0.1901
 6858SOL    HW132207   0.987   2.367   5.534  0.3514  0.2266  0.4893
 6858SOL    HW232208   1.024   2.221   5.527  0.8806 -0.1931  2.3243
 6859SOL     OW32209   0.151   3.689  10.844 -0.3797 -0.3614  0.2557
 6859SOL    HW132210   0.158   3.718  10.935  0.3574  1.3597 -0.3372
 6859SOL    HW232211   0.242   3.706  10.820 -0.5149 -0.8665 -0.5799
 6860SOL     OW32212   1.824   3.342   4.200  0.0001  0.1880 -0.0202
 6860SOL    HW132213   1.777   3.425   4.189  0.9403  0.9230  1.4225
 6860SOL    HW232214   1.822   3.342   4.296 -0.2440  0.2660 -0.0248
 6861SOL     OW32215   4.584   0.403   3.560  0.4606 -0.1604 -0.0435
 6861SOL    HW132216   4.598   0.325   3.613 -1.9978 -0.3464  0.3351
 6861SOL    HW232217   4.635   0.472   3.602  0.8581 -1.1467  1.1172
 6862SOL     OW32218   1.845   1.654   4.058  0.2003  0.2197  0.0491
 6862SOL    HW132219   1.798   1.610   4.129 -3.7534  0.9052 -2.1000
 6862SOL    HW232220   1.932   1.659   4.096 -0.1371  0.8622  0.7239
 6863SOL     OW32221   2.262   1.970   3.548  0.0485 -0.3264 -0.0638
 6863SOL    HW132222   2.242   2.053   3.504 -0.0679  0.0250  0.6593
 6863SOL    HW232223   2.212   1.984   3.629  1.0570  0.6252  0.3831
 6864SOL     OW32224   1.406   3.052  13.480  0.2836  0.2485  0.2896
 6864SOL    HW132225   1.424   3.109  13.405 -0.0562 -0.2630 -0.1897
 6864SOL    HW232226   1.492   3.010  13.480 -0.3850 -1.1471 -0.3246
 6865SOL     OW32227   2.697   0.824   4.263  0.2250 -0.1547  0.0916
 6865SOL    HW132228   2.763   0.770   4.219 -0.4891  0.6432 -1.9488
 6865SOL    HW232229   2.699   0.900   4.205 -0.7512  1.1672  1.7713
 6866SOL     OW32230   2.925   3.609  14.514  0.4949 -0.4191  0.0504
 6866SOL    HW132231   2.981   3.580  14.441  0.1673 -0.3791 -0.2149
 6866SOL    HW232232   2.888   3.691  14.481 -1.2928 -1.4202 -0.4229
 6867SOL     OW32233   1.427   2.403   3.367 -0.0997  0.2763 -0.1315
 6867SOL    HW132234   1.457   2.316   3.392 -0.9222  0.3024  0.9653
 6867SOL    HW232235   1.343   2.376   3.330  0.0921 -0.2195 -0.2078
 6868SOL     OW32236   1.427   1.947   4.923 -0.5246  0.0991 -0.4336
 6868SOL    HW132237   1.418   1.853   4.905 -0.9795 -0.0676  0.6463
 6868SOL    HW232238   1.339   1.967   4.955 -0.9750 -2.7624  0.1214
 6869SOL     OW32239   2.144   4.154   6.119 -0.1760 -0.1551  0.4876
 6869SOL    HW132240   2.061   4.124   6.156  0.1262  0.6754  1.8587
 6869SOL    HW232241   2.114   4.170   6.030 -1.0631  0.3156  0.8661
 6870SOL     OW32242   2.385   1.661   7.645  0.1270  0.4945 -0.6335
 6870SOL    HW132243   2.455   1.601   7.619  0.1610  1.5999 -3.0873
 6870SOL    HW232244   2.355   1.688   7.559 -1.8665  0.4413  0.0538
 6871SOL     OW32245   1.902   0.346   6.355  0.8321 -0.5822 -0.2819
 6871SOL    HW132246   1.969   0.303   6.408 -0.4675 -1.0466  0.9831
 6871SOL    HW232247   1.849   0.271   6.329 -0.7271  0.8054 -1.1311
 6872SOL     OW32248   1.784   0.305  12.638 -0.5937 -0.2720  0.1084
 6872SOL    HW132249   1.743   0.232  12.592 -2.1671 -0.5105  1.8767
 6872SOL    HW232250   1.742   0.371  12.582 -0.1619  0.2901  0.4446
 6873SOL     OW32251   3.979   0.220   2.949  0.3377  0.4447  0.2581
 6873SOL    HW132252   3.888   0.192   2.962  0.6657 -1.6624 -2.0486
 6873SOL    HW232253   3.961   0.312   2.927  2.0599  0.9923  1.1757
 6874SOL     OW32254   3.510   2.187  12.982 -0.3548 -0.1174  0.5802
 6874SOL    HW132255   3.496   2.209  12.890 -0.6611  0.1613  0.6935
 6874SOL    HW232256   3.604   2.206  12.994 -0.2664 -0.6775  0.7914
 6875SOL     OW32257   1.053   0.836   5.557  0.4710 -0.2002  0.4020
 6875SOL    HW132258   1.015   0.757   5.595 -1.5705 -0.1309 -1.4802
 6875SOL    HW232259   1.144   0.812   5.574 -0.0220 -0.7944  2.1183
 6876SOL     OW32260   1.822   2.109   2.607 -0.3614 -0.0966 -0.4261
 6876SOL    HW132261   1.871   2.053   2.548 -0.8425 -0.3800 -0.5597
 6876SOL    HW232262   1.778   2.043   2.661  0.5292 -0.0477  0.3613
 6877SOL     OW32263   0.461   1.642   3.575  0.1246 -0.2813 -0.1518
 6877SOL    HW132264   0.453   1.717   3.635 -1.3592 -1.3689  1.0188
 6877SOL    HW232265   0.404   1.666   3.502 -2.5271 -3.6047  0.8182
 6878SOL     OW32266   4.117   2.028   9.874 -0.4910 -0.0459  0.2243
 6878SOL    HW132267   4.118   2.123   9.866  1.0825 -0.0016  0.9801
 6878SOL    HW232268   4.025   1.998   9.872 -0.2424 -0.8302  0.3439
 6879SOL     OW32269   1.412   2.367   8.047  0.7842 -0.6760  0.0678
 6879SOL    HW132270   1.432   2.450   8.090  0.1688 -1.1852  1.3283
 6879SOL    HW232271   1.440   2.390   7.959 -0.7502 -0.9681 -0.4906
 6880SOL     OW32272   2.316   0.033   5.424  0.0840  0.2128 -0.8553
 6880SOL    HW132273   2.402   0.074   5.414  0.8661 -0.9992  0.7036
 6880SOL    HW232274   2.277   0.112   5.459  0.8975  0.4835 -0.5566
 6881SOL     OW32275   1.824   0.442   4.733 -0.1624  0.3880 -0.2272
 6881SOL    HW132276   1.864   0.397   4.808 -2.3945 -0.4854  0.4405
 6881SOL    HW232277   1.773   0.373   4.691  1.0063  0.1263 -1.2067
 6882SOL     OW32278   4.357   0.443  10.710 -0.3122 -0.3419 -0.2914
 6882SOL    HW132279   4.433   0.425  10.654 -0.2155  0.6702 -0.4935
 6882SOL    HW232280   4.311   0.359  10.703 -1.3571  0.2610 -0.6724
 6883SOL     OW32281   3.429   0.141  12.497 -0.4639  0.4606 -0.1414
 6883SOL    HW132282   3.392   0.150  12.585 -3.4159  0.5964 -1.3981
 6883SOL    HW232283   3.352   0.110  12.449 -0.4403  1.3247 -0.7375
 6884SOL     OW32284   2.499   3.615   3.441 -0.3742 -0.6517  0.3069
 6884SOL    HW132285   2.532   3.536   3.397  0.9410  0.0615 -0.0114
 6884SOL    HW232286   2.484   3.656   3.356 -0.8345 -0.7505  0.3403
 6885SOL     OW32287   3.473   1.346  12.590 -0.3514 -0.3817  0.9455
 6885SOL    HW132288   3.549   1.397  12.560 -0.6112 -1.5063 -1.6582
 6885SOL    HW232289   3.484   1.379  12.679 -1.2510 -1.0989  1.3263
 6886SOL     OW32290   1.073   1.490   8.954 -0.2450  0.2351  0.4462
 6886SOL    HW132291   1.081   1.559   8.888 -0.5952  2.0532  2.3154
 6886SOL    HW232292   1.165   1.464   8.962 -0.4724 -0.5092  0.6407
 6887SOL     OW32293   3.461   3.475  13.994 -0.2647 -0.0346  0.1012
 6887SOL    HW132294   3.474   3.549  13.935 -0.0682  2.0038  2.6966
 6887SOL    HW232295   3.385   3.430  13.958 -0.9359  1.4239 -0.2995
 6888SOL     OW32296   0.793   1.931  16.624  0.0518 -0.3102 -0.1925
 6888SOL    HW132297   0.887   1.916  16.634 -0.0299 -1.4783 -1.2395
 6888SOL    HW232298   0.762   1.858  16.676  0.6965 -1.0713 -0.8710
 6889SOL     OW32299   3.479   0.192   9.560  0.4831  0.4697  0.3489
 6889SOL    HW132300   3.543   0.182   9.630 -1.0793 -1.3908  1.5078
 6889SOL    HW232301   3.473   0.106   9.517 -0.4249 -0.2078  1.8485
 6890SOL     OW32302   2.203   4.354  17.187 -0.9602  0.1813 -0.6191
 6890SOL    HW132303   2.297   4.336  17.180 -0.9580 -0.4900  1.2299
 6890SOL    HW232304   2.188   4.296  17.112 -1.4894 -1.9051  1.0971
 6891SOL     OW32305   0.858   1.163   5.430  0.0919  0.0479  0.3460
 6891SOL    HW132306   0.821   1.234   5.377 -0.9881 -0.5391  0.3258
 6891SOL    HW232307   0.836   1.089   5.373 -0.1238  0.5845 -0.2738
 6892SOL     OW32308   2.258   4.466  13.843 -0.0404  0.3695 -0.0328
 6892SOL    HW132309   2.306   4.493  13.922  0.1402  0.8307 -0.3031
 6892SOL    HW232310   2.198   4.406  13.887  0.4232 -0.4733 -0.5644
 6893SOL     OW32311   3.582   4.590   2.719 -0.2953 -0.5897 -0.4514
 6893SOL    HW132312   3.639   4.654   2.676 -0.7258  0.1265  0.0396
 6893SOL    HW232313   3.553   4.551   2.637 -2.3006 -0.0847  0.0280
 6894SOL     OW32314   0.869   0.189   2.273  0.4410 -0.0053  0.7512
 6894SOL    HW132315   0.950   0.236   2.257  1.4177 -1.5842  1.0672
 6894SOL    HW232316   0.909   0.102   2.280 -0.2067 -0.4606 -1.2819
 6895SOL     OW32317   2.887   3.191   5.231 -0.1997  0.2703  0.3516
 6895SOL    HW132318   2.936   3.117   5.195  1.2416  1.5761 -0.3750
 6895SOL    HW232319   2.940   3.211   5.308 -0.2853  3.0749 -0.3058
 6896SOL     OW32320   2.987   4.175  10.040 -0.6595  0.5913  0.0858
 6896SOL    HW132321   3.026   4.102  10.089 -1.9339 -0.6016 -0.6875
 6896SOL    HW232322   2.990   4.234  10.116 -1.1110  0.9510 -0.1763
 6897SOL     OW32323   4.370   1.423  11.704  0.4738 -0.4240 -0.4210
 6897SOL    HW132324   4.430   1.392  11.773  0.0548  0.2232  0.2265
 6897SOL    HW232325   4.360   1.511  11.738 -2.5865 -1.5761  1.6792
 6898SOL     OW32326   2.837   1.595  17.005 -0.9126  0.3332  0.4987
 6898SOL    HW132327   2.888   1.591  16.924  0.3752 -1.6409  1.4061
 6898SOL    HW232328   2.865   1.510  17.038 -0.9430  0.0622 -0.1775
 6899SOL     OW32329   1.802   0.758   5.502  0.2733  0.1538 -0.3881
 6899SOL    HW132330   1.820   0.728   5.592  0.1573 -0.1417 -0.4622
 6899SOL    HW232331   1.882   0.730   5.458 -0.0874 -0.7720 -0.4596
 6900SOL     OW32332   2.210   0.029  14.190 -0.3339  0.0602  0.1125
 6900SOL    HW132333   2.262   0.102  14.155  0.5053 -1.2980 -1.4729
 6900SOL    HW232334   2.219   4.693  14.130 -0.3524 -0.5884  0.9053
 6901SOL     OW32335   0.209   1.768   7.301  0.0739 -0.1199 -0.4303
 6901SOL    HW132336   0.247   1.695   7.253  0.7967 -0.5588  0.8036
 6901SOL    HW232337   0.119   1.752   7.273  0.0289  0.9447 -0.9042
 6902SOL     OW32338   3.401   0.683  16.644  0.0447  0.0538  0.1695
 6902SOL    HW132339   3.337   0.614  16.629 -0.7145  0.9807 -0.8846
 6902SOL    HW232340   3.401   0.724  16.557 -0.9817  0.9412  0.5908
 6903SOL     OW32341   1.222   4.150   5.967  0.5713  0.1216  0.3154
 6903SOL    HW132342   1.153   4.217   5.970  0.0411 -0.4111  0.0629
 6903SOL    HW232343   1.267   4.187   5.891 -1.9591  0.7549 -0.8810
 6904SOL     OW32344   0.661   0.559   3.101 -0.0832 -0.9190  1.1620
 6904SOL    HW132345   0.728   0.625   3.086 -0.9261 -0.3024  0.1388
 6904SOL    HW232346   0.636   0.517   3.018  0.5023 -0.5286  0.7866
 6905SOL     OW32347   1.467   0.240   7.236 -0.5082  0.2893 -0.1244
 6905SOL    HW132348   1.552   0.244   7.279 -0.3465  1.6235 -0.5468
 6905SOL    HW232349   1.402   0.281   7.293  1.7294 -1.1062  3.4327
 6906SOL     OW32350   1.208   4.419   2.117  0.0338 -0.6782  0.4081
 6906SOL    HW132351   1.143   4.403   2.049 -0.4124 -0.6560  0.8356
 6906SOL    HW232352   1.286   4.411   2.062 -0.5488 -0.2896 -0.4818
 6907SOL     OW32353   0.215   3.684   3.990 -0.4208 -0.2825 -0.0865
 6907SOL    HW132354   0.166   3.739   3.929 -1.0202 -0.4070  0.2848
 6907SOL    HW232355   0.305   3.678   3.957 -0.0214  1.9926  0.5878
 6908SOL     OW32356   2.757   4.183  10.696 -0.1772  0.1245  0.1250
 6908SOL    HW132357   2.789   4.252  10.638 -0.2760 -1.1889 -1.4939
 6908SOL    HW232358   2.700   4.131  10.640  3.7022 -0.4032 -3.3089
 6909SOL     OW32359   4.301   0.162   2.163  0.1069 -0.2317 -0.1433
 6909SOL    HW132360   4.286   0.183   2.255  0.2331 -1.3916  0.1308
 6909SOL    HW232361   4.224   0.205   2.125  1.5766  1.8575 -0.7802
 6910SOL     OW32362   0.897   0.622   1.608 -0.1951  0.8039 -0.3458
 6910SOL    HW132363   0.823   0.677   1.585  0.5921  1.8227 -0.4740
 6910SOL    HW232364   0.895   0.612   1.703 -0.0925 -1.6290 -0.6037
 6911SOL     OW32365   0.762   0.403   9.010 -0.2999  0.3510 -0.8376
 6911SOL    HW132366   0.693   0.409   9.076  1.3208 -2.1008  1.1086
 6911SOL    HW232367   0.722   0.401   8.923  0.8729  0.0195 -1.3721
 6912SOL     OW32368   1.174   1.706  15.604  0.3625 -0.3233 -0.0108
 6912SOL    HW132369   1.118   1.640  15.644  0.6753 -0.9107 -0.5454
 6912SOL    HW232370   1.179   1.665  15.518 -2.3606  0.2217 -0.4321
 6913SOL     OW32371   2.318   4.489   9.282  0.2777 -0.1920  0.5189
 6913SOL    HW132372   2.236   4.441   9.296  0.2381 -0.0921  0.6331
 6913SOL    HW232373   2.358   4.460   9.364  0.8837  1.4355  0.7998
 6914SOL     OW32374   2.543   0.429   5.083  0.2603  0.2981 -0.0146
 6914SOL    HW132375   2.494   0.458   5.159  0.7365 -0.2408  0.5038
 6914SOL    HW232376   2.514   0.486   5.012 -1.2382 -0.0343  0.3357
 6915SOL     OW32377   0.668   1.120   2.614 -0.3121 -0.9804  0.0261
 6915SOL    HW132378   0.748   1.132   2.664  0.5913 -0.2919 -1.5874
 6915SOL    HW232379   0.679   1.025   2.607 -1.4938 -0.9982 -1.6259
 6916SOL     OW32380   1.730   2.024  16.172  0.0824 -0.0269  0.5054
 6916SOL    HW132381   1.752   2.076  16.095  0.2558  0.9552  1.2104
 6916SOL    HW232382   1.655   1.966  16.157 -0.6880  1.7632 -2.5043
 6917SOL     OW32383   3.623   0.584   6.940  0.2924  0.2223 -0.0560
 6917SOL    HW132384   3.663   0.545   7.018 -0.2680  2.1647  1.1900
 6917SOL    HW232385   3.541   0.534   6.936  0.5382 -0.0817 -1.4615
 6918SOL     OW32386   0.146   4.273  16.907  0.3226  0.1975  0.1841
 6918SOL    HW132387   0.152   4.249  16.999 -1.4446 -3.0864 -0.5719
 6918SOL    HW232388   0.224   4.325  16.888  1.0072 -0.7563  0.4276
 6919SOL     OW32389   3.876   3.707   6.282 -0.3185 -0.1867 -0.8155
 6919SOL    HW132390   3.793   3.659   6.274 -0.5208  0.2096 -1.0922
 6919SOL    HW232391   3.870   3.729   6.375  1.6551 -1.0722 -0.4781
 6920SOL     OW32392   0.990   3.711  13.503 -0.6189 -0.0026  0.9306
 6920SOL    HW132393   1.010   3.654  13.577 -2.2652  0.9169  2.0908
 6920SOL    HW232394   1.079   3.740  13.482 -0.8163  0.5150  0.8003
 6921SOL     OW32395   3.547   4.642   7.143  0.0745 -0.1582 -0.1918
 6921SOL    HW132396   3.482   4.575   7.123  0.0942 -0.7523  1.7219
 6921SOL    HW232397   3.582   4.653   7.055  0.4361  0.9770  0.0950
 6922SOL     OW32398   1.156   2.418   1.576 -0.1190 -0.5386 -0.1077
 6922SOL    HW132399   1.195   2.409   1.663 -1.7755  0.4459  0.7431
 6922SOL    HW232400   1.097   2.493   1.587 -0.2860 -0.6103 -0.5206
 6923SOL     OW32401   3.413   0.863   1.905 -0.0601  0.5604  0.2604
 6923SOL    HW132402   3.490   0.808   1.920 -0.3250  0.5740  1.6383
 6923SOL    HW232403   3.356   0.811   1.961  0.4395  2.4162  2.4849
 6924SOL     OW32404   1.243   0.471   5.883  0.1651  0.2034 -0.5218
 6924SOL    HW132405   1.201   0.557   5.888 -1.1828 -0.3775 -1.6182
 6924SOL    HW232406   1.328   0.502   5.852  1.0100 -2.4579 -0.8602
 6925SOL     OW32407   2.158   4.234  14.630  0.1505  0.2907  0.2823
 6925SOL    HW132408   2.088   4.294  14.656 -0.0367  0.0868  0.2458
 6925SOL    HW232409   2.230   4.278  14.675  0.1137  1.3221 -0.6693
 6926SOL     OW32410   1.191   2.550  15.939 -0.7786  0.2316  0.0568
 6926SOL    HW132411   1.133   2.585  16.007 -2.2707 -1.7158 -0.2171
 6926SOL    HW232412   1.119   2.508  15.891 -0.3719  0.3720 -0.6763
 6927SOL     OW32413   3.579   1.851   7.566  0.1723 -0.0644 -0.5446
 6927SOL    HW132414   3.528   1.900   7.501 -1.9597 -2.5129 -0.7121
 6927SOL    HW232415   3.554   1.893   7.648  0.6694 -0.6571 -0.0979
 6928SOL     OW32416   1.204   4.002   7.539  0.0851  0.1086 -0.6024
 6928SOL    HW132417   1.207   4.059   7.616 -0.4407  0.2303 -0.6740
 6928SOL    HW232418   1.128   4.043   7.497 -2.6197 -5.0642 -0.7024
 6929SOL     OW32419   3.011   0.263  10.330  0.5270 -0.6876 -0.7386
 6929SOL    HW132420   2.950   0.288  10.400 -1.8098 -4.8337 -1.3093
 6929SOL    HW232421   2.984   0.323  10.260 -1.0225  0.6238  0.9563
 6930SOL     OW32422   3.963   4.729   3.180  0.0591  0.3959 -0.1137
 6930SOL    HW132423   3.894   4.714   3.115  0.2239  0.5813 -0.3351
 6930SOL    HW232424   4.034   4.691   3.129 -2.1029 -1.1644 -1.9582
 6931SOL     OW32425   3.685   0.644   4.145 -0.2016  0.1667 -0.1871
 6931SOL    HW132426   3.756   0.706   4.159 -0.2020  0.3668 -1.1087
 6931SOL    HW232427   3.647   0.632   4.232 -1.6907 -0.4480 -0.9176
 6932SOL     OW32428   3.375   2.512  13.596 -0.0601  0.1640 -0.1912
 6932SOL    HW132429   3.317   2.577  13.635  0.3013  1.0203 -1.0793
 6932SOL    HW232430   3.394   2.552  13.511  0.2708 -1.4140 -0.8541
 6933SOL     OW32431   4.133   1.383   0.392  0.0156 -0.0092 -0.1975
 6933SOL    HW132432   4.214   1.399   0.343 -0.1385 -0.7887 -0.6990
 6933SOL    HW232433   4.087   1.343   0.318 -1.0621 -0.8914  0.9396
 6934SOL     OW32434   2.184   1.077   1.756  1.0308  0.4008  0.0195
 6934SOL    HW132435   2.183   1.011   1.686 -0.1817 -0.6981  1.0676
 6934SOL    HW232436   2.120   1.038   1.816 -0.0608  0.2247 -1.2712
 6935SOL     OW32437   1.616   0.523   3.720 -0.1581  0.3288 -0.3611
 6935SOL    HW132438   1.561   0.496   3.794 -1.1403  0.6288 -0.9898
 6935SOL    HW232439   1.701   0.481   3.727 -1.1224 -1.5385  0.0097
 6936SOL     OW32440   2.256   0.452   4.713  0.7421  0.4656 -0.0746
 6936SOL    HW132441   2.224   0.380   4.768  0.5137  0.5799 -0.0601
 6936SOL    HW232442   2.331   0.488   4.760  1.5310 -1.2357 -0.0078
 6937SOL     OW32443   3.105   4.016   3.019  0.3108 -0.5697 -0.3700
 6937SOL    HW132444   3.099   3.959   3.096  2.1008  0.1684  0.3263
 6937SOL    HW232445   3.014   4.024   2.992 -0.1727 -1.0998  1.0766
 6938SOL     OW32446   3.363   1.832  14.119  0.3573 -0.7416 -0.2376
 6938SOL    HW132447   3.322   1.854  14.202 -0.0526  0.8284 -0.8669
 6938SOL    HW232448   3.404   1.750  14.148 -1.0167 -1.9778 -1.8284
 6939SOL     OW32449   1.070   1.137   4.192  0.6970 -0.1546 -0.0877
 6939SOL    HW132450   0.978   1.139   4.165  0.3444 -0.6920  1.0889
 6939SOL    HW232451   1.072   1.144   4.287 -0.7079  0.4913 -0.1014
 6940SOL     OW32452   4.289   0.330   3.073 -0.1687 -0.2569  0.3961
 6940SOL    HW132453   4.372   0.291   3.096  0.4961  0.1445 -1.2806
 6940SOL    HW232454   4.256   0.256   3.021  0.3978 -1.8824  2.4007
 6941SOL     OW32455   4.599   1.088   3.000  0.6712  0.4363  0.1241
 6941SOL    HW132456   4.671   1.091   3.063  2.8368 -0.0228 -2.3699
 6941SOL    HW232457   4.535   1.135   3.054 -1.3958  1.3058 -3.0900
 6942SOL     OW32458   3.636   1.618  15.371 -0.4168 -0.1810  0.7889
 6942SOL    HW132459   3.583   1.692  15.401 -0.6935 -1.0238  2.3744
 6942SOL    HW232460   3.709   1.620  15.433 -0.7157  0.5525  1.1202
 6943SOL     OW32461   0.920   3.133  17.411  0.1254 -0.0145  0.1758
 6943SOL    HW132462   0.970   3.208  17.442 -0.3090  1.4844 -2.8119
 6943SOL    HW232463   0.843   3.143  17.468 -0.0702  0.3037 -0.1446
 6944SOL     OW32464   2.295   3.438   4.360  0.7226  0.2105  0.2642
 6944SOL    HW132465   2.301   3.482   4.445 -0.1260 -2.9631  1.9590
 6944SOL    HW232466   2.349   3.502   4.313  2.2276 -1.7732 -0.6612
 6945SOL     OW32467   3.036   2.097   9.479 -0.2626 -0.2934  0.4554
 6945SOL    HW132468   3.059   2.043   9.403 -0.3287 -1.0568  0.9827
 6945SOL    HW232469   3.119   2.117   9.523 -0.8072  0.1040  1.3096
 6946SOL     OW32470   1.242   0.757  11.940  0.4824 -0.0699  0.0863
 6946SOL    HW132471   1.205   0.834  11.896 -2.5794  0.3978  3.4742
 6946SOL    HW232472   1.182   0.686  11.917 -1.8451  1.4112  1.6119
 6947SOL     OW32473   3.133   0.874   7.757  0.4808 -0.0892 -0.5485
 6947SOL    HW132474   3.101   0.957   7.793 -0.6804 -1.1161  0.8104
 6947SOL    HW232475   3.205   0.859   7.818 -0.2074  1.5666  0.6671
 6948SOL     OW32476   0.930   4.454   5.405 -0.5046  0.1341 -0.8312
 6948SOL    HW132477   0.923   4.405   5.487  0.2596  1.3313 -0.0436
 6948SOL    HW232478   0.836   4.464   5.387 -0.2350  1.4087 -1.5647
 6949SOL     OW32479   1.746   3.020   5.449 -0.1218 -0.4604  0.0364
 6949SOL    HW132480   1.797   3.020   5.368 -0.5712 -1.1990 -0.2530
 6949SOL    HW232481   1.767   3.104   5.490  1.0282 -0.3451 -0.7846
 6950SOL     OW32482   4.393   2.611   6.872  0.0324  0.1467  0.5039
 6950SOL    HW132483   4.470   2.625   6.927  1.4145 -1.1504 -1.1197
 6950SOL    HW232484   4.383   2.702   6.843  3.1847  0.0427 -0.9478
 6951SOL     OW32485   2.709   1.045  17.397 -0.0466  0.5427 -0.0461
 6951SOL    HW132486   2.689   1.127  17.353  0.1933  0.4538 -0.3202
 6951SOL    HW232487   2.803   1.039  17.380 -0.1718 -1.1329 -0.1676
 6952SOL     OW32488   3.207   4.279   1.992  0.2152 -1.0594 -0.2499
 6952SOL    HW132489   3.239   4.266   1.903 -1.1283 -1.2844 -0.7074
 6952SOL    HW232490   3.268   4.222   2.038  0.7825 -0.7312 -0.6002
 6953SOL     OW32491   2.973   2.105   5.997 -0.4077  0.6206 -0.3527
 6953SOL    HW132492   2.979   2.017   5.960  1.2201  0.5698  0.0256
 6953SOL    HW232493   2.895   2.087   6.049 -1.8144  0.7281 -2.3923
 6954SOL     OW32494   2.754   4.207   9.906 -0.0816  0.2432  0.2134
 6954SOL    HW132495   2.840   4.183   9.942 -0.3354 -2.0686 -0.7024
 6954SOL    HW232496   2.771   4.300   9.915 -0.8909  0.2044  2.1680
 6955SOL     OW32497   3.684   1.257  10.523  0.1629  0.0561 -0.1583
 6955SOL    HW132498   3.775   1.243  10.548  1.0530 -0.0619 -3.5738
 6955SOL    HW232499   3.637   1.200  10.584  2.3289 -0.1239  1.3538
 6956SOL     OW32500   2.308   2.775   7.130 -0.5178  0.2031 -0.1101
 6956SOL    HW132501   2.333   2.691   7.168  0.7950  1.0905  0.9611
 6956SOL    HW232502   2.384   2.788   7.074 -0.6183  2.2111  0.2239
 6957SOL     OW32503   0.082   0.442   1.597 -0.7501 -0.3792 -0.2879
 6957SOL    HW132504   0.168   0.424   1.635 -0.2404  1.0578 -0.7787
 6957SOL    HW232505   0.108   0.534   1.592 -0.4287 -0.4032  0.9674
 6958SOL     OW32506   2.945   0.432   7.912  0.7700 -0.0712  0.5881
 6958SOL    HW132507   2.902   0.489   7.975  0.5962 -0.0475  0.4481
 6958SOL    HW232508   2.909   0.348   7.940  2.1113 -1.7022 -2.6411
 6959SOL     OW32509   1.358   3.082  12.226 -0.3548  0.0377 -0.3215
 6959SOL    HW132510   1.450   3.072  12.203  0.0464  0.3485  1.1306
 6959SOL    HW232511   1.359   3.049  12.316  1.2978  0.2599 -0.2592
 6960SOL     OW32512   2.154   0.794  11.329 -0.1286 -0.1092 -0.2879
 6960SOL    HW132513   2.226   0.783  11.268  0.8409  0.1897  0.7905
 6960SOL    HW232514   2.183   0.847  11.405  1.6759 -2.5801  0.7418
 6961SOL     OW32515   0.729   3.531   9.192  0.6325 -0.2247 -0.4422
 6961SOL    HW132516   0.741   3.436   9.189 -2.1177 -0.5504 -1.0276
 6961SOL    HW232517   0.689   3.543   9.105  1.3102  0.5416 -0.6571
 6962SOL     OW32518   1.498   1.464   9.388  0.3838  0.0965 -0.0771
 6962SOL    HW132519   1.478   1.434   9.477  1.4944 -3.3370 -1.0031
 6962SOL    HW232520   1.531   1.379   9.359 -0.3445 -0.2797  0.1895
 6963SOL     OW32521   2.548   1.102   9.420  0.2533 -0.1788  0.4042
 6963SOL    HW132522   2.551   1.022   9.367  0.0212 -0.0474  0.1896
 6963SOL    HW232523   2.581   1.070   9.504  1.2812  0.7457  0.3364
 6964SOL     OW32524   3.488   3.485   6.085  0.1096 -0.7110  0.3398
 6964SOL    HW132525   3.525   3.447   6.165 -3.6198 -0.7185  2.0684
 6964SOL    HW232526   3.560   3.545   6.063  0.1167 -0.3789  1.2864
 6965SOL     OW32527   3.742   3.110   4.280 -0.2546 -0.3777 -0.1929
 6965SOL    HW132528   3.800   3.177   4.318  1.3461 -1.2686 -1.0897
 6965SOL    HW232529   3.669   3.114   4.342  1.5219 -2.0598  2.0145
 6966SOL     OW32530   3.998   1.057  15.659 -0.6924 -0.9174 -0.1533
 6966SOL    HW132531   3.942   1.039  15.584 -1.5483  0.7514  0.0948
 6966SOL    HW232532   4.064   1.121  15.634 -1.4811  1.1119  2.9614
 6967SOL     OW32533   2.735   3.653   2.409  0.2356  0.0176 -0.6581
 6967SOL    HW132534   2.763   3.650   2.317  0.8794 -0.2335 -0.4594
 6967SOL    HW232535   2.787   3.728   2.438  0.1860 -0.5393  0.8584
 6968SOL     OW32536   4.613   2.276   0.223  0.6484  0.6109 -0.3160
 6968SOL    HW132537   4.668   2.306   0.151 -0.8860  4.2458 -0.0012
 6968SOL    HW232538   4.550   2.348   0.220  0.7929  0.8262  2.0878
 6969SOL     OW32539   1.866   3.506  14.331 -0.4471  0.0168 -0.0855
 6969SOL    HW132540   1.860   3.417  14.366 -0.9083 -1.3346 -3.5769
 6969SOL    HW232541   1.952   3.532  14.365 -0.4017 -1.8111  1.2435
 6970SOL     OW32542   3.423   1.707   3.100 -0.0883  0.0937  0.6758
 6970SOL    HW132543   3.436   1.776   3.166  1.1087 -1.0082  1.5822
 6970SOL    HW232544   3.488   1.653   3.145  0.8406  1.5646  1.1149
 6971SOL     OW32545   1.395   1.547  16.170  0.2836 -0.3597 -0.4079
 6971SOL    HW132546   1.336   1.484  16.212  0.4067  0.4517  0.9775
 6971SOL    HW232547   1.481   1.527  16.207 -0.1250 -2.1222 -0.4054
 6972SOL     OW32548   3.137   4.399  13.500  0.2294 -0.0933  0.2015
 6972SOL    HW132549   3.210   4.341  13.477  0.6536  0.2826  0.5823
 6972SOL    HW232550   3.087   4.339  13.556 -0.5915 -0.4578 -0.9125
 6973SOL     OW32551   0.279   1.586   3.090 -0.1730  0.4916 -0.8890
 6973SOL    HW132552   0.209   1.565   3.028 -1.1611 -1.4790  0.8928
 6973SOL    HW232553   0.353   1.548   3.044 -0.1043 -0.1495 -0.2504
 6974SOL     OW32554   3.486   0.094   0.898 -0.0675 -0.3524  0.1203
 6974SOL    HW132555   3.397   0.129   0.903  0.6264  1.6095 -1.3970
 6974SOL    HW232556   3.522   0.117   0.812 -1.8277 -0.5691 -0.6601
 6975SOL     OW32557   1.122   3.755   5.724  0.5550 -0.1334  0.1536
 6975SOL    HW132558   1.199   3.699   5.733  0.5654  0.1297  1.6565
 6975SOL    HW232559   1.126   3.778   5.631 -0.9439  1.6634  0.5332
 6976SOL     OW32560   2.116   3.438   9.306  0.2950 -0.1061 -0.0099
 6976SOL    HW132561   2.132   3.512   9.247  2.3546 -1.0799 -0.6515
 6976SOL    HW232562   2.198   3.443   9.355  0.0404 -0.3735  0.4415
 6977SOL     OW32563   1.702   1.593   6.092 -0.2111  0.0302 -0.2795
 6977SOL    HW132564   1.631   1.630   6.038 -0.7817  0.8359  1.0238
 6977SOL    HW232565   1.723   1.668   6.148 -0.7431  0.9246 -1.2644
 6978SOL     OW32566   0.871   3.631   3.126 -0.3827 -0.6229 -0.6195
 6978SOL    HW132567   0.928   3.640   3.202 -0.6674  0.3148 -0.5271
 6978SOL    HW232568   0.848   3.539   3.142 -0.2566 -0.1629  2.0664
 6979SOL     OW32569   4.667   3.613  16.780  0.1850  0.3058  0.2830
 6979SOL    HW132570   4.655   3.683  16.716 -0.0810  1.2537  1.3636
 6979SOL    HW232571   4.582   3.617  16.823  0.0155 -0.2191 -0.0020
 6980SOL     OW32572   0.112   2.190   4.292 -0.2860  0.4575 -0.6354
 6980SOL    HW132573   0.050   2.250   4.335 -1.2715 -2.1506  1.5755
 6980SOL    HW232574   0.050   2.126   4.258 -0.5880  0.8446 -0.8075
 6981SOL     OW32575   3.761   4.262   2.950  0.1266  0.0249 -0.0301
 6981SOL    HW132576   3.751   4.247   2.856  3.2035 -1.7168 -0.0797
 6981SOL    HW232577   3.847   4.222   2.968  0.1608  0.0266 -0.1929
 6982SOL     OW32578   3.540   4.065  15.616  0.2471 -0.3180  0.2290
 6982SOL    HW132579   3.610   4.118  15.577 -1.0458 -0.3395 -2.0629
 6982SOL    HW232580   3.512   4.108  15.697  3.4752  0.0432  1.1591
 6983SOL     OW32581   4.039   3.471   2.955 -0.4574 -0.1194 -0.0501
 6983SOL    HW132582   3.956   3.487   2.911 -0.7229  0.1799  0.5452
 6983SOL    HW232583   4.011   3.434   3.039  0.8534  0.7658  0.7830
 6984SOL     OW32584   1.953   1.300  11.872 -0.3155  0.5244 -0.3614
 6984SOL    HW132585   1.988   1.300  11.961  1.0070 -1.3870 -0.8972
 6984SOL    HW232586   1.961   1.205  11.861  2.3127  0.4531  2.2437
 6985SOL     OW32587   0.370   4.697   7.646 -0.1875 -0.5506 -0.7751
 6985SOL    HW132588   0.346   4.729   7.559 -0.4741  1.2906 -0.0244
 6985SOL    HW232589   0.463   4.720   7.648 -0.8089  1.8722  0.6121
 6986SOL     OW32590   1.880   1.330  15.660 -0.8031  0.4097 -0.2903
 6986SOL    HW132591   1.865   1.395  15.591 -1.7270  1.7058  1.1167
 6986SOL    HW232592   1.959   1.284  15.632 -2.3515 -0.6961 -2.9038
 6987SOL     OW32593   0.019   1.932  12.472  0.3611 -0.6620 -0.7513
 6987SOL    HW132594   0.070   1.872  12.418  1.6346 -0.3914  0.1756
 6987SOL    HW232595   4.692   1.977  12.416 -0.2928 -0.9697 -0.2555
 6988SOL     OW32596   0.413   0.774   7.592 -0.3097  0.2675 -0.5048
 6988SOL    HW132597   0.330   0.805   7.627 -0.4702 -1.6543  0.8484
 6988SOL    HW232598   0.449   0.834   7.528 -0.3437 -1.6500 -2.3260
 6989SOL     OW32599   0.801   3.538   8.854 -0.3313  0.5986  0.2124
 6989SOL    HW132600   0.731   3.574   8.800 -1.0122  0.1573  0.8080
 6989SOL    HW232601   0.790   3.443   8.848  2.7223  0.1496  1.3017
 6990SOL     OW32602   2.847   1.160  14.633 -0.6189  0.4450  0.0779
 6990SOL    HW132603   2.849   1.173  14.538  0.7299 -0.9055 -0.0799
 6990SOL    HW232604   2.848   1.244  14.679  0.8757  0.0208  0.8305
 6991SOL     OW32605   3.843   1.659   0.714 -0.5361  0.5560 -0.6564
 6991SOL    HW132606   3.908   1.591   0.701 -1.7130 -0.0448 -3.3785
 6991SOL    HW232607   3.863   1.717   0.640 -2.5454  2.1576  0.0613
 6992SOL     OW32608   2.215   0.933   8.030 -0.3175  0.5801  0.0831
 6992SOL    HW132609   2.230   0.950   8.123  0.6965 -2.5495  0.4850
 6992SOL    HW232610   2.306   0.919   8.006 -0.7511 -1.0024 -0.6901
 6993SOL     OW32611   3.918   3.766  11.552 -0.3560  0.0198 -0.4501
 6993SOL    HW132612   3.922   3.837  11.615 -1.4699 -0.1267 -0.2102
 6993SOL    HW232613   3.966   3.693  11.592 -0.1548  0.5938  0.3504
 6994SOL     OW32614   0.910   3.398   6.031  0.7638  0.7714 -0.2550
 6994SOL    HW132615   0.899   3.323   6.090  1.0464  0.8661 -0.0862
 6994SOL    HW232616   0.947   3.360   5.952  0.2164  0.8878 -0.5697
 6995SOL     OW32617   2.804   0.660  11.561  0.2824 -0.2719  0.3650
 6995SOL    HW132618   2.882   0.635  11.612 -0.3734  0.1385  1.5773
 6995SOL    HW232619   2.763   0.720  11.623  1.6965 -0.0755  1.1190
 6996SOL     OW32620   1.435   4.284   8.786 -0.6104 -0.4491  0.1953
 6996SOL    HW132621   1.390   4.325   8.860 -0.2108 -0.0588  0.2177
 6996SOL    HW232622   1.362   4.266   8.726 -1.2376 -0.8111  1.0526
 6997SOL     OW32623   1.670   0.605  11.253  0.0260  0.8082 -0.2019
 6997SOL    HW132624   1.595   0.650  11.291 -0.7238 -0.1706 -0.5472
 6997SOL    HW232625   1.728   0.681  11.258  1.9591 -0.7803  1.4403
 6998SOL     OW32626   0.224   1.531   8.118 -0.0441 -0.8621  0.0948
 6998SOL    HW132627   0.239   1.447   8.162 -0.6481 -1.0701 -0.1037
 6998SOL    HW232628   0.226   1.585   8.198 -1.2024  0.2808 -0.6554
 6999SOL     OW32629   2.707   4.678   8.935 -0.7437  0.3346  0.2272
 6999SOL    HW132630   2.636   4.643   8.989  0.2191  1.3216  2.1270
 6999SOL    HW232631   2.711   0.035   8.953  1.7065  0.1360  0.7076
 7000SOL     OW32632   0.723   1.933   0.118  0.4163 -0.4150 -0.2583
 7000SOL    HW132633   0.809   1.960   0.087  0.4923 -1.5228 -1.0281
 7000SOL    HW232634   0.693   1.886   0.040 -1.9625  1.0932 -0.2534
 7001SOL     OW32635   1.292   0.213   5.556  0.4018  0.2200 -0.0937
 7001SOL    HW132636   1.301   0.118   5.548  0.0955  0.1057  0.9323
 7001SOL    HW232637   1.305   0.213   5.651 -0.4268 -0.1877  0.0227
 7002SOL     OW32638   3.507   3.252   9.104 -0.0351 -0.4481  0.2635
 7002SOL    HW132639   3.562   3.178   9.132 -0.0138 -0.3664  0.4386
 7002SOL    HW232640   3.509   3.316   9.175  1.9265  2.4425 -2.3863
 7003SOL     OW32641   4.700   0.513   5.719 -0.2126  0.2542  0.2713
 7003SOL    HW132642   4.607   0.535   5.708 -0.2719 -0.1124  0.0285
 7003SOL    HW232643   4.734   0.587   5.669 -0.0450 -0.0025  0.0002
 7004SOL     OW32644   3.573   1.134   4.378  0.7019 -0.1107  0.4308
 7004SOL    HW132645   3.512   1.161   4.447  0.8343 -1.3584  1.0452
 7004SOL    HW232646   3.539   1.206   4.325 -0.8892  0.8747  2.7905
 7005SOL     OW32647   2.223   0.924   2.926  0.6390 -0.0055 -0.3025
 7005SOL    HW132648   2.304   0.972   2.942 -0.1391  1.4468 -0.7882
 7005SOL    HW232649   2.223   0.929   2.830  2.1104 -0.9985 -0.3633
 7006SOL     OW32650   0.880   3.514   3.798  0.0413 -0.1326 -0.2261
 7006SOL    HW132651   0.976   3.504   3.799  0.0755  0.0339 -1.3172
 7006SOL    HW232652   0.852   3.444   3.739  1.8891  0.2469 -1.5925
 7007SOL     OW32653   1.807   0.568   4.165 -0.0963 -0.7200 -0.7353
 7007SOL    HW132654   1.837   0.636   4.105 -1.6414 -0.1584 -0.8804
 7007SOL    HW232655   1.868   0.576   4.238  1.8023 -2.3404 -2.1482
 7008SOL     OW32656   4.578   1.273   0.621 -0.1173 -0.4027 -0.0148
 7008SOL    HW132657   4.565   1.341   0.554 -0.2012 -0.1366  0.2758
 7008SOL    HW232658   4.604   1.328   0.695  0.4499  1.0970 -1.3193
 7009SOL     OW32659   2.106   2.126   7.329  0.0736 -0.5899 -0.3413
 7009SOL    HW132660   2.080   2.212   7.363  2.8388  0.8420 -1.8654
 7009SOL    HW232661   2.144   2.090   7.409  1.8713 -0.4898 -1.1614
 7010SOL     OW32662   1.846   4.432   5.628  0.0663  0.8937  0.4849
 7010SOL    HW132663   1.821   4.487   5.554 -0.2823  1.6046  1.1390
 7010SOL    HW232664   1.764   4.397   5.663 -0.1917 -0.0542 -1.0404
 7011SOL     OW32665   3.291   0.978   3.347 -0.2757 -0.3328 -0.3017
 7011SOL    HW132666   3.235   1.053   3.328 -0.3666 -0.0471  1.1028
 7011SOL    HW232667   3.361   1.020   3.397 -0.3181 -0.2372 -0.3230
 7012SOL     OW32668   2.471   1.804  16.356  0.2077  0.5558 -0.1279
 7012SOL    HW132669   2.550   1.813  16.303  1.1386 -0.9126  0.9842
 7012SOL    HW232670   2.440   1.891  16.378  0.3344  1.1120 -2.1092
 7013SOL     OW32671   0.869   3.812   8.541  0.3774 -0.2817 -0.3146
 7013SOL    HW132672   0.822   3.740   8.499  1.5872 -1.1842 -0.1346
 7013SOL    HW232673   0.935   3.824   8.473 -0.2151 -1.4996 -1.1000
 7014SOL     OW32674   1.801   3.659   6.367  0.0971  0.7446  0.0501
 7014SOL    HW132675   1.863   3.724   6.335  0.5576  0.9831  1.4379
 7014SOL    HW232676   1.802   3.601   6.291  1.3498  0.6288  0.1430
 7015SOL     OW32677   4.558   2.198   7.951  0.5519  0.1004 -0.3877
 7015SOL    HW132678   4.581   2.249   7.874 -1.3581 -0.2365 -1.1989
 7015SOL    HW232679   4.492   2.258   7.987  0.5144  0.7973 -1.6007
 7016SOL     OW32680   1.258   4.697   2.062 -0.1118  0.0462 -0.1817
 7016SOL    HW132681   1.332   4.638   2.045  0.4569  0.4406  0.9498
 7016SOL    HW232682   1.214   4.686   1.977  0.4047  0.2672 -0.4758
 7017SOL     OW32683   1.727   3.883   2.106  0.1241 -0.0048 -0.6164
 7017SOL    HW132684   1.704   3.790   2.107  1.8269 -0.4720 -2.6082
 7017SOL    HW232685   1.668   3.908   2.035 -1.1598 -1.8005 -0.1800
 7018SOL     OW32686   0.966   3.376  13.201 -0.2324 -0.9953  0.0741
 7018SOL    HW132687   1.004   3.351  13.286 -0.0398  3.6059  1.3029
 7018SOL    HW232688   0.986   3.469  13.197  0.7560 -1.2325 -0.6283
 7019SOL     OW32689   1.734   0.747  15.801  0.1792  0.2747  0.0221
 7019SOL    HW132690   1.712   0.658  15.773 -1.4574  1.5813 -2.8658
 7019SOL    HW232691   1.775   0.791  15.727  0.1420 -1.7763 -1.2344
 7020SOL     OW32692   2.690   3.593   5.631  0.0534  0.1706  0.1212
 7020SOL    HW132693   2.729   3.680   5.630  0.5092 -0.0311  1.8080
 7020SOL    HW232694   2.605   3.614   5.670  1.4819  1.8831  2.2753
 7021SOL     OW32695   0.601   1.805  16.769 -0.1195  0.3259 -0.0212
 7021SOL    HW132696   0.602   1.763  16.855  0.1688 -1.3974 -0.8705
 7021SOL    HW232697   0.527   1.757  16.732 -1.7667  0.6789  2.7640
 7022SOL     OW32698   0.111   3.993  16.822 -0.1040  0.3437  0.1932
 7022SOL    HW132699   0.105   4.075  16.871 -1.3420 -1.2739  2.7517
 7022SOL    HW232700   0.029   3.953  16.850 -2.1400  3.6867 -0.9150
 7023SOL     OW32701   3.462   3.778  16.011 -0.0236  0.8709 -0.1408
 7023SOL    HW132702   3.380   3.826  16.019 -0.7273 -0.1746 -1.0727
 7023SOL    HW232703   3.531   3.843  16.002  1.3231 -0.3952  1.0025
 7024SOL     OW32704   0.477   1.983  16.166  0.4552 -0.5038  0.0654
 7024SOL    HW132705   0.442   2.059  16.212 -0.8948 -1.1715  0.1503
 7024SOL    HW232706   0.473   1.926  16.243 -1.6957 -0.6536 -0.1548
 7025SOL     OW32707   4.088   0.541  17.504 -0.0572  0.4114 -0.1169
 7025SOL    HW132708   4.023   0.474  17.486  1.3667 -1.2108  0.7276
 7025SOL    HW232709   4.045   0.614  17.460  0.4056  1.5360  1.3240
 7026SOL     OW32710   4.435   0.210   2.813 -0.2334  0.0256  0.1335
 7026SOL    HW132711   4.377   0.154   2.864 -0.2262  2.1716  2.4658
 7026SOL    HW232712   4.440   0.158   2.732 -0.4620 -0.0333  0.1561
 7027SOL     OW32713   3.155   1.561   6.641  0.4162 -0.4385 -0.4020
 7027SOL    HW132714   3.121   1.650   6.631  1.8056  0.1181 -0.1565
 7027SOL    HW232715   3.224   1.554   6.575  0.6120 -1.7551 -0.0685
 7028SOL     OW32716   1.930   3.174   4.765 -0.0356  0.5689  0.2922
 7028SOL    HW132717   1.837   3.184   4.744 -0.4919 -2.3693  1.0370
 7028SOL    HW232718   1.964   3.226   4.692 -2.0213  0.4293 -0.7176
 7029SOL     OW32719   0.605   3.827   8.220  0.2298  0.0634  0.1398
 7029SOL    HW132720   0.588   3.873   8.138  0.0149 -0.3408 -0.0404
 7029SOL    HW232721   0.578   3.902   8.273 -1.0100  0.6902 -1.4137
 7030SOL     OW32722   2.748   1.758   5.744  0.5328  0.1337  0.0327
 7030SOL    HW132723   2.804   1.836   5.745  1.0399 -0.2148 -1.1251
 7030SOL    HW232724   2.727   1.752   5.837 -2.8627  1.7213 -0.6309
 7031SOL     OW32725   4.436   1.655  12.899  0.2694 -0.3439  0.4304
 7031SOL    HW132726   4.425   1.610  12.815 -2.6662  2.4451 -0.6568
 7031SOL    HW232727   4.369   1.609  12.950 -0.4166  2.5163  2.0780
 7032SOL     OW32728   1.216   0.858   2.002 -0.4812 -0.0253 -0.4251
 7032SOL    HW132729   1.301   0.871   2.045 -1.3141 -0.6782  1.4145
 7032SOL    HW232730   1.221   0.922   1.931  0.7162  0.3732  0.0182
 7033SOL     OW32731   1.927   3.558  10.168 -0.5462  0.4602 -0.1505
 7033SOL    HW132732   1.948   3.650  10.152 -1.2801  0.9513  1.7044
 7033SOL    HW232733   1.874   3.571  10.246  1.0312 -3.7247  1.6157
 7034SOL     OW32734   3.927   3.595  16.283  0.5160  0.3526 -0.1519
 7034SOL    HW132735   3.895   3.536  16.216 -2.0448  1.3370  0.1876
 7034SOL    HW232736   3.945   3.529  16.350 -0.7639  0.1170 -0.0374
 7035SOL     OW32737   1.594   4.524   3.086  0.2899 -0.1238 -0.1978
 7035SOL    HW132738   1.668   4.584   3.086  0.4085 -0.2702  0.1102
 7035SOL    HW232739   1.536   4.577   3.032  0.2228 -0.0031 -0.0064
 7036SOL     OW32740   2.657   3.439   6.735  0.0863  0.5662  0.2089
 7036SOL    HW132741   2.704   3.423   6.654 -2.1890  0.4190 -1.0844
 7036SOL    HW232742   2.623   3.356   6.769  1.1385 -0.4196 -1.1531
 7037SOL     OW32743   4.300   0.826  12.210 -0.5147 -0.0213  0.0018
 7037SOL    HW132744   4.363   0.757  12.233 -2.2439 -1.6286 -0.1189
 7037SOL    HW232745   4.255   0.845  12.292  0.9663  2.3963  0.2551
 7038SOL     OW32746   4.265   2.007  17.598 -0.0377  0.3004 -0.7964
 7038SOL    HW132747   4.296   1.916  17.602  0.6863  0.5865  0.1010
 7038SOL    HW232748   4.239   2.024  17.688 -0.4760 -0.3437 -0.7983
 7039SOL     OW32749   3.470   3.934   2.351 -0.3578 -0.1887  0.3916
 7039SOL    HW132750   3.395   3.874   2.349 -0.1759 -0.4157  0.3385
 7039SOL    HW232751   3.534   3.893   2.409 -0.3786 -2.3239 -1.0965
 7040SOL     OW32752   0.714   4.198   2.952  0.0413 -0.6922 -0.1311
 7040SOL    HW132753   0.710   4.272   2.892  3.3365  0.2593  0.7900
 7040SOL    HW232754   0.741   4.125   2.896 -2.6825 -1.5032 -0.3529
 7041SOL     OW32755   3.556   3.566  12.295 -0.4168 -0.3367  0.0999
 7041SOL    HW132756   3.551   3.558  12.200 -2.8502  2.0861  0.0551
 7041SOL    HW232757   3.631   3.509  12.314  0.1493  0.4227  0.1191
 7042SOL     OW32758   2.207   1.424   3.828  0.2876 -0.4474 -0.1275
 7042SOL    HW132759   2.287   1.471   3.809  0.0532 -0.0840 -0.2054
 7042SOL    HW232760   2.150   1.448   3.755 -0.0298  1.5022  0.7686
 7043SOL     OW32761   1.138   4.653   0.441 -0.1027 -0.0319  0.7895
 7043SOL    HW132762   1.185   4.689   0.516  1.2127  0.3978 -0.2489
 7043SOL    HW232763   1.205   4.596   0.402  0.8676  1.9677 -0.4528
 7044SOL     OW32764   1.323   0.119   8.193  0.2453 -0.2717 -0.0321
 7044SOL    HW132765   1.298   0.037   8.151  0.6331 -0.8473  0.8634
 7044SOL    HW232766   1.251   0.174   8.161 -0.2992 -0.2361  1.2836
 7045SOL     OW32767   3.686   3.182  13.865  0.0011 -0.4089 -0.3885
 7045SOL    HW132768   3.773   3.162  13.832 -0.7315  0.4632 -2.8631
 7045SOL    HW232769   3.668   3.111  13.926  2.1745 -0.8499 -0.2934
 7046SOL     OW32770   3.498   4.303   4.722  0.5229  0.5729 -0.5551
 7046SOL    HW132771   3.534   4.219   4.692 -0.3488 -0.8455  2.3125
 7046SOL    HW232772   3.493   4.284   4.816 -2.2562  0.9299 -0.6433
 7047SOL     OW32773   0.492   4.629   9.949 -0.7794  0.1984  0.0682
 7047SOL    HW132774   0.431   4.571   9.904  0.0625 -1.5420  1.2031
 7047SOL    HW232775   0.474   4.612  10.041 -0.3787  3.9157  0.8539
 7048SOL     OW32776   1.858   1.938  16.450  0.4718  0.4900 -0.5074
 7048SOL    HW132777   1.824   1.999  16.384 -0.6572  2.0629  1.5288
 7048SOL    HW232778   1.950   1.963  16.456  0.9555 -1.4651 -0.0230
 7049SOL     OW32779   0.220   0.115   9.865 -0.4079  0.2937  0.0966
 7049SOL    HW132780   0.235   0.071   9.949 -2.1659 -2.0268 -0.7951
 7049SOL    HW232781   0.151   0.052   9.842 -0.4265  0.2418  0.2971
 7050SOL     OW32782   4.141   4.384   7.405  0.1322 -0.2996  0.1081
 7050SOL    HW132783   4.094   4.466   7.389  1.4983  0.1371 -1.6665
 7050SOL    HW232784   4.072   4.345   7.458 -0.9442 -1.0181 -1.8259
 7051SOL     OW32785   1.506   0.595   5.759  0.7019  0.2750 -0.5960
 7051SOL    HW132786   1.579   0.613   5.820 -0.1452  0.8194  0.2579
 7051SOL    HW232787   1.539   0.528   5.700 -0.4623  1.0555 -2.1118
 7052SOL     OW32788   3.113   0.112  15.351 -0.2064 -0.5335  0.0226
 7052SOL    HW132789   3.128   0.042  15.288  0.1878 -1.5247  1.2017
 7052SOL    HW232790   3.144   0.076  15.434 -0.4903 -2.8054 -0.8651
 7053SOL     OW32791   3.221   3.261   1.933 -0.3418 -0.3739  0.2557
 7053SOL    HW132792   3.234   3.325   2.004 -2.2087 -0.1897  0.4304
 7053SOL    HW232793   3.159   3.199   1.971 -0.0270 -1.1211 -0.4772
 7054SOL     OW32794   0.256   4.415   0.418 -0.4595  0.2667  0.0854
 7054SOL    HW132795   0.322   4.409   0.348  0.5461  0.1902  1.0455
 7054SOL    HW232796   0.305   4.375   0.490  0.7013 -0.6983 -1.2407
 7055SOL     OW32797   4.051   2.604  14.754  0.3910  0.0723 -0.1228
 7055SOL    HW132798   4.005   2.659  14.818 -1.0577 -0.8843 -0.3579
 7055SOL    HW232799   4.134   2.585  14.797  0.5897  0.0465 -0.5184
 7056SOL     OW32800   2.771   0.079  15.667 -0.3535 -0.1438  0.3811
 7056SOL    HW132801   2.836   0.147  15.681  0.2498 -0.8304  0.8830
 7056SOL    HW232802   2.820   4.734  15.670 -1.5584 -0.9030 -0.6191
 7057SOL     OW32803   3.791   1.875   4.082 -0.2123  0.2058 -0.0960
 7057SOL    HW132804   3.883   1.901   4.070 -0.3921  1.2332  0.7639
 7057SOL    HW232805   3.797   1.782   4.102  2.3778  0.4244  0.2016
 7058SOL     OW32806   2.113   0.322   3.629  0.1359 -0.7115 -0.2864
 7058SOL    HW132807   2.136   0.308   3.538 -0.4729 -3.2817 -0.0434
 7058SOL    HW232808   2.198   0.334   3.670  1.6296 -0.9919 -3.3487
 7059SOL     OW32809   1.131   4.024  15.550 -0.0733  0.5459  0.2592
 7059SOL    HW132810   1.177   3.965  15.609  2.6706  2.3045 -0.0879
 7059SOL    HW232811   1.160   3.999  15.462 -0.5260  2.9388 -0.5702
 7060SOL     OW32812   1.608   0.255   5.985 -0.4286  0.5799  0.6910
 7060SOL    HW132813   1.572   0.181   5.938  0.4983 -1.7457  3.6303
 7060SOL    HW232814   1.623   0.320   5.916 -0.7542 -0.8119 -0.6706
 7061SOL     OW32815   1.994   4.710  12.551  0.0731  0.0798 -0.2827
 7061SOL    HW132816   2.059   4.685  12.486  0.9751 -3.6028  2.0167
 7061SOL    HW232817   1.916   4.672  12.510  0.8104 -1.5607 -0.1531
 7062SOL     OW32818   0.812   3.101   9.363 -0.1105  0.3674 -0.3091
 7062SOL    HW132819   0.834   3.032   9.425  3.3028  0.3874 -1.4825
 7062SOL    HW232820   0.720   3.100   9.388  0.1543  0.8623  0.7000
 7063SOL     OW32821   3.665   0.345  13.251 -0.1670 -0.4402  0.0708
 7063SOL    HW132822   3.573   0.343  13.278 -0.5362 -0.2246 -1.1292
 7063SOL    HW232823   3.659   0.407  13.177  1.7401  1.1948  1.2843
 7064SOL     OW32824   2.963   2.941  11.257 -0.2489 -0.7149  0.1599
 7064SOL    HW132825   3.025   2.979  11.319  0.2636  1.4492 -1.6839
 7064SOL    HW232826   2.882   2.918  11.303  0.1833 -1.4579  0.5604
 7065SOL     OW32827   1.622   1.841   9.138  0.5657 -0.0542 -0.3360
 7065SOL    HW132828   1.534   1.868   9.109  0.4784 -1.0129 -0.9396
 7065SOL    HW232829   1.660   1.926   9.116  0.8575  0.6343  2.8077
 7066SOL     OW32830   0.643   2.060   9.443  0.6186 -0.1577  0.0133
 7066SOL    HW132831   0.614   2.067   9.353 -0.3843  0.9427  0.4202
 7066SOL    HW232832   0.578   2.118   9.484  0.4530 -0.1628 -0.2418
 7067SOL     OW32833   2.747   3.752   7.790 -0.0680 -0.3090  0.4874
 7067SOL    HW132834   2.766   3.704   7.710  0.3657  0.1142  0.3377
 7067SOL    HW232835   2.660   3.787   7.772 -0.5330 -1.8251 -0.2033
 7068SOL     OW32836   1.289   0.516  16.253  0.6059  0.1606  0.6861
 7068SOL    HW132837   1.355   0.566  16.205  1.0284 -1.4835 -0.4274
 7068SOL    HW232838   1.220   0.583  16.257 -0.2209 -0.5216 -2.3411
 7069SOL     OW32839   0.382   2.732   6.471 -0.0338  0.1182 -0.3559
 7069SOL    HW132840   0.411   2.647   6.504  1.5440  1.1609  0.9085
 7069SOL    HW232841   0.372   2.759   6.562  0.3186 -1.7414  0.2318
 7070SOL     OW32842   2.471   3.018   2.218  0.5131 -0.0425  0.4851
 7070SOL    HW132843   2.547   2.995   2.271  0.0334 -1.5419  0.5381
 7070SOL    HW232844   2.488   2.967   2.139  0.3426 -1.1617  1.1745
 7071SOL     OW32845   1.280   0.231  12.377 -0.0650 -0.3882 -0.4736
 7071SOL    HW132846   1.328   0.232  12.294  1.4123  2.9551  0.4350
 7071SOL    HW232847   1.246   0.319  12.390 -0.1412 -0.6828  1.2907
 7072SOL     OW32848   2.184   0.228   6.700 -0.4316 -0.1341  0.2861
 7072SOL    HW132849   2.210   0.306   6.749  1.7949  0.4522 -1.8671
 7072SOL    HW232850   2.147   0.173   6.770  0.1971  1.0599  1.5629
 7073SOL     OW32851   0.253   0.193  15.743 -0.1877 -0.4677  0.2835
 7073SOL    HW132852   0.240   0.230  15.656 -1.2948 -0.2035  0.5582
 7073SOL    HW232853   0.330   0.140  15.721 -0.6656 -1.9103  2.1114
 7074SOL     OW32854   4.391   3.660   9.318  0.0169 -0.4455  0.2389
 7074SOL    HW132855   4.398   3.713   9.398 -1.0067  1.0141 -0.6379
 7074SOL    HW232856   4.479   3.625   9.332 -0.2125 -1.3230 -0.5453
 7075SOL     OW32857   2.839   0.313  10.540  0.2537 -0.1156  0.2441
 7075SOL    HW132858   2.782   0.275  10.606 -2.2340  2.0547 -0.6248
 7075SOL    HW232859   2.907   0.347  10.597  0.1231 -0.3584  0.5422
 7076SOL     OW32860   4.544   0.381  14.607  0.1239  0.5736 -0.4094
 7076SOL    HW132861   4.555   0.429  14.689  1.2410 -0.8171  0.2565
 7076SOL    HW232862   4.537   0.292  14.643  0.9185  0.0888 -1.4406
 7077SOL     OW32863   2.496   1.921  13.384 -0.1205  0.2848 -0.2130
 7077SOL    HW132864   2.509   1.837  13.340 -0.6731 -0.2090  0.5670
 7077SOL    HW232865   2.538   1.905  13.468 -0.2314 -0.4945 -0.3118
 7078SOL     OW32866   1.628   0.170   5.378 -0.0072  0.4937  0.4947
 7078SOL    HW132867   1.706   0.201   5.333 -1.4616  0.5884 -1.9878
 7078SOL    HW232868   1.579   0.252   5.392 -1.2186 -0.0320 -0.6961
 7079SOL     OW32869   0.079   1.004  12.159  0.0862 -0.1140  0.1246
 7079SOL    HW132870   0.130   0.968  12.087  1.4881 -0.6445  1.3924
 7079SOL    HW232871   4.736   1.022  12.110  0.4839  2.5158  0.4607
 7080SOL     OW32872   1.093   1.281   0.214  0.2698  0.0738  0.3850
 7080SOL    HW132873   1.042   1.240   0.144  3.0325 -1.6609 -0.6220
 7080SOL    HW232874   1.096   1.374   0.191 -0.2464 -0.2069 -0.8263
 7081SOL     OW32875   3.991   1.618   8.225  0.1988  0.6835 -0.2516
 7081SOL    HW132876   3.946   1.551   8.276 -0.0408  0.1710 -1.1342
 7081SOL    HW232877   4.049   1.556   8.180 -0.2997  0.3673 -0.4630
 7082SOL     OW32878   0.092   4.436   2.455 -0.6827  0.3082  0.1885
 7082SOL    HW132879   0.170   4.422   2.401 -1.8526 -1.8054 -0.9856
 7082SOL    HW232880   0.024   4.443   2.389  0.5702  0.4273 -1.0888
 7083SOL     OW32881   4.372   4.734   7.918  0.1784 -0.4014  0.1625
 7083SOL    HW132882   4.414   0.074   7.954 -1.2355  0.9800 -1.1679
 7083SOL    HW232883   4.336   0.027   7.835  0.9112  0.7380  0.2652
 7084SOL     OW32884   4.130   3.866   3.777 -0.6159 -0.1568  0.2336
 7084SOL    HW132885   4.094   3.934   3.721  0.5327  1.5682  1.6140
 7084SOL    HW232886   4.086   3.790   3.739 -0.5950 -0.9763  1.8622
 7085SOL     OW32887   2.961   0.767  10.590 -0.0659  0.4903 -0.2653
 7085SOL    HW132888   3.001   0.733  10.509  1.3759  0.4863  0.4497
 7085SOL    HW232889   3.024   0.837  10.607 -0.4310  0.1285  2.5326
 7086SOL     OW32890   1.837   3.020   2.537 -0.0355 -0.5341  0.4172
 7086SOL    HW132891   1.899   3.056   2.474 -1.6139  0.3407 -0.6342
 7086SOL    HW232892   1.848   2.925   2.530  2.3730  0.0492 -3.4425
 7087SOL     OW32893   3.217   0.011   1.306  0.0178 -0.1151 -0.5205
 7087SOL    HW132894   3.139   0.025   1.360  1.1158  1.4832  0.6234
 7087SOL    HW232895   3.180   4.691   1.238  0.1380  1.3073 -1.7824
 7088SOL     OW32896   2.386   2.349   9.574 -0.3291 -0.0994  0.0319
 7088SOL    HW132897   2.295   2.339   9.547 -0.6023 -0.6411  1.1676
 7088SOL    HW232898   2.395   2.278   9.637  0.8515 -0.6676 -0.7815
 7089SOL     OW32899   2.043   2.281   4.549  0.7142 -0.3079  0.6462
 7089SOL    HW132900   1.965   2.330   4.577  0.9143  1.5854 -2.1375
 7089SOL    HW232901   2.067   2.334   4.473  0.0402 -0.0948  0.5809
 7090SOL     OW32902   3.011   2.615  10.025 -0.0968 -0.1910  0.4889
 7090SOL    HW132903   3.045   2.704  10.015 -1.1861  0.1081 -0.5324
 7090SOL    HW232904   2.972   2.624  10.112 -1.1002  2.5534 -0.2529
 7091SOL     OW32905   3.137   3.650   6.221  0.4035  0.1774 -0.1066
 7091SOL    HW132906   3.089   3.732   6.209  3.2035  1.4029 -3.0519
 7091SOL    HW232907   3.156   3.654   6.315 -1.4255  0.9078  0.2407
 7092SOL     OW32908   4.325   3.596   2.668 -0.1288 -0.4851  0.3027
 7092SOL    HW132909   4.402   3.602   2.611 -0.9185 -0.8741 -0.7909
 7092SOL    HW232910   4.332   3.503   2.691 -0.8645 -0.7227 -0.4547
 7093SOL     OW32911   0.060   1.804  17.659 -0.3025 -0.9338 -0.0977
 7093SOL    HW132912   0.114   1.863  17.606 -0.1273 -1.5519 -0.5900
 7093SOL    HW232913   0.008   1.859  17.718 -0.4144 -0.3808 -0.7113
 7094SOL     OW32914   3.957   2.010   8.674 -0.9135  0.2296  0.0158
 7094SOL    HW132915   4.043   2.018   8.634  0.2199 -0.7988  2.2690
 7094SOL    HW232916   3.942   2.084   8.732  0.1227  1.5009 -1.3447
 7095SOL     OW32917   0.612   3.276   3.175 -0.2712  0.3582 -0.4270
 7095SOL    HW132918   0.656   3.303   3.095 -0.0708 -0.0607 -0.4612
 7095SOL    HW232919   0.579   3.359   3.209 -0.8869  0.8024 -2.0960
 7096SOL     OW32920   0.479   4.657  11.375  0.2704  0.1448  0.3213
 7096SOL    HW132921   0.555   4.630  11.324 -0.5890 -0.1521 -0.8024
 7096SOL    HW232922   0.478   4.586  11.440 -1.2164  0.0629  0.2055
 7097SOL     OW32923   1.397   0.789   7.384 -0.2447 -0.3779 -1.1064
 7097SOL    HW132924   1.454   0.774   7.459 -1.3914 -0.9397 -0.3543
 7097SOL    HW232925   1.399   0.885   7.383  3.6068 -0.4633  3.1026
 7098SOL     OW32926   1.575   0.199   8.348 -0.1580  0.4645  0.1580
 7098SOL    HW132927   1.518   0.146   8.292  0.2719 -1.3188  1.4180
 7098SOL    HW232928   1.635   0.136   8.389  1.0819  1.7590  0.3133
 7099SOL     OW32929   1.606   2.094   4.461  0.1756 -0.3871  0.1374
 7099SOL    HW132930   1.530   2.146   4.488 -1.0198 -1.5308 -1.0143
 7099SOL    HW232931   1.653   2.084   4.544  1.7452  1.2581 -0.5457
 7100SOL     OW32932   4.568   0.977   0.086  0.2919 -0.3349  0.1129
 7100SOL    HW132933   4.482   0.969   0.046  0.2473 -0.0388  0.1493
 7100SOL    HW232934   4.551   0.921   0.162 -0.9133  1.5891  1.2430
 7101SOL     OW32935   3.609   1.316   6.442 -0.1989 -0.3916  0.2303
 7101SOL    HW132936   3.687   1.349   6.486 -0.5199  0.6990 -0.0191
 7101SOL    HW232937   3.562   1.271   6.513  0.6602  2.0886  2.3546
 7102SOL     OW32938   3.668   1.962  17.317 -0.4594 -0.0385 -0.3818
 7102SOL    HW132939   3.753   1.965  17.272  0.6468 -1.4326  1.5831
 7102SOL    HW232940   3.697   1.940  17.406  1.4551  0.4405 -0.8825
 7103SOL     OW32941   2.812   3.927   2.445 -0.2715  0.0613 -0.3269
 7103SOL    HW132942   2.768   4.011   2.457 -0.6315 -0.4066  1.5524
 7103SOL    HW232943   2.881   3.943   2.509  0.8371  1.6843 -1.8961
 7104SOL     OW32944   4.411   0.370   6.829  0.1622  0.3300 -0.0790
 7104SOL    HW132945   4.466   0.315   6.775  0.9528 -0.7807  1.8706
 7104SOL    HW232946   4.323   0.351   6.796  0.8639 -0.4151 -1.4885
 7105SOL     OW32947   1.840   2.008  13.505 -0.5526  0.0264  0.1337
 7105SOL    HW132948   1.861   1.964  13.588 -2.1551  1.0577  1.0989
 7105SOL    HW232949   1.779   1.942  13.473 -0.1862 -1.4640  2.4610
 7106SOL     OW32950   1.716   1.704   5.635 -0.0312 -0.6029 -0.7408
 7106SOL    HW132951   1.689   1.635   5.695 -3.2107  0.7259 -0.6456
 7106SOL    HW232952   1.811   1.704   5.647 -0.1535  1.1049  0.2739
 7107SOL     OW32953   1.075   0.351  15.890 -0.1460  0.0582 -0.0720
 7107SOL    HW132954   1.155   0.398  15.867 -0.0743  1.0346  2.2498
 7107SOL    HW232955   1.010   0.411  15.854  2.6759  3.4157  0.3773
 7108SOL     OW32956   4.476   2.559  17.110 -0.1326 -0.1721  0.4637
 7108SOL    HW132957   4.532   2.495  17.155 -0.8694 -0.4753  0.9524
 7108SOL    HW232958   4.460   2.523  17.022  0.5023 -1.8703  1.0406
 7109SOL     OW32959   2.838   0.384  13.018  0.0938  0.2629  0.0118
 7109SOL    HW132960   2.914   0.423  12.975  0.7161 -1.0286 -0.0899
 7109SOL    HW232961   2.776   0.383  12.945 -0.5361 -1.0978  0.5505
 7110SOL     OW32962   4.187   2.213   5.248  0.2982 -0.5460 -0.0078
 7110SOL    HW132963   4.130   2.285   5.222 -0.7631 -2.3970 -2.8598
 7110SOL    HW232964   4.125   2.140   5.242 -0.9172  0.5864 -1.1408
 7111SOL     OW32965   1.231   3.151   1.208  0.2757  0.4655 -0.1167
 7111SOL    HW132966   1.316   3.146   1.251  0.5979 -1.7322 -1.0273
 7111SOL    HW232967   1.178   3.196   1.274 -1.9697 -1.0104 -0.9244
 7112SOL     OW32968   1.695   0.160   1.942  0.9639 -0.8462 -0.2279
 7112SOL    HW132969   1.783   0.187   1.917 -0.4020  2.9857 -0.9643
 7112SOL    HW232970   1.690   0.152   2.037 -0.1817 -0.3586 -0.2328
 7113SOL     OW32971   2.532   4.490  10.624  0.3862  0.3665  0.2083
 7113SOL    HW132972   2.623   4.518  10.615  0.2005  0.8627 -0.0894
 7113SOL    HW232973   2.511   4.469  10.533 -3.1665  1.4231  0.7911
 7114SOL     OW32974   3.612   1.225   2.614  0.4554  0.7163  0.2661
 7114SOL    HW132975   3.691   1.260   2.574  0.0584  0.5742 -0.6357
 7114SOL    HW232976   3.622   1.253   2.705  0.2473  1.2712  0.1183
 7115SOL     OW32977   1.232   1.515  11.915  0.5053 -0.1170 -0.4259
 7115SOL    HW132978   1.321   1.509  11.880  1.1407  1.3818  0.9691
 7115SOL    HW232979   1.191   1.596  11.883 -0.3955 -0.8179 -1.0583
 7116SOL     OW32980   1.158   1.602  16.463 -0.6402  0.1180 -0.3066
 7116SOL    HW132981   1.201   1.644  16.537 -0.7728 -1.1690  0.5060
 7116SOL    HW232982   1.200   1.516  16.458 -1.2203 -0.1598 -0.4245
 7117SOL     OW32983   2.237   0.025   7.161 -0.1479 -0.5407 -0.1003
 7117SOL    HW132984   2.248   4.706   7.239  1.0345 -0.0352  0.0981
 7117SOL    HW232985   2.147   0.012   7.132 -0.5766  0.4789  0.7727
 7118SOL     OW32986   4.256   1.164   3.490 -0.0865  0.1347 -0.6035
 7118SOL    HW132987   4.275   1.207   3.573  0.7836  0.1953 -0.8394
 7118SOL    HW232988   4.266   1.072   3.514  0.3674  0.5300  0.6756
 7119SOL     OW32989   1.071   1.715   1.822  0.0959 -0.2963  0.4932
 7119SOL    HW132990   1.149   1.688   1.774  0.2528  0.1843  0.4756
 7119SOL    HW232991   1.070   1.803   1.785  1.0565 -0.4394  0.1221
 7120SOL     OW32992   0.906   1.321  13.199  0.0135 -0.4459  0.2777
 7120SOL    HW132993   0.882   1.228  13.193 -0.3513 -0.2400 -1.3718
 7120SOL    HW232994   0.962   1.329  13.122  1.8792 -1.1148  1.5645
 7121SOL     OW32995   0.558   0.232   8.024  0.0887 -0.0657 -0.8334
 7121SOL    HW132996   0.599   0.233   8.111  0.3583 -0.3084 -0.9586
 7121SOL    HW232997   0.494   0.298   8.051  0.2908  0.0924 -0.7405
 7122SOL     OW32998   3.865   2.918   5.478  0.0531  0.1316  0.5649
 7122SOL    HW132999   3.898   3.008   5.476 -2.6832  1.1347  0.5914
 7122SOL    HW233000   3.944   2.867   5.465 -0.2043 -0.4646  1.3282
 7123SOL     OW33001   1.337   1.678  10.643  0.2146 -0.6766  0.4455
 7123SOL    HW133002   1.286   1.631  10.709 -0.1400 -2.6787 -1.2278
 7123SOL    HW233003   1.276   1.748  10.622  2.7735  0.3255 -3.8514
 7124SOL     OW33004   0.245   1.736   6.193 -0.2553  0.1729  0.1861
 7124SOL    HW133005   0.293   1.696   6.120  0.6270 -0.5036  1.1339
 7124SOL    HW233006   0.181   1.668   6.214 -0.1714  0.4274  1.2712
 7125SOL     OW33007   2.274   2.453   8.201  0.4168 -0.6759 -0.2017
 7125SOL    HW133008   2.334   2.519   8.166  0.1777 -0.8404 -0.9264
 7125SOL    HW233009   2.204   2.452   8.135 -1.5222  1.9283  1.8190
 7126SOL     OW33010   3.190   4.353   5.334  0.4387 -0.2879 -0.5366
 7126SOL    HW133011   3.178   4.288   5.403  1.4709 -0.4314 -0.5011
 7126SOL    HW233012   3.193   4.431   5.390  0.0195 -0.4558 -0.2780
 7127SOL     OW33013   4.592   2.865   8.193  0.2783  0.4597 -0.4018
 7127SOL    HW133014   4.533   2.912   8.135  0.4438 -0.9288 -1.6939
 7127SOL    HW233015   4.540   2.831   8.266  2.2411 -2.0485 -0.1381
 7128SOL     OW33016   3.430   1.280  17.151  0.9241  0.0222 -0.3513
 7128SOL    HW133017   3.361   1.214  17.152  1.0128 -0.0732 -0.9173
 7128SOL    HW233018   3.392   1.364  17.179  0.3496  0.4840 -2.5181
 7129SOL     OW33019   0.169   2.810   7.572  0.1057  0.3114  0.0182
 7129SOL    HW133020   0.154   2.803   7.478  1.9317  0.2187 -0.2755
 7129SOL    HW233021   0.262   2.787   7.570  0.1109  0.2215  1.0459
 7130SOL     OW33022   3.897   2.566  16.530  0.2941 -0.3476 -0.3897
 7130SOL    HW133023   3.992   2.572  16.524  0.5187 -1.1735  2.1772
 7130SOL    HW233024   3.886   2.563  16.625  1.0949 -0.1309 -0.2893
 7131SOL     OW33025   3.436   3.996   1.617  0.3222 -0.1847  0.4351
 7131SOL    HW133026   3.521   3.977   1.657  1.1865  1.4982 -0.6005
 7131SOL    HW233027   3.452   3.952   1.534 -0.5881 -0.0158  0.1647
 7132SOL     OW33028   1.714   2.056   6.354  0.1388 -0.8992  0.1012
 7132SOL    HW133029   1.764   2.016   6.283 -2.1694 -3.0739 -0.3183
 7132SOL    HW233030   1.625   2.032   6.327  0.1534 -1.2020  0.3295
 7133SOL     OW33031   0.520   1.855   0.646  0.2320  0.9651 -0.3084
 7133SOL    HW133032   0.522   1.825   0.555 -1.4082 -0.9314  0.2790
 7133SOL    HW233033   0.425   1.863   0.654  0.2418  0.4948  0.2450
 7134SOL     OW33034   0.831   4.266   2.122  0.3696  0.1388  0.2464
 7134SOL    HW133035   0.768   4.194   2.117 -2.9394  3.0527 -0.0983
 7134SOL    HW233036   0.769   4.330   2.087  0.4670  0.6074  0.9171
 7135SOL     OW33037   4.525   0.160  10.579 -0.4122 -0.0708 -0.5844
 7135SOL    HW133038   4.473   0.084  10.552 -0.1430 -0.7547  0.7941
 7135SOL    HW233039   4.592   0.132  10.642 -0.7900  0.2824 -0.0254
 7136SOL     OW33040   3.923   2.646   1.673  0.2375  0.5010 -0.0797
 7136SOL    HW133041   3.967   2.585   1.614  0.6125  0.2924  0.4140
 7136SOL    HW233042   3.841   2.651   1.624  0.4024  0.0283 -0.3952
 7137SOL     OW33043   3.613   0.576   8.394  0.2729  0.3012  0.5225
 7137SOL    HW133044   3.669   0.505   8.426 -0.1551  0.6236  1.9510
 7137SOL    HW233045   3.665   0.607   8.320  1.5017 -1.8494  0.4666
 7138SOL     OW33046   2.849   4.685   4.314  0.7619  0.4108  0.3137
 7138SOL    HW133047   2.755   4.683   4.330  0.6007 -0.3212 -0.7749
 7138SOL    HW233048   2.874   0.039   4.323  0.7983  0.6242 -2.1694
 7139SOL     OW33049   3.320   1.160  11.232 -0.4823 -0.2443  0.0373
 7139SOL    HW133050   3.307   1.136  11.324 -1.4011  1.3032  0.3038
 7139SOL    HW233051   3.323   1.255  11.228 -0.6839 -0.2881 -1.2388
 7140SOL     OW33052   3.281   3.795   2.166  0.2512 -0.0559 -0.2273
 7140SOL    HW133053   3.200   3.838   2.193  2.1453  2.4419  1.4786
 7140SOL    HW233054   3.252   3.750   2.086  0.8787 -1.8793  0.5558
 7141SOL     OW33055   1.207   0.789  16.184  0.0129 -0.3089 -0.2793
 7141SOL    HW133056   1.248   0.804  16.269 -0.7546 -2.1129  0.4121
 7141SOL    HW233057   1.144   0.860  16.172  1.2153  1.0212  1.2484
 7142SOL     OW33058   3.836   4.225  11.573 -0.3204  0.9155 -0.1537
 7142SOL    HW133059   3.927   4.223  11.542  0.1653  2.7933  1.1466
 7142SOL    HW233060   3.821   4.309  11.618 -1.2444 -0.2500  1.6827
 7143SOL     OW33061   2.289   2.025   2.426  0.0782  0.3656  0.4533
 7143SOL    HW133062   2.305   1.958   2.492 -0.8439 -1.8409 -1.5539
 7143SOL    HW233063   2.297   1.978   2.344  0.5184  2.8533 -0.9401
 7144SOL     OW33064   1.752   2.385   9.196  0.2173  0.0895  0.2598
 7144SOL    HW133065   1.774   2.477   9.207  1.5711 -0.2116  0.0294
 7144SOL    HW233066   1.668   2.390   9.150  1.1787  1.2941 -1.3490
 7145SOL     OW33067   0.464   2.980   5.255 -0.2362 -0.1353  0.2973
 7145SOL    HW133068   0.525   3.044   5.218 -0.9824  0.4370  0.0489
 7145SOL    HW233069   0.518   2.901   5.246  1.4627  1.0913 -0.2868
 7146SOL     OW33070   4.445   0.871   4.348  0.1109  0.3652 -0.4788
 7146SOL    HW133071   4.373   0.934   4.347 -0.7894 -0.6560  0.3445
 7146SOL    HW233072   4.412   0.825   4.271  1.9221 -1.4711 -0.1599
 7147SOL     OW33073   3.074   2.157  17.338 -0.6286 -0.4760  0.0312
 7147SOL    HW133074   3.133   2.199  17.401  0.8435 -1.4731 -0.6610
 7147SOL    HW233075   3.053   2.223  17.273 -0.7921 -0.6040 -0.0457
 7148SOL     OW33076   1.471   3.939  16.751  0.2155  0.6402 -0.0275
 7148SOL    HW133077   1.522   3.912  16.675  0.3714  0.4121  0.1598
 7148SOL    HW233078   1.390   3.974  16.712  0.1693  1.2270  0.5984
 7149SOL     OW33079   4.026   3.228   2.746  0.2744 -0.2971 -0.3382
 7149SOL    HW133080   3.970   3.161   2.786  0.3683  0.6060  1.3001
 7149SOL    HW233081   3.975   3.309   2.744  2.6361  1.2274  1.0389
 7150SOL     OW33082   0.387   4.635  16.178 -0.2468 -1.1097 -0.9641
 7150SOL    HW133083   0.420   4.720  16.206 -1.7951 -0.5757 -0.7850
 7150SOL    HW233084   0.419   4.625  16.088  1.5621  0.1673 -0.4709
 7151SOL     OW33085   4.271   3.990  12.487  0.0038 -0.5043 -0.4280
 7151SOL    HW133086   4.300   3.904  12.458  1.4671 -0.3835  0.6781
 7151SOL    HW233087   4.337   4.016  12.552 -0.9021  0.0444  0.2739
 7152SOL     OW33088   1.280   3.906   6.199  0.1345  0.4727 -0.4137
 7152SOL    HW133089   1.342   3.848   6.154 -0.4000  0.1081 -0.6746
 7152SOL    HW233090   1.286   3.875   6.290  0.1961 -1.1749 -0.9844
 7153SOL     OW33091   0.288   0.205   7.477  0.1834 -0.1952 -0.6541
 7153SOL    HW133092   0.378   0.221   7.449 -0.0811  0.1467 -1.3057
 7153SOL    HW233093   0.245   0.161   7.403  1.1562 -1.6276 -0.3620
 7154SOL     OW33094   3.843   2.640   7.013  0.3425 -0.3704  0.0432
 7154SOL    HW133095   3.937   2.646   7.032 -0.3329  2.8419  2.3015
 7154SOL    HW233096   3.830   2.697   6.937 -0.5254  0.7807  1.0623
 7155SOL     OW33097   2.239   0.217  12.569 -0.6025  0.4617 -0.5911
 7155SOL    HW133098   2.329   0.219  12.601 -1.2252  1.0522  1.1101
 7155SOL    HW233099   2.229   0.127  12.539  0.2603  0.7825 -1.8770
 7156SOL     OW33100   1.479   0.670  12.078  0.2515  0.1306 -0.3798
 7156SOL    HW133101   1.411   0.714  12.027 -0.8872 -0.4611  0.6043
 7156SOL    HW233102   1.473   0.580  12.045  0.6013  0.8538 -2.3570
 7157SOL     OW33103   3.406   1.487  16.176  0.2603 -0.0461  0.0595
 7157SOL    HW133104   3.495   1.453  16.161  0.7556  1.4262 -0.3100
 7157SOL    HW233105   3.351   1.419  16.137 -2.8230  1.6818  1.4323
 7158SOL     OW33106   4.569   0.068   7.542  0.2960  0.1096 -0.2831
 7158SOL    HW133107   4.594   0.088   7.632  1.6478  0.9605 -0.8269
 7158SOL    HW233108   4.649   0.029   7.506 -0.9058 -1.2804 -1.4078
 7159SOL     OW33109   3.633   3.004   7.459  0.4015 -0.3780 -0.4968
 7159SOL    HW133110   3.609   3.039   7.544  1.6973  1.5002 -0.8923
 7159SOL    HW233111   3.714   3.053   7.448 -1.2023  1.6277 -3.3705
 7160SOL     OW33112   3.819   0.520  16.803  0.0430 -0.3254  0.0005
 7160SOL    HW133113   3.791   0.554  16.718  0.2470  0.5593  0.2874
 7160SOL    HW233114   3.870   0.589  16.846 -1.8307 -0.4449  2.4260
 7161SOL     OW33115   0.284   3.069   2.529 -0.3079  0.2360  0.6527
 7161SOL    HW133116   0.231   3.149   2.528  1.0808  1.1479 -0.7025
 7161SOL    HW233117   0.305   3.054   2.621 -2.3007 -0.8253  0.9227
 7162SOL     OW33118   0.034   0.558   6.569  0.1169  0.2118  0.1225
 7162SOL    HW133119   0.080   0.573   6.487 -0.6711 -0.6351 -0.4689
 7162SOL    HW233120   0.037   0.463   6.580 -0.0493 -0.0182 -1.9161
 7163SOL     OW33121   3.866   4.683   5.475  0.6148 -0.6543  0.4876
 7163SOL    HW133122   3.893   4.591   5.475 -1.4000 -1.2548 -1.5735
 7163SOL    HW233123   3.791   4.672   5.533  1.0866  0.7909  1.3688
 7164SOL     OW33124   3.878   2.273   8.289 -0.8120 -0.6951 -0.1099
 7164SOL    HW133125   3.847   2.273   8.198  0.3443  0.7523 -0.5070
 7164SOL    HW233126   3.809   2.224   8.334  1.1884 -2.2117  1.2658
 7165SOL     OW33127   4.138   1.093   8.023 -0.1120 -0.0966  0.0706
 7165SOL    HW133128   4.196   1.059   8.091  3.4419  0.5464 -2.7124
 7165SOL    HW233129   4.185   1.074   7.942 -1.0018  0.2418 -0.5270
 7166SOL     OW33130   1.436   3.639   5.020  0.3899 -0.1413  0.1999
 7166SOL    HW133131   1.525   3.620   4.990 -0.0169 -2.8858  0.7703
 7166SOL    HW233132   1.379   3.607   4.949  1.7263 -0.5990 -0.6778
 7167SOL     OW33133   1.589   3.726   7.162 -0.7200 -0.4175 -0.3724
 7167SOL    HW133134   1.631   3.666   7.223  1.1904 -1.5980 -2.8422
 7167SOL    HW233135   1.524   3.667   7.124  0.1162 -1.7069  0.2134
 7168SOL     OW33136   4.088   4.390   4.003 -1.0404 -0.2401  0.3287
 7168SOL    HW133137   4.043   4.456   3.951  0.5186  0.6478  0.1097
 7168SOL    HW233138   4.042   4.310   3.978 -0.7102 -0.3355  0.0250
 7169SOL     OW33139   1.977   1.023   7.433  0.3144  0.3947 -0.1757
 7169SOL    HW133140   1.883   1.037   7.421  0.1851 -0.6156 -0.3158
 7169SOL    HW233141   1.979   0.972   7.514 -2.1801  1.4046  0.5373
 7170SOL     OW33142   2.993   3.912   5.945  0.0706  0.4153 -0.2469
 7170SOL    HW133143   2.942   3.849   5.894  0.4076  1.8243 -2.3233
 7170SOL    HW233144   2.979   3.881   6.035  0.6918  3.3242  0.8521
 7171SOL     OW33145   3.970   3.058   8.735  0.1224 -0.0417  0.3024
 7171SOL    HW133146   3.997   3.083   8.823 -2.2987 -0.0989  1.0499
 7171SOL    HW233147   3.893   3.013   8.768  1.0539 -1.6083  0.3421
 7172SOL     OW33148   0.280   2.797   2.807  0.2362  0.5116  0.0658
 7172SOL    HW133149   0.317   2.738   2.872 -0.2881  1.1504  0.9349
 7172SOL    HW233150   0.323   2.765   2.727  2.3352  0.7736  1.0968
 7173SOL     OW33151   4.076   2.733   4.738 -0.7646 -0.4406 -0.1625
 7173SOL    HW133152   4.091   2.639   4.740 -0.5250 -0.4146 -0.8712
 7173SOL    HW233153   4.152   2.761   4.791 -0.2753  0.6843 -1.4690
 7174SOL     OW33154   0.860   0.413  12.945 -0.1642  0.3955 -0.3571
 7174SOL    HW133155   0.815   0.459  13.015 -1.2267  1.1505 -1.5364
 7174SOL    HW233156   0.827   0.463  12.871 -0.3612  0.1295 -0.4479
 7175SOL     OW33157   0.547   3.292   7.956 -0.2866  0.2748 -0.7066
 7175SOL    HW133158   0.635   3.326   7.943 -0.8940  1.3529 -1.9778
 7175SOL    HW233159   0.541   3.293   8.052  0.0169 -0.2602 -0.6800
 7176SOL     OW33160   1.297   3.986  14.769  0.3603 -0.3927 -0.0022
 7176SOL    HW133161   1.265   3.912  14.719  0.4137 -0.2227 -0.2864
 7176SOL    HW233162   1.270   3.957  14.856  2.8872 -1.7035  0.3412
 7177SOL     OW33163   0.110   2.084   2.661  0.0510  0.0936 -0.3383
 7177SOL    HW133164   0.037   2.137   2.693  0.8896  1.5608 -0.8528
 7177SOL    HW233165   0.179   2.124   2.714  1.5569 -1.1456 -1.3505
 7178SOL     OW33166   0.627   1.858   4.168 -0.3581 -0.0513  0.1441
 7178SOL    HW133167   0.629   1.935   4.110 -2.7173 -0.2501 -0.1817
 7178SOL    HW233168   0.534   1.837   4.173 -0.5461  0.9966  0.9094
 7179SOL     OW33169   1.079   0.539   4.848  0.3132 -0.7411 -0.1043
 7179SOL    HW133170   1.093   0.463   4.905 -1.1406 -0.4489  0.6499
 7179SOL    HW233171   1.023   0.604   4.890 -3.1699 -4.4517  1.0218
 7180SOL     OW33172   4.527   3.800   2.489  0.2622  0.1813 -0.1750
 7180SOL    HW133173   4.487   3.721   2.451  0.4351 -1.3388  2.7565
 7180SOL    HW233174   4.545   3.773   2.579  2.3671  1.9915 -0.0370
 7181SOL     OW33175   1.504   2.726   8.526  0.5261  0.4463 -0.7214
 7181SOL    HW133176   1.480   2.768   8.444  0.3905 -2.0358 -1.9670
 7181SOL    HW233177   1.560   2.796   8.558  1.8761  0.9296 -4.1774
 7182SOL     OW33178   0.406   2.483   0.344 -0.1198  0.2998 -0.4061
 7182SOL    HW133179   0.491   2.512   0.309  0.2802 -0.4418 -0.0423
 7182SOL    HW233180   0.348   2.495   0.269  1.7532  0.8307 -1.7982
 7183SOL     OW33181   2.877   0.271  15.855 -0.0299 -0.3603  0.1744
 7183SOL    HW133182   2.887   0.360  15.890 -0.8566  0.2367 -1.1021
 7183SOL    HW233183   2.797   0.243  15.900 -0.1076 -0.7630 -0.2136
 7184SOL     OW33184   3.985   4.241  10.966 -0.0633  0.1438  0.8158
 7184SOL    HW133185   4.034   4.163  10.991 -0.6213 -0.4328  0.1417
 7184SOL    HW233186   3.895   4.216  10.986  0.8644 -0.8315  3.6601
 7185SOL     OW33187   3.320   3.857  11.365  0.1258  0.2508  0.0512
 7185SOL    HW133188   3.317   3.775  11.414 -1.9281  0.9815  1.1247
 7185SOL    HW233189   3.412   3.877  11.345 -0.6912  1.2018 -2.8169
 7186SOL     OW33190   1.475   1.191   1.730  0.5049  0.4613 -0.0733
 7186SOL    HW133191   1.513   1.157   1.811  2.2373  1.8885 -0.2853
 7186SOL    HW233192   1.550   1.190   1.670 -0.5311  1.7522 -1.3975
 7187SOL     OW33193   0.564   2.705  14.481  0.7275 -0.0034 -0.2757
 7187SOL    HW133194   0.556   2.632  14.542  3.0446  1.2741  1.5310
 7187SOL    HW233195   0.642   2.750  14.510  0.7990 -0.8862  0.9126
 7188SOL     OW33196   2.903   0.254   8.270 -0.1416 -0.2706 -0.4677
 7188SOL    HW133197   2.953   0.208   8.203  1.4367 -0.0697  0.5857
 7188SOL    HW233198   2.952   0.336   8.275 -2.4863  0.9919  1.4220
 7189SOL     OW33199   1.893   2.381  11.320  0.3854 -0.3950  0.2993
 7189SOL    HW133200   1.835   2.445  11.278  1.9097  1.7028  1.3667
 7189SOL    HW233201   1.978   2.417  11.293 -0.9681  2.5184 -0.0231
 7190SOL     OW33202   3.296   0.490   4.690 -0.5083 -0.2638  0.8947
 7190SOL    HW133203   3.286   0.538   4.772 -0.9621  0.4976  0.3904
 7190SOL    HW233204   3.390   0.503   4.675 -0.9795  1.4004 -0.5761
 7191SOL     OW33205   4.701   1.820   3.313  0.0228 -0.2273 -0.2808
 7191SOL    HW133206   4.691   1.785   3.224 -2.6165 -0.7151  0.2155
 7191SOL    HW233207   4.723   1.911   3.297 -0.6244 -0.0628 -0.2120
 7192SOL     OW33208   2.954   2.515   4.095 -0.1148  0.0066  0.0908
 7192SOL    HW133209   2.996   2.600   4.081 -3.8997  1.9983  0.5685
 7192SOL    HW233210   2.967   2.499   4.189 -0.1910 -1.9314 -0.2392
 7193SOL     OW33211   1.902   0.842  10.712  0.3382 -0.0680 -0.0708
 7193SOL    HW133212   1.827   0.793  10.747 -0.0150  0.5220 -0.0002
 7193SOL    HW233213   1.904   0.821  10.618 -1.2536 -0.6463  0.0259
 7194SOL     OW33214   1.929   0.847   2.461  0.2720  0.2874  0.5439
 7194SOL    HW133215   1.943   0.913   2.393 -1.7320 -2.3085 -2.3753
 7194SOL    HW233216   1.836   0.831   2.442  0.7182 -1.7336  0.0638
 7195SOL     OW33217   1.475   1.740   9.897  0.4118  0.1806 -0.4331
 7195SOL    HW133218   1.533   1.682   9.849 -1.2947 -2.4048  0.6503
 7195SOL    HW233219   1.489   1.822   9.850 -0.5110  2.1721  2.7755
 7196SOL     OW33220   3.640   2.091   7.059 -0.1457  0.2618  0.1565
 7196SOL    HW133221   3.701   2.164   7.071 -0.6857  0.5037  1.4040
 7196SOL    HW233222   3.570   2.131   7.008 -0.6162  0.2115  0.7563
 7197SOL     OW33223   2.308   0.088  13.825 -0.1988  0.0283  0.2572
 7197SOL    HW133224   2.324   4.732  13.835 -0.1031  0.0986  0.7779
 7197SOL    HW233225   2.344   0.123  13.907 -0.4797  0.8453  0.0301
 7198SOL     OW33226   2.556   2.218   3.331 -0.2146  0.2283 -0.1477
 7198SOL    HW133227   2.531   2.222   3.423 -1.7415  0.1450 -0.5577
 7198SOL    HW233228   2.473   2.255   3.299 -0.6252  0.5459  1.2615
 7199SOL     OW33229   2.853   2.471   2.953  0.2172  0.2912  0.2212
 7199SOL    HW133230   2.852   2.389   2.904 -2.1517  0.3582  0.1592
 7199SOL    HW233231   2.850   2.531   2.879 -0.7740  1.3747  1.1508
 7200SOL     OW33232   2.421   0.125  14.579  0.1072  0.1123 -0.4536
 7200SOL    HW133233   2.392   0.210  14.546 -1.6472 -0.8945 -1.5580
 7200SOL    HW233234   2.354   0.069  14.537 -0.9486  0.5042  0.7071
 7201SOL     OW33235   0.182   0.418   7.629 -0.1903  0.3341  0.3387
 7201SOL    HW133236   0.128   0.491   7.598 -0.8979 -0.8470 -1.1938
 7201SOL    HW233237   0.182   0.363   7.551  0.7793 -0.8720  1.1915
 7202SOL     OW33238   1.559   0.772   7.594 -0.4069  0.1837  0.0152
 7202SOL    HW133239   1.537   0.847   7.650  1.4676  1.9862 -1.6705
 7202SOL    HW233240   1.562   0.703   7.660 -1.0499 -0.0509 -0.1989
 7203SOL     OW33241   0.608   2.734  17.608 -0.0848 -0.2104 -0.7382
 7203SOL    HW133242   0.544   2.671  17.574 -1.0282  0.3378  0.0163
 7203SOL    HW233243   0.687   2.681  17.598  2.5301  3.7544 -0.9218
 7204SOL     OW33244   1.252   0.222   5.828 -0.3458  0.1434 -0.1389
 7204SOL    HW133245   1.247   0.314   5.854  1.1688  0.7122 -1.9227
 7204SOL    HW233246   1.157   0.211   5.828 -0.2769 -0.4208 -0.6342
 7205SOL     OW33247   4.612   3.613   4.561  0.0336  0.6904 -0.1156
 7205SOL    HW133248   4.561   3.585   4.637  1.4947  0.1534  0.6882
 7205SOL    HW233249   4.641   3.695   4.601 -2.2050  0.8682  1.1348
 7206SOL     OW33250   2.093   0.386   2.566  0.2614 -0.0769  0.2767
 7206SOL    HW133251   2.066   0.468   2.524 -1.5625  0.1761  1.9062
 7206SOL    HW233252   2.186   0.392   2.545  0.2652 -1.7612 -0.1695
 7207SOL     OW33253   2.945   4.460   2.866 -0.3132  0.1122 -0.2743
 7207SOL    HW133254   2.898   4.538   2.897 -1.2890 -1.2367  1.6451
 7207SOL    HW233255   3.034   4.483   2.890 -0.4419 -0.0719  0.3829
 7208SOL     OW33256   2.370   1.929   6.841  0.2580  0.2999  0.1824
 7208SOL    HW133257   2.327   1.962   6.921 -3.1303 -1.2114 -1.0127
 7208SOL    HW233258   2.397   2.012   6.803  1.2459 -0.6510 -1.1737
 7209SOL     OW33259   0.036   1.808   5.174 -0.1200  0.8507 -0.1279
 7209SOL    HW133260   4.723   1.783   5.096 -0.8739  1.0380  0.2923
 7209SOL    HW233261   0.022   1.740   5.239 -1.8129 -0.7453 -2.1451
 7210SOL     OW33262   3.552   0.710  12.868  0.1652 -0.3200  0.6372
 7210SOL    HW133263   3.572   0.686  12.778  0.6415 -0.3547  0.7522
 7210SOL    HW233264   3.604   0.786  12.892 -0.3458  0.2780 -0.1669
 7211SOL     OW33265   3.839   2.729   4.884 -0.4118  0.0416 -0.6568
 7211SOL    HW133266   3.785   2.651   4.896  0.2417 -0.5013 -1.2402
 7211SOL    HW233267   3.924   2.700   4.852 -1.2509  0.3438 -3.1836
 7212SOL     OW33268   4.713   2.803   2.600  0.4064  0.4214 -0.1998
 7212SOL    HW133269   4.699   2.834   2.510  0.2208 -0.9989 -0.6582
 7212SOL    HW233270   0.045   2.858   2.637  2.7885 -1.5510 -1.6858
 7213SOL     OW33271   1.650   2.883   3.990  0.2516 -0.4975 -0.3948
 7213SOL    HW133272   1.722   2.823   4.010  0.6245  0.2886  0.6227
 7213SOL    HW233273   1.687   2.969   4.008 -0.7546  0.4509 -2.7650
 7214SOL     OW33274   0.747   0.372   0.838 -0.3654 -0.1206 -0.2959
 7214SOL    HW133275   0.707   0.356   0.752  3.1725 -3.4590 -1.3165
 7214SOL    HW233276   0.822   0.418   0.800 -1.9153  2.2944 -0.4316
 7215SOL     OW33277   0.134   0.522   7.154  0.3047 -0.3248  0.5587
 7215SOL    HW133278   0.083   0.450   7.116 -1.3282 -0.0472  2.2382
 7215SOL    HW233279   0.080   0.538   7.231  1.2051 -1.1194  1.3644
 7216SOL     OW33280   1.218   1.115  16.863 -0.2806 -0.1792 -0.0081
 7216SOL    HW133281   1.204   1.209  16.876 -2.8877 -0.4981 -0.5046
 7216SOL    HW233282   1.150   1.085  16.923  0.2346 -2.7332 -0.7089
 7217SOL     OW33283   1.605   3.372   0.068  0.7029 -0.2419 -0.2630
 7217SOL    HW133284   1.637   3.423  17.740  1.9493 -2.7228 -1.3884
 7217SOL    HW233285   1.522   3.415   0.089  0.4651 -0.3642 -0.9462
 7218SOL     OW33286   3.689   2.733   5.973 -0.5223  0.1833  0.4288
 7218SOL    HW133287   3.685   2.712   5.880 -0.2906 -0.4871  0.5744
 7218SOL    HW233288   3.781   2.713   5.987 -0.8294 -0.5060  1.4457
 7219SOL     OW33289   1.946   1.031  11.909  0.6574  0.1239  0.2938
 7219SOL    HW133290   1.868   1.003  11.861 -0.0346  3.0775 -0.3098
 7219SOL    HW233291   2.003   0.955  11.899  0.1980 -0.0581 -0.9077
 7220SOL     OW33292   4.298   0.406   8.720  0.1707  0.4710  0.2253
 7220SOL    HW133293   4.221   0.371   8.765  2.6104 -2.1315  2.3573
 7220SOL    HW233294   4.322   0.481   8.774  2.0624 -0.6954  0.9743
 7221SOL     OW33295   0.743   0.124  15.875  0.2503 -0.0892  0.0104
 7221SOL    HW133296   0.702   0.040  15.893 -0.8532  0.3565 -0.4163
 7221SOL    HW233297   0.771   0.105  15.786  0.7958 -0.8927  0.3490
 7222SOL     OW33298   1.472   1.759  10.882  0.0592  0.2689 -0.0069
 7222SOL    HW133299   1.430   1.725  10.803 -1.3339 -0.2666  0.9661
 7222SOL    HW233300   1.546   1.700  10.896  2.0529  2.6517 -0.4406
 7223SOL     OW33301   0.472   1.876   3.694 -0.0392 -0.6346 -0.1555
 7223SOL    HW133302   0.386   1.910   3.719  0.0808 -0.9126  0.6331
 7223SOL    HW233303   0.521   1.958   3.694 -1.6085  0.3073 -1.4825
 7224SOL     OW33304   3.585   1.795   1.595  0.2882  0.5892 -0.3886
 7224SOL    HW133305   3.536   1.715   1.614  2.5867 -0.8413 -0.4857
 7224SOL    HW233306   3.514   1.853   1.623 -1.5026 -1.5642 -0.4783
 7225SOL     OW33307   0.415   4.556   3.031  0.3190  0.3110  0.2472
 7225SOL    HW133308   0.445   4.539   3.120 -0.3626 -0.3253  0.3562
 7225SOL    HW233309   0.425   4.469   2.991  1.5446  0.6047 -0.0933
 7226SOL     OW33310   3.336   4.061   6.323 -0.0154 -0.7220 -0.6426
 7226SOL    HW133311   3.270   4.131   6.325  0.8058  0.1084 -2.3688
 7226SOL    HW233312   3.400   4.110   6.373 -1.4200 -0.3039  0.7572
 7227SOL     OW33313   1.925   2.255  13.576 -0.5035 -0.2127  0.2247
 7227SOL    HW133314   1.948   2.229  13.665  0.5902  1.5127  0.4450
 7227SOL    HW233315   1.904   2.169  13.538  0.5731 -0.8013  0.9474
 7228SOL     OW33316   0.511   1.303   7.202  0.1317 -0.0575  0.0458
 7228SOL    HW133317   0.581   1.320   7.265  0.9283  0.4798 -0.9862
 7228SOL    HW233318   0.436   1.264   7.247  0.4630 -0.3925  0.3094
 7229SOL     OW33319   2.637   3.634   4.936  0.0617 -0.1509 -0.0035
 7229SOL    HW133320   2.656   3.558   4.991 -0.1764 -0.5121 -0.4245
 7229SOL    HW233321   2.576   3.684   4.991  1.2546  2.4531 -1.0513
 7230SOL     OW33322   0.737   3.381   4.027 -0.3750 -0.3460 -0.7000
 7230SOL    HW133323   0.763   3.435   3.952 -1.8325 -0.3860 -1.2440
 7230SOL    HW233324   0.696   3.448   4.082 -0.3287  0.2572 -1.3896
 7231SOL     OW33325   3.981   2.977   1.230  0.3314  0.0767  0.2158
 7231SOL    HW133326   4.015   3.054   1.184 -0.2838  1.4804  2.1244
 7231SOL    HW233327   3.903   2.962   1.178 -0.8842  0.7727  1.8334
 7232SOL     OW33328   1.850   0.637   1.037  0.2181 -0.4688  0.3387
 7232SOL    HW133329   1.840   0.683   1.120 -0.8612  1.1977 -0.7149
 7232SOL    HW233330   1.870   0.710   0.979  1.8331 -0.6556  0.6716
 7233SOL     OW33331   4.063   0.108  12.947  0.2618  0.0759 -0.3529
 7233SOL    HW133332   4.050   0.030  13.002  2.5273  2.8104  4.0521
 7233SOL    HW233333   3.976   0.149  12.951  0.7238  0.9715  0.5944
 7234SOL     OW33334   2.520   4.360   0.841  0.3783  0.1723 -0.2112
 7234SOL    HW133335   2.578   4.284   0.830  0.9963  0.9975 -2.5585
 7234SOL    HW233336   2.436   4.314   0.835  0.5289 -0.1583  0.1622
 7235SOL     OW33337   1.486   0.838   0.345  0.0893 -0.0084  0.3299
 7235SOL    HW133338   1.440   0.897   0.286  1.5578  0.0212 -0.7837
 7235SOL    HW233339   1.415   0.793   0.391  2.0897 -3.1078  0.3652
 7236SOL     OW33340   0.409   4.309   0.728  0.0928 -0.4448  0.0394
 7236SOL    HW133341   0.455   4.314   0.812  0.2720  1.7785 -0.1878
 7236SOL    HW233342   0.420   4.398   0.694 -0.6442 -0.5839 -0.5600
 7237SOL     OW33343   2.020   3.371   7.156 -0.0159  0.0849  0.1155
 7237SOL    HW133344   2.103   3.384   7.202  0.2807  0.6737 -0.5749
 7237SOL    HW233345   1.959   3.383   7.228  0.4186  1.3216  0.2937
 7238SOL     OW33346   0.256   0.231  17.505 -0.2539 -0.3349  0.1683
 7238SOL    HW133347   0.231   0.322  17.518  2.4584  0.6370 -1.5149
 7238SOL    HW233348   0.298   0.215  17.589 -0.5015 -2.2063 -0.0563
 7239SOL     OW33349   0.755   4.299   3.197  0.5364  0.0811 -0.3193
 7239SOL    HW133350   0.762   4.274   3.105 -0.6370  0.8730 -0.6302
 7239SOL    HW233351   0.823   4.367   3.199  0.4847  0.1789 -1.7398
 7240SOL     OW33352   0.694   0.265   6.299 -0.3619 -0.3171  0.1779
 7240SOL    HW133353   0.639   0.335   6.261  1.1116  0.5148 -0.4080
 7240SOL    HW233354   0.726   0.228   6.217  0.0870  3.5732 -1.4253
 7241SOL     OW33355   4.322   3.566   7.296 -0.2956 -0.1799  0.2085
 7241SOL    HW133356   4.266   3.589   7.370  1.8812  1.8543  1.2149
 7241SOL    HW233357   4.407   3.538   7.332 -0.4003  0.5204  0.9917
 7242SOL     OW33358   0.227   3.402   3.974  0.3823  0.2618  0.1154
 7242SOL    HW133359   0.252   3.426   3.885 -0.0604  2.0654  0.4690
 7242SOL    HW233360   0.188   3.482   4.010 -0.0130  0.2586 -0.3106
 7243SOL     OW33361   4.462   3.209   7.351  0.1860 -0.4469  0.0735
 7243SOL    HW133362   4.497   3.234   7.437  3.4509 -1.9755 -0.8051
 7243SOL    HW233363   4.381   3.260   7.352 -1.1697 -2.5877 -1.4496
 7244SOL     OW33364   2.276   0.277   4.949 -0.4644  0.1102 -0.0574
 7244SOL    HW133365   2.307   0.209   5.009 -2.4002  0.9148  1.8416
 7244SOL    HW233366   2.321   0.358   4.977  0.8957 -0.7527  0.2525
 7245SOL     OW33367   2.392   4.327  14.094 -0.5764  0.5139  0.0561
 7245SOL    HW133368   2.420   4.236  14.103  0.2707  0.8325  0.6342
 7245SOL    HW233369   2.331   4.337  14.166 -1.8165  0.4889 -0.9896
 7246SOL     OW33370   0.081   2.143  17.098  0.1829  0.2759  0.1231
 7246SOL    HW133371   0.044   2.107  17.179  0.5959  0.1588  0.2631
 7246SOL    HW233372   0.025   2.109  17.028 -0.9899  0.8965  0.7769
 7247SOL     OW33373   3.020   2.829  11.553 -0.0645 -0.9176  0.8372
 7247SOL    HW133374   3.013   2.734  11.561  0.7723 -0.9334  1.4181
 7247SOL    HW233375   3.062   2.858  11.634 -0.6105 -1.0379  1.1616
 7248SOL     OW33376   2.714   2.483  11.983 -0.3919 -0.4829  0.4112
 7248SOL    HW133377   2.707   2.538  12.061  1.0396 -0.9041  0.8293
 7248SOL    HW233378   2.647   2.416  11.998 -0.7158 -0.4120 -0.7162
 7249SOL     OW33379   0.101   3.262   8.661  0.1065  0.7268 -0.5886
 7249SOL    HW133380   0.018   3.305   8.683  0.4858  0.6687  0.9319
 7249SOL    HW233381   0.125   3.210   8.738  0.9931 -0.9169 -1.9761
 7250SOL     OW33382   2.061   0.800  13.076 -0.1499 -0.0496  0.3246
 7250SOL    HW133383   2.133   0.742  13.101 -1.6069 -2.0992 -0.2423
 7250SOL    HW233384   2.020   0.813  13.161  0.3736  1.5037  0.3466
 7251SOL     OW33385   3.336   3.889   6.679  0.0945  0.3103 -0.5266
 7251SOL    HW133386   3.282   3.877   6.757 -0.9458 -3.2786 -1.7879
 7251SOL    HW233387   3.352   3.799   6.649 -0.8517  0.0927 -0.3804
 7252SOL     OW33388   1.511   4.556  10.897 -0.7721 -0.3600  0.1594
 7252SOL    HW133389   1.533   4.613  10.823 -1.9389 -0.9411 -0.6390
 7252SOL    HW233390   1.561   4.478  10.873 -0.0893 -0.4343  1.8069
 7253SOL     OW33391   1.445   2.016   0.504 -0.0723 -0.0328  0.5520
 7253SOL    HW133392   1.457   2.064   0.422 -3.0245 -0.4486 -0.1176
 7253SOL    HW233393   1.358   2.054   0.520 -0.0220  0.2115  0.2375
 7254SOL     OW33394   2.841   0.379   0.566 -0.0728 -0.1851 -0.0574
 7254SOL    HW133395   2.787   0.301   0.573  1.2179 -1.0644  0.1495
 7254SOL    HW233396   2.866   0.390   0.657  1.1867 -1.1014 -0.2871
 7255SOL     OW33397   3.685   0.006   7.584  0.2684 -0.4062  0.0843
 7255SOL    HW133398   3.700   4.709   7.672 -3.1582  0.2465  0.9165
 7255SOL    HW233399   3.589   0.014   7.585  0.3459  0.3114  1.2419
 7256SOL     OW33400   1.769   2.787  11.489 -0.3512  0.0823 -0.2000
 7256SOL    HW133401   1.763   2.817  11.398 -0.1139 -0.4206 -0.3844
 7256SOL    HW233402   1.843   2.727  11.491 -0.6909 -0.3463 -0.5046
 7257SOL     OW33403   1.841   0.737   9.278  0.0485  0.1775  0.3167
 7257SOL    HW133404   1.769   0.747   9.339 -2.3046 -0.7297 -2.2922
 7257SOL    HW233405   1.872   0.647   9.291 -1.6428 -0.2243  1.4274
 7258SOL     OW33406   4.572   2.135  16.961  0.6279 -0.4941 -0.3764
 7258SOL    HW133407   4.547   2.108  16.873 -0.8406 -2.0298  0.5081
 7258SOL    HW233408   4.503   2.102  17.018  1.5775  1.2672  1.8235
 7259SOL     OW33409   2.163   2.183   5.921  0.1759 -0.2163 -0.5622
 7259SOL    HW133410   2.103   2.191   5.847 -1.8160 -0.4267  1.0422
 7259SOL    HW233411   2.142   2.258   5.977 -1.0046  0.6586 -2.2090
 7260SOL     OW33412   0.653   2.623   2.269 -0.2374  0.5483 -0.4626
 7260SOL    HW133413   0.632   2.699   2.324  1.6988  0.4246  0.4538
 7260SOL    HW233414   0.573   2.571   2.278  0.6057 -0.3447  1.9021
 7261SOL     OW33415   2.760   3.676   2.115 -0.1372  0.3659  0.0116
 7261SOL    HW133416   2.677   3.633   2.092 -0.3335  0.0378  1.3148
 7261SOL    HW233417   2.815   3.641   2.045  2.1517  0.7512  1.6190
 7262SOL     OW33418   1.162   2.483   2.772  0.5392  0.0794  0.1870
 7262SOL    HW133419   1.119   2.450   2.851  1.0448  0.6884  0.7077
 7262SOL    HW233420   1.203   2.406   2.733  0.0269  0.5070 -1.1964
 7263SOL     OW33421   3.968   3.651   3.633 -0.4626 -0.5425 -0.0936
 7263SOL    HW133422   4.031   3.579   3.636 -1.6636 -1.5789  0.8854
 7263SOL    HW233423   4.006   3.696   3.558  0.9449 -2.6247 -0.6420
 7264SOL     OW33424   4.319   1.274   3.723  0.3702 -0.3326 -0.3884
 7264SOL    HW133425   4.313   1.221   3.802 -1.8695 -0.7929 -0.8823
 7264SOL    HW233426   4.343   1.359   3.760 -0.5210 -0.0383 -0.4857
 7265SOL     OW33427   1.616   1.769   4.726 -0.4124 -0.3427 -0.4357
 7265SOL    HW133428   1.708   1.772   4.751 -1.0285  2.9919  1.5011
 7265SOL    HW233429   1.596   1.679   4.700 -3.3554  0.6571 -1.7013
 7266SOL     OW33430   4.496   0.406  14.875 -0.0578  0.6137 -0.2110
 7266SOL    HW133431   4.475   0.313  14.877  2.0233  0.1605 -0.1538
 7266SOL    HW233432   4.578   0.395  14.923 -0.5470 -0.7064  0.3298
 7267SOL     OW33433   4.694   1.022  11.164  0.5213  0.5506  0.1667
 7267SOL    HW133434   4.712   1.020  11.070  2.1467  2.2437  0.4305
 7267SOL    HW233435   4.603   0.994  11.167 -0.7839  4.7795  0.8953
 7268SOL     OW33436   4.537   1.299   0.110 -0.4555  0.5755 -0.2292
 7268SOL    HW133437   4.618   1.348   0.123 -0.1134 -0.0447 -0.0447
 7268SOL    HW233438   4.574   1.212   0.098 -0.8562 -0.0665  3.0890
 7269SOL     OW33439   4.390   0.315   4.248  0.0834  0.3242 -0.1103
 7269SOL    HW133440   4.301   0.280   4.250  0.3522 -0.4582 -1.9248
 7269SOL    HW233441   4.426   0.253   4.184  0.6406  0.3046  0.2337
 7270SOL     OW33442   3.104   3.468   9.035 -0.0570 -0.1621  0.4269
 7270SOL    HW133443   3.011   3.452   9.023 -0.2752 -0.0207  1.9687
 7270SOL    HW233444   3.145   3.401   8.980  0.3816  0.3097  0.1831
 7271SOL     OW33445   2.086   2.760   2.252  0.6504 -0.3855  0.4925
 7271SOL    HW133446   2.044   2.842   2.225  1.4937 -0.1593 -0.1525
 7271SOL    HW233447   2.132   2.736   2.171  0.5764 -1.1608  0.6814
 7272SOL     OW33448   3.183   0.038   7.718 -0.4759  0.3134 -0.2267
 7272SOL    HW133449   3.105   0.090   7.700  0.4228  2.0578  0.9116
 7272SOL    HW233450   3.142   4.705   7.769 -0.5267 -0.7425 -1.7221
 7273SOL     OW33451   2.231   0.357   5.906  0.2298 -0.3113  0.2002
 7273SOL    HW133452   2.193   0.419   5.844  1.9671  0.8663  0.3040
 7273SOL    HW233453   2.264   0.289   5.847  1.6346  1.6318 -1.2872
 7274SOL     OW33454   4.735   0.293  11.488  0.1559 -0.2496  0.4339
 7274SOL    HW133455   4.718   0.378  11.448  0.0477 -0.9650 -1.0404
 7274SOL    HW233456   0.071   0.309  11.546  0.1302 -0.1800  0.4471
 7275SOL     OW33457   0.647   2.315   1.093 -0.1762  0.5675  0.4513
 7275SOL    HW133458   0.632   2.383   1.159  0.9548  1.6344 -0.4146
 7275SOL    HW233459   0.572   2.330   1.035  1.1765 -0.9334 -1.6785
 7276SOL     OW33460   3.153   4.357   6.214 -0.1461 -0.0361  0.6967
 7276SOL    HW133461   3.111   4.285   6.261  0.0091  0.3044  1.3645
 7276SOL    HW233462   3.103   4.431   6.250 -1.9327 -1.6252  1.4975
 7277SOL     OW33463   2.329   2.447  16.793 -0.5291 -0.0718  0.3274
 7277SOL    HW133464   2.258   2.391  16.763 -0.3141 -1.2950  2.0990
 7277SOL    HW233465   2.346   2.487  16.708 -2.0121  1.6906  0.8382
 7278SOL     OW33466   2.684   1.559  16.433  0.0115  0.3710  0.1085
 7278SOL    HW133467   2.726   1.478  16.403  0.9985  1.9789 -2.8277
 7278SOL    HW233468   2.603   1.568  16.383  0.0804 -1.3654 -0.3274
 7279SOL     OW33469   4.355   3.332   9.836 -0.4980 -0.3574 -0.3804
 7279SOL    HW133470   4.435   3.281   9.849  0.1585  0.8376  0.2932
 7279SOL    HW233471   4.366   3.401   9.902 -1.5083 -0.0187 -0.5719
 7280SOL     OW33472   4.625   3.523   9.374  0.0135  0.4488  0.3310
 7280SOL    HW133473   4.617   3.529   9.469 -0.2470 -2.0375  0.4638
 7280SOL    HW233474   4.612   3.429   9.364  1.4631  0.1006  1.7800
 7281SOL     OW33475   0.724   3.476  15.512 -0.1823  0.3470  0.0110
 7281SOL    HW133476   0.631   3.492  15.531  0.4759  0.7182  2.8679
 7281SOL    HW233477   0.726   3.524  15.429  0.9672  2.4120  1.2254
 7282SOL     OW33478   2.766   0.736   7.626 -0.1495 -0.0973 -0.0377
 7282SOL    HW133479   2.742   0.800   7.559 -1.6688  0.4208  1.0167
 7282SOL    HW233480   2.851   0.710   7.592 -0.2449  0.0488 -0.3876
 7283SOL     OW33481   3.772   4.183   7.718 -0.0067  0.1992 -0.6056
 7283SOL    HW133482   3.708   4.123   7.680  0.3972  0.0639 -1.0711
 7283SOL    HW233483   3.708   4.242   7.758 -0.8114 -0.1094 -1.4399
 7284SOL     OW33484   4.475   3.125   5.906  0.0374 -0.1772  0.4425
 7284SOL    HW133485   4.501   3.205   5.952  0.7741 -0.1280 -0.0557
 7284SOL    HW233486   4.394   3.095   5.947 -0.5688  2.5328  1.2724
 7285SOL     OW33487   2.105   2.527   9.272 -0.4966  0.4941 -0.3192
 7285SOL    HW133488   2.079   2.438   9.250  3.9871 -1.0102  0.4202
 7285SOL    HW233489   2.092   2.580   9.193  2.2151 -0.5023 -1.4420
 7286SOL     OW33490   3.988   3.795  14.963  0.4874  0.3871  0.1518
 7286SOL    HW133491   3.951   3.878  14.995  0.9132  0.7008 -0.1592
 7286SOL    HW233492   3.940   3.792  14.881  0.5961  2.3625 -0.0005
 7287SOL     OW33493   1.400   3.697   3.633 -0.5326 -0.3021  0.2184
 7287SOL    HW133494   1.464   3.735   3.572 -0.6744 -0.3155  0.0607
 7287SOL    HW233495   1.453   3.655   3.700 -0.1976  1.8594  1.3180
 7288SOL     OW33496   1.314   1.941   8.846  0.0144  0.3973  0.5704
 7288SOL    HW133497   1.326   1.978   8.758  0.2924 -0.0105  0.4362
 7288SOL    HW233498   1.256   1.868   8.825  1.0352  0.0992 -1.2603
 7289SOL     OW33499   4.570   1.001  12.051 -0.0069  0.0257  0.0691
 7289SOL    HW133500   4.477   0.978  12.049  0.7360 -3.2760  3.4867
 7289SOL    HW233501   4.556   1.073  11.989 -0.1864  1.8839  2.2676
 7290SOL     OW33502   4.534   2.957   5.707 -0.3544  0.3362 -0.1170
 7290SOL    HW133503   4.514   3.017   5.779  0.2614 -0.6980  0.9141
 7290SOL    HW233504   4.583   2.886   5.750  1.9652  1.6249 -0.6416
 7291SOL     OW33505   0.994   2.705  13.726  0.3391 -0.0667  0.1572
 7291SOL    HW133506   1.072   2.698  13.781  0.4902 -0.4555 -0.1070
 7291SOL    HW233507   0.955   2.780  13.771 -1.9205 -0.6776 -0.7929
 7292SOL     OW33508   4.390   4.492   8.491  0.4443 -0.0494 -0.1495
 7292SOL    HW133509   4.455   4.563   8.496  1.8961 -1.3081 -0.8971
 7292SOL    HW233510   4.319   4.530   8.439  2.2794  0.2884 -2.4439
 7293SOL     OW33511   2.583   4.033   3.003 -0.0781  0.1611 -0.0598
 7293SOL    HW133512   2.502   3.994   2.970 -0.0629 -0.9674  1.2684
 7293SOL    HW233513   2.627   4.051   2.920  1.3906  0.6701  0.8316
 7294SOL     OW33514   3.522   1.370   8.442  0.3731  0.7033 -0.4927
 7294SOL    HW133515   3.453   1.307   8.421  1.4350 -0.7355  0.3368
 7294SOL    HW233516   3.482   1.435   8.500 -0.0922  1.4341 -1.6518
 7295SOL     OW33517   1.273   1.533  12.328  0.3421  0.1197  0.0767
 7295SOL    HW133518   1.348   1.494  12.282 -0.5128  1.1475 -2.1970
 7295SOL    HW233519   1.309   1.613  12.366 -1.0235 -0.0410  1.6852
 7296SOL     OW33520   3.539   3.800   8.913  0.0291  0.1799  0.4353
 7296SOL    HW133521   3.597   3.728   8.937  0.1706 -0.6026 -2.2892
 7296SOL    HW233522   3.454   3.761   8.933  1.3243 -0.8905  3.8998
 7297SOL     OW33523   3.577   2.451   6.333 -0.5859  0.2988 -0.0659
 7297SOL    HW133524   3.584   2.451   6.428  0.6713 -0.7310 -0.1627
 7297SOL    HW233525   3.568   2.356   6.327  0.0043  0.2058  0.5162
 7298SOL     OW33526   0.666   4.469  17.314 -0.2982 -0.4307 -0.2904
 7298SOL    HW133527   0.742   4.500  17.363 -0.0061 -0.1394 -0.9262
 7298SOL    HW233528   0.633   4.558  17.303  0.0511 -0.0129  2.1369
 7299SOL     OW33529   4.017   1.453  10.497  0.0966 -0.0386  0.3249
 7299SOL    HW133530   4.081   1.512  10.536  2.0571 -1.5159 -0.6134
 7299SOL    HW233531   3.962   1.430  10.571  0.4459 -2.3905 -0.1475
 7300SOL     OW33532   3.683   3.297   2.853  0.3847 -0.0722 -0.2231
 7300SOL    HW133533   3.728   3.359   2.911  1.4646 -0.1434 -0.9865
 7300SOL    HW233534   3.679   3.230   2.921 -0.8116  0.1039 -0.1137
 7301SOL     OW33535   0.587   2.454   7.948  0.0292 -0.2587  0.4137
 7301SOL    HW133536   0.521   2.385   7.953 -0.9473  0.7644  1.8526
 7301SOL    HW233537   0.668   2.406   7.959 -0.1875 -0.1163  2.7176
 7302SOL     OW33538   3.524   0.970   5.866 -0.1910  0.0001 -0.0055
 7302SOL    HW133539   3.610   0.980   5.906 -0.0196  0.0049 -0.3743
 7302SOL    HW233540   3.490   1.056   5.842  0.0230  0.2018  0.4270
 7303SOL     OW33541   1.269   3.042  15.326  0.1819  0.2871 -0.4401
 7303SOL    HW133542   1.247   3.089  15.407  0.2429  0.3517 -0.4608
 7303SOL    HW233543   1.340   2.987  15.360 -1.5650 -1.3671  0.5278
 7304SOL     OW33544   0.123   3.793   3.752  0.1829 -0.4930 -0.4830
 7304SOL    HW133545   0.155   3.717   3.703 -1.6529 -2.5038  1.4189
 7304SOL    HW233546   0.040   3.795   3.703 -1.2675 -0.1298  1.9578
 7305SOL     OW33547   1.554   4.697   4.924  0.6949  0.3318  0.0868
 7305SOL    HW133548   1.531   4.634   4.856  0.0893  1.3758 -0.6914
 7305SOL    HW233549   1.507   4.664   5.000 -0.0871 -2.3743 -1.5779
 7306SOL     OW33550   1.850   1.396   6.391 -0.1320 -0.0442  0.1510
 7306SOL    HW133551   1.800   1.316   6.378 -1.5355  0.6935  1.0317
 7306SOL    HW233552   1.844   1.397   6.487 -0.6015 -0.3512  0.1233
 7307SOL     OW33553   2.932   0.642   8.440  0.0616 -0.1622 -0.2227
 7307SOL    HW133554   3.007   0.661   8.384 -0.9474 -0.1897 -1.5673
 7307SOL    HW233555   2.981   0.598   8.510 -1.4984 -0.6510  0.5704
 7308SOL     OW33556   4.650   2.356  14.686 -0.1906  0.0749 -0.6091
 7308SOL    HW133557   4.717   2.399  14.633  0.2462  1.6580  1.2528
 7308SOL    HW233558   4.625   2.292  14.619  1.2447 -0.5819 -0.5250
 7309SOL     OW33559   1.521   3.372  13.675  0.3461 -0.5875 -0.4505
 7309SOL    HW133560   1.600   3.342  13.630  1.1129  1.1787 -0.3046
 7309SOL    HW233561   1.488   3.431  13.608 -1.7215 -0.4184  0.7172
 7310SOL     OW33562   4.721   0.557  15.201  0.2677  0.4365 -0.2857
 7310SOL    HW133563   0.027   0.572  15.117 -2.4937  0.8852 -1.6014
 7310SOL    HW233564   0.029   0.617  15.261  2.3036  1.7219 -3.1362
 7311SOL     OW33565   3.369   1.243  12.177 -0.0516 -0.0328  0.5410
 7311SOL    HW133566   3.300   1.295  12.219 -0.0101  1.4120 -1.1967
 7311SOL    HW233567   3.321   1.187  12.116  1.0198 -2.6794  2.1268
 7312SOL     OW33568   0.245   0.130   7.793  0.0052  0.1409  0.0573
 7312SOL    HW133569   0.287   0.063   7.738  0.2858  0.5671 -0.2499
 7312SOL    HW233570   0.229   0.194   7.724  0.2051  0.9942  0.8043
 7313SOL     OW33571   0.130   2.565   2.275  0.2086  0.4545  0.6029
 7313SOL    HW133572   0.126   2.501   2.203  1.3327 -0.0835  1.0163
 7313SOL    HW233573   0.040   2.586   2.300  0.7363  0.4730  2.4970
 7314SOL     OW33574   4.065   1.473   3.083 -0.0755 -0.1710  0.4766
 7314SOL    HW133575   3.977   1.508   3.087  0.9605  2.2926  1.3684
 7314SOL    HW233576   4.099   1.505   3.167  0.8771 -1.5083  0.6126
 7315SOL     OW33577   3.033   2.730   1.915 -0.1068 -0.2293 -0.1860
 7315SOL    HW133578   3.096   2.709   1.984  0.5055 -0.1948 -0.7347
 7315SOL    HW233579   3.088   2.785   1.860  0.0116 -0.4320 -0.2686
 7316SOL     OW33580   1.855   0.215  11.466 -0.3566 -0.2226 -0.1580
 7316SOL    HW133581   1.937   0.240  11.423  0.6132 -0.3590  1.5924
 7316SOL    HW233582   1.786   0.237  11.404  1.0678  0.8639 -1.3499
 7317SOL     OW33583   1.413   1.796   3.703  0.3107 -0.1511 -0.1971
 7317SOL    HW133584   1.450   1.733   3.642 -0.2304 -1.4464  0.8186
 7317SOL    HW233585   1.327   1.814   3.664 -0.4668  0.7349  1.9303
 7318SOL     OW33586   1.502   4.129   4.272 -0.3380  0.4533 -0.0127
 7318SOL    HW133587   1.532   4.083   4.193 -0.7376 -1.5017  0.9794
 7318SOL    HW233588   1.441   4.072   4.319  0.0451 -0.0045 -0.0702
 7319SOL     OW33589   1.834   3.000  15.728 -0.0779  0.4059  0.0126
 7319SOL    HW133590   1.821   2.905  15.733  1.1426  0.2342 -0.0349
 7319SOL    HW233591   1.756   3.030  15.682  0.7777  2.0212 -0.3682
 7320SOL     OW33592   2.592   2.472  11.005 -0.2499 -0.1203 -0.1580
 7320SOL    HW133593   2.666   2.526  10.978  1.3231 -0.4397  3.4767
 7320SOL    HW233594   2.619   2.380  10.992 -0.6730 -0.2832  0.1168
 7321SOL     OW33595   3.777   1.808   2.916  0.1122  0.6628  0.0428
 7321SOL    HW133596   3.758   1.715   2.927 -0.1069  0.3396 -3.2174
 7321SOL    HW233597   3.691   1.833   2.884 -0.8918 -4.1502 -1.0802
 7322SOL     OW33598   1.222   0.317   4.681 -0.1281 -0.0429 -0.4653
 7322SOL    HW133599   1.266   0.232   4.687  0.9425  0.3988 -2.1671
 7322SOL    HW233600   1.214   0.322   4.586  0.4377 -0.1361 -0.5204
 7323SOL     OW33601   2.080   0.515   2.888  0.2971  0.2388 -0.2570
 7323SOL    HW133602   2.006   0.482   2.838  1.6433 -3.1152 -0.0377
 7323SOL    HW233603   2.118   0.570   2.819 -2.9153  1.1832 -1.2622
 7324SOL     OW33604   0.733   3.287   0.818 -0.1814 -0.1242  0.2647
 7324SOL    HW133605   0.684   3.246   0.746  0.1406 -0.7520  0.4035
 7324SOL    HW233606   0.826   3.287   0.793 -0.2296  1.9396  0.0690
 7325SOL     OW33607   0.312   0.234   4.840 -0.1519 -0.3362 -0.4423
 7325SOL    HW133608   0.301   0.144   4.873  1.3396  0.1201  1.3088
 7325SOL    HW233609   0.369   0.221   4.765 -1.1230 -4.8875 -0.4354
 7326SOL     OW33610   0.290   1.318   8.305 -0.1421 -0.7245  0.4973
 7326SOL    HW133611   0.334   1.301   8.389 -0.5220  1.1459  1.0685
 7326SOL    HW233612   0.239   1.238   8.292  0.5810 -1.2421  0.7812
 7327SOL     OW33613   1.986   1.391  15.019  0.0599 -0.6587 -0.4943
 7327SOL    HW133614   2.053   1.328  15.044 -0.7408 -1.6638 -0.8877
 7327SOL    HW233615   1.905   1.352  15.051  1.1538 -0.7452  2.1467
 7328SOL     OW33616   3.683   4.136   7.194  0.0608  0.5509  0.3986
 7328SOL    HW133617   3.743   4.151   7.121  0.4644  2.7537  1.1689
 7328SOL    HW233618   3.665   4.042   7.193 -0.7427  0.7841 -3.6475
 7329SOL     OW33619   2.101   2.959  11.827 -0.0120 -0.0778  0.3170
 7329SOL    HW133620   2.091   2.910  11.910 -0.7116  1.5016  1.1668
 7329SOL    HW233621   2.010   2.987  11.818 -0.3654 -1.8042 -1.4700
 7330SOL     OW33622   4.650   2.954   2.381 -0.4287  0.3100 -0.1581
 7330SOL    HW133623   4.633   3.040   2.421  0.6358  0.6940 -0.5332
 7330SOL    HW233624   4.562   2.918   2.370 -0.2869 -1.0019  3.0316
 7331SOL     OW33625   0.285   1.027   7.742 -0.3861 -0.2693  0.0488
 7331SOL    HW133626   0.364   1.071   7.772 -0.2628 -0.4673  0.0155
 7331SOL    HW233627   0.236   1.091   7.690 -0.6084  0.8466  1.6287
 7332SOL     OW33628   0.672   0.822   3.350 -0.3739 -0.3212 -0.1803
 7332SOL    HW133629   0.651   0.728   3.349 -2.2010  0.0890  0.1092
 7332SOL    HW233630   0.590   0.851   3.388  0.2407 -0.4941  1.2810
 7333SOL     OW33631   1.348   1.052   5.584  0.0952 -0.1750  0.2093
 7333SOL    HW133632   1.266   1.053   5.535 -1.6107 -1.7251  3.0324
 7333SOL    HW233633   1.351   1.146   5.600  0.7779 -0.2170  0.3327
 7334SOL     OW33634   1.357   2.968   2.755 -0.1105  0.4303 -0.6021
 7334SOL    HW133635   1.325   2.888   2.712  0.9030 -0.3195  0.0494
 7334SOL    HW233636   1.282   3.003   2.802  0.2519 -0.6085  0.7294
 7335SOL     OW33637   0.967   1.107  17.391  0.6242 -0.5448 -0.1187
 7335SOL    HW133638   0.896   1.111  17.455  1.2895 -2.2552  0.7301
 7335SOL    HW233639   1.032   1.132  17.457 -1.5783  1.0141  1.4696
 7336SOL     OW33640   1.860   4.550   7.944 -0.1582 -0.4666  0.0598
 7336SOL    HW133641   1.863   4.477   8.006  0.4662  0.5525  1.2131
 7336SOL    HW233642   1.881   4.500   7.864 -0.1825 -3.9626  2.2398
 7337SOL     OW33643   0.177   2.938   0.091  0.1342  0.5950 -0.2940
 7337SOL    HW133644   0.224   3.014   0.058 -0.4132  0.4474 -1.4181
 7337SOL    HW233645   0.216   2.872   0.034 -1.1018  0.1306 -0.6056
 7338SOL     OW33646   2.711   4.620   7.544  0.1634  0.4136 -0.2709
 7338SOL    HW133647   2.639   4.650   7.489 -0.5776  1.9804  1.5823
 7338SOL    HW233648   2.685   4.657   7.628  0.8969 -1.3344  0.7328
 7339SOL     OW33649   1.200   4.078  13.524 -0.5176  0.0130 -0.1037
 7339SOL    HW133650   1.291   4.085  13.554 -1.0360 -2.0513  1.9367
 7339SOL    HW233651   1.223   4.042  13.438 -2.9676  1.7508 -1.4695
 7340SOL     OW33652   0.803   1.795   7.923  0.0967  0.2146 -0.2312
 7340SOL    HW133653   0.771   1.731   7.986  0.1758  0.8896  0.4884
 7340SOL    HW233654   0.774   1.874   7.967 -2.5757 -0.8402 -0.0808
 7341SOL     OW33655   1.500   1.449  12.229 -0.7597 -0.4676  0.2191
 7341SOL    HW133656   1.540   1.510  12.292 -0.8412  1.9962 -2.1119
 7341SOL    HW233657   1.571   1.396  12.193  0.8573  0.4049  2.1351
 7342SOL     OW33658   3.406   2.803   1.957 -0.0712 -0.2212  0.9566
 7342SOL    HW133659   3.362   2.718   1.959 -0.7894  0.1249 -0.7937
 7342SOL    HW233660   3.477   2.784   1.895  0.7559  2.2510  1.1562
 7343SOL     OW33661   0.431   1.146   4.591  0.0436  0.8251 -0.2905
 7343SOL    HW133662   0.526   1.134   4.587 -0.1493 -0.9060  0.0507
 7343SOL    HW233663   0.408   1.124   4.681  0.5281 -2.4374 -0.9623
 7344SOL     OW33664   0.613   2.035   7.805 -0.0160  0.3167  0.4387
 7344SOL    HW133665   0.689   2.008   7.754 -0.2676 -0.4341  0.4578
 7344SOL    HW233666   0.607   2.127   7.781  0.7868  0.2429 -0.0558
 7345SOL     OW33667   3.019   0.803   1.960 -0.3327 -0.1994 -0.2338
 7345SOL    HW133668   3.048   0.867   1.895  0.6469 -1.1707 -0.7547
 7345SOL    HW233669   3.105   0.770   1.984 -0.5159  0.9751  2.0320
 7346SOL     OW33670   0.989   1.217   3.839  0.1077  0.2131 -0.7485
 7346SOL    HW133671   1.040   1.295   3.818 -0.4002  0.7446 -0.0073
 7346SOL    HW233672   0.918   1.259   3.888  0.6397 -0.0942  0.2865
 7347SOL     OW33673   3.928   2.998   6.958  0.0579  0.7519 -0.1160
 7347SOL    HW133674   3.883   2.929   6.911 -1.6374  1.6109  0.2432
 7347SOL    HW233675   3.958   2.944   7.031 -0.8005  1.2675  0.6277
 7348SOL     OW33676   4.357   1.714   1.555  0.6803  0.2672  0.4554
 7348SOL    HW133677   4.328   1.624   1.546 -1.1776  0.7592  1.5846
 7348SOL    HW233678   4.270   1.750   1.539  0.1861 -0.8472  0.6834
 7349SOL     OW33679   4.585   3.339   4.493 -0.6593  0.1608 -0.9606
 7349SOL    HW133680   4.573   3.430   4.521  0.1260 -0.3909  1.1463
 7349SOL    HW233681   4.616   3.346   4.403  0.5222 -2.9861 -0.8000
 7350SOL     OW33682   3.338   1.046   7.901  0.2785 -0.0123 -0.5363
 7350SOL    HW133683   3.319   1.138   7.879 -1.1536  0.3640  2.3114
 7350SOL    HW233684   3.330   1.040   7.996 -1.0329 -1.6078 -0.7393
 7351SOL     OW33685   0.625   4.133   3.731  0.2010 -0.3218 -0.4825
 7351SOL    HW133686   0.644   4.182   3.650 -0.4308  1.9295  0.7293
 7351SOL    HW233687   0.567   4.060   3.708  0.1731 -0.1467 -0.9712
 7352SOL     OW33688   2.716   2.023   3.385  0.2479  0.2256  0.3565
 7352SOL    HW133689   2.695   1.997   3.475 -1.6341 -2.0465 -0.7562
 7352SOL    HW233690   2.657   2.097   3.372  1.7952  1.3518 -0.2947
 7353SOL     OW33691   1.148   4.014  17.589  0.0729  0.0300  0.4901
 7353SOL    HW133692   1.097   3.939  17.557  1.3746 -0.4764 -0.4070
 7353SOL    HW233693   1.204   3.972  17.655 -1.6222 -3.3639 -0.1928
 7354SOL     OW33694   1.037   3.979   1.295  0.7272 -0.4648 -0.0723
 7354SOL    HW133695   0.989   3.923   1.233  2.5102 -1.0243 -0.9570
 7354SOL    HW233696   1.121   3.934   1.304  2.2089  2.6597  1.4504
 7355SOL     OW33697   0.079   1.154   0.595 -0.4928 -0.1791 -0.6494
 7355SOL    HW133698   0.005   1.214   0.607 -0.9280 -1.3908  2.8903
 7355SOL    HW233699   0.120   1.198   0.521  0.6265 -0.1502 -0.0090
 7356SOL     OW33700   4.182   2.403  10.909  0.3955  0.0388  0.1080
 7356SOL    HW133701   4.118   2.475  10.900  0.7044  0.4997  1.6797
 7356SOL    HW233702   4.120   2.332  10.922  0.3654 -0.0615 -0.5656
 7357SOL     OW33703   1.957   1.788   5.735  0.6283  0.8240 -0.0438
 7357SOL    HW133704   1.954   1.858   5.800  0.1855  3.2453 -2.7224
 7357SOL    HW233705   1.963   1.711   5.792 -0.3572  1.2832  0.6782
 7358SOL     OW33706   4.346   1.158   6.512 -0.2098  0.1870  0.1389
 7358SOL    HW133707   4.305   1.181   6.428 -0.2949 -0.6203 -0.0408
 7358SOL    HW233708   4.333   1.064   6.520 -0.1982 -0.1261 -3.6204
 7359SOL     OW33709   2.478   3.258   5.713 -0.2358 -0.3291 -0.3472
 7359SOL    HW133710   2.564   3.223   5.689  1.0814  2.8259 -0.1881
 7359SOL    HW233711   2.421   3.185   5.689 -0.6612 -0.0245 -0.2518
 7360SOL     OW33712   1.553   0.474   5.415  0.1679 -0.4593  0.2536
 7360SOL    HW133713   1.468   0.517   5.413 -0.2810 -1.3477  0.2201
 7360SOL    HW233714   1.595   0.529   5.349 -0.3785  1.2454  1.3269
 7361SOL     OW33715   1.589   0.837   9.430 -0.0257  0.1776 -0.6610
 7361SOL    HW133716   1.581   0.893   9.508 -1.7286 -1.7125  0.4948
 7361SOL    HW233717   1.528   0.765   9.445 -1.6125  1.5936 -0.3218
 7362SOL     OW33718   3.337   0.353   7.303  0.4259 -0.0322  0.0224
 7362SOL    HW133719   3.303   0.310   7.381  2.8732  1.0765  1.7032
 7362SOL    HW233720   3.259   0.402   7.278  0.4241 -0.0704 -0.0492
 7363SOL     OW33721   2.007   3.163   7.858  0.3103 -0.6727 -0.1367
 7363SOL    HW133722   1.931   3.109   7.838 -0.0814  0.3622 -1.4311
 7363SOL    HW233723   2.049   3.154   7.773 -1.2401  1.6797 -1.1645
 7364SOL     OW33724   1.961   2.065   8.981 -0.4616  0.3294 -0.2385
 7364SOL    HW133725   1.997   2.154   8.982  1.4158 -0.4250 -0.6029
 7364SOL    HW233726   1.870   2.083   9.007  0.9170  1.3236  3.9047
 7365SOL     OW33727   0.812   1.465  13.455  0.2753  0.0381  0.2817
 7365SOL    HW133728   0.856   1.411  13.390 -1.1968 -0.0647 -0.6303
 7365SOL    HW233729   0.880   1.530  13.472 -0.9146  1.5680 -0.8111
 7366SOL     OW33730   2.658   4.506  14.906  0.4042 -0.5959 -0.0067
 7366SOL    HW133731   2.593   4.571  14.881 -0.0466 -0.9627  0.2327
 7366SOL    HW233732   2.686   4.476  14.820 -2.1747  0.1799 -1.1108
 7367SOL     OW33733   0.349   4.579   8.776  0.6534 -0.5602 -0.0746
 7367SOL    HW133734   0.371   4.564   8.684  1.1181 -0.3475  0.0009
 7367SOL    HW233735   0.383   4.498   8.815  0.1968 -0.1412  1.2082
 7368SOL     OW33736   0.151   3.638  12.917 -0.4881  0.0748  0.4053
 7368SOL    HW133737   0.143   3.593  13.001  1.9526 -0.1695  0.5100
 7368SOL    HW233738   0.161   3.561  12.861  3.5658  2.1443 -1.6618
 7369SOL     OW33739   1.601   4.588   0.822  0.2680 -0.2906  0.4231
 7369SOL    HW133740   1.624   4.550   0.906 -2.4693 -1.7092  0.5358
 7369SOL    HW233741   1.562   4.511   0.780 -3.5529  1.9954 -0.2086
 7370SOL     OW33742   4.437   1.376  14.034 -0.0562 -0.2818 -0.0732
 7370SOL    HW133743   4.417   1.301  14.090  2.0564  0.7853  2.1095
 7370SOL    HW233744   4.493   1.342  13.964 -0.6163  0.1061 -0.7123
 7371SOL     OW33745   3.901   2.246   1.956 -1.0750  0.0562  0.0336
 7371SOL    HW133746   3.903   2.341   1.970 -0.6883  0.0792 -0.1715
 7371SOL    HW233747   3.955   2.214   2.029 -0.3163  1.2566 -0.0057
 7372SOL     OW33748   1.212   3.411   8.796  0.1729 -0.1406 -0.1263
 7372SOL    HW133749   1.186   3.414   8.888 -3.0185  1.4356 -1.0830
 7372SOL    HW233750   1.257   3.494   8.784 -1.4230  0.9447  1.3279
 7373SOL     OW33751   3.868   1.253   5.711  0.6164  0.1622 -0.6410
 7373SOL    HW133752   3.820   1.245   5.793  0.9124  0.7909 -0.4023
 7373SOL    HW233753   3.796   1.242   5.649  0.5326  0.8369 -0.6714
 7374SOL     OW33754   0.461   1.178   3.819  0.3569 -0.2127  0.0043
 7374SOL    HW133755   0.369   1.158   3.801  0.0169  1.4270 -0.1555
 7374SOL    HW233756   0.478   1.248   3.756 -0.2607  0.6281  0.7660
 7375SOL     OW33757   2.805   1.478   6.478 -0.0540 -0.3066 -0.1822
 7375SOL    HW133758   2.832   1.530   6.554  2.1055  1.1609 -1.9549
 7375SOL    HW233759   2.888   1.489   6.432 -0.2880  1.0560 -0.2821
 7376SOL     OW33760   1.952   2.618   3.221 -0.3815 -0.3112 -0.1582
 7376SOL    HW133761   1.941   2.707   3.190 -2.3013 -0.2078  0.8145
 7376SOL    HW233762   1.932   2.588   3.132 -1.1236 -2.9832  0.9035
 7377SOL     OW33763   3.601   3.714   6.311  0.2519 -0.0213  0.0646
 7377SOL    HW133764   3.553   3.764   6.245  0.5286 -0.4865 -0.5011
 7377SOL    HW233765   3.607   3.625   6.275  0.2055  0.6758 -1.6816
 7378SOL     OW33766   3.288   0.448  16.376  0.2133 -0.4156 -0.2092
 7378SOL    HW133767   3.361   0.504  16.349  1.1312 -0.8424  1.3794
 7378SOL    HW233768   3.248   0.410  16.298  0.9536 -1.8725  0.1297
 7379SOL     OW33769   4.445   2.420   3.658  0.1729 -0.5810  0.2924
 7379SOL    HW133770   4.353   2.400   3.677  0.4112 -1.5129  0.5034
 7379SOL    HW233771   4.446   2.515   3.667 -1.7452 -0.3222 -2.5167
 7380SOL     OW33772   2.905   0.898  14.371  0.7760  0.1052 -0.1071
 7380SOL    HW133773   2.985   0.935  14.335  0.5840 -0.5030 -1.1499
 7380SOL    HW233774   2.844   0.972  14.364 -1.1190 -1.3575  0.8169
 7381SOL     OW33775   0.255   0.768  13.383  0.1097 -0.4651  0.1136
 7381SOL    HW133776   0.218   0.774  13.471  0.5299  1.8973  0.1199
 7381SOL    HW233777   0.278   0.675  13.381  1.1074 -0.2178  0.0656
 7382SOL     OW33778   1.644   0.959   4.951 -0.7020  0.0650  0.0722
 7382SOL    HW133779   1.636   1.036   4.894  0.2279  0.1414  0.0412
 7382SOL    HW233780   1.715   0.909   4.911  0.9980  1.1295  1.7431
 7383SOL     OW33781   3.170   0.938   3.996 -0.8400  0.2448 -0.5228
 7383SOL    HW133782   3.130   0.917   3.911  2.1020 -0.9921 -1.5903
 7383SOL    HW233783   3.142   0.860   4.044 -0.6826 -1.1346 -2.6821
 7384SOL     OW33784   0.861   3.868   7.760  0.3838  0.5161  0.3074
 7384SOL    HW133785   0.916   3.908   7.692 -0.0042  1.4063  0.5084
 7384SOL    HW233786   0.849   3.788   7.709 -0.8776  0.5850  0.4995
 7385SOL     OW33787   4.197   2.800   7.988  0.2599 -0.1323  0.1322
 7385SOL    HW133788   4.150   2.861   8.045  0.9324 -0.8572  1.4653
 7385SOL    HW233789   4.284   2.837   8.005 -0.3736  0.6430  1.6350
 7386SOL     OW33790   1.951   0.366   4.965  0.2674  0.8105  0.2810
 7386SOL    HW133791   1.873   0.349   5.019 -0.3381  2.4965 -0.0651
 7386SOL    HW233792   2.001   0.289   4.993  0.4572  1.1166  0.7709
 7387SOL     OW33793   2.556   0.696   2.796 -0.3866 -0.5194  0.1389
 7387SOL    HW133794   2.649   0.710   2.780 -0.6913  0.5662 -0.6746
 7387SOL    HW233795   2.516   0.745   2.724 -1.3201 -0.5272  0.6501
 7388SOL     OW33796   2.780   3.883   5.168 -0.0047  0.6882 -0.7150
 7388SOL    HW133797   2.712   3.823   5.139  0.5693 -0.0695 -0.4815
 7388SOL    HW233798   2.838   3.827   5.219 -0.8313  0.8260  0.3916
 7389SOL     OW33799   4.064   4.184   7.663  0.3548 -0.2958  0.2180
 7389SOL    HW133800   4.143   4.184   7.609  0.2815  0.2141  0.1182
 7389SOL    HW233801   4.017   4.106   7.633  0.3779  0.0568 -0.7051
 7390SOL     OW33802   4.504   3.574  17.276 -0.0964 -0.4182 -0.0251
 7390SOL    HW133803   4.594   3.547  17.257  0.5225  3.3033 -2.3072
 7390SOL    HW233804   4.514   3.648  17.335 -0.7089  0.2388 -0.7329
 7391SOL     OW33805   3.968   1.199  14.740  0.1565  0.2287 -0.2683
 7391SOL    HW133806   3.944   1.181  14.831 -3.6992 -2.6877 -1.8985
 7391SOL    HW233807   3.956   1.110  14.708  0.3131 -0.6556  2.1099
 7392SOL     OW33808   2.792   1.916   1.163 -0.3822 -0.8307 -0.2249
 7392SOL    HW133809   2.839   1.861   1.226 -1.2697  3.3438  4.0940
 7392SOL    HW233810   2.849   1.993   1.156 -1.4718 -0.1799 -1.8554
 7393SOL     OW33811   0.056   4.386   7.235  0.3520  0.4172 -0.2170
 7393SOL    HW133812   0.063   4.291   7.226 -2.6959  0.2229 -0.2589
 7393SOL    HW233813   0.143   4.417   7.262  1.0589 -1.4838 -0.2992
 7394SOL     OW33814   3.338   1.308   7.891  0.0871 -0.0600 -0.4253
 7394SOL    HW133815   3.368   1.374   7.953  2.3254 -0.3610 -1.1649
 7394SOL    HW233816   3.382   1.345   7.814 -0.1004  0.6509 -0.1846
 7395SOL     OW33817   4.050   3.598   7.620  0.6052 -0.3160  0.1048
 7395SOL    HW133818   4.061   3.545   7.699  0.4160 -0.1682  0.2296
 7395SOL    HW233819   4.139   3.627   7.601  1.5300 -3.1879  0.1342
 7396SOL     OW33820   0.645   2.170  17.511 -0.4933  0.2142  0.2405
 7396SOL    HW133821   0.729   2.135  17.541  0.2785  0.5643 -1.5325
 7396SOL    HW233822   0.654   2.180  17.417 -1.5535 -0.2089  0.0988
 7397SOL     OW33823   4.273   3.497  11.434 -0.5281 -0.6235  0.5867
 7397SOL    HW133824   4.247   3.464  11.520 -2.8171 -1.3377 -0.3893
 7397SOL    HW233825   4.193   3.518  11.386 -0.3323 -0.4469  0.3380
 7398SOL     OW33826   2.175   3.721   5.560 -0.5133  0.4003  0.0489
 7398SOL    HW133827   2.200   3.802   5.517 -1.3897 -0.3312 -1.8633
 7398SOL    HW233828   2.171   3.658   5.487 -2.1492 -0.2334  0.6903
 7399SOL     OW33829   4.400   0.308   4.536  0.3247  0.3316  0.2936
 7399SOL    HW133830   4.403   0.292   4.442 -1.4625  0.4197  0.2164
 7399SOL    HW233831   4.344   0.386   4.535 -0.1431 -0.0095 -0.2491
 7400SOL     OW33832   2.239   4.631   7.402  0.0038 -0.1678 -0.0295
 7400SOL    HW133833   2.204   4.547   7.432 -2.2872  0.3167 -1.3189
 7400SOL    HW233834   2.194   4.683   7.468  1.3185  2.2206 -0.9852
 7401SOL     OW33835   0.306   0.340   0.063 -0.4649  0.3570  0.8428
 7401SOL    HW133836   0.297   0.247   0.087 -0.2636 -0.3018 -1.6909
 7401SOL    HW233837   0.225   0.375   0.099 -1.6147 -0.6647 -0.7728
 7402SOL     OW33838   1.641   1.515   5.405  0.4812 -0.3568  0.4275
 7402SOL    HW133839   1.625   1.472   5.490 -0.9768  1.2238  0.9566
 7402SOL    HW233840   1.590   1.595   5.417  1.6784  0.2362  1.5737
 7403SOL     OW33841   1.972   0.672   3.440  0.3317  0.1162  0.2612
 7403SOL    HW133842   1.991   0.765   3.432  1.2924 -0.2755 -1.9022
 7403SOL    HW233843   1.921   0.657   3.520 -0.7561 -0.4190 -0.5179
 7404SOL     OW33844   2.780   2.375  11.248 -0.2989 -0.3114  0.2695
 7404SOL    HW133845   2.754   2.465  11.229  1.5512 -0.2626 -2.0082
 7404SOL    HW233846   2.874   2.373  11.269  0.0175 -0.4283 -1.1684
 7405SOL     OW33847   0.249   2.660  16.681 -0.2192  0.0885  0.6462
 7405SOL    HW133848   0.222   2.595  16.617  1.2865 -0.0420  0.1386
 7405SOL    HW233849   0.303   2.597  16.729  0.5707  0.1443 -0.1707
 7406SOL     OW33850   3.295   0.747   0.000  0.6002 -0.2790  0.5554
 7406SOL    HW133851   3.347   0.787   0.069  1.1429 -2.6913  1.5578
 7406SOL    HW233852   3.233   0.818  17.736  2.0618  0.9266  0.1734
 7407SOL     OW33853   1.199   0.103   6.591 -0.0969 -0.4943 -0.2183
 7407SOL    HW133854   1.236   0.056   6.666 -1.7111 -1.0111  0.2585
 7407SOL    HW233855   1.113   0.061   6.587  0.5055 -1.5607 -1.6519
 7408SOL     OW33856   4.573   3.028  12.693  0.0907 -0.5865  0.2519
 7408SOL    HW133857   4.662   3.004  12.719  0.3978 -0.3619 -0.6218
 7408SOL    HW233858   4.573   2.991  12.605  0.1196  1.2654 -0.5193
 7409SOL     OW33859   3.397   3.172   7.011 -0.2419  0.2051 -0.3577
 7409SOL    HW133860   3.409   3.209   7.098 -0.5908  0.8040 -0.5619
 7409SOL    HW233861   3.481   3.178   6.965 -0.2902  2.1276 -0.1793
 7410SOL     OW33862   0.631   3.376  12.283 -0.1942  0.5606  0.7825
 7410SOL    HW133863   0.701   3.313  12.266 -0.5389  0.1354  0.9254
 7410SOL    HW233864   0.641   3.440  12.212  2.0398  1.3948  1.8528
 7411SOL     OW33865   1.971   1.526   1.619  0.2820 -0.0661  0.6585
 7411SOL    HW133866   1.980   1.537   1.714  0.7052 -0.1296  0.6259
 7411SOL    HW233867   1.929   1.607   1.589 -0.8062 -0.0170  2.3028
 7412SOL     OW33868   1.605   3.544   7.594  0.2335 -0.2458  0.0234
 7412SOL    HW133869   1.641   3.562   7.681 -0.1501  0.5994  0.0047
 7412SOL    HW233870   1.517   3.581   7.601  0.4904  0.2252  0.7035
 7413SOL     OW33871   2.088   0.231  12.047  0.7082  0.6559 -0.5053
 7413SOL    HW133872   2.106   0.194  12.133 -0.1247  1.1062 -0.1326
 7413SOL    HW233873   2.021   0.174  12.009  0.4800  0.3050  0.4227
 7414SOL     OW33874   3.551   1.759   8.273 -0.1911 -0.0995 -0.2577
 7414SOL    HW133875   3.464   1.781   8.241 -0.2905  0.8423  0.6739
 7414SOL    HW233876   3.527   1.721   8.357  0.8239 -1.5279 -0.6139
 7415SOL     OW33877   4.186   4.484   2.046  0.3966  0.2795 -0.1807
 7415SOL    HW133878   4.155   4.486   1.955 -1.5268  1.8905  0.4885
 7415SOL    HW233879   4.269   4.527   2.028  0.9843 -0.6809  0.2902
 7416SOL     OW33880   3.875   3.874  11.153 -0.3741  0.3513 -0.1221
 7416SOL    HW133881   3.887   3.921  11.236  0.6018  0.7514 -0.4762
 7416SOL    HW233882   3.808   3.929  11.111 -2.5660 -2.1385  0.1574
 7417SOL     OW33883   0.332   3.362   5.988  0.2267 -0.2846  0.5562
 7417SOL    HW133884   0.261   3.361   6.051 -1.1229 -1.8690 -0.9845
 7417SOL    HW233885   0.407   3.336   6.041  0.5407 -0.9966 -0.2361
 7418SOL     OW33886   4.483   0.978  12.902  0.2808 -0.1055  0.6841
 7418SOL    HW133887   4.551   0.965  12.968  2.1559 -0.8017 -1.3986
 7418SOL    HW233888   4.408   0.938  12.946 -1.8967 -0.3244 -3.2509
 7419SOL     OW33889   1.652   0.527  12.513 -0.0468 -0.2769  0.0547
 7419SOL    HW133890   1.575   0.501  12.462 -1.3590  0.4890  1.6505
 7419SOL    HW233891   1.635   0.613  12.550 -0.3836  0.6431 -2.2102
 7420SOL     OW33892   1.389   4.612  17.007 -0.4108  0.1790  0.3768
 7420SOL    HW133893   1.440   4.533  16.990  0.3100  0.6637  0.2937
 7420SOL    HW233894   1.457   4.678  16.991 -1.5116  1.4183  0.7980
 7421SOL     OW33895   1.096   4.364  10.428  0.4268 -0.0141 -0.2843
 7421SOL    HW133896   1.022   4.410  10.388 -0.4889 -1.4419 -0.1996
 7421SOL    HW233897   1.159   4.436  10.416 -0.0630  0.6436  1.0562
 7422SOL     OW33898   0.101   3.907   8.461  0.1096  0.4826 -0.7908
 7422SOL    HW133899   0.093   3.978   8.525 -0.0211  1.6054 -2.0633
 7422SOL    HW233900   0.173   3.946   8.410  0.9679 -0.8209 -0.5776
 7423SOL     OW33901   3.285   1.600  13.903 -0.0725  0.5677  0.1158
 7423SOL    HW133902   3.231   1.673  13.934 -0.4947  1.4709 -2.7276
 7423SOL    HW233903   3.366   1.593  13.953  0.4537 -0.2520 -0.8448
 7424SOL     OW33904   1.280   3.301   8.503  0.3767 -0.6746 -0.5382
 7424SOL    HW133905   1.223   3.371   8.533  2.4534  0.3141  1.0880
 7424SOL    HW233906   1.366   3.318   8.541 -0.3895  0.8806  0.5247
 7425SOL     OW33907   0.518   1.583   1.547 -0.4059 -0.3717  0.4922
 7425SOL    HW133908   0.476   1.555   1.466  1.7865 -1.1194 -0.3997
 7425SOL    HW233909   0.585   1.513   1.544  0.0294 -0.0010  1.6673
 7426SOL     OW33910   0.693   0.666  11.727 -0.3277 -0.0018 -0.2610
 7426SOL    HW133911   0.683   0.627  11.640 -4.0478  2.8878 -1.1198
 7426SOL    HW233912   0.775   0.621  11.750  0.8049  2.8859  1.3297
 7427SOL     OW33913   4.350   2.671   6.372  0.2621 -0.6189  0.4313
 7427SOL    HW133914   4.306   2.755   6.370  0.4504 -0.5185  0.4834
 7427SOL    HW233915   4.315   2.616   6.302  3.6389 -2.0505 -0.1292
 7428SOL     OW33916   3.398   3.847   4.654 -0.2511  0.6945 -0.0931
 7428SOL    HW133917   3.333   3.796   4.703 -0.1165  1.1353  0.5498
 7428SOL    HW233918   3.471   3.849   4.716  0.7405  0.3862 -1.2523
 7429SOL     OW33919   3.204   1.761   4.113 -0.3141 -0.3288 -0.1754
 7429SOL    HW133920   3.110   1.778   4.121 -0.2894  0.1867 -0.9058
 7429SOL    HW233921   3.212   1.757   4.017  1.4996 -1.9299  0.0336
 7430SOL     OW33922   4.123   0.164   3.395 -0.0001 -0.2219 -0.4270
 7430SOL    HW133923   4.137   0.070   3.398 -0.8626 -0.2864  1.0302
 7430SOL    HW233924   4.207   0.194   3.430 -0.9673  2.4250 -0.3235
 7431SOL     OW33925   0.276   3.875   8.054  0.0053 -0.2358  0.3957
 7431SOL    HW133926   0.238   3.928   8.124  0.8902  0.8379  0.0619
 7431SOL    HW233927   0.314   3.937   7.992 -2.1062  0.6692  0.0036
 7432SOL     OW33928   3.993   4.126   5.438  0.5676 -0.4069 -0.1938
 7432SOL    HW133929   4.056   4.084   5.379 -0.2366 -1.6322 -0.1777
 7432SOL    HW233930   3.906   4.105   5.405 -0.8682  1.1033  2.6209
 7433SOL     OW33931   0.285   2.248   2.254 -0.0887 -0.2664 -0.4088
 7433SOL    HW133932   0.243   2.179   2.305 -0.5912 -1.5291 -2.5171
 7433SOL    HW233933   0.245   2.239   2.167  0.8861 -0.3671 -0.8522
 7434SOL     OW33934   2.127   2.772   0.804  0.4422  0.2207 -0.1610
 7434SOL    HW133935   2.034   2.765   0.787  0.3083  1.6350 -0.0149
 7434SOL    HW233936   2.161   2.700   0.752  2.0845  0.3298  0.7644
 7435SOL     OW33937   2.865   4.555  15.615 -0.4168 -0.1515  0.7911
 7435SOL    HW133938   2.926   4.481  15.622  1.8421  1.6590  0.3976
 7435SOL    HW233939   2.843   4.546  15.522  0.7791  0.5063  0.4374
 7436SOL     OW33940   0.431   0.461   7.710 -0.5298 -0.1094  0.2267
 7436SOL    HW133941   0.454   0.554   7.705  0.8260 -0.5780 -2.3037
 7436SOL    HW233942   0.337   0.454   7.694 -0.7637  1.4888  0.8906
 7437SOL     OW33943   2.179   1.592   7.424 -0.4925  0.2092  0.1801
 7437SOL    HW133944   2.236   1.546   7.363 -1.2216  1.0539 -1.1368
 7437SOL    HW233945   2.147   1.520   7.478 -1.3048 -0.2761 -0.9456
 7438SOL     OW33946   0.638   1.312   6.390  0.0393  0.0021  0.0503
 7438SOL    HW133947   0.718   1.314   6.337 -0.6317 -3.1041 -1.0475
 7438SOL    HW233948   0.569   1.349   6.334 -0.6014  0.7758  1.3562
 7439SOL     OW33949   1.684   3.640   2.747 -0.7046  0.1479  0.2472
 7439SOL    HW133950   1.642   3.716   2.707 -0.6310 -0.6688 -1.3779
 7439SOL    HW233951   1.697   3.674   2.835 -2.8213 -1.9684  1.3757
 7440SOL     OW33952   1.424   0.876   8.647 -0.3775  0.4174 -0.1356
 7440SOL    HW133953   1.504   0.925   8.668  0.7050 -0.4019 -2.4686
 7440SOL    HW233954   1.372   0.888   8.727  1.0426 -0.5007  0.9269
 7441SOL     OW33955   0.620   4.340   5.645  0.6010  0.4022  0.5048
 7441SOL    HW133956   0.549   4.290   5.605 -0.0185  0.9185  0.9549
 7441SOL    HW233957   0.690   4.283   5.615  0.8040  0.4388  0.9101
 7442SOL     OW33958   3.627   1.303   7.393  0.1867  0.2166  0.6821
 7442SOL    HW133959   3.610   1.226   7.446  3.4155 -2.0678 -1.5861
 7442SOL    HW233960   3.618   1.370   7.461 -1.9960  0.9805 -0.3657
 7443SOL     OW33961   1.890   1.605  14.231 -0.4957  0.3574  0.1779
 7443SOL    HW133962   1.795   1.603  14.234 -0.3621 -0.8170  3.9753
 7443SOL    HW233963   1.904   1.697  14.207 -0.8684  0.9287  2.1244
 7444SOL     OW33964   2.862   0.361   2.467 -0.0104 -0.1640 -0.2732
 7444SOL    HW133965   2.915   0.303   2.521  0.0014  0.3867  0.3109
 7444SOL    HW233966   2.929   0.412   2.420  0.2533  0.1664  0.4550
 7445SOL     OW33967   3.984   4.099   4.287  0.1702  0.0843  0.0245
 7445SOL    HW133968   3.892   4.119   4.268 -0.4494 -2.1268  0.7135
 7445SOL    HW233969   4.012   4.066   4.202  0.2080  0.0385  0.0552
 7446SOL     OW33970   1.852   3.343   6.444 -0.1267  0.2049  0.4078
 7446SOL    HW133971   1.938   3.318   6.410 -0.1170  1.3685 -0.4333
 7446SOL    HW233972   1.854   3.435   6.470  0.3703  0.4787 -0.5973
 7447SOL     OW33973   3.178   1.849  14.346 -0.6714 -0.6389  0.0715
 7447SOL    HW133974   3.130   1.777  14.386 -0.0827 -0.9780  0.1676
 7447SOL    HW233975   3.178   1.918  14.412  2.1996  0.3340 -0.9143
 7448SOL     OW33976   2.974   0.934  15.339 -0.6307  0.7593 -0.0500
 7448SOL    HW133977   2.989   1.029  15.335 -0.9977  0.8647  1.0799
 7448SOL    HW233978   3.036   0.918  15.410 -1.2206  0.8450  0.4823
 7449SOL     OW33979   1.227   2.493   5.880 -0.4309 -0.4483  0.7069
 7449SOL    HW133980   1.279   2.544   5.942 -0.6838  1.9231 -0.9929
 7449SOL    HW233981   1.138   2.528   5.889  0.3738  1.7459  0.3175
 7450SOL     OW33982   1.384   1.781   2.023  0.6670 -0.2027 -0.0327
 7450SOL    HW133983   1.318   1.847   2.001  1.2820  0.2495 -0.5145
 7450SOL    HW233984   1.343   1.742   2.100 -0.0487 -0.2698 -0.4499
 7451SOL     OW33985   1.448   1.660   7.906 -0.0345  0.4941  0.2521
 7451SOL    HW133986   1.463   1.567   7.890 -0.2217  0.3591  0.8499
 7451SOL    HW233987   1.460   1.654   8.001  0.9557  0.1124  0.0994
 7452SOL     OW33988   3.614   4.411   3.103 -0.0698  1.0674 -0.3676
 7452SOL    HW133989   3.547   4.418   3.035 -0.7698 -1.9830  0.0299
 7452SOL    HW233990   3.663   4.338   3.066  1.3039  0.4317  2.7047
 7453SOL     OW33991   1.351   2.760   1.690 -0.2132  0.2434  0.3466
 7453SOL    HW133992   1.427   2.785   1.636 -0.0430 -2.0374 -0.4724
 7453SOL    HW233993   1.277   2.783   1.634  0.8072  0.2119 -1.0299
 7454SOL     OW33994   1.458   1.425   3.042  0.2496  0.4781  0.0162
 7454SOL    HW133995   1.526   1.358   3.054  0.1509  0.5951  1.1783
 7454SOL    HW233996   1.424   1.434   3.130  3.8731 -1.9782  1.6844
 7455SOL     OW33997   4.287   2.961   7.115 -0.7720  0.0418 -0.8251
 7455SOL    HW133998   4.363   3.016   7.131 -0.5699  0.0705 -1.8394
 7455SOL    HW233999   4.330   2.879   7.089 -0.6221  0.7907 -2.9075
 7456SOL     OW34000   1.686   3.751   5.969 -0.1427 -0.0883 -0.3453
 7456SOL    HW134001   1.608   3.805   5.969 -0.3981 -0.4571 -0.7493
 7456SOL    HW234002   1.753   3.807   5.930  0.4683 -2.0189 -2.0683
 7457SOL     OW34003   3.622   1.689   6.456  0.3242  0.8310  0.2756
 7457SOL    HW134004   3.619   1.781   6.431  0.9950  1.1470  1.3407
 7457SOL    HW234005   3.547   1.677   6.514 -0.6847  0.6797 -1.0728
 7458SOL     OW34006   2.557   2.936  17.338 -0.1011  0.0022 -0.1818
 7458SOL    HW134007   2.498   2.933  17.263 -1.2286 -1.5710  0.7762
 7458SOL    HW234008   2.642   2.907  17.303  0.0575 -2.3257  2.1509
 7459SOL     OW34009   0.592   2.115   2.640 -0.2738  0.5948 -0.1402
 7459SOL    HW134010   0.498   2.117   2.626  0.1062  0.2673 -2.6543
 7459SOL    HW234011   0.621   2.067   2.563  0.0224 -0.5771  0.6938
 7460SOL     OW34012   4.239   3.046   5.378  0.6811 -0.3979 -0.7756
 7460SOL    HW134013   4.251   3.106   5.451 -1.2463  1.0255 -1.6209
 7460SOL    HW234014   4.314   2.992   5.401  1.0933  1.3073  1.8234
 7461SOL     OW34015   0.516   3.851  12.111  0.1627  0.0039  0.5253
 7461SOL    HW134016   0.538   3.822  12.200 -0.1590 -2.0838 -0.0598
 7461SOL    HW234017   0.492   3.764  12.078  2.8785 -1.3659  2.1415
 7462SOL     OW34018   1.090   3.310   7.211 -0.0228  0.1172 -0.8962
 7462SOL    HW134019   1.168   3.257   7.226  1.1292  1.3748 -2.4092
 7462SOL    HW234020   1.132   3.396   7.223 -0.1974  0.3239 -1.7651
 7463SOL     OW34021   0.621   2.863   9.363  0.3733  0.6147  0.1291
 7463SOL    HW134022   0.658   2.883   9.276  0.4904 -1.8564 -0.3771
 7463SOL    HW234023   0.668   2.786   9.393  0.0199 -0.1482 -1.2902
 7464SOL     OW34024   2.555   2.997   3.275 -0.2105  0.3864  0.1119
 7464SOL    HW134025   2.588   3.069   3.328  0.3071 -0.4866  0.9792
 7464SOL    HW234026   2.632   2.985   3.220  0.3102  2.5662  0.3857
 7465SOL     OW34027   0.455   2.165   4.728  0.2933  0.1793  0.3483
 7465SOL    HW134028   0.499   2.081   4.717 -0.1926  0.0538 -0.6106
 7465SOL    HW234029   0.400   2.164   4.649  0.3517 -1.2312  0.3321
 7466SOL     OW34030   0.465   4.188   5.300 -0.1720  0.0475 -0.1550
 7466SOL    HW134031   0.420   4.201   5.383  1.3805  0.7374  0.5765
 7466SOL    HW234032   0.478   4.093   5.302 -1.0597 -0.0570  0.2354
 7467SOL     OW34033   4.261   3.540   3.097 -0.2065 -0.2897  0.1081
 7467SOL    HW134034   4.286   3.452   3.072  0.9777 -0.2977  1.3315
 7467SOL    HW234035   4.176   3.537   3.052  0.0849 -3.2536 -0.2188
 7468SOL     OW34036   1.650   2.567   6.184  0.3411  0.1471  0.0896
 7468SOL    HW134037   1.666   2.475   6.165 -0.4903  0.4282 -1.9700
 7468SOL    HW234038   1.637   2.563   6.279 -0.1363 -0.2360  0.0109
 7469SOL     OW34039   4.669   4.568   3.628  0.0550  0.1224 -0.3307
 7469SOL    HW134040   4.708   4.629   3.565 -0.9052  2.0398  0.9305
 7469SOL    HW234041   4.708   4.486   3.597  0.2668  0.3822 -0.7488
 7470SOL     OW34042   3.224   3.844  12.565 -0.4179  0.0861  0.0502
 7470SOL    HW134043   3.291   3.817  12.503 -0.7394 -2.7785  0.9496
 7470SOL    HW234044   3.252   3.934  12.579 -0.4926  0.1254 -0.0529
 7471SOL     OW34045   4.690   0.555   1.122  0.5543  0.2870  0.4135
 7471SOL    HW134046   4.695   0.626   1.059  1.3252 -0.2100 -0.0912
 7471SOL    HW234047   4.661   0.493   1.055 -0.3206 -0.2096  1.2503
 7472SOL     OW34048   2.518   4.124  14.227  0.5793 -0.2795  0.3503
 7472SOL    HW134049   2.500   4.125  14.322 -2.5049 -2.3532 -0.1802
 7472SOL    HW234050   2.472   4.042  14.208 -1.5468  0.6319  1.4181
 7473SOL     OW34051   0.587   0.624   6.410 -0.0190 -0.4299  0.3878
 7473SOL    HW134052   0.553   0.594   6.325 -0.0681 -0.5612  0.4538
 7473SOL    HW234053   0.502   0.639   6.450  0.0936  0.9799  0.0893
 7474SOL     OW34054   0.708   2.019   3.058  0.1568 -0.4351  0.6387
 7474SOL    HW134055   0.795   2.000   3.024  0.0212  1.1478 -0.5610
 7474SOL    HW234056   0.718   2.033   3.152 -0.7293 -1.7529  0.9295
 7475SOL     OW34057   0.507   2.093  15.758  0.4510  0.2130 -0.0992
 7475SOL    HW134058   0.470   2.015  15.716 -0.4303  0.7695 -0.3477
 7475SOL    HW234059   0.488   2.067  15.848 -0.5849  1.8694  0.1495
 7476SOL     OW34060   3.765   1.692  11.238  0.3409  0.2989  0.0686
 7476SOL    HW134061   3.727   1.718  11.322 -0.2348  2.3200 -0.8206
 7476SOL    HW234062   3.855   1.685  11.271 -0.1540 -1.2793  1.1091
 7477SOL     OW34063   2.841   3.928   3.622 -0.1616  0.7691  0.0133
 7477SOL    HW134064   2.758   3.970   3.600 -0.0939  0.5825 -0.6284
 7477SOL    HW234065   2.869   3.895   3.536 -0.0355  1.6902 -0.2928
 7478SOL     OW34066   4.731   1.503   6.564 -0.0603  0.1049 -0.3396
 7478SOL    HW134067   4.691   1.530   6.481  0.9479  1.1963 -0.4680
 7478SOL    HW234068   4.670   1.537   6.630  1.2375 -1.2047  1.5167
 7479SOL     OW34069   1.378   3.010  15.053 -0.2437  0.2673 -0.0288
 7479SOL    HW134070   1.336   3.018  15.139 -2.1014  1.6592 -1.0865
 7479SOL    HW234071   1.307   3.023  14.991 -0.6046  0.3475  0.4017
 7480SOL     OW34072   0.984   4.701   6.292  0.3205  0.1588  0.4696
 7480SOL    HW134073   0.896   4.735   6.276 -0.5141 -2.8904 -1.4549
 7480SOL    HW234074   0.972   4.630   6.355  0.6907  1.2251  1.7506
 7481SOL     OW34075   1.524   4.363  13.231 -0.2809  0.2275  0.4981
 7481SOL    HW134076   1.591   4.341  13.296 -0.1560 -1.2623 -0.1373
 7481SOL    HW234077   1.501   4.452  13.261 -1.9446 -0.0836  0.1456
 7482SOL     OW34078   0.452   0.927   5.302 -0.1126 -0.0049 -0.1156
 7482SOL    HW134079   0.498   0.977   5.235  1.0865 -0.3315  0.4517
 7482SOL    HW234080   0.377   0.897   5.251 -0.9250 -1.5691  2.0222
 7483SOL     OW34081   4.266   4.131  10.565 -0.3676 -0.1601  0.0715
 7483SOL    HW134082   4.250   4.225  10.572  1.5684  0.2601 -1.0723
 7483SOL    HW234083   4.335   4.126  10.632  0.3071 -1.5162 -0.7239
 7484SOL     OW34084   3.787   4.316   8.572  0.3091 -0.7268 -0.6928
 7484SOL    HW134085   3.752   4.375   8.639  0.1392  0.6905 -2.0265
 7484SOL    HW234086   3.853   4.375   8.535  0.9699 -1.3596 -0.5229
 7485SOL     OW34087   1.608   1.237   7.251  0.1417  0.2516 -0.3268
 7485SOL    HW134088   1.517   1.266   7.240 -1.1058 -4.0111 -1.3307
 7485SOL    HW234089   1.581   1.158   7.298 -1.3781  0.5756 -0.6374
 7486SOL     OW34090   2.694   1.663   8.245  0.5516 -0.6266  0.3028
 7486SOL    HW134091   2.780   1.632   8.217  0.7751  0.8690 -0.6161
 7486SOL    HW234092   2.716   1.711   8.325  0.0782 -1.1577  0.7573
 7487SOL     OW34093   1.301   2.003   1.362 -0.5905  0.0921 -0.3887
 7487SOL    HW134094   1.310   2.097   1.375 -1.3087  0.8257 -5.0639
 7487SOL    HW234095   1.228   1.998   1.300 -0.9457  2.4424 -0.1495
 7488SOL     OW34096   0.725   3.786  15.056 -0.1230 -0.5049 -0.1058
 7488SOL    HW134097   0.672   3.860  15.027  0.8715 -1.4281 -4.2869
 7488SOL    HW234098   0.787   3.758  14.988 -2.3634 -0.2591 -2.2544
 7489SOL     OW34099   0.346   2.133   6.336 -0.0583  0.5075  0.0018
 7489SOL    HW134100   0.427   2.177   6.363  1.7493 -1.8256 -1.5752
 7489SOL    HW234101   0.318   2.198   6.272 -0.3770  0.9826  0.6178
 7490SOL     OW34102   3.905   0.731   7.565  0.6601  0.6841  0.0504
 7490SOL    HW134103   3.920   0.748   7.658  1.5159  0.3521 -0.0265
 7490SOL    HW234104   3.857   0.650   7.582  0.2021  1.9585  4.8613
 7491SOL     OW34105   0.230   1.653   8.581 -0.3538  0.1105 -0.2275
 7491SOL    HW134106   0.148   1.696   8.604  0.2306  0.5428  1.0481
 7491SOL    HW234107   0.200   1.562   8.586 -0.0739  0.0714  0.8896
 7492SOL     OW34108   4.286   3.344  16.964 -0.0841 -0.3375  0.0270
 7492SOL    HW134109   4.281   3.252  16.989  0.9080 -0.5964 -0.7106
 7492SOL    HW234110   4.267   3.379  17.051 -0.7757  0.4799 -0.4553
 7493SOL     OW34111   2.381   0.881   1.658  0.6156 -0.4894  0.3694
 7493SOL    HW134112   2.303   0.860   1.606  0.1425 -0.2568  0.9881
 7493SOL    HW234113   2.418   0.793   1.661 -0.0626 -0.8011 -0.4889
 7494SOL     OW34114   2.803   3.014  10.819  0.5083  0.1456 -0.2927
 7494SOL    HW134115   2.876   3.063  10.781  1.5223 -0.9586  0.2569
 7494SOL    HW234116   2.768   3.085  10.874  0.3287  1.6535 -2.3535
 7495SOL     OW34117   1.214   4.624   9.384  0.5419  0.0072 -0.0922
 7495SOL    HW134118   1.132   4.673   9.372  0.3606  0.3392  2.4484
 7495SOL    HW234119   1.184   4.539   9.351 -1.0550  1.2490 -1.9032
 7496SOL     OW34120   4.642   3.474  13.382 -0.0089 -0.9654 -0.4264
 7496SOL    HW134121   4.576   3.421  13.427 -3.8099  3.7415 -0.5054
 7496SOL    HW234122   4.720   3.451  13.433  0.2240 -1.4846 -1.0121
 7497SOL     OW34123   3.178   1.147   7.133 -0.1262 -0.0238 -0.0062
 7497SOL    HW134124   3.197   1.066   7.181  0.2677  0.1464  0.1276
 7497SOL    HW234125   3.267   1.166   7.103  0.6262 -0.6119  1.8585
 7498SOL     OW34126   2.103   0.509   4.001  0.2955 -0.0872  0.4110
 7498SOL    HW134127   2.125   0.555   3.920 -0.4723 -1.7950 -0.7497
 7498SOL    HW234128   2.164   0.545   4.066 -0.5387  2.1041 -0.0013
 7499SOL     OW34129   0.146   0.613   9.776  0.0115  0.3998 -0.0631
 7499SOL    HW134130   0.199   0.664   9.716 -0.1223 -0.9272 -1.3161
 7499SOL    HW234131   0.082   0.678   9.805 -0.6466 -0.0797 -0.4268
 7500SOL     OW34132   1.976   0.021  10.157 -0.4325 -0.0117 -0.0947
 7500SOL    HW134133   2.024   0.053  10.081  1.2446  2.0472  1.8447
 7500SOL    HW234134   1.995   4.664  10.153  0.8205  0.1864  1.0974
 7501SOL     OW34135   0.044   1.560   5.315  0.6743  0.3817 -0.3265
 7501SOL    HW134136   4.687   1.553   5.304  0.8564  0.7091 -2.0156
 7501SOL    HW234137   0.072   1.474   5.284  0.2776  0.4114 -0.7619
 7502SOL     OW34138   2.681   2.476   5.953  0.4609 -0.0369 -0.2488
 7502SOL    HW134139   2.739   2.543   5.990  0.3270 -0.3187  0.4713
 7502SOL    HW234140   2.616   2.525   5.902 -0.5385 -2.1682 -0.9997
 7503SOL     OW34141   1.308   4.394   3.049  0.3434  0.2880 -0.1345
 7503SOL    HW134142   1.220   4.394   3.012  0.1206 -1.3290  0.3761
 7503SOL    HW234143   1.350   4.449   2.983  3.0232  1.2200  2.3537
 7504SOL     OW34144   0.147   1.699   4.023 -0.3334 -0.2563  0.8639
 7504SOL    HW134145   0.066   1.708   3.973  0.1918 -0.8906 -0.1089
 7504SOL    HW234146   0.135   1.606   4.043  1.6758 -0.8046 -0.4279
 7505SOL     OW34147   0.264   1.679   5.067  0.3015 -0.0578 -0.0095
 7505SOL    HW134148   0.210   1.605   5.041 -1.2311  1.8594 -2.2315
 7505SOL    HW234149   0.203   1.736   5.114 -0.1254  1.3654 -2.3363
 7506SOL     OW34150   0.162   2.190   1.426 -0.3407  0.0621  0.1656
 7506SOL    HW134151   0.239   2.134   1.430 -0.4046 -0.1079 -0.9384
 7506SOL    HW234152   0.195   2.266   1.474  2.2912 -1.4591  0.7582
 7507SOL     OW34153   0.218   3.058   8.234  0.3089 -0.2011  0.0714
 7507SOL    HW134154   0.300   3.085   8.275  0.2449 -0.1414  0.1621
 7507SOL    HW234155   0.196   3.133   8.178 -1.2315 -1.0729 -0.5236
 7508SOL     OW34156   1.960   3.554   5.450 -0.1642  0.0791 -0.4805
 7508SOL    HW134157   1.944   3.557   5.544 -0.7507 -0.3189 -0.5709
 7508SOL    HW234158   1.896   3.488   5.423  0.2537 -1.5398  2.5489
 7509SOL     OW34159   4.116   1.597   6.189  0.1202 -0.1402  0.3093
 7509SOL    HW134160   4.067   1.536   6.134  0.1056  0.1950 -0.0563
 7509SOL    HW234161   4.105   1.574   6.281 -1.7852  0.4638  0.2151
 7510SOL     OW34162   1.453   4.084  13.608 -0.4479  0.1321 -0.6325
 7510SOL    HW134163   1.541   4.047  13.601 -0.5895  0.1588 -2.6529
 7510SOL    HW234164   1.472   4.160  13.663 -1.9539 -0.5208  0.7898
 7511SOL     OW34165   2.651   1.810   1.475 -0.3771 -0.0740  0.0052
 7511SOL    HW134166   2.679   1.760   1.551 -0.0732  0.4885  0.2615
 7511SOL    HW234167   2.626   1.739   1.415  0.6584  0.6637 -1.3002
 7512SOL     OW34168   0.754   0.147   6.065 -0.3936 -0.3052  0.4009
 7512SOL    HW134169   0.748   0.157   5.970  1.5664 -0.6363  0.2347
 7512SOL    HW234170   0.733   0.055   6.084 -0.4218 -0.3155  0.3199
 7513SOL     OW34171   0.573   3.208  14.633  0.1177 -0.6482  0.0775
 7513SOL    HW134172   0.497   3.258  14.602  0.0902 -0.4227  0.5077
 7513SOL    HW234173   0.540   3.121  14.655  1.6643 -1.0994  0.5995
 7514SOL     OW34174   2.971   3.847  10.364  0.3154 -0.1189  0.9309
 7514SOL    HW134175   3.032   3.887  10.303  1.3621 -2.1741  0.6290
 7514SOL    HW234176   2.970   3.926  10.417  0.5323  0.2593  0.3655
 7515SOL     OW34177   1.387   3.646  10.702 -0.1613  0.2121  0.2629
 7515SOL    HW134178   1.344   3.568  10.737  0.0947  0.7423  1.7673
 7515SOL    HW234179   1.405   3.689  10.786 -1.5677 -1.5902  1.4895
 7516SOL     OW34180   0.820   4.035   7.123  0.0097 -0.2928  0.8944
 7516SOL    HW134181   0.765   3.957   7.128  1.4350 -1.4864 -1.6691
 7516SOL    HW234182   0.757   4.106   7.125  0.4239  0.0953  0.4045
 7517SOL     OW34183   4.359   1.103  16.444 -0.2060  0.4991 -0.2787
 7517SOL    HW134184   4.421   1.164  16.406  1.3825 -0.6799  0.4264
 7517SOL    HW234185   4.321   1.067  16.364 -2.8952 -1.4329  1.8306
 7518SOL     OW34186   3.028   4.176   6.379 -0.4410 -0.4146 -0.8329
 7518SOL    HW134187   2.935   4.151   6.378  0.3806 -3.5071 -2.6946
 7518SOL    HW234188   3.058   4.124   6.453  0.5178 -1.2145 -1.7712
 7519SOL     OW34189   0.732   0.234   3.653 -0.2427 -0.2597 -0.4229
 7519SOL    HW134190   0.715   0.284   3.573 -2.7913  1.9097  1.4595
 7519SOL    HW234191   0.648   0.228   3.699 -0.2017  2.8179  0.0472
 7520SOL     OW34192   3.948   2.063   8.999 -0.5044  0.0492 -0.4023
 7520SOL    HW134193   3.882   2.119   9.041 -1.6391 -0.9982 -0.7813
 7520SOL    HW234194   3.925   1.970   9.002 -0.9620  0.2375  1.9625
 7521SOL     OW34195   3.730   2.462   3.739 -0.0593 -0.5152  0.3399
 7521SOL    HW134196   3.678   2.404   3.683 -0.4321  0.3812 -0.2416
 7521SOL    HW234197   3.764   2.520   3.671 -0.4437  0.0247  0.6051
 7522SOL     OW34198   2.352   2.065  10.964 -0.1281  0.3297 -0.0407
 7522SOL    HW134199   2.321   2.141  10.914  1.6728  1.0423 -0.0854
 7522SOL    HW234200   2.274   2.056  11.019 -1.6517 -0.4615 -2.3150
 7523SOL     OW34201   1.470   1.787   7.016 -0.4896  0.1477  0.5319
 7523SOL    HW134202   1.386   1.829   6.996 -1.6324 -1.9963  0.8165
 7523SOL    HW234203   1.526   1.817   6.944 -0.7423  0.5201  0.4896
 7524SOL     OW34204   3.482   4.252   4.423  0.3350  0.4914  0.0367
 7524SOL    HW134205   3.421   4.305   4.475  1.1285 -0.0308  1.4968
 7524SOL    HW234206   3.436   4.252   4.339 -0.3780  0.0480  0.4287
 7525SOL     OW34207   2.674   2.133  11.960  0.5564 -0.1629 -0.2551
 7525SOL    HW134208   2.615   2.176  12.022  0.5371  1.0933 -1.1469
 7525SOL    HW234209   2.618   2.129  11.883  1.8298 -0.3735 -1.1715
 7526SOL     OW34210   0.736   2.112  13.836 -0.3163 -0.1617  0.3446
 7526SOL    HW134211   0.827   2.141  13.843 -0.8229  1.3293  0.8701
 7526SOL    HW234212   0.730   2.098  13.741  1.4876 -1.5537  0.4381
 7527SOL     OW34213   1.099   0.080  16.254 -0.1880  0.0872 -0.1380
 7527SOL    HW134214   1.064   0.074  16.165 -1.9304 -0.7591  0.6074
 7527SOL    HW234215   1.157   0.156  16.246  1.9205 -1.3647  1.1306
 7528SOL     OW34216   0.304   1.916   0.253  0.2944  0.0164 -0.0250
 7528SOL    HW134217   0.278   1.958   0.335  0.0214  1.1265 -0.6797
 7528SOL    HW234218   0.256   1.969   0.190  0.0428 -1.3703 -1.0053
 7529SOL     OW34219   3.034   3.829  12.730 -0.1141  0.6210  0.1976
 7529SOL    HW134220   3.112   3.828  12.675 -0.5723 -0.9588 -0.4080
 7529SOL    HW234221   3.041   3.747  12.779 -2.4890  0.7027  0.6950
 7530SOL     OW34222   1.324   1.482   4.620 -0.4556  0.0197 -0.0887
 7530SOL    HW134223   1.276   1.419   4.674  0.2430  0.3821  0.9455
 7530SOL    HW234224   1.337   1.441   4.535  3.1666  0.7610  0.1373
 7531SOL     OW34225   4.402   2.399   8.039  0.5967  0.1948  0.5097
 7531SOL    HW134226   4.404   2.483   7.993  1.4529 -0.6587 -0.9996
 7531SOL    HW234227   4.430   2.418   8.129  2.7808 -0.3786 -0.0483
 7532SOL     OW34228   4.263   4.595  13.490 -0.2145  0.1842  0.2425
 7532SOL    HW134229   4.191   4.543  13.527  3.3200 -4.0493  1.0934
 7532SOL    HW234230   4.215   4.676  13.472  0.8246  0.0518 -3.0081
 7533SOL     OW34231   2.767   4.057   1.588 -0.7625 -0.4066  0.7265
 7533SOL    HW134232   2.686   4.007   1.591 -2.0610  1.7689  2.5278
 7533SOL    HW234233   2.751   4.120   1.659  1.5038  1.9716 -0.8656
 7534SOL     OW34234   3.362   1.101  12.476 -0.2396 -0.5817  0.4916
 7534SOL    HW134235   3.389   1.074  12.388 -0.5661  0.9700 -0.0915
 7534SOL    HW234236   3.415   1.180  12.487 -1.9005  0.5665  0.1690
 7535SOL     OW34237   0.863   2.410   4.409  0.2410  0.1003 -0.3737
 7535SOL    HW134238   0.909   2.388   4.328  1.1106  0.7969 -0.0592
 7535SOL    HW234239   0.882   2.329   4.456  1.6637  0.3090 -0.6098
 7536SOL     OW34240   3.038   4.363  10.250  0.2086 -0.3091 -0.4937
 7536SOL    HW134241   3.065   4.442  10.204  1.1015 -0.2611  0.1082
 7536SOL    HW234242   3.066   4.395  10.336 -2.4965  1.4243 -0.2612
 7537SOL     OW34243   1.330   0.011   8.721  0.3582  0.1122 -0.1296
 7537SOL    HW134244   1.269   0.012   8.795  1.1524 -0.6222  0.5373
 7537SOL    HW234245   1.317   0.095   8.677 -0.5590 -0.0346 -0.1404
 7538SOL     OW34246   3.991   3.584  17.304  0.2068  0.2617  0.2051
 7538SOL    HW134247   3.946   3.541  17.232  0.1240 -0.7243  0.8385
 7538SOL    HW234248   4.018   3.509  17.357 -0.8337 -0.0366  0.3185
 7539SOL     OW34249   3.121   4.468   2.190  0.0080 -0.2948 -0.0509
 7539SOL    HW134250   3.144   4.420   2.110  1.2218 -0.0232  0.1487
 7539SOL    HW234251   3.205   4.482   2.233  0.9693 -1.0126 -1.7129
 7540SOL     OW34252   2.833   1.639   6.685  0.0932 -0.3122 -0.5236
 7540SOL    HW134253   2.744   1.646   6.719 -0.0999 -0.4121 -1.0088
 7540SOL    HW234254   2.885   1.662   6.762 -0.5842  1.3557 -0.5665
 7541SOL     OW34255   0.986   1.773   6.424 -0.0046  0.0039  0.1131
 7541SOL    HW134256   0.935   1.718   6.484 -1.9687  0.3936 -1.1898
 7541SOL    HW234257   1.074   1.737   6.428  0.6828  1.7111  0.2446
 7542SOL     OW34258   2.872   2.052   1.735 -0.5535 -0.1888  0.1254
 7542SOL    HW134259   2.851   2.137   1.773  1.6658  1.1219 -1.5533
 7542SOL    HW234260   2.848   2.063   1.643 -2.6426  0.4229  0.7510
 7543SOL     OW34261   0.498   4.125   7.795  0.0367 -0.3486 -0.5886
 7543SOL    HW134262   0.528   4.216   7.803  2.8382 -1.3262 -0.0536
 7543SOL    HW234263   0.403   4.133   7.789 -0.0612 -0.2325  1.1341
 7544SOL     OW34264   2.635   2.693   9.585 -0.3201 -0.5476 -0.0573
 7544SOL    HW134265   2.593   2.634   9.523 -0.0163 -1.3369  0.4888
 7544SOL    HW234266   2.578   2.675   9.660 -0.4278  3.0946  0.7446
 7545SOL     OW34267   2.053   1.413  11.504 -0.1182  0.4044  0.1918
 7545SOL    HW134268   2.061   1.489  11.447 -2.0127  0.4721 -0.0009
 7545SOL    HW234269   2.083   1.450  11.587  0.3265  1.4948 -0.4624
 7546SOL     OW34270   3.445   2.957   0.467 -0.2437  0.2570 -0.3078
 7546SOL    HW134271   3.481   2.869   0.465 -0.8723 -0.0075  0.1096
 7546SOL    HW234272   3.481   2.994   0.386 -2.0836 -1.3272 -1.8390
 7547SOL     OW34273   2.510   4.467   7.897 -0.2510 -0.1072  0.3236
 7547SOL    HW134274   2.535   4.481   7.988 -1.6377  0.1061  0.6737
 7547SOL    HW234275   2.431   4.518   7.913  1.9027  3.6168 -0.7161
 7548SOL     OW34276   4.730   2.088   6.198  0.3101  0.2633 -0.2931
 7548SOL    HW134277   0.003   2.066   6.291 -2.4176 -0.1126 -0.0730
 7548SOL    HW234278   0.071   2.142   6.195  0.9976 -0.7347 -0.3429
 7549SOL     OW34279   1.904   1.876  13.734 -0.2636  0.0127 -0.7526
 7549SOL    HW134280   1.841   1.880  13.807  0.6642  1.9664 -0.0714
 7549SOL    HW234281   1.981   1.912  13.778 -1.6280  0.3921  1.3540
 7550SOL     OW34282   1.032   2.908   3.539 -0.0523 -0.1733  0.1159
 7550SOL    HW134283   1.006   2.983   3.592  1.0526 -0.4699  1.0779
 7550SOL    HW234284   1.045   2.955   3.456 -0.0611  0.2607  0.3635
 7551SOL     OW34285   3.163   2.315   4.518  0.3361  0.5066 -0.5146
 7551SOL    HW134286   3.172   2.410   4.514  3.7475  0.2465  0.7891
 7551SOL    HW234287   3.204   2.281   4.439 -0.1618  0.6301 -0.8269
 7552SOL     OW34288   2.473   4.044   2.634 -0.6984  0.1984  0.0657
 7552SOL    HW134289   2.465   3.973   2.697  1.4572 -0.2882 -0.1991
 7552SOL    HW234290   2.499   3.992   2.558  0.6440 -1.5753  1.7392
 7553SOL     OW34291   0.623   4.507   1.477  0.0460 -0.4442 -0.3478
 7553SOL    HW134292   0.610   4.422   1.520 -0.8834  0.0596  0.3575
 7553SOL    HW234293   0.536   4.545   1.482  0.7486  1.3053 -1.8118
 7554SOL     OW34294   1.779   0.602  16.888  0.3884 -0.1667 -0.3068
 7554SOL    HW134295   1.873   0.617  16.883  0.5773 -1.0725  0.5205
 7554SOL    HW234296   1.742   0.690  16.894  0.2280 -0.4613  2.8464
 7555SOL     OW34297   0.460   1.237  12.173  0.2009 -0.0246  0.4861
 7555SOL    HW134298   0.476   1.309  12.113  0.5163 -1.4858 -1.1628
 7555SOL    HW234299   0.494   1.259  12.260 -0.7548 -0.2303  0.9137
 7556SOL     OW34300   2.484   1.596   1.770  0.9530 -0.1729 -0.1369
 7556SOL    HW134301   2.553   1.545   1.728 -0.4738 -0.6592 -1.9269
 7556SOL    HW234302   2.425   1.610   1.696  0.7267 -1.6912 -0.2475
 7557SOL     OW34303   3.047   1.486  11.152  0.3232 -0.6030 -0.2772
 7557SOL    HW134304   2.966   1.463  11.197  0.7187 -2.4882 -0.5215
 7557SOL    HW234305   3.070   1.409  11.099  1.7249  1.0948 -2.1349
 7558SOL     OW34306   4.134   3.625   9.632 -0.0447 -0.0419  0.8992
 7558SOL    HW134307   4.072   3.562   9.667 -1.3303 -0.8636 -2.8587
 7558SOL    HW234308   4.191   3.555   9.602  0.0344 -0.1289  1.2515
 7559SOL     OW34309   3.744   2.126   4.232  0.1489  0.0168 -0.1160
 7559SOL    HW134310   3.814   2.172   4.185 -0.5326  0.4152 -0.7238
 7559SOL    HW234311   3.756   2.036   4.202 -1.1688 -0.1542 -0.0946
 7560SOL     OW34312   2.010   3.998  13.519  0.2468 -0.0237 -0.3215
 7560SOL    HW134313   1.932   4.010  13.573  0.8523 -0.3083  0.6216
 7560SOL    HW234314   2.050   4.080  13.548  1.8078 -0.0264 -2.4455
 7561SOL     OW34315   4.704   2.367   5.019  0.0114 -0.0586 -0.2394
 7561SOL    HW134316   4.736   2.277   5.017 -1.6806 -0.6844  0.9501
 7561SOL    HW234317   4.608   2.361   5.015  0.0321  0.1652 -1.1945
 7562SOL     OW34318   4.442   1.090   7.042  0.2891 -0.2745  0.2579
 7562SOL    HW134319   4.391   1.166   7.070  0.0124  0.2913 -1.7692
 7562SOL    HW234320   4.468   1.113   6.953  0.6999 -1.3113  0.1058
 7563SOL     OW34321   4.475   1.590  11.502  0.2278  0.0690  0.3755
 7563SOL    HW134322   4.568   1.570  11.494  0.0565 -0.1659 -1.1525
 7563SOL    HW234323   4.447   1.515  11.553 -0.7991 -0.5509 -1.1086
 7564SOL     OW34324   3.723   4.518   8.985 -0.4129 -0.1054  0.6781
 7564SOL    HW134325   3.672   4.502   8.906  1.5126 -1.0387 -0.3817
 7564SOL    HW234326   3.716   4.435   9.031  1.8131 -0.9675 -0.5428
 7565SOL     OW34327   2.419   3.508   5.647  0.4391 -0.4531 -0.1598
 7565SOL    HW134328   2.401   3.478   5.557 -0.8924  2.1347 -0.7582
 7565SOL    HW234329   2.449   3.422   5.674  0.3070 -0.3099  0.4340
 7566SOL     OW34330   1.305   4.224   6.238  0.7985 -0.2097  0.0825
 7566SOL    HW134331   1.389   4.185   6.263  0.5186  0.6093  2.3465
 7566SOL    HW234332   1.278   4.169   6.165 -3.0889 -0.2979  1.5703
 7567SOL     OW34333   0.796   3.079  14.532 -0.3768  0.1980 -0.1767
 7567SOL    HW134334   0.714   3.127  14.547 -1.4878 -1.6507 -0.3028
 7567SOL    HW234335   0.817   3.117  14.447 -0.7356 -1.1014 -0.8442
 7568SOL     OW34336   0.788   2.309   2.189  0.9348 -0.1577 -0.9912
 7568SOL    HW134337   0.833   2.313   2.104  2.7145  0.6381 -0.0089
 7568SOL    HW234338   0.702   2.344   2.165  0.4311  0.1323  1.2277
 7569SOL     OW34339   3.622   1.542   3.211 -0.6239  0.0301  0.0729
 7569SOL    HW134340   3.655   1.452   3.204 -0.5999  0.0049  0.4786
 7569SOL    HW234341   3.679   1.574   3.141 -1.4681  2.0537  0.3115
 7570SOL     OW34342   2.427   0.860   5.807  0.5289  0.5329  0.9047
 7570SOL    HW134343   2.400   0.837   5.896  1.3400 -2.7212  0.3092
 7570SOL    HW234344   2.417   0.955   5.804 -1.4169  0.3274  1.3754
 7571SOL     OW34345   1.092   0.517  11.859 -0.2278 -0.0354 -0.0049
 7571SOL    HW134346   1.083   0.527  11.764  0.6626 -1.3142 -0.2288
 7571SOL    HW234347   1.006   0.537  11.895 -1.1257 -0.5370 -1.8721
 7572SOL     OW34348   2.787   3.289   1.087 -0.4543  0.2382  0.3599
 7572SOL    HW134349   2.736   3.333   1.019  1.7655 -0.1330 -1.5416
 7572SOL    HW234350   2.790   3.208   1.037  2.6776  1.8364 -2.0826
 7573SOL     OW34351   4.657   0.215  16.211 -0.1710 -0.2553 -0.0335
 7573SOL    HW134352   4.646   0.307  16.234  1.5406 -0.0149 -0.2056
 7573SOL    HW234353   4.594   0.210  16.139 -2.0515  1.5450  1.5078
 7574SOL     OW34354   2.906   3.730   9.222 -0.4358  0.4643  1.0198
 7574SOL    HW134355   2.954   3.663   9.270  0.5949  0.7211  0.3527
 7574SOL    HW234356   2.878   3.689   9.140 -0.5537 -0.2050  1.3972
 7575SOL     OW34357   2.287   0.192  11.843  0.4707 -0.0673  0.4695
 7575SOL    HW134358   2.316   0.269  11.794  1.2152 -1.7379 -1.7189
 7575SOL    HW234359   2.260   0.233  11.925 -1.6710  0.5433 -0.5347
 7576SOL     OW34360   0.837   2.708   8.313 -0.0392  0.2305 -0.5741
 7576SOL    HW134361   0.882   2.650   8.252  1.8383 -0.7411  1.7337
 7576SOL    HW234362   0.906   2.718   8.378 -1.2487  1.1595  0.5745
 7577SOL     OW34363   2.819   2.684   9.094  0.5535  0.2543 -0.4560
 7577SOL    HW134364   2.785   2.603   9.133 -0.5916  1.5268  1.1747
 7577SOL    HW234365   2.745   2.744   9.105 -1.2130 -2.2156  1.2447
 7578SOL     OW34366   2.140   3.398   5.261  0.0845 -0.2296  0.1940
 7578SOL    HW134367   2.112   3.307   5.270  1.8355 -0.7372  0.4570
 7578SOL    HW234368   2.064   3.454   5.244  1.3724  0.8508 -1.8771
 7579SOL     OW34369   1.343   2.222   4.459  0.0138 -0.1849 -0.7007
 7579SOL    HW134370   1.321   2.304   4.415  1.4902  0.8214  0.4527
 7579SOL    HW234371   1.311   2.157   4.396 -0.4787  0.1011 -0.7473
 7580SOL     OW34372   4.140   0.204  10.708  0.3648  0.8143  0.3049
 7580SOL    HW134373   4.212   0.171  10.763  0.1099  2.0412  1.3622
 7580SOL    HW234374   4.086   0.125  10.707 -1.4523  2.0657  0.6558
 7581SOL     OW34375   3.574   2.895   9.443 -0.3873  0.2923 -0.3658
 7581SOL    HW134376   3.541   2.814   9.481 -1.9540  0.6903 -0.8627
 7581SOL    HW234377   3.496   2.949   9.458 -0.6661 -0.4168  0.6980
 7582SOL     OW34378   3.922   4.009  11.376 -0.1772 -0.1802  0.5272
 7582SOL    HW134379   3.990   4.071  11.404 -0.5253  1.4268 -2.1864
 7582SOL    HW234380   3.915   3.944  11.446  0.5479 -0.9636 -0.1327
 7583SOL     OW34381   3.980   4.475   8.471 -0.2982  0.2448 -0.4063
 7583SOL    HW134382   3.961   4.565   8.445  1.7026  1.1774  1.3395
 7583SOL    HW234383   4.025   4.430   8.399 -1.2905 -1.0015 -0.2489
 7584SOL     OW34384   2.670   1.570   7.849 -0.3312  0.1290  0.6774
 7584SOL    HW134385   2.648   1.487   7.892  2.0712  0.1336  1.9377
 7584SOL    HW234386   2.755   1.589   7.888 -0.4730 -0.0976  1.0983
 7585SOL     OW34387   0.229   1.289   4.477  0.2253 -0.0557  0.1075
 7585SOL    HW134388   0.300   1.240   4.519  1.0940  0.1453 -1.1098
 7585SOL    HW234389   0.270   1.376   4.470 -1.3513  0.8322  1.8474
 7586SOL     OW34390   3.833   3.719   7.477 -0.3462 -0.3115 -0.4043
 7586SOL    HW134391   3.820   3.685   7.388 -0.1811 -0.5496 -0.3369
 7586SOL    HW234392   3.926   3.700   7.489  0.1962  1.3324 -1.8276
 7587SOL     OW34393   1.234   1.970  14.266 -0.1296 -0.0062 -0.0365
 7587SOL    HW134394   1.250   2.042  14.205 -0.3743  1.0362  1.1344
 7587SOL    HW234395   1.306   1.968  14.329  0.2057  2.1603 -0.3847
 7588SOL     OW34396   4.531   2.997   2.658  0.0462 -0.0102 -0.4285
 7588SOL    HW134397   4.549   3.039   2.742 -0.0670 -0.7589 -0.0322
 7588SOL    HW234398   4.605   2.937   2.664  1.0472  1.5247  2.6577
 7589SOL     OW34399   3.894   2.631   5.653  0.4416 -0.7529  0.0120
 7589SOL    HW134400   3.801   2.649   5.644  0.4807 -0.2802  0.5695
 7589SOL    HW234401   3.941   2.682   5.587 -0.9306 -0.9729 -1.1282
 7590SOL     OW34402   3.758   3.974   8.747 -0.0917 -0.0016 -0.3972
 7590SOL    HW134403   3.713   3.935   8.672 -1.0601 -1.0031  0.6994
 7590SOL    HW234404   3.723   3.925   8.822  0.6742 -1.1609 -0.8066
 7591SOL     OW34405   0.938   2.024   2.923  0.0678  0.0760  0.9739
 7591SOL    HW134406   1.029   2.017   2.953  0.7318 -1.1805 -1.3385
 7591SOL    HW234407   0.934   1.949   2.864  0.9239  1.0745 -0.3516
 7592SOL     OW34408   2.707   0.994   2.710 -0.5032 -0.0932  0.2852
 7592SOL    HW134409   2.773   1.018   2.646 -1.5017 -0.5474 -0.9196
 7592SOL    HW234410   2.648   0.939   2.658  0.3084  0.1621 -0.9095
 7593SOL     OW34411   2.968   3.662   2.582  0.1779 -0.0774 -0.2866
 7593SOL    HW134412   3.003   3.596   2.641 -1.3439 -0.2896  0.3673
 7593SOL    HW234413   2.908   3.707   2.641  1.6692 -1.3962  2.2218
 7594SOL     OW34414   1.892   2.564   6.913 -0.3526  0.0511  0.0847
 7594SOL    HW134415   1.907   2.471   6.925  0.8751  0.0564 -1.3402
 7594SOL    HW234416   1.885   2.570   6.817 -0.7122  0.5840  0.1399
 7595SOL     OW34417   3.394   3.196   3.869  0.3423 -0.5203 -0.1821
 7595SOL    HW134418   3.299   3.196   3.856  0.2157  2.2976  0.8175
 7595SOL    HW234419   3.409   3.263   3.935  2.5049 -1.1041 -0.0876
 7596SOL     OW34420   2.701   0.937   8.645 -0.5667  0.0190  0.0178
 7596SOL    HW134421   2.627   0.989   8.677 -1.2911 -0.7854 -0.3660
 7596SOL    HW234422   2.657   0.886   8.577  0.1068 -1.4699  0.7209
 7597SOL     OW34423   4.241   2.449   1.810 -0.0331 -0.0867 -0.1701
 7597SOL    HW134424   4.308   2.476   1.748  0.5721 -0.6370  0.2428
 7597SOL    HW234425   4.168   2.508   1.790 -0.5610 -1.0246 -1.0268
 7598SOL     OW34426   1.877   4.570   2.101  0.3563  0.5128  0.2060
 7598SOL    HW134427   1.873   4.613   2.186 -2.1289  3.4292 -1.4079
 7598SOL    HW234428   1.820   4.496   2.121  2.9736 -1.5676 -0.0232
 7599SOL     OW34429   2.306   0.237   2.330  0.3011  0.1863 -0.2710
 7599SOL    HW134430   2.388   0.197   2.301 -1.3777 -1.5638 -2.6812
 7599SOL    HW234431   2.334   0.297   2.399  1.1926 -2.1031  1.3634
 7600SOL     OW34432   1.408   4.160   2.405  0.4332  0.3392  0.2405
 7600SOL    HW134433   1.499   4.180   2.424  0.0211  1.1655  1.3477
 7600SOL    HW234434   1.409   4.065   2.390  2.7703  0.6456 -1.5708
 7601SOL     OW34435   2.414   2.629  16.605 -0.0522  0.0823  0.1296
 7601SOL    HW134436   2.508   2.649  16.604 -0.2952  1.2468  0.8463
 7601SOL    HW234437   2.374   2.717  16.601  1.6096  0.7536 -1.8101
 7602SOL     OW34438   4.484   2.189   8.562  0.9727  0.3265 -0.6482
 7602SOL    HW134439   4.569   2.222   8.591  1.1126  0.7044 -1.5096
 7602SOL    HW234440   4.440   2.208   8.645  1.3873  0.4749 -0.4619
 7603SOL     OW34441   4.647   4.143  13.179  0.1647 -0.4796  0.3107
 7603SOL    HW134442   4.727   4.153  13.232  0.9921 -0.4346 -0.9382
 7603SOL    HW234443   4.607   4.083  13.242 -0.3190  0.4577  0.8838
 7604SOL     OW34444   1.397   0.891   3.590 -0.6568 -0.0711 -0.1845
 7604SOL    HW134445   1.324   0.866   3.647 -0.0041  0.3047  0.8164
 7604SOL    HW234446   1.472   0.861   3.641 -0.7030 -2.7002 -1.6661
 7605SOL     OW34447   0.428   1.911  11.778 -0.6779  0.2530 -0.1969
 7605SOL    HW134448   0.489   1.982  11.797  0.3438 -0.4784 -0.7201
 7605SOL    HW234449   0.347   1.943  11.739 -0.7669 -0.9367 -1.0228
 7606SOL     OW34450   1.412   1.035   4.357  0.2501  0.6766  0.0400
 7606SOL    HW134451   1.484   0.985   4.395  1.2395  1.0316 -1.3472
 7606SOL    HW234452   1.462   1.086   4.293 -0.3742  1.6243  0.3056
 7607SOL     OW34453   1.208   0.867   3.138 -0.3893 -0.2951  0.4356
 7607SOL    HW134454   1.249   0.825   3.213  1.0395  1.5929  0.6934
 7607SOL    HW234455   1.170   0.942   3.183 -0.1544  0.0626  0.0392
 7608SOL     OW34456   3.843   1.820   7.322  0.1017  0.4470  0.6683
 7608SOL    HW134457   3.790   1.820   7.242 -1.1740 -3.5468  1.5309
 7608SOL    HW234458   3.776   1.836   7.389  0.5183  3.6288  0.3183
 7609SOL     OW34459   1.637   0.145  12.459 -0.3508  0.3092 -0.2518
 7609SOL    HW134460   1.641   0.070  12.399 -1.1536 -1.9065  2.4694
 7609SOL    HW234461   1.544   0.169  12.456 -0.0005  1.9845  2.5884
 7610SOL     OW34462   3.261   3.506  12.316  0.5017 -0.5210 -0.1687
 7610SOL    HW134463   3.348   3.482  12.347  2.0591  2.1983 -2.4872
 7610SOL    HW234464   3.207   3.520  12.394 -1.7624  1.6558 -2.1429
 7611SOL     OW34465   4.408   2.249   3.407  0.1638  0.0532  0.3272
 7611SOL    HW134466   4.392   2.332   3.362 -0.0730 -0.5908 -0.7680
 7611SOL    HW234467   4.457   2.195   3.346 -1.9822 -0.5171 -0.8544
 7612SOL     OW34468   1.916   0.939   8.542 -0.0638 -0.3010  0.0242
 7612SOL    HW134469   1.948   0.934   8.452  2.2168 -0.1548  0.8225
 7612SOL    HW234470   1.950   1.026   8.561  1.4877 -1.3171  1.9254
 7613SOL     OW34471   3.202   4.078  17.059 -0.0781 -0.0846 -0.3612
 7613SOL    HW134472   3.121   4.107  17.018 -1.9108 -0.2081  3.0963
 7613SOL    HW234473   3.241   4.012  17.002  1.6388 -1.0694  1.8975
 7614SOL     OW34474   0.327   3.278   5.000  0.5835 -0.7160 -0.3253
 7614SOL    HW134475   0.403   3.294   5.056  0.6834  0.3818 -0.7710
 7614SOL    HW234476   0.342   3.341   4.930 -2.4532 -0.1681 -0.4357
 7615SOL     OW34477   2.241   0.855   3.606  0.1509 -0.3129  0.7326
 7615SOL    HW134478   2.231   0.768   3.643 -0.6410 -0.7341 -0.4618
 7615SOL    HW234479   2.150   0.885   3.611 -0.1051 -0.9251 -0.0753
 7616SOL     OW34480   1.937   3.493   5.051  0.3253 -0.7115 -0.5932
 7616SOL    HW134481   1.945   3.397   5.053 -0.3868 -0.7317  1.4799
 7616SOL    HW234482   1.856   3.503   5.101  0.9208 -1.1675  0.4683
 7617SOL     OW34483   1.284   0.225   3.889 -1.3106 -0.0947 -0.3325
 7617SOL    HW134484   1.317   0.299   3.940 -0.1053 -0.3853 -0.7032
 7617SOL    HW234485   1.364   0.178   3.868 -1.2175 -0.6558  1.2266
 7618SOL     OW34486   1.956   2.802   9.878 -0.3923  0.1216  0.2452
 7618SOL    HW134487   2.014   2.782   9.805  0.3554  1.0282  0.6067
 7618SOL    HW234488   2.001   2.880   9.908  1.9275 -1.2560  0.2908
 7619SOL     OW34489   1.253   0.813   9.248  0.3030  0.3138  0.1516
 7619SOL    HW134490   1.264   0.770   9.333  0.6985  2.3028  1.1024
 7619SOL    HW234491   1.341   0.810   9.211  0.7289 -0.4807  1.2218
 7620SOL     OW34492   2.191   0.590  17.520  0.2894 -0.4121  0.3006
 7620SOL    HW134493   2.209   0.674  17.563  0.4600 -0.4398  0.2842
 7620SOL    HW234494   2.211   0.616  17.430  0.4792 -1.3678  0.0687
 7621SOL     OW34495   2.366   3.482   2.398 -0.2652  0.4309  0.8060
 7621SOL    HW134496   2.271   3.470   2.399 -0.3973  1.4601  0.7543
 7621SOL    HW234497   2.409   3.412   2.349 -1.4205  0.2847 -0.0224
 7622SOL     OW34498   1.735   3.165   8.404 -0.5608 -0.2986 -0.4009
 7622SOL    HW134499   1.737   3.250   8.448  3.8116 -0.8072  0.4370
 7622SOL    HW234500   1.684   3.187   8.327  1.4912  2.3669 -0.9620
 7623SOL     OW34501   1.996   0.446   6.035  0.3119 -0.4022  0.4690
 7623SOL    HW134502   2.079   0.411   6.002 -0.8073 -1.8782 -0.7883
 7623SOL    HW234503   1.940   0.368   6.028 -2.4205  1.6331 -0.4899
 7624SOL     OW34504   3.090   0.491   5.151 -0.0957 -0.0248 -0.2701
 7624SOL    HW134505   3.127   0.502   5.239 -0.2614 -1.2029 -0.0495
 7624SOL    HW234506   2.998   0.495   5.179  0.3281 -1.1060  1.2749
 7625SOL     OW34507   0.708   0.702   5.558  0.2496 -0.2454 -0.0888
 7625SOL    HW134508   0.784   0.643   5.554  1.4276  1.3607 -1.0616
 7625SOL    HW234509   0.705   0.721   5.652 -0.7738  1.4816 -0.4807
 7626SOL     OW34510   3.995   1.525   5.504  0.2885 -0.6031 -0.2629
 7626SOL    HW134511   3.960   1.527   5.593  0.9017  2.9767 -0.0997
 7626SOL    HW234512   3.971   1.616   5.484  1.5691 -0.1775  0.0866
 7627SOL     OW34513   2.394   3.092   9.451  0.5532  0.0265 -0.5391
 7627SOL    HW134514   2.474   3.039   9.451  1.7123  1.7772 -1.1245
 7627SOL    HW234515   2.411   3.140   9.531 -0.0201  1.2007 -1.1124
 7628SOL     OW34516   1.135   0.139  11.795  0.5184  0.2702 -0.4879
 7628SOL    HW134517   1.122   0.193  11.717  0.9540  0.1549 -0.6419
 7628SOL    HW234518   1.231   0.145  11.799  0.5495 -1.3921  1.6792
 7629SOL     OW34519   1.702   0.256   7.661  0.6701 -0.3068  0.6452
 7629SOL    HW134520   1.672   0.167   7.682 -0.6205  0.3932  1.7999
 7629SOL    HW234521   1.795   0.243   7.676  0.9217  0.4205 -0.3187
 7630SOL     OW34522   3.112   2.342   9.303 -0.3133  0.4352  0.4566
 7630SOL    HW134523   3.038   2.282   9.306 -0.7708  0.8974 -1.6933
 7630SOL    HW234524   3.176   2.294   9.252 -0.9943 -0.4898  0.4797
 7631SOL     OW34525   1.278   0.044   9.601 -0.1804 -0.2824 -0.0861
 7631SOL    HW134526   1.220   0.114   9.573  0.7510  0.9650  1.0951
 7631SOL    HW234527   1.251   4.703   9.553 -0.9627 -0.3203  0.4166
 7632SOL     OW34528   1.481   0.606   4.479 -0.6003  0.4060 -0.1693
 7632SOL    HW134529   1.392   0.614   4.446 -1.2186 -2.5776  0.7971
 7632SOL    HW234530   1.454   0.575   4.565 -2.6717  1.4819 -0.4461
 7633SOL     OW34531   4.541   1.131  11.386 -1.1918  0.1429  0.2745
 7633SOL    HW134532   4.493   1.057  11.349 -1.8747  1.3499 -1.2697
 7633SOL    HW234533   4.627   1.124  11.344 -1.0905 -2.2447  0.8836
 7634SOL     OW34534   4.351   3.646   2.356 -0.0171  0.4395 -0.6591
 7634SOL    HW134535   4.266   3.683   2.379  0.7163  1.8278 -0.1579
 7634SOL    HW234536   4.339   3.662   2.262  3.2313 -0.7085 -1.2940
 7635SOL     OW34537   3.101   4.396   4.160 -0.3053 -0.1572 -0.0745
 7635SOL    HW134538   3.051   4.466   4.118 -0.9788 -0.5065  0.1345
 7635SOL    HW234539   3.028   4.344   4.197  0.3172 -1.5135 -0.7600
 7636SOL     OW34540   4.722   2.329   2.483 -0.1127  0.2405 -0.3391
 7636SOL    HW134541   0.003   2.410   2.529  1.6424  0.3553 -1.2045
 7636SOL    HW234542   4.634   2.313   2.516  1.0297 -1.4838  1.8808
 7637SOL     OW34543   4.657   1.728   3.035 -0.0147 -1.2213 -0.3198
 7637SOL    HW134544   4.584   1.739   2.974 -0.8807 -0.6480  0.8319
 7637SOL    HW234545   4.724   1.779   2.989 -0.4719 -1.8381 -1.6656
 7638SOL     OW34546   3.956   3.474   5.083  0.1103 -0.1363 -0.5464
 7638SOL    HW134547   3.999   3.424   5.014  2.1094 -0.3236  0.8377
 7638SOL    HW234548   3.964   3.561   5.044 -1.3960  1.1951  2.0729
 7639SOL     OW34549   2.602   3.448   1.824 -0.0285 -0.2777  0.2347
 7639SOL    HW134550   2.603   3.422   1.732 -0.9146 -0.4233  0.2656
 7639SOL    HW234551   2.697   3.442   1.833 -0.2138 -1.8591  1.1506
 7640SOL     OW34552   1.836   2.309   8.108 -0.0941 -0.2357 -0.4323
 7640SOL    HW134553   1.821   2.235   8.049 -0.6280  0.1696 -0.8081
 7640SOL    HW234554   1.747   2.340   8.089 -0.0661 -0.1103 -0.3531
 7641SOL     OW34555   4.597   3.714   3.644 -0.4586  0.1884 -0.2471
 7641SOL    HW134556   4.543   3.793   3.637 -2.4493 -1.4229 -2.9881
 7641SOL    HW234557   4.603   3.701   3.739 -2.2646  0.2550 -0.1375
 7642SOL     OW34558   2.696   2.644   0.320  0.1876  0.3645  0.1377
 7642SOL    HW134559   2.677   2.591   0.243  1.0836  0.7598 -0.3591
 7642SOL    HW234560   2.742   2.714   0.274  2.3254 -0.9187  0.2857
 7643SOL     OW34561   3.291   1.616  11.890  0.7224 -0.2023 -0.1372
 7643SOL    HW134562   3.381   1.603  11.918 -0.0039 -1.1438  1.7324
 7643SOL    HW234563   3.278   1.705  11.924 -1.1587  0.1037 -1.6090
 7644SOL     OW34564   3.627   3.563  14.398 -0.2629 -0.1829  0.2845
 7644SOL    HW134565   3.653   3.471  14.405 -0.4871 -0.2161  0.6905
 7644SOL    HW234566   3.699   3.588  14.340  0.1708  0.3976  1.0640
 7645SOL     OW34567   1.260   3.024   7.701 -0.3584  0.1743  0.0460
 7645SOL    HW134568   1.189   3.042   7.639 -0.3156 -0.5865 -0.2182
 7645SOL    HW234569   1.232   3.061   7.785  0.0649  2.5235 -0.8432
 7646SOL     OW34570   1.890   0.177  15.197  0.9022  0.5777 -0.0157
 7646SOL    HW134571   1.846   0.127  15.128  0.1312 -1.0706  1.6803
 7646SOL    HW234572   1.853   0.264  15.185 -1.1638 -0.4499 -1.0975
 7647SOL     OW34573   4.373   3.012   8.498  0.2712  0.3076 -0.2002
 7647SOL    HW134574   4.374   3.009   8.593  0.6718  0.8981 -0.1869
 7647SOL    HW234575   4.278   3.004   8.489  0.1333  3.6090 -1.6715
 7648SOL     OW34576   1.656   2.953   4.976 -0.5922  0.3589  0.0146
 7648SOL    HW134577   1.574   2.989   4.944  0.0637  0.1216 -1.9080
 7648SOL    HW234578   1.675   3.020   5.042 -1.4465 -0.1281  0.7648
 7649SOL     OW34579   4.682   4.439  13.211 -0.3286 -0.0818  0.4758
 7649SOL    HW134580   4.593   4.408  13.228 -0.8837  1.2969  0.0565
 7649SOL    HW234581   4.732   4.376  13.263 -1.8478 -2.1864 -0.5903
 7650SOL     OW34582   1.681   1.124   6.955  0.2722  0.4537  0.2740
 7650SOL    HW134583   1.660   1.169   7.036 -1.4794  0.9979 -0.4731
 7650SOL    HW234584   1.592   1.127   6.919  0.1857 -3.3225  0.1309
 7651SOL     OW34585   1.674   0.598   8.168 -0.3854  0.2978 -1.1429
 7651SOL    HW134586   1.660   0.538   8.095 -1.0012 -1.2957  0.2783
 7651SOL    HW234587   1.715   0.543   8.236  2.0324  1.7889 -1.4013
 7652SOL     OW34588   2.505   0.877   3.659  0.2855  0.1430  0.8200
 7652SOL    HW134589   2.518   0.970   3.676 -2.8146  0.9520 -1.2635
 7652SOL    HW234590   2.410   0.867   3.669  0.2121  0.0265 -0.0253
 7653SOL     OW34591   2.161   1.338  13.307 -0.6317  0.1738  0.1980
 7653SOL    HW134592   2.165   1.291  13.390 -0.0872  2.1170  1.2634
 7653SOL    HW234593   2.126   1.269  13.251 -1.1483 -1.0914  2.0932
 7654SOL     OW34594   4.260   4.698   4.122 -0.3105  0.7396  0.3165
 7654SOL    HW134595   4.279   0.021   4.050  1.9031  1.2627  1.3523
 7654SOL    HW234596   4.240   4.618   4.072  2.8403 -0.4101  0.8581
 7655SOL     OW34597   0.367   3.763   9.037  0.3860  0.0724  0.2028
 7655SOL    HW134598   0.406   3.686   8.996 -0.9088  0.0978 -1.1059
 7655SOL    HW234599   0.445   3.785   9.088 -0.7021  0.2195  1.8075
 7656SOL     OW34600   3.931   0.519   2.907 -0.4112 -0.1713  0.4491
 7656SOL    HW134601   4.009   0.573   2.896 -0.3509 -0.7106 -1.7490
 7656SOL    HW234602   3.919   0.531   3.001  0.4438  0.4613  0.4757
 7657SOL     OW34603   3.589   1.587  17.521  0.3478  0.5238 -0.1606
 7657SOL    HW134604   3.538   1.576  17.602 -0.5832  0.3156 -0.7703
 7657SOL    HW234605   3.678   1.608  17.549  0.3723  2.0314 -1.3840
 7658SOL     OW34606   3.212   1.361  16.032 -0.7890  0.3452 -0.5504
 7658SOL    HW134607   3.154   1.284  16.024 -1.7151  1.0562 -0.6835
 7658SOL    HW234608   3.215   1.388  15.940  1.8932 -1.1470 -0.8992
 7659SOL     OW34609   3.181   0.268   9.982  0.2370  0.2509  0.1245
 7659SOL    HW134610   3.134   0.184   9.979 -0.9807  0.9457 -0.0423
 7659SOL    HW234611   3.256   0.254   9.924  0.8296  1.2840  0.6456
 7660SOL     OW34612   4.198   2.043   2.590  0.4209 -0.0942 -0.0875
 7660SOL    HW134613   4.286   2.009   2.576  1.2942  1.8225  0.7985
 7660SOL    HW234614   4.210   2.104   2.662 -1.9291 -0.4641  0.6236
 7661SOL     OW34615   1.651   2.539   4.280 -0.1346 -0.3630  0.2642
 7661SOL    HW134616   1.684   2.456   4.247 -1.2623 -1.8990  3.0006
 7661SOL    HW234617   1.712   2.597   4.234 -0.8476  0.4236  0.3040
 7662SOL     OW34618   3.065   0.293  16.808 -0.0489  0.4708 -0.1389
 7662SOL    HW134619   3.151   0.252  16.820 -0.5170 -0.8568 -1.3039
 7662SOL    HW234620   3.056   0.331  16.895 -0.2636  0.2527 -0.0676
 7663SOL     OW34621   3.703   0.296   8.650  0.2883 -0.0113 -0.0251
 7663SOL    HW134622   3.616   0.300   8.690 -0.0990 -0.0400 -0.8690
 7663SOL    HW234623   3.740   0.381   8.673  0.9032 -0.0573 -0.8582
 7664SOL     OW34624   2.939   3.295   7.222  0.2330  0.1006  0.0259
 7664SOL    HW134625   2.994   3.345   7.282  0.8051 -0.1379 -0.3014
 7664SOL    HW234626   2.853   3.339   7.226  0.5559  0.7214  0.1467
 7665SOL     OW34627   4.602   2.614   4.707 -0.0587  0.2365 -0.1961
 7665SOL    HW134628   4.659   2.544   4.675  0.7864  0.2171  1.3245
 7665SOL    HW234629   4.661   2.678   4.747 -0.1372 -0.3041  0.7854
 7666SOL     OW34630   2.170   3.955   4.494 -0.6823 -0.3128 -0.4346
 7666SOL    HW134631   2.248   3.971   4.547 -0.5618  0.8812 -0.9616
 7666SOL    HW234632   2.200   3.969   4.404 -0.3014 -1.2267 -0.4475
 7667SOL     OW34633   4.109   3.474   8.958  0.1646 -0.0208 -0.1807
 7667SOL    HW134634   4.162   3.531   9.013  0.5308  1.1039 -1.6986
 7667SOL    HW234635   4.062   3.429   9.028  1.4735 -2.4395 -0.8652
 7668SOL     OW34636   2.590   0.424   3.745  0.0253  0.7190  0.2621
 7668SOL    HW134637   2.647   0.500   3.731  0.4368  0.5837  1.2281
 7668SOL    HW234638   2.651   0.350   3.746 -0.8984 -0.0344  0.1843
 7669SOL     OW34639   0.786   2.268   4.827  0.4831  0.0225 -1.1809
 7669SOL    HW134640   0.814   2.225   4.909  0.3076  0.1700 -1.0435
 7669SOL    HW234641   0.692   2.249   4.828 -0.0481  2.8246  0.0951
 7670SOL     OW34642   2.866   4.577   1.371 -0.3928 -0.1586 -0.3792
 7670SOL    HW134643   2.911   4.514   1.426 -2.7766 -2.1150 -0.6450
 7670SOL    HW234644   2.819   4.626   1.439  1.1866  0.8312 -0.0065
 7671SOL     OW34645   1.467   0.584  17.448 -0.7056 -0.1450  0.2792
 7671SOL    HW134646   1.403   0.653  17.430  1.0675  0.8084 -2.3999
 7671SOL    HW234647   1.444   0.546  17.533 -1.2725 -1.1249 -0.3017
 7672SOL     OW34648   1.498   4.541  10.453  0.4247  0.5571 -0.0546
 7672SOL    HW134649   1.465   4.459  10.490  1.3442  0.6115  0.8949
 7672SOL    HW234650   1.468   4.603  10.520 -1.3947  0.5080 -0.8218
 7673SOL     OW34651   1.991   3.191   8.143  0.2009 -0.4910  0.8958
 7673SOL    HW134652   1.976   3.280   8.110  0.7159 -0.1931  1.4769
 7673SOL    HW234653   1.993   3.144   8.060 -0.3334  1.4738 -0.2325
 7674SOL     OW34654   4.618   4.160   9.287 -0.1275 -0.2804  0.1104
 7674SOL    HW134655   4.566   4.228   9.244 -0.6465 -1.5899 -1.3404
 7674SOL    HW234656   4.625   4.098   9.215 -1.9626 -0.0114 -0.3044
 7675SOL     OW34657   0.922   0.860   2.875 -0.0606 -0.1587 -0.0841
 7675SOL    HW134658   0.829   0.859   2.852  0.1271 -2.1864 -0.7961
 7675SOL    HW234659   0.930   0.765   2.886 -3.1227 -0.1499  2.2950
 7676SOL     OW34660   2.150   4.089   8.547 -0.0339  0.5406  0.2171
 7676SOL    HW134661   2.167   4.021   8.612 -2.4776 -0.2507  0.0511
 7676SOL    HW234662   2.068   4.058   8.508 -0.6361 -0.6396  2.4126
 7677SOL     OW34663   4.215   0.114  12.056  0.4700 -0.1913  0.2956
 7677SOL    HW134664   4.289   0.056  12.075  1.5117  0.4627 -1.7657
 7677SOL    HW234665   4.245   0.151  11.974 -2.4195 -1.1618 -1.2029
 7678SOL     OW34666   4.467   4.198   7.125 -0.6335  0.2672 -0.8525
 7678SOL    HW134667   4.470   4.264   7.194  1.0508 -0.0849 -0.6001
 7678SOL    HW234668   4.551   4.158   7.147  0.0108  2.0533 -0.0549
 7679SOL     OW34669   0.483   2.682   4.691 -0.2855  0.0798  0.1193
 7679SOL    HW134670   0.518   2.605   4.736  2.0228  0.8344 -0.4263
 7679SOL    HW234671   0.518   2.668   4.603 -2.8400  1.4763 -1.1288
 7680SOL     OW34672   4.527   3.846   5.113 -0.1604 -0.0056 -0.5356
 7680SOL    HW134673   4.622   3.842   5.118 -0.1431  1.6108  0.5953
 7680SOL    HW234674   4.509   3.924   5.061 -0.5890 -0.7921 -1.5650
 7681SOL     OW34675   3.584   0.244  13.900  0.0564  0.3927 -0.7138
 7681SOL    HW134676   3.588   0.149  13.913 -2.5027  0.2580 -0.7772
 7681SOL    HW234677   3.677   0.264  13.893  0.1745 -0.1563 -0.7122
 7682SOL     OW34678   4.569   3.845   7.234  0.0096  0.0273  0.0012
 7682SOL    HW134679   4.571   3.857   7.329  0.5586  1.5372 -0.1911
 7682SOL    HW234680   4.571   3.752   7.214  0.4509  0.1646 -0.6081
 7683SOL     OW34681   2.768   0.099   2.737  0.5192 -0.6724 -0.2398
 7683SOL    HW134682   2.789   0.028   2.797  2.5150 -0.1216 -0.2870
 7683SOL    HW234683   2.832   0.161   2.771  0.6656 -1.0850  0.2239
 7684SOL     OW34684   0.256   3.082   5.806 -0.4232 -0.3078  0.1330
 7684SOL    HW134685   0.296   3.135   5.875 -0.0688  0.5774 -0.7604
 7684SOL    HW234686   0.198   3.021   5.852 -0.2962 -0.1881  0.4528
 7685SOL     OW34687   0.984   3.797   2.649  0.0181 -0.2693 -0.4315
 7685SOL    HW134688   0.953   3.712   2.680  1.3327 -0.0779  1.3815
 7685SOL    HW234689   0.915   3.818   2.585  1.0837  1.3927 -1.0389
 7686SOL     OW34690   4.427   1.122   3.290 -0.0380 -0.3758 -0.2086
 7686SOL    HW134691   4.357   1.136   3.355  0.5973  0.4062  0.3092
 7686SOL    HW234692   4.393   1.039   3.258 -1.1547  0.2452 -0.6240
 7687SOL     OW34693   4.174   1.536   2.057  0.1371  0.2948 -0.0082
 7687SOL    HW134694   4.239   1.473   2.027 -0.1378 -1.9055  3.9594
 7687SOL    HW234695   4.114   1.539   1.983 -0.6577 -0.9632  0.5755
 7688SOL     OW34696   4.279   3.091   1.403  0.2247 -0.6385 -0.0617
 7688SOL    HW134697   4.267   3.031   1.329 -1.9495  0.5790 -0.7141
 7688SOL    HW234698   4.252   3.171   1.356 -3.2312 -1.8106 -0.0793
 7689SOL     OW34699   4.568   3.139   8.335  0.0295 -0.4040 -0.2462
 7689SOL    HW134700   4.569   3.221   8.385  2.1197  1.0333 -2.6513
 7689SOL    HW234701   4.517   3.090   8.399  0.9739  0.6324  1.3010
 7690SOL     OW34702   2.162   0.526  11.424  0.5209 -0.5262  0.2190
 7690SOL    HW134703   2.253   0.517  11.453  0.8255 -1.0386 -0.9105
 7690SOL    HW234704   2.158   0.615  11.389  0.5108 -0.1114  1.2613
 7691SOL     OW34705   1.370   1.158   6.474  0.3527  0.3160 -0.5014
 7691SOL    HW134706   1.464   1.157   6.492 -0.0777  1.0246  1.7855
 7691SOL    HW234707   1.352   1.086   6.535 -0.7595  2.1565  1.3223
 7692SOL     OW34708   4.372   0.126   9.397  0.4227  0.1117 -0.4039
 7692SOL    HW134709   4.443   0.068   9.369  0.5156 -0.3895  0.8867
 7692SOL    HW234710   4.385   0.196   9.333 -2.0630  1.5641  0.7032
 7693SOL     OW34711   1.720   4.473   8.191  0.1793  0.3205  0.1181
 7693SOL    HW134712   1.660   4.437   8.256  0.6292 -1.7580 -0.6220
 7693SOL    HW234713   1.784   4.494   8.259 -1.1632 -0.9127  1.7468
 7694SOL     OW34714   3.790   0.227   7.125 -0.1353 -0.1641  0.1267
 7694SOL    HW134715   3.700   0.218   7.157  0.1680 -2.7222  0.2349
 7694SOL    HW234716   3.800   0.144   7.079 -0.4844 -0.2993  0.2943
 7695SOL     OW34717   2.509   3.811   2.766 -0.2379 -0.2949  0.1850
 7695SOL    HW134718   2.489   3.753   2.839 -0.8420  0.9437  1.0068
 7695SOL    HW234719   2.525   3.742   2.702 -0.5597 -1.4659  1.3913
 7696SOL     OW34720   3.965   3.520   5.790  0.4911  0.2294  0.0474
 7696SOL    HW134721   3.991   3.607   5.760  1.9828 -0.3924 -0.4678
 7696SOL    HW234722   3.896   3.501   5.726  0.0607  2.3990 -0.1382
 7697SOL     OW34723   4.285   4.667   9.110 -0.2851 -0.1734 -0.5029
 7697SOL    HW134724   4.310   0.018   9.081 -1.2444  0.2145 -0.1494
 7697SOL    HW234725   4.189   4.664   9.116 -0.3366 -1.7773 -2.0376
 7698SOL     OW34726   3.261   2.040   7.490 -0.0637  0.3725 -0.1651
 7698SOL    HW134727   3.207   2.069   7.416 -0.8478 -0.6544 -0.0088
 7698SOL    HW234728   3.351   2.041   7.459 -0.4311 -1.3647 -1.3261
 7699SOL     OW34729   4.240   2.846   1.831 -0.4501  0.8174  0.0055
 7699SOL    HW134730   4.294   2.902   1.775  0.0556 -1.8701 -2.1983
 7699SOL    HW234731   4.156   2.825   1.790  1.1199 -0.3642 -2.6253
 7700SOL     OW34732   2.037   1.106  15.584  0.3846  0.1478 -0.3798
 7700SOL    HW134733   2.081   1.059  15.655 -0.1202  0.6626  0.2675
 7700SOL    HW234734   2.099   1.122  15.512  0.2974 -0.0043 -0.4877
 7701SOL     OW34735   3.077   1.152   2.742 -0.4656 -0.0897  0.1241
 7701SOL    HW134736   3.006   1.126   2.683  1.8817 -0.5620 -2.4816
 7701SOL    HW234737   3.037   1.142   2.829  0.6029  0.6390  0.6998
 7702SOL     OW34738   2.491   0.515   8.450 -0.5291  0.0077 -0.1364
 7702SOL    HW134739   2.508   0.422   8.469  0.8676  0.4003  0.5144
 7702SOL    HW234740   2.416   0.518   8.509 -0.5992  0.1861 -0.2348
 7703SOL     OW34741   4.195   0.888  12.958 -0.5068 -0.1287  0.4133
 7703SOL    HW134742   4.116   0.864  12.909 -1.3682 -1.6672  2.5984
 7703SOL    HW234743   4.211   0.979  12.933  1.0019 -0.7222 -0.7798
 7704SOL     OW34744   0.626   2.055   9.154  0.3079 -0.7007 -0.5151
 7704SOL    HW134745   0.561   1.998   9.113 -1.0417 -0.2015  0.9429
 7704SOL    HW234746   0.697   2.001   9.119  1.9727  0.5370  0.9361
 7705SOL     OW34747   3.706   0.800   6.559  0.1821  0.2635 -0.1287
 7705SOL    HW134748   3.630   0.858   6.571  1.0467  1.0831  1.3858
 7705SOL    HW234749   3.721   0.815   6.466  2.8587 -1.6776  0.0073
 7706SOL     OW34750   4.447   1.628  10.627  0.1224  0.0261 -0.2876
 7706SOL    HW134751   4.542   1.624  10.624  0.2604  1.1831  2.7526
 7706SOL    HW234752   4.438   1.708  10.575 -2.0610 -0.8780 -1.3071
 7707SOL     OW34753   4.006   1.299   6.050  0.7108 -0.6012  0.4576
 7707SOL    HW134754   3.948   1.261   6.116 -0.3145  3.3061  1.7969
 7707SOL    HW234755   3.952   1.372   6.021  0.4275 -0.8243  0.4273
 7708SOL     OW34756   2.983   4.422   7.390  0.2624 -0.4976  0.3743
 7708SOL    HW134757   2.986   4.432   7.485 -1.3191 -3.6273  0.7108
 7708SOL    HW234758   3.014   4.332   7.383  0.6768 -0.1285 -2.5112
 7709SOL     OW34759   1.886   1.393  12.554  0.2572 -0.0372  0.3524
 7709SOL    HW134760   1.896   1.309  12.509  0.8509 -0.2132  0.8057
 7709SOL    HW234761   1.834   1.442  12.491  0.3207  2.7759  2.4916
 7710SOL     OW34762   4.664   4.177   8.160  0.1696 -0.2299 -0.4218
 7710SOL    HW134763   4.675   4.262   8.203  2.3405 -1.3325  1.2164
 7710SOL    HW234764   4.571   4.183   8.141 -0.0138  1.5654  0.9862
 7711SOL     OW34765   1.500   4.634  13.272 -0.2359 -0.2933 -0.4647
 7711SOL    HW134766   1.534   4.693  13.205 -0.6500 -0.5423 -0.8944
 7711SOL    HW234767   1.480   4.690  13.348  2.3135 -0.3453  0.2555
 7712SOL     OW34768   1.386   0.116   6.833 -0.2768  0.1804 -0.0101
 7712SOL    HW134769   1.366   0.176   6.905  1.6545 -1.2725  1.7328
 7712SOL    HW234770   1.448   0.170   6.784  0.0929  1.0901  1.4575
 7713SOL     OW34771   4.395   1.800   6.757 -0.0370  0.1770 -0.0580
 7713SOL    HW134772   4.382   1.752   6.675 -1.1111  0.0527  0.1841
 7713SOL    HW234773   4.302   1.816   6.773  0.1953 -0.5409  2.0542
 7714SOL     OW34774   1.279   0.729   5.641  0.0618 -0.0710  0.2691
 7714SOL    HW134775   1.284   0.648   5.690 -0.3091  0.7027  1.5858
 7714SOL    HW234776   1.369   0.761   5.643  0.4275 -0.9941 -1.5495
 7715SOL     OW34777   2.873   3.128   1.794  0.4867 -0.3272  0.1998
 7715SOL    HW134778   2.912   3.093   1.875 -1.0953 -1.5880  0.4254
 7715SOL    HW234779   2.785   3.123   1.830  0.0073  1.3975 -0.7745
 7716SOL     OW34780   1.790   1.816   5.378 -0.0259  0.0979 -0.2081
 7716SOL    HW134781   1.790   1.766   5.296 -1.0001  1.5142 -1.0663
 7716SOL    HW234782   1.763   1.749   5.441 -0.7168  0.3622 -0.2263
 7717SOL     OW34783   3.967   1.874  10.332 -0.2282  0.1370 -0.3013
 7717SOL    HW134784   3.887   1.912  10.297 -0.3295 -0.2957 -0.5351
 7717SOL    HW234785   4.020   1.897  10.255 -0.7031  1.5971 -0.1824
 7718SOL     OW34786   1.153   0.459   5.427 -0.0222  0.3666  0.2904
 7718SOL    HW134787   1.167   0.368   5.454 -0.1326  0.4390  0.5881
 7718SOL    HW234788   1.209   0.453   5.349  0.4662  0.3058  0.6456
 7719SOL     OW34789   3.954   2.309   4.696  0.2336  0.2682 -0.1653
 7719SOL    HW134790   3.932   2.224   4.659  0.5555 -2.2293  5.3643
 7719SOL    HW234791   3.883   2.366   4.668 -1.2509 -1.1773  0.6500
 7720SOL     OW34792   2.923   1.009   9.411  0.0577  0.2991 -0.7124
 7720SOL    HW134793   2.829   1.021   9.398  0.1078 -0.7114 -2.0999
 7720SOL    HW234794   2.961   1.058   9.338  1.8814 -0.3836 -0.2281
 7721SOL     OW34795   3.387   0.257   6.485  0.6071 -0.0486  0.4682
 7721SOL    HW134796   3.371   0.253   6.579  0.0798 -1.9184  0.3028
 7721SOL    HW234797   3.409   0.349   6.474  1.8815 -0.6019 -1.7507
 7722SOL     OW34798   2.028   4.660   4.079 -0.2136  0.4074  0.2843
 7722SOL    HW134799   1.934   4.651   4.098 -0.0721  1.2178  1.3716
 7722SOL    HW234800   2.040   0.014   4.054  1.6400  0.0852  0.0017
 7723SOL     OW34801   4.713   3.052   1.201 -0.0944  0.0189 -0.2298
 7723SOL    HW134802   4.727   2.967   1.159  0.6364  0.2252 -0.4042
 7723SOL    HW234803   0.060   3.089   1.176  0.9953 -1.4700  1.2522
 7724SOL     OW34804   1.238   3.687  15.187  0.1088  0.0940 -0.3092
 7724SOL    HW134805   1.324   3.654  15.162 -0.7998 -1.1321 -1.7945
 7724SOL    HW234806   1.259   3.767  15.236  0.2886 -0.7197  0.9275
 7725SOL     OW34807   0.579   0.476   1.784 -0.0353 -0.0027 -0.3230
 7725SOL    HW134808   0.559   0.529   1.707  0.6373  0.5368 -0.1296
 7725SOL    HW234809   0.673   0.494   1.793 -0.6796  2.6666  1.1092
 7726SOL     OW34810   2.806   3.517  11.583 -0.4956 -0.2294  0.1483
 7726SOL    HW134811   2.836   3.584  11.644 -1.9994 -0.3021  0.9681
 7726SOL    HW234812   2.772   3.456  11.648  0.2850  0.2039  0.9527
 7727SOL     OW34813   0.319   2.205   2.801 -0.3479  0.0054  0.2375
 7727SOL    HW134814   0.281   2.229   2.886 -3.9218 -2.7578 -0.5830
 7727SOL    HW234815   0.408   2.224   2.831  0.2893 -0.8260 -1.1628
 7728SOL     OW34816   3.065   4.406  13.238  0.1853 -0.0218 -0.1729
 7728SOL    HW134817   3.080   4.399  13.333  0.9516 -1.0296 -0.3621
 7728SOL    HW234818   3.005   4.480  13.246  1.1447  0.8744 -1.2098
 7729SOL     OW34819   2.934   4.380   9.553  0.4839  0.1355  0.1591
 7729SOL    HW134820   2.910   4.458   9.504 -0.1784  0.3639  0.8531
 7729SOL    HW234821   3.015   4.348   9.512  1.1744  1.3767  0.5779
 7730SOL     OW34822   2.766   2.338   9.511  0.0957  0.0481 -0.2864
 7730SOL    HW134823   2.685   2.389   9.502  0.1800  0.2582  0.1341
 7730SOL    HW234824   2.832   2.405   9.496  0.0094 -0.0139 -0.9289
 7731SOL     OW34825   4.590   1.213   4.570 -0.2637 -0.1951 -0.6373
 7731SOL    HW134826   4.531   1.145   4.600 -0.1401 -1.3533 -3.0085
 7731SOL    HW234827   4.615   1.183   4.482 -0.0538 -1.4192 -0.1571
 7732SOL     OW34828   4.543   1.981   2.886  0.1195 -0.2306  0.6475
 7732SOL    HW134829   4.575   2.066   2.858  2.7783 -1.9561 -1.5110
 7732SOL    HW234830   4.600   1.928   2.830 -1.3633 -1.7191  0.5394
 7733SOL     OW34831   3.045   2.093   2.956 -0.4548 -0.1554  0.3713
 7733SOL    HW134832   3.040   2.011   2.908  0.8224 -0.1107  0.1598
 7733SOL    HW234833   3.073   2.154   2.887  0.3803 -0.6300  0.2820
 7734SOL     OW34834   3.709   1.014   0.849 -0.2476  0.1074  0.2519
 7734SOL    HW134835   3.792   1.034   0.807  0.8067  1.4931  3.0073
 7734SOL    HW234836   3.656   0.989   0.773 -0.2378 -0.0915  0.3093
 7735SOL     OW34837   0.492   1.160  13.818  0.6929  0.4388 -0.1057
 7735SOL    HW134838   0.488   1.198  13.906  0.1835  0.0840  0.0251
 7735SOL    HW234839   0.543   1.228  13.774 -1.8124  0.9505 -2.2326
 7736SOL     OW34840   3.744   0.105   3.002 -0.5444 -0.1115  0.8504
 7736SOL    HW134841   3.721   0.049   3.077 -2.1397  1.7641  1.7743
 7736SOL    HW234842   3.777   0.034   2.947  1.0294 -1.2797  3.2639
 7737SOL     OW34843   2.412   4.529  14.422 -0.0055  0.3238  0.0879
 7737SOL    HW134844   2.452   4.586  14.357  0.6133  2.7719  2.6602
 7737SOL    HW234845   2.479   4.526  14.489 -0.7159  0.7681  0.8125
 7738SOL     OW34846   3.435   1.756   6.101  0.2348  0.2465  0.2880
 7738SOL    HW134847   3.455   1.810   6.025 -1.9984 -1.1282 -1.2642
 7738SOL    HW234848   3.506   1.692   6.090  2.2108  1.9743  2.8903
 7739SOL     OW34849   2.918   4.557   4.069 -0.0967  0.4672 -0.6499
 7739SOL    HW134850   2.951   4.641   4.036 -2.7411  1.6648 -0.2975
 7739SOL    HW234851   2.871   4.580   4.149  1.1224  1.4609 -0.2278
 7740SOL     OW34852   2.786   0.620   5.807  0.0470 -0.1816 -0.0529
 7740SOL    HW134853   2.736   0.589   5.882  2.7221 -0.1146  1.7513
 7740SOL    HW234854   2.716   0.641   5.745 -0.8667  0.9854  1.3830
 7741SOL     OW34855   3.327   4.103   2.148  0.3413 -0.4745 -0.3500
 7741SOL    HW134856   3.235   4.090   2.172  0.9758  1.9903  3.4443
 7741SOL    HW234857   3.355   4.015   2.171 -0.3451 -0.2911  1.2035
 7742SOL     OW34858   0.026   4.546   8.118  0.1642  0.1056 -0.4543
 7742SOL    HW134859   4.715   4.505   8.189 -0.9060 -0.1258 -1.3219
 7742SOL    HW234860   0.112   4.528   8.157 -0.4702  1.1056  1.3670
 7743SOL     OW34861   3.052   0.656  10.828 -0.2016  0.2378  0.5338
 7743SOL    HW134862   3.125   0.692  10.777  1.1341  0.1103  2.3395
 7743SOL    HW234863   2.973   0.688  10.785  0.8451  1.4726 -0.4842
 7744SOL     OW34864   3.801   2.629   3.007  0.1075 -0.1923 -0.1195
 7744SOL    HW134865   3.893   2.608   3.024 -0.0789 -0.8252  0.0961
 7744SOL    HW234866   3.804   2.647   2.913 -1.4855  2.0412  0.2692
 7745SOL     OW34867   2.247   0.597   8.578 -0.3075  0.1243  0.5350
 7745SOL    HW134868   2.164   0.585   8.624 -0.6475  0.0815 -0.0994
 7745SOL    HW234869   2.223   0.661   8.512  1.4069  0.2936  0.0690
 7746SOL     OW34870   0.845   1.029  11.022  0.1975 -0.4253  0.0835
 7746SOL    HW134871   0.918   1.025  10.960 -1.4957 -1.9533 -1.8330
 7746SOL    HW234872   0.769   1.009  10.967 -0.1005  0.4267  0.1914
 7747SOL     OW34873   3.047   4.110  16.179 -0.1548  0.4694 -0.0863
 7747SOL    HW134874   3.068   4.112  16.272  0.4822 -2.0514 -0.1603
 7747SOL    HW234875   3.086   4.191  16.148  1.5730 -0.6486 -0.8307
 7748SOL     OW34876   0.874   2.530  15.255 -0.1527  0.0984 -0.1477
 7748SOL    HW134877   0.798   2.472  15.262  0.8587 -1.3433 -1.0037
 7748SOL    HW234878   0.851   2.593  15.323 -0.0353 -0.6642  0.6002
 7749SOL     OW34879   1.489   4.634   2.809  0.1726  0.1603 -0.2596
 7749SOL    HW134880   1.572   4.679   2.824 -0.4133  1.6707 -1.4922
 7749SOL    HW234881   1.505   4.594   2.723  0.2820 -1.2356  0.4120
 7750SOL     OW34882   2.371   1.805   9.222 -0.2271  0.4502 -0.5022
 7750SOL    HW134883   2.276   1.797   9.231  0.1010 -2.7592 -0.1579
 7750SOL    HW234884   2.389   1.892   9.257  0.7586  0.8873 -2.1030
 7751SOL     OW34885   1.653   1.990   5.052  0.3566 -0.3213  0.3336
 7751SOL    HW134886   1.707   1.922   5.011 -0.1534  0.5307 -1.7368
 7751SOL    HW234887   1.574   1.960   5.007  1.0061 -0.4404 -0.7254
 7752SOL     OW34888   2.073   4.535  17.380  0.1614  0.0388  0.0810
 7752SOL    HW134889   2.104   4.488  17.303 -0.1335  1.7255 -1.0637
 7752SOL    HW234890   2.022   4.468  17.426 -0.3554 -0.3121 -1.0110
 7753SOL     OW34891   3.338   1.884   1.631 -0.1445  0.2427  0.3091
 7753SOL    HW134892   3.314   1.826   1.559  0.3891 -1.0645  1.1712
 7753SOL    HW234893   3.303   1.839   1.708 -0.3974  0.3796  0.2751
 7754SOL     OW34894   1.752   2.519  15.540  0.1416 -0.4553  1.0000
 7754SOL    HW134895   1.732   2.597  15.488  1.6465 -0.8057 -0.1287
 7754SOL    HW234896   1.815   2.469  15.488  0.1912 -0.1085  0.7298
 7755SOL     OW34897   0.767   0.919   7.580 -0.1630  0.0363  0.5868
 7755SOL    HW134898   0.804   0.851   7.525  0.4911  0.6867  0.2288
 7755SOL    HW234899   0.756   0.877   7.665  2.1207 -1.8105 -0.0479
 7756SOL     OW34900   3.175   4.129   2.728  0.1071  0.0626  0.4442
 7756SOL    HW134901   3.259   4.173   2.715  0.5609 -0.8190  0.4251
 7756SOL    HW234902   3.169   4.139   2.823 -1.7263  0.3372  0.3013
 7757SOL     OW34903   4.479   1.620   5.884  0.2183  0.1185 -0.2809
 7757SOL    HW134904   4.567   1.618   5.845  0.5447 -2.8965  0.5991
 7757SOL    HW234905   4.472   1.527   5.906  1.6022 -0.0601 -0.5934
 7758SOL     OW34906   3.319   4.430   0.164  0.8011  0.0816  0.0796
 7758SOL    HW134907   3.366   4.501   0.207 -0.0464  0.0796  1.0182
 7758SOL    HW234908   3.262   4.396   0.233  1.9282 -1.0011  0.4709
 7759SOL     OW34909   3.291   1.418   5.924 -0.0662 -0.5698 -0.6484
 7759SOL    HW134910   3.266   1.410   6.016 -2.0471 -0.5834 -1.1816
 7759SOL    HW234911   3.245   1.496   5.892 -0.2694 -1.0310 -1.4764
 7760SOL     OW34912   4.420   4.375  13.259  0.2475 -0.2822  0.5529
 7760SOL    HW134913   4.357   4.447  13.250  0.4321  0.0025  1.4863
 7760SOL    HW234914   4.374   4.304  13.215  0.9828 -1.5524  1.8449
 7761SOL     OW34915   3.551   1.408  11.624 -0.0834 -0.0249 -0.0778
 7761SOL    HW134916   3.514   1.431  11.538 -0.7280  0.2824  0.2762
 7761SOL    HW234917   3.642   1.434  11.611  0.4940 -2.0234  0.0885
 7762SOL     OW34918   2.448   4.411   4.687  0.8627 -0.5651 -0.1589
 7762SOL    HW134919   2.490   4.444   4.767 -0.1358 -0.9184  0.4989
 7762SOL    HW234920   2.374   4.363   4.722  1.3960 -0.2948  1.3584
 7763SOL     OW34921   0.489   0.272  14.059 -0.2450 -0.0308 -0.3912
 7763SOL    HW134922   0.552   0.203  14.078  1.3069  1.4549 -0.1486
 7763SOL    HW234923   0.412   0.233  14.016 -1.4853  1.9821  0.0086
 7764SOL     OW34924   2.668   0.390   2.848 -0.1194 -0.5791 -0.4188
 7764SOL    HW134925   2.751   0.346   2.830  0.4739  0.2719  0.2498
 7764SOL    HW234926   2.680   0.475   2.805  2.2826 -0.0184  1.3608
 7765SOL     OW34927   1.650   2.934   4.429  0.1746  0.0691  0.2925
 7765SOL    HW134928   1.596   2.986   4.368  2.3600 -0.3276 -1.9755
 7765SOL    HW234929   1.610   2.848   4.416  0.4195 -0.0607  0.3981
 7766SOL     OW34930   3.562   0.294   3.805 -0.1261  0.1996 -1.0339
 7766SOL    HW134931   3.622   0.363   3.778  0.1534  0.2060 -0.3984
 7766SOL    HW234932   3.609   0.216   3.775 -0.4546  0.4287 -2.1339
 7767SOL     OW34933   2.200   0.526   3.346 -0.1006 -0.4754 -0.3936
 7767SOL    HW134934   2.267   0.506   3.411  0.7924 -0.6702 -1.3687
 7767SOL    HW234935   2.135   0.577   3.394 -0.2703 -0.6937 -0.3962
 7768SOL     OW34936   2.687   2.933   5.608  0.5783  0.9364  0.2854
 7768SOL    HW134937   2.598   2.953   5.579  0.6561  3.2928  1.6980
 7768SOL    HW234938   2.736   2.938   5.526  0.0915  0.0235 -0.0661
 7769SOL     OW34939   4.222   0.920   5.815 -0.0382 -0.2650 -0.1952
 7769SOL    HW134940   4.135   0.940   5.849 -0.5733 -1.9364 -0.5763
 7769SOL    HW234941   4.249   1.011   5.807  1.3734 -0.3696  3.1872
 7770SOL     OW34942   3.721   2.929   2.357 -0.2188 -0.2080 -0.0789
 7770SOL    HW134943   3.644   2.902   2.407 -0.2707  1.2652  0.6257
 7770SOL    HW234944   3.728   2.869   2.283 -0.7063 -1.5027  0.9266
 7771SOL     OW34945   3.167   3.274  13.429 -0.0283  0.2578  0.0121
 7771SOL    HW134946   3.208   3.192  13.457  2.4150  1.8416  1.0555
 7771SOL    HW234947   3.136   3.262  13.339 -0.1041  0.9084 -0.0467
 7772SOL     OW34948   2.133   3.924   9.707 -0.6612  0.5186 -0.6247
 7772SOL    HW134949   2.113   4.003   9.758  0.7224  1.6761 -1.8695
 7772SOL    HW234950   2.227   3.922   9.722 -0.6696  0.5164 -0.5734
 7773SOL     OW34951   3.470   3.883   7.302 -0.2439  0.4573 -0.0913
 7773SOL    HW134952   3.533   3.835   7.249  0.4926  0.2078  1.0196
 7773SOL    HW234953   3.456   3.818   7.371 -0.2312  3.6028  2.8826
 7774SOL     OW34954   2.418   4.560   3.816  0.3598  0.8581 -0.0018
 7774SOL    HW134955   2.430   4.552   3.911 -1.3241 -0.5991  0.0933
 7774SOL    HW234956   2.449   4.475   3.783 -0.8006 -0.0595  1.2938
 7775SOL     OW34957   3.230   2.611   4.657  0.1737 -0.2034  0.0116
 7775SOL    HW134958   3.201   2.671   4.726 -3.1400 -0.6946 -0.9505
 7775SOL    HW234959   3.189   2.658   4.584  0.3189 -1.3963 -0.8333
 7776SOL     OW34960   2.729   3.486   3.846 -0.7106  0.4942  0.3001
 7776SOL    HW134961   2.762   3.506   3.759 -0.4922  2.1714  0.7568
 7776SOL    HW234962   2.726   3.575   3.882 -0.7559  0.6649 -0.1311
 7777SOL     OW34963   3.133   1.719   0.987  0.1371 -0.0720 -0.5547
 7777SOL    HW134964   3.069   1.763   0.931 -0.3859 -0.2973 -0.1250
 7777SOL    HW234965   3.212   1.740   0.937  0.7969 -1.4850 -0.0962
 7778SOL     OW34966   3.512   3.694   2.617 -0.4888  0.1449  0.0951
 7778SOL    HW134967   3.432   3.701   2.565 -0.4411  2.8653  0.3576
 7778SOL    HW234968   3.485   3.755   2.686 -0.4093  2.9388 -2.3551
 7779SOL     OW34969   0.997   1.880   3.445 -0.2293 -0.1629 -0.2867
 7779SOL    HW134970   0.937   1.953   3.433 -0.8608 -0.7175 -0.5121
 7779SOL    HW234971   0.999   1.844   3.356  1.3773 -0.8889  0.0340
 7780SOL     OW34972   0.423   1.356   2.212 -0.0747  0.5203 -0.1233
 7780SOL    HW134973   0.479   1.338   2.288  1.8574 -0.5687 -1.7902
 7780SOL    HW234974   0.486   1.357   2.140  0.1848  0.9089  0.1107
 7781SOL     OW34975   3.115   0.380  12.986 -0.0386 -0.3818  0.6197
 7781SOL    HW134976   3.188   0.427  12.946 -0.4735 -0.7898 -0.6541
 7781SOL    HW234977   3.140   0.377  13.078 -0.5204  1.3121  0.7991
 7782SOL     OW34978   1.913   3.191   9.835 -0.0664  0.3553  0.1733
 7782SOL    HW134979   2.000   3.166   9.865 -0.4289 -2.5667 -1.1955
 7782SOL    HW234980   1.923   3.285   9.846 -1.4426  0.6062 -0.7580
 7783SOL     OW34981   2.066   3.271   0.010  0.0250 -0.2370 -0.5974
 7783SOL    HW134982   1.976   3.287   0.039 -0.3800 -1.6805 -1.0899
 7783SOL    HW234983   2.063   3.181  17.726 -2.6275 -0.1785 -0.5524
 7784SOL     OW34984   4.418   0.141   1.747  0.5225  0.0577 -0.1379
 7784SOL    HW134985   4.496   0.188   1.715 -0.7266  1.3745 -1.2522
 7784SOL    HW234986   4.430   0.057   1.702  0.0985 -0.6520  1.0880
 7785SOL     OW34987   4.684   3.882  17.694  0.2068  0.0924 -0.3688
 7785SOL    HW134988   4.724   3.963  17.726 -1.1201  0.6749 -0.1920
 7785SOL    HW234989   4.697   3.831   0.026  0.0147  0.4878 -0.0840
 7786SOL     OW34990   2.768   1.611   5.138 -0.0402 -0.1313  0.0399
 7786SOL    HW134991   2.704   1.555   5.181 -2.0037  0.3700 -2.2428
 7786SOL    HW234992   2.783   1.664   5.216  0.1488  0.9475 -0.7223
 7787SOL     OW34993   0.904   4.285  16.369  0.0158  0.9288  0.2072
 7787SOL    HW134994   0.838   4.242  16.314  2.9392 -1.5732 -1.3016
 7787SOL    HW234995   0.946   4.347  16.309  0.6133  0.2791 -0.0448
 7788SOL     OW34996   0.066   1.785   5.529  0.2164  0.0338 -0.0905
 7788SOL    HW134997   0.060   1.701   5.484  1.0331 -0.2164  0.2624
 7788SOL    HW234998   0.120   1.773   5.608  1.2670  2.0785 -0.5085
 7789SOL     OW34999   1.987   0.530   8.719  0.0532 -0.4878 -0.2879
 7789SOL    HW135000   1.918   0.508   8.781 -0.2711  1.3164 -0.0291
 7789SOL    HW235001   2.034   0.448   8.736  0.1322 -0.0634  1.5329
 7790SOL     OW35002   3.143   3.400   3.260  0.2476  0.0051 -0.6826
 7790SOL    HW135003   3.165   3.306   3.260 -0.3875 -0.1393  1.0366
 7790SOL    HW235004   3.229   3.438   3.245  0.6374 -0.7579 -0.4009
 7791SOL     OW35005   2.893   2.740   7.402  0.2193  0.0729 -0.5214
 7791SOL    HW135006   2.900   2.703   7.314  0.0456 -0.2758 -0.3874
 7791SOL    HW235007   2.960   2.807   7.411 -0.1901  0.6722 -1.8698
 7792SOL     OW35008   0.424   2.127   7.297  0.1106 -0.1401  0.0612
 7792SOL    HW135009   0.380   2.076   7.229 -1.1972 -1.9543  2.2828
 7792SOL    HW235010   0.361   2.137   7.368 -1.2948 -0.2301 -1.1613
 7793SOL     OW35011   0.079   2.098   1.840 -0.0445  0.2541  1.0277
 7793SOL    HW135012   0.005   2.081   1.899 -1.4458 -0.7852 -1.0229
 7793SOL    HW235013   0.036   2.097   1.755  0.0417  0.9731  0.9767
 7794SOL     OW35014   0.982   2.068   8.651 -0.0830 -0.1820 -0.4027
 7794SOL    HW135015   0.909   2.077   8.591  0.1270 -1.0115 -0.7929
 7794SOL    HW235016   1.062   2.078   8.599 -0.5996 -0.1900 -1.1872
 7795SOL     OW35017   3.256   0.423   5.617 -0.1546 -0.1249  0.3485
 7795SOL    HW135018   3.341   0.387   5.591 -1.2446 -2.0917 -0.4576
 7795SOL    HW235019   3.286   0.440   5.707  1.4199 -3.7100  0.5151
 7796SOL     OW35020   2.842   4.697   2.976 -0.1603  0.9903 -0.2428
 7796SOL    HW135021   2.873   0.026   3.038  1.6096 -0.9217  0.9078
 7796SOL    HW235022   2.748   4.704   2.994 -0.1634 -0.1894  0.1736
 7797SOL     OW35023   4.057   2.548  14.487  0.1268 -0.6832  0.1555
 7797SOL    HW135024   4.141   2.503  14.479  0.1748 -0.7175  0.9220
 7797SOL    HW235025   4.051   2.562  14.581  0.1619 -1.2069  0.2345
 7798SOL     OW35026   0.755   2.240   1.907 -0.4700 -0.2880  0.0039
 7798SOL    HW135027   0.680   2.187   1.933  0.2363 -1.8042 -1.0443
 7798SOL    HW235028   0.827   2.176   1.906  0.2633  0.5500 -0.5955
 7799SOL     OW35029   1.265   1.753  13.936  0.4542 -0.0957  0.4955
 7799SOL    HW135030   1.282   1.845  13.918  1.1597 -0.2401  0.4097
 7799SOL    HW235031   1.196   1.757  14.002 -0.9193  0.6536 -0.9982
 7800SOL     OW35032   0.317   3.958   5.703 -0.3576  0.0281  0.3315
 7800SOL    HW135033   0.297   3.865   5.698 -0.0494 -0.1363  2.1271
 7800SOL    HW235034   0.243   3.984   5.759  0.6756 -0.9130  2.1400
 7801SOL     OW35035   3.411   2.738   8.005 -0.1622 -0.2667 -0.1543
 7801SOL    HW135036   3.483   2.772   7.952  0.9294 -2.3031  0.0238
 7801SOL    HW235037   3.440   2.765   8.092  1.0061 -2.6672  0.2016
 7802SOL     OW35038   1.631   1.914   6.852 -0.3609  0.6236  0.1430
 7802SOL    HW135039   1.695   1.886   6.786 -0.1959 -0.1552  0.6327
 7802SOL    HW235040   1.618   2.005   6.826  2.6682  1.5758  2.0078
 7803SOL     OW35041   2.928   0.186   7.350  0.2797  0.2360  0.7760
 7803SOL    HW135042   2.855   0.246   7.332  0.6969  0.2237 -0.8800
 7803SOL    HW235043   2.895   0.097   7.339  1.5608  0.1237 -2.0960
 7804SOL     OW35044   1.253   3.716   1.557 -0.5646  0.3446  0.4305
 7804SOL    HW135045   1.260   3.622   1.570 -3.6199  0.2202  1.1509
 7804SOL    HW235046   1.169   3.717   1.512 -0.6164  0.6988  0.5361
 7805SOL     OW35047   3.127   0.713   3.652 -0.3077 -0.7313 -0.0384
 7805SOL    HW135048   3.175   0.678   3.726  0.0887 -0.0501  0.0177
 7805SOL    HW235049   3.155   0.804   3.645  0.0981 -0.9795 -1.7163
 7806SOL     OW35050   2.122   0.521  11.980 -0.3661  0.0775  0.5633
 7806SOL    HW135051   2.142   0.432  12.006  0.1794  0.4373  1.3625
 7806SOL    HW235052   2.027   0.519  11.991 -0.3111 -0.8426  0.8616
 7807SOL     OW35053   0.839   1.163   4.698  0.2943 -0.3363  0.1556
 7807SOL    HW135054   0.773   1.148   4.631  1.5602  1.4740 -1.5199
 7807SOL    HW235055   0.905   1.220   4.657  1.1691 -1.9065 -0.5846
 7808SOL     OW35056   0.496   4.577  14.200 -0.6827 -0.8629 -0.5929
 7808SOL    HW135057   0.523   4.637  14.269  1.1900 -0.6263 -1.5265
 7808SOL    HW235058   0.514   4.623  14.117  3.3756 -2.4119 -0.5547
 7809SOL     OW35059   3.652   3.461   6.292 -0.3393 -0.7425 -0.1087
 7809SOL    HW135060   3.637   3.421   6.377 -1.2210  0.7863  0.4639
 7809SOL    HW235061   3.740   3.426   6.277 -0.3155 -1.0842  0.8217
 7810SOL     OW35062   2.525   1.656   3.458  0.3563 -0.3718 -0.0295
 7810SOL    HW135063   2.549   1.619   3.542  2.2148  0.6906 -0.1006
 7810SOL    HW235064   2.445   1.607   3.439  0.5437 -0.5038 -0.5005
 7811SOL     OW35065   3.913   1.278   7.294 -0.1863 -0.2754 -0.3606
 7811SOL    HW135066   3.959   1.289   7.378 -0.3240 -0.7333 -0.2237
 7811SOL    HW235067   3.824   1.280   7.328  0.4022 -1.2968  1.2660
 7812SOL     OW35068   1.903   0.694   5.755  0.0084  0.5155  0.8322
 7812SOL    HW135069   1.913   0.776   5.803  0.6018  0.2079  1.2287
 7812SOL    HW235070   1.838   0.656   5.813 -0.8909  0.7185 -0.0413
 7813SOL     OW35071   3.231   2.880   6.591 -0.0646 -0.1751  0.3421
 7813SOL    HW135072   3.174   2.882   6.514 -0.3803  2.4051  0.6343
 7813SOL    HW235073   3.282   2.802   6.570  0.3082  0.3093 -0.5919
 7814SOL     OW35074   3.351   3.011  12.750 -0.4403  0.1579  0.3258
 7814SOL    HW135075   3.386   2.985  12.835 -0.6420  0.2278  0.4322
 7814SOL    HW235076   3.422   3.065  12.716 -0.5173  0.6662  0.9868
 7815SOL     OW35077   0.142   4.516   7.614  0.3423 -0.3250  0.1890
 7815SOL    HW135078   0.216   4.566   7.648 -0.2743  0.7886 -0.1207
 7815SOL    HW235079   0.104   4.563   7.540 -0.4058 -1.0463  0.1090
 7816SOL     OW35080   2.075   1.486   3.230 -0.7793  0.0615 -0.1940
 7816SOL    HW135081   2.040   1.401   3.203  1.3359 -1.9657  3.4662
 7816SOL    HW235082   2.102   1.510   3.141 -0.2152 -0.1383 -0.0782
 7817SOL     OW35083   0.574   1.952  11.359 -0.3182 -0.3326 -0.0915
 7817SOL    HW135084   0.527   1.873  11.332  2.3416 -1.8341 -0.3013
 7817SOL    HW235085   0.502   2.014  11.371 -2.6987 -3.4628  2.0131
 7818SOL     OW35086   0.096   3.842  13.079 -0.5828 -0.0409 -0.0369
 7818SOL    HW135087   0.126   3.791  13.154  0.3538 -0.4689 -0.7023
 7818SOL    HW235088   0.124   3.777  13.014  0.8971  2.3302 -1.7618
 7819SOL     OW35089   0.887   1.559   6.560  0.1706 -0.5872  0.5173
 7819SOL    HW135090   0.930   1.474   6.559 -1.1186 -1.2344  1.1031
 7819SOL    HW235091   0.809   1.552   6.614  0.1342 -2.4358  0.2099
 7820SOL     OW35092   1.569   3.685   5.627  0.1782 -0.1676 -0.9854
 7820SOL    HW135093   1.557   3.674   5.533 -1.0635  1.3859 -1.0059
 7820SOL    HW235094   1.526   3.607   5.664  1.3081 -0.9815 -1.3839
 7821SOL     OW35095   2.841   3.374   8.985 -0.2440 -0.1407  0.0956
 7821SOL    HW135096   2.809   3.285   8.976  0.7021 -0.4143 -0.6131
 7821SOL    HW235097   2.756   3.411   9.010 -1.0388 -1.8774 -0.0858
 7822SOL     OW35098   3.954   3.354   0.663  0.2195  0.0225  0.3487
 7822SOL    HW135099   3.970   3.303   0.583  1.3298  0.3423  0.3639
 7822SOL    HW235100   3.995   3.438   0.642  1.6324 -0.5899  0.6242
 7823SOL     OW35101   2.041   2.108   4.156  0.3109  0.2051 -0.4379
 7823SOL    HW135102   1.979   2.096   4.084 -0.3809 -1.7895  0.4823
 7823SOL    HW235103   1.983   2.145   4.222 -0.5848  0.3152 -1.2708
 7824SOL     OW35104   1.541   2.803   7.241  0.4800  0.5724  0.0257
 7824SOL    HW135105   1.524   2.895   7.224 -2.5036  0.1533  0.7485
 7824SOL    HW235106   1.632   2.810   7.270 -0.1137  2.6502  1.3758
 7825SOL     OW35107   1.476   1.416   4.207 -0.0080  0.2987 -0.9244
 7825SOL    HW135108   1.432   1.377   4.282  0.8511  1.3575  0.1355
 7825SOL    HW235109   1.405   1.440   4.148  0.7363  1.5081 -1.3310
 7826SOL     OW35110   0.608   2.613   0.227 -0.1163  0.5297 -0.1380
 7826SOL    HW135111   0.667   2.666   0.281  0.6410  0.4613 -0.9020
 7826SOL    HW235112   0.571   2.688   0.181 -1.4426  0.3484  0.6360
 7827SOL     OW35113   0.291   4.312   5.938  0.1064 -0.2944  0.3325
 7827SOL    HW135114   0.264   4.298   6.028  0.6510 -0.3378  0.4884
 7827SOL    HW235115   0.204   4.321   5.899  0.8615 -0.9314 -1.4927
 7828SOL     OW35116   4.554   0.923  16.592  0.2600  0.1332 -0.1094
 7828SOL    HW135117   4.482   0.972  16.550  2.7507  1.6248 -2.6483
 7828SOL    HW235118   4.539   0.835  16.557  0.0859  0.0630  0.1442
 7829SOL     OW35119   2.404   4.592  14.047 -0.5883 -0.5274 -0.0554
 7829SOL    HW135120   2.432   4.504  14.071  1.2105 -0.4463 -1.9144
 7829SOL    HW235121   2.469   4.646  14.092  1.5980 -1.3527 -2.2213
 7830SOL     OW35122   0.932   3.140   7.026 -0.1244  0.1682  0.4651
 7830SOL    HW135123   0.941   3.169   6.936 -0.1133  0.0746  0.4359
 7830SOL    HW235124   0.999   3.193   7.070  2.0973 -2.1524 -0.1097
 7831SOL     OW35125   1.238   2.021  13.910 -0.1869  0.1463 -0.1669
 7831SOL    HW135126   1.298   2.092  13.886 -1.9998  1.3446 -1.1767
 7831SOL    HW235127   1.156   2.070  13.919  1.2221  2.6434 -0.7810
 7832SOL     OW35128   3.824   1.718  13.080 -0.0448  0.8172  0.5694
 7832SOL    HW135129   3.798   1.763  13.161 -2.3948 -1.1243  0.9223
 7832SOL    HW235130   3.792   1.782  13.017  0.1423  0.6480  0.3051
 7833SOL     OW35131   1.472   3.864   2.471  0.2370 -0.5886 -0.0090
 7833SOL    HW135132   1.382   3.853   2.502 -0.6494 -1.2442 -2.8640
 7833SOL    HW235133   1.463   3.801   2.400 -2.4403 -1.0991  0.7845
 7834SOL     OW35134   1.646   3.219   2.608  0.0252 -0.0789 -0.5418
 7834SOL    HW135135   1.706   3.247   2.677 -2.4400  2.1262  0.6608
 7834SOL    HW235136   1.707   3.151   2.576  1.3154  1.7004 -1.8836
 7835SOL     OW35137   0.035   2.799   3.280 -0.0645 -0.0859  0.0565
 7835SOL    HW135138   0.065   2.806   3.189  0.2300 -1.3139  0.0548
 7835SOL    HW235139   0.117   2.772   3.321  0.0893 -1.9107 -1.4206
 7836SOL     OW35140   1.538   4.569   7.280  0.6856  0.4380  0.7039
 7836SOL    HW135141   1.463   4.565   7.221  2.0603 -0.2311 -1.0266
 7836SOL    HW235142   1.598   4.633   7.242  0.1054 -0.0071 -0.9521
 7837SOL     OW35143   1.746   1.861   1.802  1.2002  0.2882 -0.2188
 7837SOL    HW135144   1.838   1.842   1.784  1.5561  0.7397  1.1079
 7837SOL    HW235145   1.705   1.876   1.717 -1.2709 -1.4432  0.6701
 7838SOL     OW35146   0.714   4.473   5.109 -0.3145 -0.2096  0.0286
 7838SOL    HW135147   0.719   4.544   5.045 -0.5797  0.6548  0.9678
 7838SOL    HW235148   0.662   4.504   5.183 -0.5808 -0.1377 -0.1836
 7839SOL     OW35149   3.518   0.288  10.150  0.2360  1.1627  0.0225
 7839SOL    HW135150   3.438   0.241  10.171  2.4305 -1.8774  1.6001
 7839SOL    HW235151   3.587   0.222  10.162 -2.8826 -1.4813  3.3361
 7840SOL     OW35152   2.190   3.863   6.406 -0.5006  0.0074 -0.5124
 7840SOL    HW135153   2.208   3.795   6.341  1.7933  1.4849 -1.4226
 7840SOL    HW235154   2.103   3.889   6.377 -1.3300 -1.7702  0.4154
 7841SOL     OW35155   1.053   4.080   6.664  0.3390 -0.5932 -0.5450
 7841SOL    HW135156   1.051   4.004   6.605  0.0341 -0.5325 -0.6153
 7841SOL    HW235157   0.959   4.089   6.679  0.2749 -0.3133 -1.0952
 7842SOL     OW35158   1.049   0.229   1.936 -0.5326 -0.1626 -0.0835
 7842SOL    HW135159   1.003   0.313   1.933  1.2181  0.7881 -0.0261
 7842SOL    HW235160   1.079   0.234   2.027 -1.2707 -1.7278  0.2552
 7843SOL     OW35161   4.718   1.070  15.341  0.1763 -0.3970  0.2646
 7843SOL    HW135162   0.044   1.038  15.276 -0.7853 -4.0316  1.1596
 7843SOL    HW235163   4.640   1.017  15.328 -1.1556  2.0659 -2.0441
 7844SOL     OW35164   0.674   3.351   1.096  0.1059  0.0958 -0.2495
 7844SOL    HW135165   0.667   3.331   1.003 -2.0950 -1.1598  0.1756
 7844SOL    HW235166   0.769   3.350   1.104 -0.1362 -0.1490  2.6098
 7845SOL     OW35167   0.609   2.724   8.463 -0.0801  0.3515  0.4904
 7845SOL    HW135168   0.561   2.684   8.390 -0.8364  1.2081  0.5164
 7845SOL    HW235169   0.696   2.711   8.426  1.1189  3.0751  2.3930
 7846SOL     OW35170   1.344   0.507   2.004  0.0463  0.0977  0.0759
 7846SOL    HW135171   1.437   0.514   1.983 -0.3058  0.7710 -1.2298
 7846SOL    HW235172   1.348   0.454   2.084 -0.7548 -1.6493 -1.0545
 7847SOL     OW35173   0.447   1.668  14.164 -0.2618  0.3958  0.0451
 7847SOL    HW135174   0.428   1.619  14.245 -1.9935 -2.8700 -2.3392
 7847SOL    HW235175   0.406   1.606  14.103 -1.4482  1.3219 -0.1115
 7848SOL     OW35176   3.057   0.120   9.002  0.0440 -0.0242  0.0169
 7848SOL    HW135177   2.989   0.072   9.049  0.2265 -0.5569 -0.2667
 7848SOL    HW235178   3.027   0.108   8.912  1.6208  1.6167 -0.7355
 7849SOL     OW35179   2.418   3.138  17.448  0.5919  0.0749  0.4936
 7849SOL    HW135180   2.430   3.206  17.381  1.5340 -2.7670 -2.2430
 7849SOL    HW235181   2.459   3.061  17.408 -0.1544 -0.3049  0.4643
 7850SOL     OW35182   3.207   0.357  15.231 -0.0034 -0.7282 -0.2788
 7850SOL    HW135183   3.277   0.341  15.168  0.0507 -2.8168  0.2900
 7850SOL    HW235184   3.210   0.277  15.284  0.1246 -0.9973 -0.6940
 7851SOL     OW35185   4.222   3.525   7.029 -0.0757 -0.5467 -0.0313
 7851SOL    HW135186   4.286   3.497   7.094  0.3899  0.3539 -0.0897
 7851SOL    HW235187   4.157   3.559   7.091  0.6825  1.8751 -0.5734
 7852SOL     OW35188   1.492   3.294   7.101  0.6705  0.3561  0.0623
 7852SOL    HW135189   1.434   3.220   7.115  1.7079 -0.3364  0.6596
 7852SOL    HW235190   1.577   3.257   7.077 -0.2402 -1.2989 -0.5974
 7853SOL     OW35191   1.398   0.089   2.334  0.3295 -0.5188  0.0922
 7853SOL    HW135192   1.454   0.070   2.259  1.4289 -2.6908  1.4545
 7853SOL    HW235193   1.447   0.147   2.393 -1.4827 -0.0675  1.1438
 7854SOL     OW35194   2.772   4.053   8.801 -0.0886  0.2041  0.1989
 7854SOL    HW135195   2.795   4.061   8.708 -0.1578  0.4780  0.2049
 7854SOL    HW235196   2.801   3.963   8.816  1.5200  0.9221  1.3561
 7855SOL     OW35197   4.382   0.667   0.713  0.7282  0.1046  0.4928
 7855SOL    HW135198   4.332   0.609   0.655 -0.4428  1.1974  0.4022
 7855SOL    HW235199   4.350   0.749   0.674 -0.3878 -0.5266  0.0817
 7856SOL     OW35200   3.000   0.225  12.653  0.0991 -0.5709 -0.0568
 7856SOL    HW135201   3.016   0.182  12.568  1.8514  1.7186 -0.8692
 7856SOL    HW235202   2.919   0.183  12.684  0.2015 -2.1298 -1.8957
 7857SOL     OW35203   1.091   3.087   0.603  0.0858  0.4226 -0.4564
 7857SOL    HW135204   1.078   3.037   0.683 -3.1121 -0.3069 -1.4389
 7857SOL    HW235205   1.044   3.031   0.541  0.0732 -0.2263  0.1298
 7858SOL     OW35206   0.584   1.871   6.324  0.2753 -0.0334 -0.7837
 7858SOL    HW135207   0.545   1.789   6.354  0.5249  0.4101  0.7371
 7858SOL    HW235208   0.565   1.929   6.397 -2.4334 -0.2877 -1.2824
 7859SOL     OW35209   3.644   1.000  10.346  0.4638 -0.8123 -0.0223
 7859SOL    HW135210   3.603   1.065  10.289 -0.8843 -0.0062  1.9023
 7859SOL    HW235211   3.609   0.919  10.308 -1.7789 -0.3004  0.9695
 7860SOL     OW35212   1.736   3.369   5.340  0.5269  0.2706  0.2648
 7860SOL    HW135213   1.681   3.330   5.408  1.7150 -2.0469 -0.0844
 7860SOL    HW235214   1.677   3.418   5.282  2.3015  1.3119 -0.6481
 7861SOL     OW35215   3.321   2.946   9.736 -0.3033 -0.0651  0.4472
 7861SOL    HW135216   3.357   2.909   9.655  0.2583  0.4208  0.4762
 7861SOL    HW235217   3.227   2.931   9.733 -0.2771 -0.8652  3.5565
 7862SOL     OW35218   2.144   3.466  17.072 -0.5179 -0.1519  0.1106
 7862SOL    HW135219   2.217   3.405  17.079 -1.5438 -1.4664 -0.5436
 7862SOL    HW235220   2.107   3.435  16.990 -0.5477 -0.8779  0.4009
 7863SOL     OW35221   3.240   1.971   6.786 -0.5241  0.1034  0.1189
 7863SOL    HW135222   3.249   1.881   6.817  0.8303 -0.3333 -1.5061
 7863SOL    HW235223   3.265   2.027   6.860  0.8344  0.7865 -0.8458
 7864SOL     OW35224   4.605   3.216   2.487 -0.6518 -0.5280  0.2008
 7864SOL    HW135225   4.529   3.258   2.447 -0.2684 -0.7636 -0.7847
 7864SOL    HW235226   4.558   3.170   2.555  0.4869 -1.6573  0.2228
 7865SOL     OW35227   3.676   2.903   2.665 -0.2078  0.5379 -0.1480
 7865SOL    HW135228   3.730   2.828   2.687 -0.9749 -0.2078 -0.8317
 7865SOL    HW235229   3.601   2.870   2.616  1.6881 -1.8780 -1.4284
 7866SOL     OW35230   2.445   3.354  17.253 -0.2405  0.8569  0.1695
 7866SOL    HW135231   2.511   3.422  17.241  0.2747  0.4307  0.5336
 7866SOL    HW235232   2.413   3.336  17.165 -0.8049  1.9379  0.1565
 7867SOL     OW35233   3.812   2.638  10.156 -0.2297  0.3857 -0.2696
 7867SOL    HW135234   3.900   2.660  10.125 -0.7043  0.9384 -1.2291
 7867SOL    HW235235   3.783   2.642  10.065 -0.8809 -1.1234 -0.1433
 7868SOL     OW35236   1.709   2.052   4.716 -0.4056  0.1976  0.2919
 7868SOL    HW135237   1.652   2.032   4.789 -0.6643 -2.1188 -0.5630
 7868SOL    HW235238   1.769   1.978   4.720 -0.2280  0.2677 -0.9729
 7869SOL     OW35239   3.564   1.452   5.263  0.1085  0.4079  0.3119
 7869SOL    HW135240   3.607   1.458   5.348 -1.2019  1.7660  0.8611
 7869SOL    HW235241   3.527   1.364   5.275  1.5692 -0.4245 -1.3474
 7870SOL     OW35242   1.393   3.541   3.903 -0.0661 -0.2219 -0.2090
 7870SOL    HW135243   1.372   3.482   3.976 -2.3943  1.2121  0.2685
 7870SOL    HW235244   1.379   3.624   3.948  0.2483 -0.2242 -0.1062
 7871SOL     OW35245   0.882   2.898  13.860 -0.3767 -0.6435  0.6110
 7871SOL    HW135246   0.943   2.971  13.850 -3.1243  1.5272 -0.3706
 7871SOL    HW235247   0.799   2.946  13.864  0.9739  1.4626  3.3168
 7872SOL     OW35248   3.313   4.274  16.243  0.0257 -0.1568 -0.0004
 7872SOL    HW135249   3.380   4.295  16.178 -1.2900  0.7067 -1.0726
 7872SOL    HW235250   3.231   4.310  16.209 -1.3131 -1.4036  1.9107
 7873SOL     OW35251   1.881   1.386  13.471 -0.1499 -0.2397  0.3431
 7873SOL    HW135252   1.971   1.363  13.496  1.0062  1.5919 -2.0707
 7873SOL    HW235253   1.882   1.481  13.482 -1.7894 -0.2736  0.7159
 7874SOL     OW35254   0.334   3.841   9.492  0.2010 -0.2832  0.3470
 7874SOL    HW135255   0.396   3.806   9.428  1.1844  2.2684 -0.0845
 7874SOL    HW235256   0.246   3.827   9.455  0.2384 -0.6310  0.3842
 7875SOL     OW35257   1.303   3.907   1.381  0.4243  0.3820  0.6204
 7875SOL    HW135258   1.340   3.973   1.440  0.2565  0.2903  0.8262
 7875SOL    HW235259   1.291   3.833   1.440 -0.8223 -1.7557 -2.2997
 7876SOL     OW35260   1.745   0.828   0.427 -0.6083 -0.3292  0.4858
 7876SOL    HW135261   1.749   0.810   0.521  0.6849 -0.8316  0.3425
 7876SOL    HW235262   1.653   0.809   0.409 -0.4204 -0.9693  0.2114
 7877SOL     OW35263   1.721   3.406   3.052  0.1701 -0.4980 -0.0287
 7877SOL    HW135264   1.648   3.457   3.014 -0.2778 -2.3774 -1.7299
 7877SOL    HW235265   1.684   3.358   3.125 -0.4688 -0.9858 -0.6709
 7878SOL     OW35266   2.416   1.042   4.301 -0.5216 -0.8205 -0.3344
 7878SOL    HW135267   2.434   0.996   4.383  0.3072 -1.9000 -1.1251
 7878SOL    HW235268   2.427   1.133   4.329  0.2548 -0.4775 -1.7378
 7879SOL     OW35269   2.333   1.100   3.757 -0.2777  0.0747 -0.4015
 7879SOL    HW135270   2.298   1.043   3.826  1.1582 -0.8452 -0.4461
 7879SOL    HW235271   2.305   1.048   3.682 -1.4340  0.5049 -0.2716
 7880SOL     OW35272   1.925   0.010  17.122  0.2342  0.0438  0.1320
 7880SOL    HW135273   1.977   4.704  17.054  0.2830  0.9846 -0.4437
 7880SOL    HW235274   1.979   0.085  17.147  0.3955  0.1261 -0.4598
 7881SOL     OW35275   1.030   4.693   2.661 -0.2561  0.3465  0.1349
 7881SOL    HW135276   0.942   4.693   2.624  0.4418 -0.6243 -1.5019
 7881SOL    HW235277   1.087   4.659   2.593  0.1243 -2.3853  1.8400
 7882SOL     OW35278   2.738   2.905  11.714 -0.6145 -0.0794  0.3679
 7882SOL    HW135279   2.650   2.868  11.726 -1.0907  1.5487  1.9585
 7882SOL    HW235280   2.786   2.835  11.757 -1.1666 -0.4351  0.4076
 7883SOL     OW35281   0.975   4.015   4.182  0.5820 -0.5145 -0.2556
 7883SOL    HW135282   0.970   3.933   4.133  0.3823 -1.1925  0.8920
 7883SOL    HW235283   0.902   4.000   4.242 -0.1085  1.5984 -0.5720
 7884SOL     OW35284   0.208   4.004   3.406 -0.3559 -0.3193  0.1604
 7884SOL    HW135285   0.252   3.981   3.489 -0.2103 -0.7825 -0.0426
 7884SOL    HW235286   0.207   4.099   3.406  0.0475 -0.3073  1.2203
 7885SOL     OW35287   2.747   1.246   4.393 -0.3419 -0.1876 -0.3439
 7885SOL    HW135288   2.665   1.296   4.390 -0.2927 -0.0294  1.2991
 7885SOL    HW235289   2.723   1.202   4.474  0.8136 -2.0210 -0.9991
 7886SOL     OW35290   1.510   2.995   5.274 -0.0182 -0.6659  0.3962
 7886SOL    HW135291   1.557   3.018   5.354  0.3160 -0.3537  0.1081
 7886SOL    HW235292   1.565   3.034   5.206  1.8302  0.3608  2.4936
 7887SOL     OW35293   0.874   4.226  12.160  1.0245 -0.1773 -0.3915
 7887SOL    HW135294   0.957   4.184  12.139  0.9702 -1.1077  1.3192
 7887SOL    HW235295   0.855   4.292  12.093  0.3562 -0.5835 -0.6071
 7888SOL     OW35296   3.713   1.605  10.475  0.4770 -0.6667 -0.0249
 7888SOL    HW135297   3.743   1.646  10.556 -1.2927  0.0848  0.2623
 7888SOL    HW235298   3.650   1.537  10.500 -0.2758 -0.8799 -2.5589
 7889SOL     OW35299   0.780   1.040   1.543  0.5503  0.5769 -0.3554
 7889SOL    HW135300   0.861   1.090   1.550  0.8414 -0.0216  0.5669
 7889SOL    HW235301   0.790   1.005   1.455  0.9011  1.4594 -0.6667
 7890SOL     OW35302   3.284   3.757  13.024  0.3142 -0.8598  0.0312
 7890SOL    HW135303   3.371   3.783  13.055 -1.0006  0.7830  2.3559
 7890SOL    HW235304   3.300   3.744  12.930 -1.7266 -0.1055 -0.4152
 7891SOL     OW35305   0.865   2.361  14.806  0.3055 -0.0214 -0.0791
 7891SOL    HW135306   0.879   2.437  14.750 -0.7582  0.5820  0.4651
 7891SOL    HW235307   0.953   2.324  14.809 -0.7872 -2.5880 -0.0723
 7892SOL     OW35308   4.471   3.943   6.135  0.3419  0.2869 -0.4698
 7892SOL    HW135309   4.551   3.994   6.141 -0.0311  1.0663 -2.0644
 7892SOL    HW235310   4.420   3.992   6.200  0.6712 -0.0984  0.0744
 7893SOL     OW35311   4.411   0.256   3.794 -0.6570 -0.1458 -0.3520
 7893SOL    HW135312   4.354   0.179   3.804 -0.5657 -0.0681  0.6868
 7893SOL    HW235313   4.371   0.300   3.719  1.6306  1.1240 -0.8065
 7894SOL     OW35314   4.114   0.262   8.837 -0.5530  0.1185 -0.1112
 7894SOL    HW135315   4.091   0.192   8.776 -1.2988  0.9566 -0.7824
 7894SOL    HW235316   4.044   0.251   8.902  0.0358 -1.1739  0.2990
 7895SOL     OW35317   2.223   4.051   6.815 -0.2190  0.0137 -0.4432
 7895SOL    HW135318   2.191   3.968   6.851 -2.0465  0.5017 -0.9192
 7895SOL    HW235319   2.152   4.108   6.845  0.5795  0.3780  0.7606
 7896SOL     OW35320   2.717   0.935   7.445 -0.3031  0.4965  0.7008
 7896SOL    HW135321   2.693   1.028   7.447 -0.8434  0.3513  0.8736
 7896SOL    HW235322   2.805   0.938   7.406 -1.1714 -1.9287 -1.3910
 7897SOL     OW35323   0.238   2.598  11.857 -0.1310 -0.3791  0.3469
 7897SOL    HW135324   0.259   2.647  11.936 -1.3077  1.1354 -0.2854
 7897SOL    HW235325   0.154   2.636  11.832  0.6584  2.4505  1.9611
 7898SOL     OW35326   3.745   0.637  10.415  0.0657  0.2163 -0.0090
 7898SOL    HW135327   3.681   0.692  10.371  1.0510  1.9610  0.7485
 7898SOL    HW235328   3.824   0.692  10.414 -1.8258  2.8740 -2.2070
 7899SOL     OW35329   1.154   3.993   8.897  0.0920 -0.0504 -0.4168
 7899SOL    HW135330   1.088   3.936   8.858 -1.2531  0.4709  1.1299
 7899SOL    HW235331   1.196   3.934   8.960 -1.0718 -2.1507 -1.5909
 7900SOL     OW35332   2.257   3.119   8.626 -0.7063 -0.1929  0.0878
 7900SOL    HW135333   2.254   3.030   8.592 -0.0294  0.0085 -0.5069
 7900SOL    HW235334   2.224   3.166   8.549  1.4237  1.4255  0.1557
 7901SOL     OW35335   1.248   3.813   9.088 -0.0874  0.2408 -0.1230
 7901SOL    HW135336   1.200   3.841   9.166  0.2650  2.6634 -0.8081
 7901SOL    HW235337   1.290   3.733   9.122 -0.0203  0.9791  1.5611
 7902SOL     OW35338   4.218   3.088   2.870 -0.3253  0.2910  0.4378
 7902SOL    HW135339   4.162   3.014   2.891 -0.6960  0.0154 -1.5518
 7902SOL    HW235340   4.161   3.149   2.823  0.5835  0.0156 -1.0425
 7903SOL     OW35341   3.187   1.851   8.401  0.1281 -0.3237 -0.0958
 7903SOL    HW135342   3.110   1.882   8.448  0.9458 -0.9087  1.6215
 7903SOL    HW235343   3.243   1.841   8.478  1.7070  1.4262 -1.0062
 7904SOL     OW35344   4.514   2.940  14.865 -0.2467 -0.2966  0.8326
 7904SOL    HW135345   4.528   2.941  14.770  2.1578  2.7961  1.2402
 7904SOL    HW235346   4.538   2.851  14.890  1.5563  0.0210  0.2319
 7905SOL     OW35347   2.563   4.687  14.250  0.0301  0.5040  0.4793
 7905SOL    HW135348   2.552   0.045  14.253 -0.1941  0.4757  0.5178
 7905SOL    HW235349   2.654   4.680  14.222 -0.5539  0.1858 -1.3415
 7906SOL     OW35350   0.693   3.209  17.581 -0.1282 -0.0366  0.0038
 7906SOL    HW135351   0.658   3.259  17.507 -1.1123  0.8567  1.0728
 7906SOL    HW235352   0.715   3.283  17.637  1.4605 -0.2607 -0.3208
 7907SOL     OW35353   1.952   0.504  17.640 -0.2979  0.5985  0.3501
 7907SOL    HW135354   2.000   0.587  17.632  0.2294  0.2896  0.3078
 7907SOL    HW235355   1.981   0.456  17.563  0.4264  1.4972  0.0614
 7908SOL     OW35356   3.038   2.087   8.649  0.0052  0.1379 -0.0879
 7908SOL    HW135357   3.134   2.084   8.649  0.0114  0.1779 -1.0654
 7908SOL    HW235358   3.008   2.019   8.709 -1.0912  0.5205 -0.2204
 7909SOL     OW35359   0.283   3.708   5.653 -0.2030 -0.1819  0.0945
 7909SOL    HW135360   0.218   3.643   5.627  0.4283 -0.0938 -1.6768
 7909SOL    HW235361   0.322   3.656   5.723 -1.5323  0.8074  1.5644
 7910SOL     OW35362   3.491   1.533  17.279 -0.1081 -0.2597 -0.3483
 7910SOL    HW135363   3.488   1.625  17.252  0.5730 -0.1160  0.0551
 7910SOL    HW235364   3.510   1.538  17.373 -0.1804 -0.4502 -0.3228
 7911SOL     OW35365   0.834   0.400  15.185 -0.2592  0.1440 -0.9714
 7911SOL    HW135366   0.761   0.395  15.123  0.1325 -0.3902 -1.3915
 7911SOL    HW235367   0.848   0.493  15.204 -1.1886 -0.8490  4.6819
 7912SOL     OW35368   0.325   3.341  11.969 -0.2753 -0.1216 -0.0466
 7912SOL    HW135369   0.299   3.334  11.877  0.4611  0.6006 -0.3030
 7912SOL    HW235370   0.245   3.302  12.005  0.3536 -1.1684  0.2337
 7913SOL     OW35371   1.222   2.161   4.713 -0.0707 -0.2054 -0.5981
 7913SOL    HW135372   1.286   2.205   4.769 -1.6285  2.0039 -0.5984
 7913SOL    HW235373   1.255   2.189   4.627 -2.6683  1.6544 -0.9718
 7914SOL     OW35374   1.499   4.111   3.365  0.1416 -0.2293 -0.3848
 7914SOL    HW135375   1.433   4.093   3.298 -1.1277  1.5440  0.3698
 7914SOL    HW235376   1.506   4.205   3.349 -2.7248  0.0423 -0.0810
 7915SOL     OW35377   1.495   1.728   3.048 -0.6650 -0.4921 -0.0122
 7915SOL    HW135378   1.587   1.723   3.019 -1.2779  0.1618 -2.0582
 7915SOL    HW235379   1.449   1.646   3.029 -0.1295 -1.0784  1.1952
 7916SOL     OW35380   2.042   1.589   8.917 -0.1055  0.4784 -0.3992
 7916SOL    HW135381   2.044   1.525   8.987 -0.7679  0.8925  0.0003
 7916SOL    HW235382   1.975   1.652   8.943  0.5638 -0.1323  2.8250
 7917SOL     OW35383   2.190   1.939   8.988  0.5421 -0.3604 -0.2800
 7917SOL    HW135384   2.111   1.993   8.988  0.2635 -0.7692  2.0127
 7917SOL    HW235385   2.157   1.885   9.059 -0.5322 -1.6321 -1.7503
 7918SOL     OW35386   0.249   0.790   4.789 -0.5519  0.3004 -0.6004
 7918SOL    HW135387   0.291   0.705   4.803 -2.8787 -0.9511 -1.2478
 7918SOL    HW235388   0.185   0.776   4.719  0.2501 -1.6575 -0.9192
 7919SOL     OW35389   0.488   1.007  11.103 -0.4154  0.1014 -0.0759
 7919SOL    HW135390   0.516   1.091  11.140  2.3264 -0.3400 -1.1538
 7919SOL    HW235391   0.530   1.014  11.018 -0.3914  0.0297 -0.0704
 7920SOL     OW35392   2.893   4.074  16.500 -0.5924 -0.3059 -0.3948
 7920SOL    HW135393   2.922   4.041  16.585 -1.7500  0.3254  0.2507
 7920SOL    HW235394   2.883   4.165  16.528  2.0161  0.1546 -0.9785
 7921SOL     OW35395   1.407   4.540   5.117 -0.5452  0.1258 -0.5972
 7921SOL    HW135396   1.489   4.490   5.118  0.5646  1.9172  0.2675
 7921SOL    HW235397   1.418   4.586   5.201 -2.8353 -0.0795 -0.1918
 7922SOL     OW35398   4.252   1.147   7.593 -0.0701 -0.1891  0.3476
 7922SOL    HW135399   4.228   1.112   7.508  0.1930 -0.3695  0.3457
 7922SOL    HW235400   4.200   1.227   7.597 -1.3735 -1.0081 -0.2010
 7923SOL     OW35401   2.273   2.805   5.478  0.2194 -0.3944 -0.3025
 7923SOL    HW135402   2.220   2.750   5.536 -0.4605 -1.2656 -1.7676
 7923SOL    HW235403   2.254   2.757   5.398 -0.4549  0.7777 -0.8503
 7924SOL     OW35404   0.209   4.248   3.170  0.4286  0.2515  0.1158
 7924SOL    HW135405   0.290   4.197   3.174  0.0207 -0.3223  0.9585
 7924SOL    HW235406   0.196   4.250   3.075  1.0211  0.3197  0.0375
 7925SOL     OW35407   2.561   0.404   9.618 -0.1222 -0.7152  0.3959
 7925SOL    HW135408   2.580   0.463   9.690  1.6202  0.2634 -0.8637
 7925SOL    HW235409   2.581   0.462   9.544  0.3393  0.3124  1.3370
 7926SOL     OW35410   3.901   2.994   4.601  0.3340 -0.2587  0.1339
 7926SOL    HW135411   3.964   2.949   4.658 -0.9578 -1.1269  0.8928
 7926SOL    HW235412   3.822   2.968   4.649  0.0786 -0.5245 -0.4294
 7927SOL     OW35413   3.350   3.126   7.468  0.7142  0.0017 -0.1846
 7927SOL    HW135414   3.380   3.067   7.538 -0.8370 -0.6497 -0.0674
 7927SOL    HW235415   3.262   3.141   7.501  0.8308  0.3858 -0.0517
 7928SOL     OW35416   4.434   2.343  15.148 -0.6459  0.1501 -0.3101
 7928SOL    HW135417   4.470   2.335  15.060  2.1796 -1.4253  0.9602
 7928SOL    HW235418   4.503   2.361  15.212 -0.2668  0.9477 -0.9444
 7929SOL     OW35419   3.922   4.656   2.362 -0.2848  0.2509  0.2286
 7929SOL    HW135420   3.875   4.613   2.290  0.4211 -0.3446  0.1213
 7929SOL    HW235421   3.849   4.708   2.395 -1.1902 -1.3049  0.6665
 7930SOL     OW35422   0.654   4.617   6.053  0.0899  0.0969 -0.5533
 7930SOL    HW135423   0.697   4.541   6.014 -1.4163 -1.6338  1.1339
 7930SOL    HW235424   0.622   4.582   6.136  0.8690 -0.8567 -0.6602
 7931SOL     OW35425   3.617   1.045   1.817  0.0636 -0.1128  0.3953
 7931SOL    HW135426   3.592   1.124   1.864  0.6151 -0.3869  1.1564
 7931SOL    HW235427   3.533   1.000   1.805  0.2336 -0.8761  1.9996
 7932SOL     OW35428   1.771   4.368   9.467 -0.4240 -0.3638 -0.6265
 7932SOL    HW135429   1.709   4.377   9.539 -1.2169  0.7980 -1.4543
 7932SOL    HW235430   1.746   4.277   9.456  1.0055 -0.9146  0.6823
 7933SOL     OW35431   1.881   0.952   2.774 -0.3935  0.0410 -0.2803
 7933SOL    HW135432   1.794   0.948   2.814 -0.8913 -0.9742 -1.4711
 7933SOL    HW235433   1.850   0.925   2.687 -0.0384 -0.2527 -0.3150
 7934SOL     OW35434   1.868   0.424   2.764 -0.2864 -0.3995 -0.0327
 7934SOL    HW135435   1.923   0.404   2.689 -2.4599  1.0806 -2.0116
 7934SOL    HW235436   1.795   0.474   2.726 -0.4380 -0.1348  0.5999
 7935SOL     OW35437   1.368   3.523   4.696  0.0315 -0.2864 -0.5061
 7935SOL    HW135438   1.296   3.460   4.698 -1.4693  1.4501 -0.6333
 7935SOL    HW235439   1.308   3.597   4.686  0.5825  0.5860  2.6333
 7936SOL     OW35440   2.542   4.730   2.640 -0.4507  0.4282  0.3636
 7936SOL    HW135441   2.493   0.071   2.614 -1.6978  0.4294  2.7073
 7936SOL    HW235442   2.623   0.029   2.676  0.8137 -1.5350 -0.5058
 7937SOL     OW35443   2.524   2.433   7.989  0.3700  0.5110  0.0213
 7937SOL    HW135444   2.616   2.451   7.968  0.4516 -1.1295 -0.9640
 7937SOL    HW235445   2.539   2.397   8.077 -4.9002 -0.6057  0.4256
 7938SOL     OW35446   2.244   0.601   3.765  0.2909  0.2870  0.2055
 7938SOL    HW135447   2.313   0.651   3.810  0.2417 -0.8615  1.5602
 7938SOL    HW235448   2.285   0.543   3.700 -1.0582 -1.1279  0.6067
 7939SOL     OW35449   2.872   2.049   9.194 -0.1751  0.1983  0.1691
 7939SOL    HW135450   2.953   1.997   9.189 -0.8351 -1.0180  2.1535
 7939SOL    HW235451   2.810   1.979   9.177  0.2166 -0.1948  0.3499
 7940SOL     OW35452   2.223   2.401   2.172 -0.0951 -0.2132 -0.2180
 7940SOL    HW135453   2.142   2.361   2.202  0.3176 -0.9365 -0.0705
 7940SOL    HW235454   2.244   2.457   2.247  0.7367 -0.9295  0.0835
 7941SOL     OW35455   1.508   3.698   5.362 -0.2021 -0.2691  0.2633
 7941SOL    HW135456   1.578   3.698   5.296  1.5106 -1.0074  2.0882
 7941SOL    HW235457   1.430   3.673   5.313  1.1519 -1.3141 -1.3560
 7942SOL     OW35458   3.914   3.976   9.349 -0.0159 -0.9626 -0.2511
 7942SOL    HW135459   3.897   4.063   9.385 -0.2920 -0.7714 -0.8444
 7942SOL    HW235460   3.981   3.940   9.407  0.7567  0.8571 -0.0077
 7943SOL     OW35461   1.182   1.477  10.429  0.0240 -0.3201  0.1455
 7943SOL    HW135462   1.203   1.462  10.337  0.7915 -1.4783  0.5004
 7943SOL    HW235463   1.194   1.572  10.433 -0.5669 -0.1918 -1.3210
 7944SOL     OW35464   1.218   0.043   5.058 -0.4409  0.1091 -0.0683
 7944SOL    HW135465   1.178   0.059   5.143  0.6973 -1.0289  0.6884
 7944SOL    HW235466   1.253   4.691   5.067  0.3258  0.2792 -1.3482
 7945SOL     OW35467   1.552   3.956   5.688 -0.6283  0.3453  0.0158
 7945SOL    HW135468   1.470   3.959   5.639  0.2281  0.2172 -1.4189
 7945SOL    HW235469   1.559   3.861   5.678  0.4273  0.6761 -2.2180
 7946SOL     OW35470   3.071   4.141  12.013 -0.1799  0.3336 -0.0298
 7946SOL    HW135471   3.157   4.122  12.052 -1.7400 -0.5514  2.9270
 7946SOL    HW235472   3.091   4.109  11.925 -1.5079  0.7726 -0.4833
 7947SOL     OW35473   4.035   4.723  11.789  0.1194  0.0664 -0.7864
 7947SOL    HW135474   3.997   4.651  11.739  0.2175 -0.6170  0.1226
 7947SOL    HW235475   3.995   4.700  11.873  0.8118  0.8673 -0.2390
 7948SOL     OW35476   0.905   1.757  16.055  0.4361 -0.1528  0.5855
 7948SOL    HW135477   0.998   1.779  16.059  0.9517 -2.3058  0.6160
 7948SOL    HW235478   0.862   1.825  16.107  0.4602 -0.8713  1.5374
 7949SOL     OW35479   0.687   1.971   8.074 -0.6465  0.3722 -0.0272
 7949SOL    HW135480   0.657   2.034   8.009  2.1137 -1.8220 -3.4377
 7949SOL    HW235481   0.604   1.945   8.114 -0.7013 -0.0381 -0.4084
 7950SOL     OW35482   2.271   2.757   7.512  0.1635  0.1189  0.0370
 7950SOL    HW135483   2.265   2.822   7.442  1.9448 -0.7510 -0.9114
 7950SOL    HW235484   2.222   2.803   7.581 -0.1415  0.0793 -0.1525
 7951SOL     OW35485   3.959   1.091   3.012 -0.8440 -0.4439  0.6256
 7951SOL    HW135486   4.054   1.102   3.003 -0.7559  0.0034  2.1149
 7951SOL    HW235487   3.928   1.181   3.025 -1.3750 -0.4589 -0.5858
 7952SOL     OW35488   4.054   3.763   1.857 -0.5407 -0.1821 -0.1303
 7952SOL    HW135489   4.042   3.737   1.948 -1.1032 -1.6113 -0.6092
 7952SOL    HW235490   4.148   3.751   1.846 -0.9735 -1.4104 -2.5259
 7953SOL     OW35491   2.206   1.783   3.309  0.0939 -0.0930 -0.5655
 7953SOL    HW135492   2.243   1.701   3.343  1.3388 -0.7112 -3.4304
 7953SOL    HW235493   2.239   1.847   3.372 -0.3337  1.6820 -2.1475
 7954SOL     OW35494   0.572   1.780   7.062 -0.7355  0.0008  0.5562
 7954SOL    HW135495   0.502   1.817   7.009 -0.5852  0.9454  1.0298
 7954SOL    HW235496   0.517   1.720   7.114  0.5350 -1.2039  0.4982
 7955SOL     OW35497   1.294   1.739   7.280 -0.2270  0.0747  0.4782
 7955SOL    HW135498   1.251   1.698   7.354 -0.4374 -1.1325 -0.3189
 7955SOL    HW235499   1.230   1.799   7.240  0.7049 -0.0791 -1.2523
 7956SOL     OW35500   0.469   4.663   7.299 -0.1367 -0.5010 -0.2750
 7956SOL    HW135501   0.540   4.723   7.322  1.0365 -0.9258 -2.7801
 7956SOL    HW235502   0.490   4.667   7.206  1.4778 -0.4999  0.0856
 7957SOL     OW35503   3.920   2.994   0.632  0.2549  0.0470 -0.3447
 7957SOL    HW135504   3.944   2.949   0.714 -0.1063  1.6433  0.6426
 7957SOL    HW235505   3.829   3.018   0.648 -1.1473 -3.9164 -2.2783
 7958SOL     OW35506   0.164   0.208  16.747 -0.4072 -0.5342  0.3740
 7958SOL    HW135507   0.205   0.139  16.695  2.0620  3.0527 -2.4114
 7958SOL    HW235508   0.102   0.237  16.680 -0.0068 -0.9192 -0.1650
 7959SOL     OW35509   1.604   0.772  16.061 -0.5461  0.2945  0.0181
 7959SOL    HW135510   1.633   0.780  15.970 -1.2158 -0.0966 -0.2292
 7959SOL    HW235511   1.550   0.693  16.063  0.7657 -0.5162  3.7143
 7960SOL     OW35512   4.542   4.449   7.540  0.4601 -0.1955  0.5372
 7960SOL    HW135513   4.548   4.354   7.529  2.4803  0.0954 -0.8823
 7960SOL    HW235514   4.481   4.463   7.613 -0.0812 -1.1566  0.2831
 7961SOL     OW35515   1.131   1.461   1.557  0.4359  0.2135 -0.2223
 7961SOL    HW135516   1.212   1.494   1.518  0.9574  0.5969  1.1964
 7961SOL    HW235517   1.061   1.494   1.499 -0.8067 -0.9620  0.6044
 7962SOL     OW35518   0.058   1.880   8.814  0.5328  0.1315 -0.4394
 7962SOL    HW135519   0.081   1.945   8.747 -0.3941  0.8004 -0.1091
 7962SOL    HW235520   4.701   1.872   8.798  0.7458 -0.4435 -1.4701
 7963SOL     OW35521   2.541   2.382   3.880 -0.1766 -0.3860 -0.5834
 7963SOL    HW135522   2.486   2.398   3.957  0.0939 -0.6125 -0.3438
 7963SOL    HW235523   2.634   2.388   3.901 -0.2099  0.0743 -0.5788
 7964SOL     OW35524   3.132   2.265   5.787  0.1288  0.1047 -0.2952
 7964SOL    HW135525   3.144   2.359   5.800  0.2732 -0.2038  1.7514
 7964SOL    HW235526   3.088   2.241   5.868  0.8782  0.1806  0.1316
 7965SOL     OW35527   1.526   1.767  12.919 -0.0455  0.7610 -0.4066
 7965SOL    HW135528   1.437   1.793  12.896 -0.2966  1.0941  0.9316
 7965SOL    HW235529   1.527   1.680  12.879 -0.5187  0.6440 -0.1672
 7966SOL     OW35530   3.800   2.302  16.484 -0.0041 -0.0650 -0.3109
 7966SOL    HW135531   3.860   2.315  16.410  0.9330 -2.6202  0.0111
 7966SOL    HW235532   3.818   2.388  16.522 -1.5747 -0.0460  0.3979
 7967SOL     OW35533   3.456   1.386   8.970 -0.2405  0.0483 -0.4013
 7967SOL    HW135534   3.523   1.442   8.931 -0.6170 -0.8017 -2.2791
 7967SOL    HW235535   3.443   1.331   8.893 -1.9712 -2.3525  1.6257
 7968SOL     OW35536   2.901   3.189  17.728  0.0258 -0.0819  0.4445
 7968SOL    HW135537   2.919   3.243   0.058  0.0729 -3.5798  2.8655
 7968SOL    HW235538   2.966   3.226  17.669  1.2954 -0.5205  1.5514
 7969SOL     OW35539   4.336   1.554   8.173 -0.1644  0.6280  0.4641
 7969SOL    HW135540   4.374   1.470   8.200 -0.4034 -0.2205 -1.7956
 7969SOL    HW235541   4.257   1.559   8.226  0.1292 -0.7668  1.0355
 7970SOL     OW35542   4.076   4.375   9.279  0.1290 -0.0158  0.5684
 7970SOL    HW135543   4.138   4.348   9.347  1.6714  0.7532 -0.5080
 7970SOL    HW235544   4.133   4.395   9.205  0.4616 -1.3206  0.4867
 7971SOL     OW35545   1.480   1.671   4.062 -0.0152  0.0106 -0.7124
 7971SOL    HW135546   1.516   1.596   4.110  2.3319  0.8005 -1.2001
 7971SOL    HW235547   1.412   1.706   4.120 -0.6616  0.2638 -1.6290
 7972SOL     OW35548   4.049   2.139   2.164  0.1964 -0.0189  0.5390
 7972SOL    HW135549   4.141   2.146   2.137  0.1784 -0.7494  0.2821
 7972SOL    HW235550   4.049   2.187   2.247  3.0568 -0.3549  0.7662
 7973SOL     OW35551   0.576   1.310   1.767  0.4493 -0.3457  0.0365
 7973SOL    HW135552   0.534   1.251   1.705  0.9279 -0.8755  0.2153
 7973SOL    HW235553   0.639   1.363   1.718  0.0811  1.0073  1.0237
 7974SOL     OW35554   0.106   3.852  15.843  0.0736 -0.0117  0.1404
 7974SOL    HW135555   0.121   3.857  15.938 -1.2345 -1.7464  0.4308
 7974SOL    HW235556   0.049   3.779  15.822 -1.8009  1.0762  1.3683
 7975SOL     OW35557   0.277   1.912   1.738  0.2025  0.8431  0.2788
 7975SOL    HW135558   0.252   1.821   1.721  2.8851  0.6237 -2.4980
 7975SOL    HW235559   0.192   1.947   1.764  0.3823  1.7235 -0.3372
 7976SOL     OW35560   1.232   2.379   1.835 -0.1053 -0.0387 -0.1114
 7976SOL    HW135561   1.215   2.299   1.884  0.5125  0.4713  0.9330
 7976SOL    HW235562   1.153   2.426   1.863 -0.4513 -1.5056  1.3866
 7977SOL     OW35563   2.341   4.239   2.134 -0.4098  0.5110  0.4695
 7977SOL    HW135564   2.344   4.320   2.185 -2.0723  0.0499  1.2935
 7977SOL    HW235565   2.318   4.175   2.201 -0.9331  1.5405  1.2651
 7978SOL     OW35566   3.435   4.217   2.759  0.6534  0.3344 -0.3989
 7978SOL    HW135567   3.415   4.146   2.820  0.8434  0.8737  0.3019
 7978SOL    HW235568   3.515   4.180   2.723 -0.3069  1.4358 -3.7143
 7979SOL     OW35569   1.038   4.060   3.693 -0.0336  0.7764  0.1782
 7979SOL    HW135570   1.098   3.985   3.690 -0.9749  0.0037  0.8347
 7979SOL    HW235571   0.977   4.029   3.760 -0.7306 -1.3072 -1.4528
 7980SOL     OW35572   0.442   1.836   9.156  0.1248 -0.6123 -0.1643
 7980SOL    HW135573   0.368   1.811   9.101 -1.6357 -1.5104  2.5657
 7980SOL    HW235574   0.426   1.787   9.237  2.4543 -1.4295 -0.1908
 7981SOL     OW35575   1.430   4.005   9.475 -0.6235 -0.0854  0.5426
 7981SOL    HW135576   1.516   3.999   9.435 -0.1627  1.0944  1.3409
 7981SOL    HW235577   1.431   3.929   9.533  1.3318 -0.4922 -0.0572
 7982SOL     OW35578   3.718   0.906   9.000 -0.6082  0.3483 -0.0958
 7982SOL    HW135579   3.684   0.887   8.913  1.3615  4.1241 -1.6829
 7982SOL    HW235580   3.660   0.974   9.035 -0.9668  0.1662 -0.3441
 7983SOL     OW35581   1.513   0.569   3.464  0.6849  0.3182  0.0603
 7983SOL    HW135582   1.500   0.475   3.449 -1.8333  0.3709  2.0344
 7983SOL    HW235583   1.549   0.566   3.553 -1.2439  0.8272  0.8465
 7984SOL     OW35584   0.465   1.806   8.123 -0.6855 -0.3195 -0.2298
 7984SOL    HW135585   0.429   1.782   8.208  2.6458 -0.7948  1.0124
 7984SOL    HW235586   0.429   1.895   8.125  1.3885  0.5081 -0.1605
 7985SOL     OW35587   0.629   0.496  14.076  0.1410  0.2039  0.4383
 7985SOL    HW135588   0.674   0.456  14.150 -1.5076 -0.1326  1.2534
 7985SOL    HW235589   0.559   0.432  14.061 -0.1881  0.3674  1.2959
 7986SOL     OW35590   3.441   2.479   4.419  0.4360 -0.4559 -0.4787
 7986SOL    HW135591   3.516   2.434   4.380  0.9946 -0.7164  0.8956
 7986SOL    HW235592   3.375   2.410   4.417 -0.1296  0.0502  0.5568
 7987SOL     OW35593   4.006   3.130  12.198  0.2805 -0.0830 -0.5383
 7987SOL    HW135594   4.009   3.037  12.223  1.2468  0.8775  2.9065
 7987SOL    HW235595   4.069   3.178  12.252  0.3658  1.2128 -1.8157
 7988SOL     OW35596   4.598   2.228   2.758 -0.2780 -0.6259 -0.1887
 7988SOL    HW135597   4.620   2.299   2.818 -4.0925  0.9298 -0.6307
 7988SOL    HW235598   4.519   2.258   2.713 -0.4370  1.5964  1.5787
 7989SOL     OW35599   2.098   1.876  16.253  0.6001  0.7239  0.0766
 7989SOL    HW135600   2.170   1.939  16.259 -0.1353  1.3712  2.4004
 7989SOL    HW235601   2.117   1.806  16.315  2.5062  0.1444 -1.1988
 7990SOL     OW35602   1.024   2.237   0.304  0.0407 -0.4434 -0.2943
 7990SOL    HW135603   0.993   2.151   0.334  0.1020 -0.3190  0.1246
 7990SOL    HW235604   0.945   2.267   0.258  1.1574 -0.2370 -2.0589
 7991SOL     OW35605   3.897   4.529  13.224  0.3017 -0.3786 -0.4483
 7991SOL    HW135606   3.962   4.470  13.264 -0.6451 -0.8214  0.4543
 7991SOL    HW235607   3.821   4.511  13.280 -0.3345  0.8650 -0.9263
 7992SOL     OW35608   3.111   3.866   3.245  0.0735 -0.9483 -0.2937
 7992SOL    HW135609   3.026   3.909   3.248  1.5504  1.9395  0.2999
 7992SOL    HW235610   3.103   3.783   3.294 -1.6690 -2.0019 -2.4060
 7993SOL     OW35611   2.892   2.759   1.387  0.0950  0.1950  0.0625
 7993SOL    HW135612   2.908   2.800   1.472 -3.0120 -1.2325  1.3197
 7993SOL    HW235613   2.825   2.693   1.404 -0.8340  0.8465 -1.1095
 7994SOL     OW35614   0.500   1.466  17.468 -0.5237  0.0902  0.5216
 7994SOL    HW135615   0.495   1.523  17.545  1.2686 -0.2398  0.8903
 7994SOL    HW235616   0.416   1.421  17.464 -0.8727  0.7470  0.3512
 7995SOL     OW35617   4.100   1.502   6.479 -0.3773  0.6650 -0.3261
 7995SOL    HW135618   4.014   1.526   6.512  0.1794  0.0321  1.5598
 7995SOL    HW235619   4.111   1.421   6.528 -0.6912  0.9692  0.2492
 7996SOL     OW35620   1.065   0.257   6.951 -0.1235  0.1366  0.4491
 7996SOL    HW135621   1.054   0.305   6.869 -1.6036 -1.2147 -0.1545
 7996SOL    HW235622   1.150   0.289   6.979  0.6584 -1.2273 -0.3595
 7997SOL     OW35623   0.895   4.572   2.883  0.5524 -0.6483  0.3530
 7997SOL    HW135624   0.945   4.575   2.801  0.9872  0.1343  0.6478
 7997SOL    HW235625   0.806   4.572   2.846  1.0695 -0.5617 -0.9121
 7998SOL     OW35626   4.082   4.288   7.146  0.4673 -0.0630 -0.7389
 7998SOL    HW135627   4.108   4.283   7.238 -2.6368  0.6345  0.1775
 7998SOL    HW235628   3.992   4.319   7.151  0.7308  0.7725 -1.1602
 7999SOL     OW35629   2.969   2.695   4.529  0.0779  0.0759  0.1927
 7999SOL    HW135630   2.939   2.777   4.488  0.7742  1.7534  3.0286
 7999SOL    HW235631   2.947   2.713   4.621 -1.2492 -2.7292  0.4168
 8000SOL     OW35632   4.270   3.958   5.868 -0.0548  0.8249 -0.9034
 8000SOL    HW135633   4.318   3.927   5.944 -0.0451  0.1767 -1.1712
 8000SOL    HW235634   4.194   3.899   5.870  1.8136 -1.5591 -0.7918
 8001SOL     OW35635   4.600   1.825   1.073 -0.2085 -0.2430  0.3060
 8001SOL    HW135636   4.677   1.779   1.107  0.9106  1.1021 -0.4227
 8001SOL    HW235637   4.534   1.757   1.087 -0.8535  0.4648  0.6860
 8002SOL     OW35638   0.203   2.901   4.563 -0.2440 -0.0495 -0.0468
 8002SOL    HW135639   0.266   2.840   4.524 -1.5453 -1.3232 -0.1745
 8002SOL    HW235640   0.155   2.837   4.616 -1.7743  3.1656  2.4439
 8003SOL     OW35641   0.062   1.411   6.846  0.0319  0.1436  0.5908
 8003SOL    HW135642   0.041   1.371   6.761  1.4349 -0.6046  0.6039
 8003SOL    HW235643   4.721   1.466   6.854  0.7091  1.3295 -0.8982
 8004SOL     OW35644   3.717   3.368   9.734 -0.1560 -0.6274  0.4287
 8004SOL    HW135645   3.750   3.452   9.704 -1.1062 -0.0088  1.1227
 8004SOL    HW235646   3.641   3.393   9.786 -0.7324 -0.9312 -0.2655
 8005SOL     OW35647   2.209   0.304  12.294  0.0607  0.5193  0.0817
 8005SOL    HW135648   2.227   0.284  12.386 -1.0953 -1.8125 -0.2212
 8005SOL    HW235649   2.113   0.306  12.291  0.0892  1.5415 -0.1745
 8006SOL     OW35650   2.131   1.066   5.137 -0.4459 -0.0356 -0.0669
 8006SOL    HW135651   2.126   1.041   5.044 -1.0931 -0.6713  0.1355
 8006SOL    HW235652   2.104   1.157   5.127  1.2722  0.3192 -1.5578
 8007SOL     OW35653   3.228   0.331   9.459  0.7204 -0.4701  0.4239
 8007SOL    HW135654   3.293   0.265   9.483 -1.2741 -1.7158  2.4106
 8007SOL    HW235655   3.216   0.308   9.367  0.5441 -0.2850  0.4016
 8008SOL     OW35656   1.355   0.487   8.007 -0.3155 -0.4133  0.1797
 8008SOL    HW135657   1.283   0.539   7.971  1.7004  0.6591 -2.3092
 8008SOL    HW235658   1.392   0.553   8.065  0.3052  1.5163 -2.4023
 8009SOL     OW35659   3.049   3.040  12.749 -0.3781 -0.1120 -0.4060
 8009SOL    HW135660   3.056   3.136  12.747  1.4357 -0.1201  3.7656
 8009SOL    HW235661   3.144   3.033  12.739 -0.2667  0.2388  0.3877
 8010SOL     OW35662   1.649   1.807   2.040  0.0073 -0.6903  0.0275
 8010SOL    HW135663   1.555   1.792   2.037 -0.1593  0.0835  1.8503
 8010SOL    HW235664   1.674   1.827   1.950 -2.0368 -0.6379 -0.5175
 8011SOL     OW35665   2.067   1.802   7.917  0.8634  0.2254  0.2437
 8011SOL    HW135666   2.023   1.802   8.002  0.5774 -0.7372  0.0929
 8011SOL    HW235667   2.121   1.880   7.933 -0.1655  0.9686  0.1334
 8012SOL     OW35668   3.583   3.830  13.016 -0.1033  0.2709 -0.0860
 8012SOL    HW135669   3.592   3.885  13.094 -2.7385  2.6495 -1.4559
 8012SOL    HW235670   3.644   3.758  13.032 -1.5358 -0.9530 -0.0314
 8013SOL     OW35671   3.009   4.627   1.124 -0.6146 -0.4306 -0.0198
 8013SOL    HW135672   2.956   4.615   1.203 -1.7850 -2.5190 -1.1311
 8013SOL    HW235673   2.949   4.675   1.068 -1.0187 -1.5838 -0.5813
 8014SOL     OW35674   2.434   4.204   7.766 -0.7765  0.2286 -0.0094
 8014SOL    HW135675   2.465   4.287   7.802  0.5744 -0.3094  0.0539
 8014SOL    HW235676   2.347   4.193   7.804  0.0660  1.0449  2.1217
 8015SOL     OW35677   3.664   2.707  13.510  0.5455 -0.0112  0.0135
 8015SOL    HW135678   3.680   2.784  13.455 -1.8177  1.1440  0.9512
 8015SOL    HW235679   3.610   2.655  13.450  0.7417 -0.5330  0.2887
 8016SOL     OW35680   0.192   1.158  11.235 -0.3272 -0.0663 -0.7519
 8016SOL    HW135681   0.268   1.106  11.207  1.1576  2.1128 -0.7431
 8016SOL    HW235682   0.120   1.095  11.242 -0.9904  0.9168  1.2669
 8017SOL     OW35683   1.502   3.439   8.647  0.3503  0.2505  0.4426
 8017SOL    HW135684   1.587   3.461   8.610 -0.3706 -1.1867 -2.1090
 8017SOL    HW235685   1.453   3.516   8.676 -0.3840 -0.0124 -0.0813
 8018SOL     OW35686   3.148   1.639   2.710 -0.2736 -0.3336 -0.1117
 8018SOL    HW135687   3.101   1.645   2.793  0.6772  2.3010  0.2638
 8018SOL    HW235688   3.068   1.635   2.657 -0.3309 -0.5897 -0.0020
 8019SOL     OW35689   1.296   1.724  16.669  0.0935  0.8287  0.2685
 8019SOL    HW135690   1.322   1.705  16.759  0.5294 -1.5708 -0.3607
 8019SOL    HW235691   1.385   1.733  16.635  0.5619  2.4472  1.9372
 8020SOL     OW35692   1.973   3.436   9.939 -0.5865  0.0268  0.1576
 8020SOL    HW135693   1.990   3.515   9.888  0.2188  0.7791  1.5965
 8020SOL    HW235694   1.956   3.473  10.025 -1.4341 -0.5135  0.2121
 8021SOL     OW35695   1.682   2.132   3.474  0.5450  0.2863  0.4319
 8021SOL    HW135696   1.768   2.089   3.477 -1.1699 -3.1962  0.2006
 8021SOL    HW235697   1.702   2.202   3.412  1.8665  0.0668  0.6027
 8022SOL     OW35698   4.178   2.338   3.751  0.2634  0.1128 -0.2207
 8022SOL    HW135699   4.104   2.392   3.723  1.2728  2.5043  1.7674
 8022SOL    HW235700   4.190   2.360   3.843  1.6680 -0.2890 -0.3023
 8023SOL     OW35701   1.299   4.337   3.315 -0.1962 -0.0635 -0.4407
 8023SOL    HW135702   1.345   4.419   3.333 -0.0230  0.1389 -1.7894
 8023SOL    HW235703   1.312   4.335   3.220 -2.6203 -0.4105 -0.7714
 8024SOL     OW35704   0.000   2.360  17.736  0.3614 -0.4878  0.3966
 8024SOL    HW135705   0.017   2.313  17.654 -1.2475 -1.4262  0.5958
 8024SOL    HW235706   4.674   2.422  17.701 -0.3104 -0.8034  1.0520
 8025SOL     OW35707   3.709   2.990   4.000  0.8988  0.0988  0.1323
 8025SOL    HW135708   3.658   2.912   4.023 -0.6240  0.8954 -0.5542
 8025SOL    HW235709   3.713   3.035   4.085  0.4410  1.3010 -0.4815
 8026SOL     OW35710   2.072   3.330  16.856 -0.0110  0.4172  0.2087
 8026SOL    HW135711   1.995   3.299  16.808 -2.3868  0.7756  3.7736
 8026SOL    HW235712   2.141   3.318  16.791 -0.7631  0.1640 -0.5376
 8027SOL     OW35713   4.402   4.677   4.382  0.0542  0.2506 -0.4630
 8027SOL    HW135714   4.485   4.722   4.370  0.6395 -0.9878 -1.0109
 8027SOL    HW235715   4.352   4.710   4.307  2.5731  3.4199 -0.6949
 8028SOL     OW35716   3.330   1.783   3.847 -0.0183  0.0328  0.0742
 8028SOL    HW135717   3.297   1.785   3.757 -0.1706 -1.2945  0.1029
 8028SOL    HW235718   3.396   1.851   3.838 -2.0403  2.3560  2.6871
 8029SOL     OW35719   1.074   0.710   5.941 -0.6283 -0.2008 -0.9307
 8029SOL    HW135720   0.995   0.660   5.922 -2.5755  1.6871  2.1493
 8029SOL    HW235721   1.050   0.773   6.009  2.1438 -1.3421  1.0702
 8030SOL     OW35722   3.428   3.162   3.149  0.0818 -0.6101 -0.2278
 8030SOL    HW135723   3.357   3.150   3.212 -1.4796  1.4980 -1.5926
 8030SOL    HW235724   3.394   3.136   3.063  0.8619  1.0321 -1.0226
 8031SOL     OW35725   2.261   1.902   5.895 -0.1149 -0.3318  0.1166
 8031SOL    HW135726   2.261   1.900   5.799 -1.1817  1.4612  0.0843
 8031SOL    HW235727   2.233   1.989   5.920 -1.4287 -0.6636 -0.2317
 8032SOL     OW35728   2.537   3.525   3.109 -0.4356  0.5630  0.0646
 8032SOL    HW135729   2.473   3.569   3.053  1.9769  0.6545 -2.6131
 8032SOL    HW235730   2.506   3.435   3.104 -3.6025  1.5876  1.1335
 8033SOL     OW35731   3.176   0.120   6.428  0.2382  0.0601 -0.5508
 8033SOL    HW135732   3.182   0.075   6.512 -1.2792 -0.3668 -0.6749
 8033SOL    HW235733   3.251   0.179   6.418 -0.6018  0.9640 -1.5796
 8034SOL     OW35734   3.515   1.971   3.579  0.1917  0.0999 -0.0175
 8034SOL    HW135735   3.581   2.040   3.589  0.0932  0.2803 -0.6430
 8034SOL    HW235736   3.563   1.890   3.598 -0.9470 -0.4791  0.3796
 8035SOL     OW35737   1.744   3.127   4.047 -0.3784  0.1871  0.1805
 8035SOL    HW135738   1.802   3.178   3.990  0.0510  0.9184  1.2778
 8035SOL    HW235739   1.741   3.194   4.115  0.1777 -0.1842  0.5634
 8036SOL     OW35740   3.441   4.522   6.427 -0.7321  0.1212  0.1711
 8036SOL    HW135741   3.407   4.476   6.351 -0.0634 -1.9109  1.0901
 8036SOL    HW235742   3.496   4.595   6.399 -0.5017 -0.2566 -0.3444
 8037SOL     OW35743   2.993   3.497  11.395 -0.2886 -0.1478  0.1672
 8037SOL    HW135744   2.919   3.519  11.452  0.1116  1.0668  0.2298
 8037SOL    HW235745   3.037   3.439  11.456 -0.3524  0.1981  0.5465
 8038SOL     OW35746   2.974   3.397   6.328 -0.2935  0.0479  0.1779
 8038SOL    HW135747   3.012   3.327   6.276 -1.5353 -0.1792 -0.4182
 8038SOL    HW235748   3.031   3.473   6.318  1.9183 -1.7482 -0.7896
 8039SOL     OW35749   4.680   3.511  12.528  0.2226 -0.3973 -0.1021
 8039SOL    HW135750   4.684   3.593  12.578  2.7328 -1.0893  0.8016
 8039SOL    HW235751   0.008   3.466  12.581 -1.3189 -1.9500  0.4567
 8040SOL     OW35752   2.972   0.985   7.321 -0.5142  0.9204 -0.2848
 8040SOL    HW135753   3.051   0.932   7.307 -0.7562 -0.0171  1.8492
 8040SOL    HW235754   2.990   1.029   7.405 -2.1049 -1.4454  1.3098
 8041SOL     OW35755   2.054   0.766   6.286 -0.2894 -0.2967 -0.0498
 8041SOL    HW135756   1.981   0.708   6.307  1.0488 -2.7432 -2.1242
 8041SOL    HW235757   2.080   0.736   6.198 -2.5563 -0.5351 -0.6277
 8042SOL     OW35758   0.863   1.531  15.911 -0.7193  0.2607 -0.2024
 8042SOL    HW135759   0.936   1.511  15.853 -0.9766  0.9340 -0.7596
 8042SOL    HW235760   0.898   1.589  15.978  0.3931  2.0371 -2.3195
 8043SOL     OW35761   2.701   1.727   4.770  0.3925 -0.2543  0.2790
 8043SOL    HW135762   2.779   1.772   4.803 -0.7993  1.3309  0.9106
 8043SOL    HW235763   2.694   1.757   4.679 -0.8058 -3.4276 -0.6558
 8044SOL     OW35764   1.188   3.159   3.838  0.3578  0.3932 -0.6078
 8044SOL    HW135765   1.178   3.249   3.807 -1.1357  0.5690  0.3676
 8044SOL    HW235766   1.117   3.107   3.799 -1.1048  1.0765  1.1384
 8045SOL     OW35767   1.755   0.751  16.439 -0.2559 -0.5424 -0.5311
 8045SOL    HW135768   1.761   0.676  16.380  0.5058 -0.3204 -0.7309
 8045SOL    HW235769   1.755   0.705  16.522 -1.3276 -0.6790 -0.5998
 8046SOL     OW35770   0.470   3.015   3.880  0.3607  0.2687 -0.2698
 8046SOL    HW135771   0.398   2.983   3.934 -0.6656  1.7869 -0.7308
 8046SOL    HW235772   0.425   3.039   3.799 -1.6338  0.4778  0.8993
 8047SOL     OW35773   3.037   3.459  12.178 -0.0652 -0.2440 -0.0052
 8047SOL    HW135774   3.123   3.454  12.219 -0.0081  1.6567  0.1175
 8047SOL    HW235775   3.029   3.554  12.175  3.4210  0.1067  1.6894
 8048SOL     OW35776   4.432   1.055   8.147 -0.1483  0.1639  0.3260
 8048SOL    HW135777   4.442   1.150   8.142 -1.4919  0.2489 -0.4788
 8048SOL    HW235778   4.524   1.028   8.136  0.4231  1.7748  1.0727
 8049SOL     OW35779   1.844   3.823   4.228  0.1623  0.1489 -0.1942
 8049SOL    HW135780   1.766   3.777   4.258  0.5439 -1.1513 -1.2153
 8049SOL    HW235781   1.815   3.914   4.232  0.8624  0.4246 -1.2652
 8050SOL     OW35782   0.537   2.829   4.420 -0.8000 -0.2552  0.1381
 8050SOL    HW135783   0.546   2.857   4.329 -2.4270  1.1857  0.4149
 8050SOL    HW235784   0.588   2.749   4.430  0.9956  1.0094  1.1324
 8051SOL     OW35785   1.250   3.753  13.433  0.1463 -0.1145  0.3383
 8051SOL    HW135786   1.282   3.832  13.389 -1.1385 -0.1478 -0.6716
 8051SOL    HW235787   1.326   3.697  13.419 -0.7358 -2.0826  3.5107
 8052SOL     OW35788   0.424   3.085   4.203  0.0003  0.1457 -0.0421
 8052SOL    HW135789   0.493   3.028   4.169  0.2632  0.1122  0.5390
 8052SOL    HW235790   0.349   3.045   4.159 -1.5339  3.5461 -0.5096
 8053SOL     OW35791   1.146   4.727  15.302  0.1685  0.2473 -0.2563
 8053SOL    HW135792   1.100   4.658  15.351  1.0483  0.8144  1.3695
 8053SOL    HW235793   1.071   0.031  15.259  0.9398  1.1332 -0.7153
 8054SOL     OW35794   1.321   4.077   6.937 -0.2488 -0.4992 -0.1686
 8054SOL    HW135795   1.262   4.117   6.874 -0.3830  0.6879  0.7139
 8054SOL    HW235796   1.254   4.055   7.002  0.0404 -0.1084  0.2628
 8055SOL     OW35797   4.228   2.262   7.343  0.2103  0.1204 -0.2412
 8055SOL    HW135798   4.323   2.253   7.334  0.4816  1.6344  1.1439
 8055SOL    HW235799   4.190   2.189   7.293  0.6989 -0.5648  0.3928
 8056SOL     OW35800   1.421   2.552  16.075 -0.6231  0.3639  0.1142
 8056SOL    HW135801   1.360   2.523  16.007 -0.1590 -1.7903  0.5870
 8056SOL    HW235802   1.367   2.611  16.127  0.3839  0.3232  1.2029
 8057SOL     OW35803   1.706   0.084  11.666 -0.3634  0.5555 -0.3391
 8057SOL    HW135804   1.641   0.037  11.614 -1.4598  0.8173  0.7979
 8057SOL    HW235805   1.768   0.121  11.603 -0.6668  1.4144 -0.1427
 8058SOL     OW35806   0.441   0.272  11.462  0.3343 -0.6239  0.0288
 8058SOL    HW135807   0.383   0.322  11.405 -0.2710  0.9486  2.0564
 8058SOL    HW235808   0.390   0.194  11.483  0.7324 -0.4171  1.7368
 8059SOL     OW35809   0.479   0.450   8.281 -0.2905 -0.1000  0.0552
 8059SOL    HW135810   0.415   0.392   8.320 -0.0703 -0.6345 -0.3844
 8059SOL    HW235811   0.543   0.446   8.353  0.5309  0.6347 -0.6334
 8060SOL     OW35812   0.063   1.742   1.218 -0.0076  0.4627  0.2392
 8060SOL    HW135813   0.016   1.747   1.301 -0.2747  1.5741  0.0213
 8060SOL    HW235814   0.139   1.690   1.243  1.7206  1.9831 -1.7897
 8061SOL     OW35815   2.301   3.287   4.934 -0.3075  0.0298 -0.1932
 8061SOL    HW135816   2.357   3.294   4.857 -1.3605 -2.5709 -1.1854
 8061SOL    HW235817   2.311   3.376   4.968 -0.8785  1.1960 -3.1181
 8062SOL     OW35818   1.281   0.788  15.920 -0.4560 -0.2700  0.3754
 8062SOL    HW135819   1.294   0.700  15.884  1.9655 -0.1672  1.0166
 8062SOL    HW235820   1.265   0.773  16.013 -1.1874  2.1314  0.6346
 8063SOL     OW35821   1.188   2.368   3.211  0.4881 -0.1499 -0.0221
 8063SOL    HW135822   1.143   2.449   3.189 -0.3675 -0.8333 -0.8122
 8063SOL    HW235823   1.126   2.304   3.175  0.6809  0.6013 -1.6957
 8064SOL     OW35824   1.428   4.156   9.896 -0.1660  0.3720  0.0746
 8064SOL    HW135825   1.355   4.115   9.942  0.2155  1.1326  1.3529
 8064SOL    HW235826   1.499   4.128   9.954 -0.2161 -0.5274 -0.3003
 8065SOL     OW35827   4.055   2.572   3.697 -0.7616 -0.2519  0.3799
 8065SOL    HW135828   3.996   2.647   3.704 -0.5047 -0.1347  1.4219
 8065SOL    HW235829   4.099   2.578   3.783 -0.8843  0.4790  0.3937
 8066SOL     OW35830   2.721   4.259   1.786 -0.2985 -0.2314  0.1302
 8066SOL    HW135831   2.641   4.276   1.836  0.2198 -0.7995  1.1474
 8066SOL    HW235832   2.786   4.249   1.856  0.6767  2.1263 -0.4363
 8067SOL     OW35833   2.940   2.491   3.218 -0.0932  0.8488 -0.6127
 8067SOL    HW135834   2.869   2.458   3.273  0.6422 -0.5166 -0.4913
 8067SOL    HW235835   2.911   2.466   3.130 -1.6855 -0.4644  0.2687
 8068SOL     OW35836   0.303   2.764   4.890 -0.5915  0.6761  0.3574
 8068SOL    HW135837   0.357   2.722   4.823 -0.7938  2.4970 -0.9581
 8068SOL    HW235838   0.352   2.846   4.891  2.1673 -0.9579 -0.4430
 8069SOL     OW35839   1.080   2.291  17.478 -0.0448 -0.3216 -0.4744
 8069SOL    HW135840   1.160   2.333  17.509 -1.0996 -0.0065  1.7583
 8069SOL    HW235841   1.035   2.274  17.560 -2.1011  2.5502 -1.0195
 8070SOL     OW35842   3.393   0.890   4.309  0.3271  0.5803 -0.0879
 8070SOL    HW135843   3.346   0.974   4.306  1.2808  1.0662 -1.3983
 8070SOL    HW235844   3.426   0.902   4.398  1.6111 -0.8040 -0.3896
 8071SOL     OW35845   0.802   1.225   4.168 -0.2685 -0.2053  0.2554
 8071SOL    HW135846   0.724   1.235   4.223  0.4602  0.7319  1.1305
 8071SOL    HW235847   0.768   1.224   4.079  3.8285  3.8791 -1.3410
 8072SOL     OW35848   3.959   1.298   1.683 -0.0259 -0.2054  0.0656
 8072SOL    HW135849   3.935   1.207   1.699 -0.6727 -0.4998 -2.5055
 8072SOL    HW235850   4.018   1.283   1.609 -1.3291 -1.2237 -0.7576
 8073SOL     OW35851   1.565   4.662   0.524  0.3459  0.0483  0.2723
 8073SOL    HW135852   1.651   4.701   0.505 -1.6984  3.6724 -1.3986
 8073SOL    HW235853   1.545   4.638   0.433 -0.4523 -0.0829  0.4899
 8074SOL     OW35854   3.051   0.041  10.515 -0.0478 -0.7936 -0.3999
 8074SOL    HW135855   3.142   0.070  10.523 -0.2846 -0.4927  1.3011
 8074SOL    HW235856   3.026   0.114  10.458 -1.7365  0.1269  1.5134
 8075SOL     OW35857   0.027   1.948   0.761  0.2587 -0.6285  0.2731
 8075SOL    HW135858   4.674   1.979   0.754 -0.1391 -1.1740  2.7586
 8075SOL    HW235859   0.011   1.869   0.813 -1.5541  0.9204  2.0484
 8076SOL     OW35860   2.221   3.118   2.223 -0.1139  0.6089 -0.0476
 8076SOL    HW135861   2.309   3.081   2.233  0.6934  2.5365 -0.1886
 8076SOL    HW235862   2.203   3.093   2.132  0.0721  0.8012 -0.1358
 8077SOL     OW35863   3.702   4.348   6.796 -1.0460  0.4022  0.1471
 8077SOL    HW135864   3.782   4.395   6.773  0.2396 -2.2622 -0.8481
 8077SOL    HW235865   3.735   4.287   6.862  0.6320  1.9330  0.7222
 8078SOL     OW35866   0.218   3.675   5.340  0.1622 -0.3832 -0.2256
 8078SOL    HW135867   0.185   3.602   5.393  0.5648  1.3032  2.3309
 8078SOL    HW235868   0.311   3.671   5.362 -0.5767 -2.6622  2.4452
 8079SOL     OW35869   3.248   2.809  16.683 -0.3386 -0.1273 -0.7346
 8079SOL    HW135870   3.296   2.748  16.627 -2.4659  0.5463 -3.2649
 8079SOL    HW235871   3.178   2.836  16.624 -0.2889 -1.0701 -1.2242
 8080SOL     OW35872   1.017   3.854   6.533 -0.3322  0.3069  0.0312
 8080SOL    HW135873   0.986   3.818   6.450  1.0278  0.1032 -0.3964
 8080SOL    HW235874   1.111   3.835   6.524 -0.1022  0.7573  1.4128
 8081SOL     OW35875   2.334   3.556   9.419  0.4101  0.4042 -0.4087
 8081SOL    HW135876   2.353   3.578   9.511  1.1090  1.4373 -0.8024
 8081SOL    HW235877   2.399   3.606   9.370 -0.8437  1.0753 -1.4057
 8082SOL     OW35878   0.508   1.165   1.534  0.1895 -0.1355 -0.0817
 8082SOL    HW135879   0.591   1.119   1.521  0.4423  0.0602  0.8156
 8082SOL    HW235880   0.462   1.089   1.571  1.0859 -0.4161  0.4484
 8083SOL     OW35881   3.458   1.106   9.960 -0.1381  0.1143  0.6073
 8083SOL    HW135882   3.389   1.172   9.966  0.2176  0.4365  1.2133
 8083SOL    HW235883   3.516   1.132  10.032 -2.0689 -0.8530  2.5064
 8084SOL     OW35884   4.272   3.006   2.075  0.0348  0.4401  0.4101
 8084SOL    HW135885   4.353   3.039   2.036 -0.0310  0.1243  0.0062
 8084SOL    HW235886   4.227   2.966   2.001 -3.4117  1.0416  2.1524
 8085SOL     OW35887   4.665   4.044   3.566 -1.1264 -0.1167 -0.9177
 8085SOL    HW135888   4.692   4.095   3.490  1.9353  0.2733  0.4545
 8085SOL    HW235889   4.599   3.988   3.525 -0.5929 -0.8609 -0.7635
 8086SOL     OW35890   2.321   0.584  10.184 -0.6378  0.3113 -0.2971
 8086SOL    HW135891   2.395   0.525  10.174 -1.0765 -0.2315 -0.3298
 8086SOL    HW235892   2.262   0.566  10.111  1.4969 -0.3650 -1.8351
 8087SOL     OW35893   0.587   3.214   2.330 -0.4239 -0.4914  0.0393
 8087SOL    HW135894   0.496   3.207   2.360 -0.1428 -1.6501  0.5995
 8087SOL    HW235895   0.611   3.301   2.361 -1.6925 -0.4264  0.8244
 8088SOL     OW35896   0.680   2.361  15.214 -0.3876 -0.0069 -0.2578
 8088SOL    HW135897   0.685   2.333  15.123  0.2961 -0.0550 -0.2052
 8088SOL    HW235898   0.693   2.283  15.267 -0.5339 -0.6046 -1.1135
 8089SOL     OW35899   0.547   1.928  14.165 -0.0875 -0.0673  0.2957
 8089SOL    HW135900   0.496   1.926  14.084 -0.9326 -1.7331  0.8795
 8089SOL    HW235901   0.507   1.847  14.194 -1.8286  1.1508  1.2906
 8090SOL     OW35902   0.964   1.737   7.591  0.1287  0.2915  0.3436
 8090SOL    HW135903   0.976   1.714   7.499  2.0032  0.1914  0.6158
 8090SOL    HW235904   1.044   1.720   7.641  1.1143  2.0791 -0.6246
 8091SOL     OW35905   2.581   0.279   7.799 -0.1883 -0.2732  0.4447
 8091SOL    HW135906   2.550   0.363   7.768 -1.4792 -1.0653 -0.4190
 8091SOL    HW235907   2.579   0.293   7.894  0.5515 -0.2407  0.4518
 8092SOL     OW35908   3.537   1.030   9.720  0.4038  0.1569 -0.2008
 8092SOL    HW135909   3.478   1.098   9.687 -0.2853 -0.0457  0.6114
 8092SOL    HW235910   3.508   1.050   9.809 -0.6158 -0.7615 -0.3340
 8093SOL     OW35911   3.842   2.880   9.801 -0.4173 -1.0667  0.7931
 8093SOL    HW135912   3.878   2.958   9.758 -1.1543 -0.3473  1.4670
 8093SOL    HW235913   3.772   2.913   9.858 -2.7098  1.3639 -3.3901
 8094SOL     OW35914   0.003   4.522  12.795 -0.4060  0.0652 -0.3869
 8094SOL    HW135915   0.067   4.468  12.749 -1.0373  1.4745 -2.9056
 8094SOL    HW235916   0.011   4.480  12.881 -1.2494 -0.8995 -0.7867
 8095SOL     OW35917   0.070   0.419   6.844 -0.2615 -0.8504  0.0299
 8095SOL    HW135918   0.051   0.354   6.912 -2.2689 -0.4742 -0.1946
 8095SOL    HW235919   0.049   0.379   6.760 -1.5309 -1.3065  0.5639
 8096SOL     OW35920   4.637   2.660  15.425  0.2933 -0.5917  0.0229
 8096SOL    HW135921   4.733   2.664  15.423  0.2970 -0.1646  1.4841
 8096SOL    HW235922   4.615   2.573  15.393 -0.6347 -0.4567  0.3174
 8097SOL     OW35923   4.424   0.199   3.468  0.5550 -0.1095 -0.0960
 8097SOL    HW135924   4.493   0.151   3.512  0.8613 -0.0806 -0.5385
 8097SOL    HW235925   4.459   0.288   3.460  2.3295 -0.8880 -1.0619
 8098SOL     OW35926   0.630   3.427   4.463  0.4824 -0.3441  0.2712
 8098SOL    HW135927   0.588   3.424   4.377  1.4332  1.5307 -0.2364
 8098SOL    HW235928   0.556   3.410   4.523 -0.6672 -2.2481 -1.6876
 8099SOL     OW35929   3.829   0.180   5.310  0.1890 -0.2853 -0.4291
 8099SOL    HW135930   3.832   0.146   5.399 -1.2012 -0.2854 -0.3779
 8099SOL    HW235931   3.820   0.101   5.257  0.0391 -1.8051  1.8810
 8100SOL     OW35932   2.987   1.047  17.353 -0.1367  0.2605  0.1577
 8100SOL    HW135933   2.982   1.115  17.420 -0.1243  0.1598  0.2607
 8100SOL    HW235934   3.041   1.086  17.285  0.2381 -4.0965 -2.0458
 8101SOL     OW35935   0.570   2.573  12.291  0.5462  0.3420  0.1061
 8101SOL    HW135936   0.516   2.506  12.248  0.9697  1.6763 -2.4693
 8101SOL    HW235937   0.555   2.554  12.384  1.8789 -0.5052  0.1379
 8102SOL     OW35938   4.559   3.497   3.198 -0.3750 -0.2323 -0.1518
 8102SOL    HW135939   4.583   3.560   3.266  1.2893 -1.1300  0.0940
 8102SOL    HW235940   4.464   3.497   3.210 -0.2633 -3.0605  0.8119
 8103SOL     OW35941   1.446   3.759   6.673 -0.1960  0.5250  0.4731
 8103SOL    HW135942   1.478   3.795   6.756 -2.1802 -0.7906  1.7927
 8103SOL    HW235943   1.484   3.671   6.679 -0.0899  0.3424 -3.2236
 8104SOL     OW35944   1.012   1.934   1.140 -0.1900  0.6936 -0.1483
 8104SOL    HW135945   0.975   1.866   1.196 -2.5765  2.4861  0.4418
 8104SOL    HW235946   0.956   2.006   1.168 -1.9596 -1.4396  1.8026
 8105SOL     OW35947   0.570   1.019   4.039  0.1624  0.5027 -0.1024
 8105SOL    HW135948   0.516   1.003   3.962 -1.1122  1.7271  0.5228
 8105SOL    HW235949   0.578   1.114   4.028  0.5510  0.5424  0.5324
 8106SOL     OW35950   3.118   2.353   1.605  0.1832 -0.5424 -0.8345
 8106SOL    HW135951   3.208   2.385   1.596  0.0187 -0.0363 -0.6671
 8106SOL    HW235952   3.068   2.434   1.597  1.3697  0.3243  0.5259
 8107SOL     OW35953   0.851   4.371   6.666 -0.3047 -0.4364  0.8278
 8107SOL    HW135954   0.812   4.285   6.655 -1.7901  0.1383  1.5959
 8107SOL    HW235955   0.862   4.381   6.761  2.0260 -2.8137  0.8189
 8108SOL     OW35956   4.397   3.273   5.068 -0.2152  0.7343 -0.4112
 8108SOL    HW135957   4.313   3.238   5.039 -1.0639  0.9117  1.8120
 8108SOL    HW235958   4.365   3.350   5.115 -1.5484 -0.3908  0.5268
 8109SOL     OW35959   3.206   2.178   5.529  0.4302 -0.2370  0.8465
 8109SOL    HW135960   3.292   2.220   5.523  0.4263 -0.5349 -1.4137
 8109SOL    HW235961   3.189   2.199   5.621  1.0088  2.0087  0.4310
 8110SOL     OW35962   3.673   2.083   3.159  0.1161 -0.7807 -0.2313
 8110SOL    HW135963   3.629   2.152   3.109  1.2369  0.4168  0.4172
 8110SOL    HW235964   3.605   2.034   3.206 -1.7181 -0.2484 -2.3431
 8111SOL     OW35965   3.282   0.766   7.959  0.2139  0.0641 -0.2188
 8111SOL    HW135966   3.337   0.688   7.955 -0.4742 -0.3234 -2.4346
 8111SOL    HW235967   3.341   0.835   7.988 -0.9023  0.2697  1.5540
 8112SOL     OW35968   3.491   3.630  16.255 -0.3112 -0.0869 -0.5589
 8112SOL    HW135969   3.567   3.580  16.225  2.1612  4.1370 -1.4390
 8112SOL    HW235970   3.500   3.704  16.196  1.5789  0.9803  1.0432
 8113SOL     OW35971   0.056   2.073   0.045 -0.1526  0.3163 -0.1120
 8113SOL    HW135972   0.015   2.148   0.003 -0.3253  1.3478  1.8948
 8113SOL    HW235973   0.148   2.077   0.019 -0.2660  1.8170 -0.2540
 8114SOL     OW35974   3.136   0.679  10.381 -0.0526 -0.1864 -0.0010
 8114SOL    HW135975   3.225   0.647  10.395  0.0135  0.2104  0.4606
 8114SOL    HW235976   3.122   0.670  10.286 -1.0541 -1.9714  0.3086
 8115SOL     OW35977   3.435   1.638  11.426  0.7298 -0.2450 -0.3449
 8115SOL    HW135978   3.358   1.657  11.372 -1.3728 -1.4302  2.2381
 8115SOL    HW235979   3.383   1.617  11.504 -1.3078 -0.7567 -1.8272
 8116SOL     OW35980   2.068   4.258   3.193  0.1562 -0.2372  0.1566
 8116SOL    HW135981   2.110   4.314   3.260  0.9054 -0.6300  0.0153
 8116SOL    HW235982   2.099   4.301   3.113  3.1715  1.9380  2.4709
 8117SOL     OW35983   3.951   2.822  12.507 -0.4569 -0.4189 -0.1139
 8117SOL    HW135984   3.902   2.740  12.509  0.0443 -0.6566  1.7437
 8117SOL    HW235985   4.031   2.798  12.460 -0.2310  1.0167 -0.4855
 8118SOL     OW35986   3.383   1.863   5.157 -0.5926  0.0096  0.3468
 8118SOL    HW135987   3.377   1.784   5.212  2.0203  1.0369  2.1009
 8118SOL    HW235988   3.345   1.923   5.222  2.6034  1.0758  1.2106
 8119SOL     OW35989   2.553   1.701   6.737 -0.3605 -0.3670 -0.0096
 8119SOL    HW135990   2.533   1.778   6.790 -1.6771 -1.5994  1.2532
 8119SOL    HW235991   2.476   1.645   6.746  1.9590 -3.4306  1.0202
 8120SOL     OW35992   0.064   1.752  11.187 -0.2914  0.0304  0.3224
 8120SOL    HW135993   0.051   1.680  11.249 -1.1283 -0.5646 -0.5332
 8120SOL    HW235994   0.024   1.716  11.108  0.0696 -0.4265  0.3423
 8121SOL     OW35995   3.026   3.544   5.842  0.2645  0.0696 -0.1239
 8121SOL    HW135996   3.106   3.567   5.890  0.6229 -1.0370 -0.1877
 8121SOL    HW235997   3.058   3.562   5.754  0.2311 -0.6350 -0.2808
 8122SOL     OW35998   3.401   4.113   3.036 -0.5192  0.6024  0.1792
 8122SOL    HW135999   3.379   4.049   3.104  3.4279  0.1034  1.0057
 8122SOL    HW236000   3.335   4.177   3.062 -0.1106  0.8102  0.7186
 8123SOL     OW36001   0.918   0.049   0.442 -0.1638 -0.1245  0.3404
 8123SOL    HW136002   0.983   4.720   0.466 -1.1425 -0.9671  0.6130
 8123SOL    HW236003   0.934   0.053   0.348 -2.4949  0.6201 -0.0278
 8124SOL     OW36004   3.214   4.341   4.838  0.7713 -0.1429 -0.1924
 8124SOL    HW136005   3.197   4.311   4.927 -1.8320  1.8883  0.0093
 8124SOL    HW236006   3.204   4.259   4.791 -0.0199  0.4627 -1.0907
 8125SOL     OW36007   3.512   1.712  13.260  0.0883 -0.3108 -0.6756
 8125SOL    HW136008   3.436   1.683  13.209 -0.0239  0.5666 -1.0091
 8125SOL    HW236009   3.519   1.799  13.222  0.7321 -0.3994 -0.7578
 8126SOL     OW36010   3.045   4.725   1.574  0.4743 -0.2757 -0.1901
 8126SOL    HW136011   2.957   4.711   1.609  0.4648  0.1612 -0.0389
 8126SOL    HW236012   3.088   4.658   1.627  0.0508 -1.4131 -1.2700
 8127SOL     OW36013   2.912   1.899   8.165  0.1665 -0.0823  0.2520
 8127SOL    HW136014   2.911   1.807   8.136  2.1282 -0.2373  0.7188
 8127SOL    HW236015   2.828   1.899   8.211  0.4658  0.0149  0.7953
 8128SOL     OW36016   3.185   4.099  11.437 -0.5016 -0.1907 -0.1132
 8128SOL    HW136017   3.242   4.156  11.385 -1.1883  1.3530  0.8119
 8128SOL    HW236018   3.228   4.014  11.424  2.3150  1.2816 -0.3492
 8129SOL     OW36019   3.468   1.222   8.738 -0.1733 -0.6640  0.1338
 8129SOL    HW136020   3.539   1.163   8.713  1.4855  1.1161  0.6704
 8129SOL    HW236021   3.405   1.152   8.720  1.2382 -1.5541 -1.3132
 8130SOL     OW36022   2.021   3.278   4.547 -0.4148 -0.2274 -0.3598
 8130SOL    HW136023   2.020   3.197   4.495  0.3551 -0.2670 -0.3035
 8130SOL    HW236024   1.956   3.333   4.503 -0.3587  0.6418  0.6610
 8131SOL     OW36025   2.452   0.210   2.817 -0.1846  0.3218 -0.0803
 8131SOL    HW136026   2.544   0.235   2.803  0.4630 -0.4662  2.7264
 8131SOL    HW236027   2.423   0.301   2.826 -3.4022 -0.6988 -0.4225
 8132SOL     OW36028   1.407   4.623   9.204  0.3242 -0.2764  0.0719
 8132SOL    HW136029   1.462   4.699   9.224 -0.9563  1.4242 -2.7278
 8132SOL    HW236030   1.330   4.630   9.260  0.1295 -0.8986 -0.1247
 8133SOL     OW36031   3.490   3.044   1.999  0.0372 -0.2080 -0.0306
 8133SOL    HW136032   3.455   3.062   2.086  1.3854 -0.5331  0.5840
 8133SOL    HW236033   3.459   2.953   1.995  1.0401 -0.6195  1.5878
 8134SOL     OW36034   2.627   2.214  10.943  0.3905  0.3770  0.1514
 8134SOL    HW136035   2.630   2.222  10.847 -1.9679  2.0418  0.2101
 8134SOL    HW236036   2.589   2.128  10.962 -0.3537  0.5973 -0.3081
 8135SOL     OW36037   3.743   4.032   5.305  0.1769  0.0163 -0.2145
 8135SOL    HW136038   3.665   3.987   5.338  1.3989 -3.6254 -2.2377
 8135SOL    HW236039   3.774   3.978   5.232  0.7380  1.6993 -1.2298
 8136SOL     OW36040   2.239   4.469   8.023  0.0123 -0.3312 -0.1982
 8136SOL    HW136041   2.250   4.532   8.094 -0.9609 -2.0069  1.4272
 8136SOL    HW236042   2.147   4.488   8.004  0.3231  0.3989 -1.0234
 8137SOL     OW36043   1.328   3.786   2.156  0.4547  0.1416  0.0218
 8137SOL    HW136044   1.396   3.729   2.192 -0.2036  0.0094  1.0856
 8137SOL    HW236045   1.361   3.808   2.070  0.6174  0.1021  0.0752
 8138SOL     OW36046   2.150   4.706  10.711  0.1075  0.1206  0.2017
 8138SOL    HW136047   2.091   0.042  10.690 -0.5668  0.4496  3.2461
 8138SOL    HW236048   2.224   0.012  10.754 -0.3205  2.4874 -1.4206
 8139SOL     OW36049   3.516   1.544  14.092  0.1701 -0.5391  0.6042
 8139SOL    HW136050   3.519   1.585  14.178 -0.3847  2.2207 -0.6863
 8139SOL    HW236051   3.610   1.549  14.075 -0.0230  2.9187  0.5869
 8140SOL     OW36052   4.041   2.329   3.096 -0.1595  0.4109  0.6878
 8140SOL    HW136053   4.012   2.348   3.185 -0.6256 -0.6460  0.7616
 8140SOL    HW236054   4.079   2.415   3.079  0.4114  0.4765  2.2919
 8141SOL     OW36055   1.551   0.120   7.993 -0.0255 -0.0488  0.0703
 8141SOL    HW136056   1.472   0.114   8.047 -0.0581  1.2261  0.1723
 8141SOL    HW236057   1.582   0.029   7.992  0.9704  0.2445  3.0214
 8142SOL     OW36058   4.714   2.079   0.431 -0.1900 -0.3308  0.0301
 8142SOL    HW136059   4.652   2.117   0.494  0.4385 -2.2233  1.7610
 8142SOL    HW236060   4.737   2.157   0.379 -0.1250 -1.6863 -1.9417
 8143SOL     OW36061   0.145   4.528   6.896  0.0500  0.5168  0.1193
 8143SOL    HW136062   0.238   4.532   6.918  0.2618  1.2242 -0.8723
 8143SOL    HW236063   0.131   4.434   6.898  3.3227  0.0344  1.3718
 8144SOL     OW36064   2.524   0.663   1.674  0.1526 -0.1258 -0.3305
 8144SOL    HW136065   2.512   0.568   1.679  1.5562 -0.2605  0.4849
 8144SOL    HW236066   2.617   0.675   1.696  0.5238 -0.1707 -1.8863
 8145SOL     OW36067   0.116   4.163   2.253 -0.1041  0.1692  0.1408
 8145SOL    HW136068   0.021   4.157   2.241 -0.3767  0.9913  1.8948
 8145SOL    HW236069   0.148   4.118   2.174  0.5713  3.1809 -1.2996
 8146SOL     OW36070   1.996   3.772   3.867  0.2806 -0.0437  0.3194
 8146SOL    HW136071   2.003   3.729   3.782  0.3988 -2.0124  1.3348
 8146SOL    HW236072   2.003   3.862   3.834  0.5111  0.4351  1.6626
 8147SOL     OW36073   0.909   2.357   7.104  0.3446  0.0758 -0.3139
 8147SOL    HW136074   0.884   2.290   7.040  1.0729 -1.4861  1.0425
 8147SOL    HW236075   0.876   2.434   7.058  0.1271 -0.6603 -1.4150
 8148SOL     OW36076   2.322   0.791   4.980  0.3524 -0.1375 -0.0716
 8148SOL    HW136077   2.230   0.769   4.998  0.1743  0.4342 -0.2964
 8148SOL    HW236078   2.307   0.864   4.920 -0.5352 -0.1603  0.1215
 8149SOL     OW36079   1.057   3.307  15.285 -0.1632 -0.5907  0.1385
 8149SOL    HW136080   1.090   3.308  15.195  1.1582 -0.7412  0.6232
 8149SOL    HW236081   1.033   3.216  15.302 -0.5555 -0.3105  1.1032
 8150SOL     OW36082   2.861   0.793   4.582  0.3382 -0.5876  0.3111
 8150SOL    HW136083   2.904   0.857   4.525 -2.6601  0.2027 -1.0685
 8150SOL    HW236084   2.889   0.711   4.540 -0.2783 -0.7788  0.2773
 8151SOL     OW36085   2.953   0.989   6.071 -0.3456 -0.4503 -0.1050
 8151SOL    HW136086   2.956   0.914   6.011 -1.1566 -0.4594 -0.1409
 8151SOL    HW236087   3.046   0.997   6.088 -0.0254 -0.6778 -1.7039
 8152SOL     OW36088   4.051   1.147   8.814 -0.2204  0.1456  0.3502
 8152SOL    HW136089   4.005   1.078   8.765  1.3782 -1.7069  1.4641
 8152SOL    HW236090   4.075   1.205   8.743 -1.2962 -0.3927 -0.4560
 8153SOL     OW36091   0.514   2.477   6.476 -0.0149  0.3038  0.3270
 8153SOL    HW136092   0.506   2.413   6.547  0.9095 -0.1159  0.0521
 8153SOL    HW236093   0.557   2.431   6.405 -0.3282  1.9133 -0.9003
 8154SOL     OW36094   1.221   1.726   1.232  0.4911  0.5685  0.3607
 8154SOL    HW136095   1.274   1.684   1.300  1.7102  3.3219  1.1093
 8154SOL    HW236096   1.275   1.745   1.155 -0.4279 -0.1397 -0.4619
 8155SOL     OW36097   0.666   0.199   2.805  0.7082  0.1501  0.3916
 8155SOL    HW136098   0.760   0.207   2.794  0.9122 -1.4125  0.9476
 8155SOL    HW236099   0.657   0.108   2.835  0.1779  0.2269  0.4778
 8156SOL     OW36100   1.210   0.044   7.238 -0.4406 -0.0461 -0.0710
 8156SOL    HW136101   1.280   0.109   7.249 -1.1911  0.2551  2.9754
 8156SOL    HW236102   1.196   0.030   7.144 -0.3577 -2.1696  0.2287
 8157SOL     OW36103   3.032   4.606  13.885  0.4996 -0.0903 -0.0938
 8157SOL    HW136104   3.047   4.645  13.971 -0.2801 -1.6415  0.7500
 8157SOL    HW236105   2.939   4.582  13.888  0.1026  1.2239 -1.7465
 8158SOL     OW36106   0.745   3.931   5.384 -0.8588  0.0312 -0.4161
 8158SOL    HW136107   0.809   3.863   5.404  0.2106  1.6567  1.6130
 8158SOL    HW236108   0.705   3.954   5.468  0.8535  0.5700  0.2376
 8159SOL     OW36109   1.394   2.004   8.303  0.7166 -0.6735 -0.5890
 8159SOL    HW136110   1.347   2.008   8.219 -1.9792 -1.5397  0.8541
 8159SOL    HW236111   1.423   2.094   8.314 -1.0795 -0.0236 -1.0395
 8160SOL     OW36112   4.345   1.750  17.629 -0.3595 -0.1291 -0.0089
 8160SOL    HW136113   4.323   1.712  17.714  0.2633 -0.5167 -0.0238
 8160SOL    HW236114   4.420   1.697  17.602 -1.7307 -2.2460  0.3005
 8161SOL     OW36115   1.334   3.163   8.803 -0.3434  0.0014  0.4823
 8161SOL    HW136116   1.292   3.249   8.811  0.1589  0.3917 -1.0971
 8161SOL    HW236117   1.406   3.184   8.744 -1.9715 -3.9329 -3.0030
 8162SOL     OW36118   0.800   3.600  10.015  0.0971  0.2477  0.1265
 8162SOL    HW136119   0.741   3.615  10.089 -2.2316 -1.5753 -1.3786
 8162SOL    HW236120   0.770   3.661   9.948 -0.2063  1.1355  1.0700
 8163SOL     OW36121   1.733   1.490   3.171 -0.0678 -0.5875  0.3504
 8163SOL    HW136122   1.650   1.525   3.203 -1.3266 -1.0919 -2.3430
 8163SOL    HW236123   1.754   1.417   3.229  1.0055 -1.0238 -0.5810
 8164SOL     OW36124   3.276   1.023   2.563 -0.6088 -0.3535  0.4362
 8164SOL    HW136125   3.326   1.090   2.516 -2.9062  0.7995 -0.3887
 8164SOL    HW236126   3.213   1.063   2.623  0.4205  0.1635  1.1738
 8165SOL     OW36127   4.497   2.892   9.055 -0.1443  0.5055  0.0623
 8165SOL    HW136128   4.417   2.848   9.028  0.5492 -1.0367  0.4807
 8165SOL    HW236129   4.467   2.964   9.111 -3.2043 -1.3934  0.8464
 8166SOL     OW36130   4.435   0.028   2.592  0.6260  0.3165 -0.0596
 8166SOL    HW136131   4.463   0.049   2.503 -0.8619  0.9859 -0.3537
 8166SOL    HW236132   4.353   4.719   2.575  0.4936  0.4327  0.2618
 8167SOL     OW36133   4.512   1.650  15.382 -0.6980  0.0467 -0.3076
 8167SOL    HW136134   4.480   1.740  15.374 -1.1127 -0.0199  0.6248
 8167SOL    HW236135   4.595   1.645  15.430  0.1340  1.6013 -1.5483
 8168SOL     OW36136   1.668   0.699   6.975 -0.2767  0.1450 -0.5503
 8168SOL    HW136137   1.706   0.735   6.895 -0.3518  1.2885 -0.0691
 8168SOL    HW236138   1.700   0.769   7.033 -1.0636 -0.7863  1.0076
 8169SOL     OW36139   2.770   1.290   2.376  0.0612 -0.3235 -0.6114
 8169SOL    HW136140   2.842   1.237   2.410  0.1433 -1.2304 -2.2073
 8169SOL    HW236141   2.711   1.215   2.369  0.3682 -0.7222  1.0883
 8170SOL     OW36142   2.058   4.183   9.796  0.0216 -0.0399  0.1608
 8170SOL    HW136143   2.021   4.269   9.774 -1.1726 -1.0405 -1.7541
 8170SOL    HW236144   2.104   4.203   9.877 -0.1346  0.1840  0.1951
 8171SOL     OW36145   1.272   4.026   2.861  0.1007  0.3951 -0.1334
 8171SOL    HW136146   1.277   4.084   2.785  0.0759  0.6428  0.0533
 8171SOL    HW236147   1.259   3.943   2.815 -2.0186  0.6569  0.0112
 8172SOL     OW36148   0.255   4.564   3.320 -0.4717 -0.1917 -0.1681
 8172SOL    HW136149   0.242   4.613   3.239  0.4109 -0.7846 -0.6669
 8172SOL    HW236150   0.337   4.518   3.302 -0.4474 -1.0294  2.0256
 8173SOL     OW36151   0.211   3.813   7.228 -0.6986  0.1903  0.1427
 8173SOL    HW136152   0.216   3.886   7.290 -1.4498  0.0501  0.3656
 8173SOL    HW236153   0.257   3.740   7.269 -0.3144  0.8479  0.8997
 8174SOL     OW36154   3.819   3.987  10.703  0.1662  0.3448 -0.1624
 8174SOL    HW136155   3.890   3.989  10.639  0.4079  0.1562  0.1020
 8174SOL    HW236156   3.869   3.934  10.764 -1.0332 -0.4421  0.1297
 8175SOL     OW36157   4.398   0.604   3.490 -0.3207 -0.3735 -0.0200
 8175SOL    HW136158   4.360   0.563   3.413 -1.8882 -0.5262  0.8305
 8175SOL    HW236159   4.474   0.546   3.497 -0.5336 -0.4432  1.6145
 8176SOL     OW36160   2.442   2.576   4.180  0.1568 -0.3214  0.4522
 8176SOL    HW136161   2.380   2.504   4.180 -0.2024 -0.0066  1.6635
 8176SOL    HW236162   2.473   2.567   4.270  1.9976  1.0302 -0.0376
 8177SOL     OW36163   0.246   3.090   5.157  0.2791  1.2841  0.3513
 8177SOL    HW136164   0.330   3.045   5.170 -0.7061 -0.3343  1.0690
 8177SOL    HW236165   0.264   3.131   5.072 -0.7060  0.9312 -0.0241
 8178SOL     OW36166   3.444   4.475   8.312  0.0097 -0.1330 -0.1565
 8178SOL    HW136167   3.404   4.425   8.241 -1.9785  0.8416  0.2544
 8178SOL    HW236168   3.376   4.510   8.370  2.3654  0.1124  2.4366
 8179SOL     OW36169   0.882   1.732   5.977 -0.4984 -0.0364 -0.7188
 8179SOL    HW136170   0.931   1.682   6.042  2.2619  0.4675 -2.3885
 8179SOL    HW236171   0.844   1.795   6.037 -0.0375 -0.9209  0.5024
 8180SOL     OW36172   1.928   2.757   0.297 -0.1795 -0.3827  0.3844
 8180SOL    HW136173   2.011   2.712   0.284  0.5206  0.4533  2.0922
 8180SOL    HW236174   1.955   2.849   0.302 -0.6635 -0.1484 -1.0416
 8181SOL     OW36175   3.868   1.419  10.744 -0.1341  0.2215  1.0874
 8181SOL    HW136176   3.876   1.327  10.718 -1.2899  0.2145  0.7803
 8181SOL    HW236177   3.862   1.405  10.839 -1.7741  0.2638  0.9834
 8182SOL     OW36178   2.926   2.735   4.791  0.0346 -0.1920 -0.1678
 8182SOL    HW136179   2.938   2.761   4.883  1.2718 -1.0530 -0.0801
 8182SOL    HW236180   2.843   2.689   4.801 -0.4217  0.8904  1.0213
 8183SOL     OW36181   4.722   1.979  16.436  0.0258  0.8437  0.1891
 8183SOL    HW136182   4.631   1.948  16.442  0.0102  1.1541  1.5672
 8183SOL    HW236183   4.731   1.992  16.342 -0.1716  0.9214  0.1802
 8184SOL     OW36184   0.263   4.718   4.896 -0.1299 -0.0323  0.4662
 8184SOL    HW136185   0.170   4.714   4.873  0.2016  0.7105 -0.9804
 8184SOL    HW236186   0.269   4.640   4.951  0.2576 -0.9599 -0.8781
 8185SOL     OW36187   4.681   2.752   9.250  0.4027 -0.0546  0.2730
 8185SOL    HW136188   4.640   2.812   9.187  0.4164 -0.4171 -0.0797
 8185SOL    HW236189   4.610   2.726   9.309  0.6051 -0.9767  0.1128
 8186SOL     OW36190   4.437   0.092   8.521 -0.1120 -0.0409 -0.8308
 8186SOL    HW136191   4.371   0.151   8.485 -0.6537 -0.0367  0.1722
 8186SOL    HW236192   4.516   0.135   8.489  0.2999  0.2960  0.6742
 8187SOL     OW36193   4.172   0.866   7.064 -0.1217 -0.0061  0.2544
 8187SOL    HW136194   4.146   0.791   7.117  1.5829 -1.9367 -1.6270
 8187SOL    HW236195   4.219   0.924   7.125  0.6040 -1.0109  0.6393
 8188SOL     OW36196   4.326   3.982   6.680  0.1158 -0.5039 -0.3205
 8188SOL    HW136197   4.370   3.927   6.615 -1.6613 -2.4554  0.1119
 8188SOL    HW236198   4.317   3.921   6.753  0.7634 -1.7231 -1.2559
 8189SOL     OW36199   2.954   1.807   9.631  0.1562  0.1169  0.5492
 8189SOL    HW136200   2.964   1.896   9.665  0.4103 -0.4599  1.9659
 8189SOL    HW236201   2.858   1.802   9.629  0.1363  1.2031 -1.4084
 8190SOL     OW36202   1.964   3.467   3.113  0.6553  0.1857  0.6996
 8190SOL    HW136203   1.998   3.377   3.122  2.8149  0.8882 -0.4329
 8190SOL    HW236204   1.883   3.448   3.066  1.3894  1.0151 -0.9115
 8191SOL     OW36205   2.895   4.120   4.828  0.1108 -0.3107  0.0347
 8191SOL    HW136206   2.861   4.183   4.764  1.0074  1.0408  0.9014
 8191SOL    HW236207   2.989   4.114   4.810  0.2866  1.9526  0.2838
 8192SOL     OW36208   4.521   0.285  16.774 -0.0171 -0.2139 -0.3859
 8192SOL    HW136209   4.510   0.378  16.794  1.6942 -0.3330  1.1443
 8192SOL    HW236210   4.440   0.252  16.813  0.8235 -0.4819  1.1332
 8193SOL     OW36211   0.899   2.333   1.387 -0.4816  0.4823  0.3989
 8193SOL    HW136212   0.844   2.386   1.330 -0.3498 -0.6300 -0.7906
 8193SOL    HW236213   0.930   2.401   1.447 -0.6407  1.2687 -0.4086
 8194SOL     OW36214   3.504   1.564   5.010 -0.4490 -0.3264  0.1518
 8194SOL    HW136215   3.428   1.621   5.020 -0.3065 -0.0748 -0.2078
 8194SOL    HW236216   3.512   1.524   5.097  0.7610 -0.9345 -0.2459
 8195SOL     OW36217   2.824   0.979   7.084 -0.1257 -0.0532  0.6240
 8195SOL    HW136218   2.868   1.059   7.055 -2.3213  0.7808 -0.4271
 8195SOL    HW236219   2.880   0.962   7.160  1.6784  0.8793 -0.5139
 8196SOL     OW36220   1.832   1.270   2.223  0.0675  0.4256 -0.1924
 8196SOL    HW136221   1.894   1.298   2.156 -0.5851  0.5003 -0.7577
 8196SOL    HW236222   1.752   1.258   2.173 -0.9411  2.2816  0.9550
 8197SOL     OW36223   3.040   0.024  15.889  0.5353  0.2403 -0.1850
 8197SOL    HW136224   3.103   0.061  15.951  1.4328 -1.1008 -0.3080
 8197SOL    HW236225   2.999   0.105  15.859  1.5805  1.0228  0.4941
 8198SOL     OW36226   4.401   3.795  11.993  0.2915 -0.5233  0.0251
 8198SOL    HW136227   4.495   3.779  11.997  0.1905 -1.2111 -0.3221
 8198SOL    HW236228   4.379   3.869  12.049  0.0419  0.1451 -0.9678
 8199SOL     OW36229   1.338   0.989   4.633 -0.2162 -0.3543  0.1482
 8199SOL    HW136230   1.293   1.009   4.551  0.6011 -0.6554 -0.3732
 8199SOL    HW236231   1.410   0.934   4.600 -0.6376 -0.2793 -0.9055
 8200SOL     OW36232   3.544   1.354   4.808  0.6057 -0.1281 -0.2573
 8200SOL    HW136233   3.555   1.408   4.886  0.1988 -0.4011 -0.0111
 8200SOL    HW236234   3.506   1.416   4.745  0.6838  0.3213  0.1338
 8201SOL     OW36235   1.415   0.286  15.884  0.0291 -0.4081  0.1496
 8201SOL    HW136236   1.434   0.243  15.800  2.8890 -0.2299  0.7020
 8201SOL    HW236237   1.376   0.210  15.927 -0.3342 -1.5384 -2.1739
 8202SOL     OW36238   2.437   3.922   6.465 -0.0964 -0.2927 -0.4172
 8202SOL    HW136239   2.343   3.919   6.448 -0.3757 -0.3811  1.0786
 8202SOL    HW236240   2.469   3.842   6.424  0.5497  0.3751 -1.2042
 8203SOL     OW36241   3.081   2.238   3.199  0.1396 -0.3117  0.2875
 8203SOL    HW136242   3.042   2.179   3.135 -2.2564 -1.0586  2.4480
 8203SOL    HW236243   3.049   2.323   3.169  1.4309 -0.9419 -2.8794
 8204SOL     OW36244   3.958   2.130  17.709 -0.9587  0.7215  0.2612
 8204SOL    HW136245   3.986   2.077   0.036 -1.1076  0.0618 -0.1555
 8204SOL    HW236246   3.909   2.066  17.658  3.2074 -1.0233 -1.4874
 8205SOL     OW36247   0.974   3.060   4.111 -0.6512  0.2917 -0.0892
 8205SOL    HW136248   0.962   2.976   4.155 -0.1126 -0.2216 -0.9152
 8205SOL    HW236249   0.911   3.067   4.039 -1.1685  3.2077  0.6599
 8206SOL     OW36250   0.933   1.625   4.513 -0.0882 -0.3742  0.7451
 8206SOL    HW136251   0.870   1.691   4.485  0.2003 -0.5451 -0.3179
 8206SOL    HW236252   1.003   1.690   4.519 -0.8035  0.4040  0.6429
 8207SOL     OW36253   3.797   2.889  15.516 -0.6436 -0.1981 -0.2378
 8207SOL    HW136254   3.779   2.960  15.455  0.8957  1.6462  1.4890
 8207SOL    HW236255   3.715   2.839  15.513 -0.5924 -0.3389  0.9374
 8208SOL     OW36256   0.415   2.004   6.920 -0.0109 -0.3201 -0.5319
 8208SOL    HW136257   0.363   1.930   6.888  0.8193 -0.1985 -2.1657
 8208SOL    HW236258   0.364   2.026   6.998 -0.2632 -0.1332 -0.7519
 8209SOL     OW36259   1.315   0.340   7.016  0.4267  0.4181  0.2774
 8209SOL    HW136260   1.376   0.309   7.083  0.8042  3.0382  1.1324
 8209SOL    HW236261   1.355   0.418   6.980  2.0812 -0.8885 -0.7286
 8210SOL     OW36262   4.203   3.709  17.106 -0.1837 -0.0137 -0.6732
 8210SOL    HW136263   4.258   3.775  17.148  0.7533 -0.1476 -1.6719
 8210SOL    HW236264   4.133   3.704  17.171  0.8041  2.6921  0.5735
 8211SOL     OW36265   1.407   4.144  15.578  0.0231 -0.1743 -0.3576
 8211SOL    HW136266   1.312   4.134  15.579  0.0468 -0.3987 -0.3524
 8211SOL    HW236267   1.424   4.236  15.559  0.9811 -0.1252  0.7666
 8212SOL     OW36268   0.043   1.904   3.580 -0.6755 -0.0809  0.2544
 8212SOL    HW136269   4.694   1.899   3.621 -1.8868  0.2424 -2.2389
 8212SOL    HW236270   0.030   1.855   3.498  0.1915  0.5152 -0.2464
 8213SOL     OW36271   1.303   3.583   6.183  0.1813  0.0052  0.7109
 8213SOL    HW136272   1.352   3.547   6.110 -1.9274 -1.8000  0.1855
 8213SOL    HW236273   1.372   3.570   6.248 -0.4414  0.6673  1.5104
 8214SOL     OW36274   1.840   0.911  15.588  0.2197  0.3190  0.7773
 8214SOL    HW136275   1.778   0.979  15.617  2.0189  0.7393  3.6596
 8214SOL    HW236276   1.919   0.963  15.575  0.7619 -1.1583 -1.8078
 8215SOL     OW36277   0.423   1.486  11.155  0.1279 -0.3876 -0.1444
 8215SOL    HW136278   0.336   1.452  11.174 -0.3224  0.2684 -1.0020
 8215SOL    HW236279   0.483   1.413  11.169  2.2078  0.6629 -3.6029
 8216SOL     OW36280   4.704   2.269  13.073 -0.3656  0.5197 -0.1047
 8216SOL    HW136281   4.665   2.183  13.059 -2.2709  1.3635 -0.0320
 8216SOL    HW236282   4.641   2.325  13.028 -1.2410 -0.9389 -0.6964
 8217SOL     OW36283   4.289   3.316   2.687  0.1067  0.0110 -0.0688
 8217SOL    HW136284   4.200   3.324   2.721  0.0420  1.3293 -0.5434
 8217SOL    HW236285   4.271   3.269   2.605 -1.8861  1.2565 -0.3605
 8218SOL     OW36286   4.067   1.512   6.832  0.0779  0.6947 -0.0010
 8218SOL    HW136287   4.055   1.516   6.927  1.8813  1.3394  0.2118
 8218SOL    HW236288   4.037   1.597   6.802 -1.4338  0.1130 -0.1059
 8219SOL     OW36289   3.662   4.731   3.729  0.2174  0.5023 -0.8084
 8219SOL    HW136290   3.690   0.061   3.667  3.5699 -0.8168 -0.7122
 8219SOL    HW236291   3.713   4.659   3.692 -0.8785 -0.7923  0.1965
 8220SOL     OW36292   4.570   4.531   6.451  0.2774  0.1918 -0.2335
 8220SOL    HW136293   4.545   4.443   6.420  0.2835 -1.0183  3.2692
 8220SOL    HW236294   4.604   4.516   6.539 -2.2317  2.5093  1.1273
 8221SOL     OW36295   1.231   2.718  16.220  0.4161  0.1954  0.5116
 8221SOL    HW136296   1.213   2.812  16.217  2.8401  0.5717 -2.0958
 8221SOL    HW236297   1.200   2.687  16.305 -0.3668  0.0856  0.1852
 8222SOL     OW36298   0.608   0.106   4.980  0.6657  0.1445  0.1668
 8222SOL    HW136299   0.571   0.029   4.938 -1.5368  3.0176 -3.1165
 8222SOL    HW236300   0.700   0.086   4.962 -0.4320 -3.7309 -1.0335
 8223SOL     OW36301   3.361   3.044   8.961 -0.3553 -0.6346 -0.2419
 8223SOL    HW136302   3.409   3.072   9.039 -0.7479  1.2024 -0.6713
 8223SOL    HW236303   3.330   2.958   8.991 -0.5606 -0.5970 -0.3473
 8224SOL     OW36304   2.426   0.717   9.090  0.0568 -0.1979 -0.3287
 8224SOL    HW136305   2.499   0.780   9.092 -0.1923  0.0492  0.9090
 8224SOL    HW236306   2.440   0.665   9.011 -0.9778 -0.1802 -0.5177
 8225SOL     OW36307   3.879   1.242   2.543 -0.0583 -0.1235 -0.5526
 8225SOL    HW136308   3.864   1.243   2.449 -2.5722 -0.6026 -0.1413
 8225SOL    HW236309   3.880   1.148   2.562 -1.2690  0.2428  1.2962
 8226SOL     OW36310   1.605   2.368   6.925 -0.4297 -0.0980 -0.1328
 8226SOL    HW136311   1.589   2.389   6.833 -2.8073 -0.9308  0.0960
 8226SOL    HW236312   1.586   2.454   6.962  1.1658  0.5388 -0.7979
 8227SOL     OW36313   0.181   4.244   7.002  0.1381  0.7168  0.1648
 8227SOL    HW136314   0.129   4.184   7.055 -0.5806  2.1485  1.0689
 8227SOL    HW236315   0.250   4.186   6.968 -3.4962 -2.9158 -0.9894
 8228SOL     OW36316   0.055   2.310  16.815  0.3123  0.1085 -0.4285
 8228SOL    HW136317   4.718   2.277  16.866  1.1749 -1.0032  0.1122
 8228SOL    HW236318   0.065   2.248  16.743 -0.6768  1.1861 -1.4786
 8229SOL     OW36319   0.919   0.590   2.876  0.3950  0.1039  0.2088
 8229SOL    HW136320   0.921   0.602   2.781 -1.9946 -1.5239 -0.0556
 8229SOL    HW236321   0.835   0.544   2.882  0.0346  0.8523  0.8170
 8230SOL     OW36322   2.482   2.140  12.286 -0.6699 -0.4744  0.0558
 8230SOL    HW136323   2.476   2.235  12.289 -1.9473 -0.5715  0.3759
 8230SOL    HW236324   2.393   2.121  12.257 -0.2968 -1.0000 -0.7350
 8231SOL     OW36325   1.304   1.354   7.533 -0.3234 -1.0209  0.0325
 8231SOL    HW136326   1.280   1.367   7.625  1.4998 -0.5511  0.4444
 8231SOL    HW236327   1.393   1.388   7.538 -0.8583  0.4939 -0.8131
 8232SOL     OW36328   2.252   1.855   0.038 -0.6650 -0.3417  0.5217
 8232SOL    HW136329   2.165   1.815   0.033 -0.5696 -0.5083  0.1976
 8232SOL    HW236330   2.235   1.946   0.013  0.4537 -0.2398  0.1690
 8233SOL     OW36331   1.553   3.277  13.929  0.7622 -0.0259  0.2190
 8233SOL    HW136332   1.530   3.332  13.854  0.5543  0.1307  0.4004
 8233SOL    HW236333   1.640   3.305  13.957  0.8303 -0.5530  0.5289
 8234SOL     OW36334   2.289   1.055   4.049 -0.1842  0.3189 -0.2927
 8234SOL    HW136335   2.296   1.093   4.136 -0.1229 -2.8752  1.1161
 8234SOL    HW236336   2.239   0.976   4.070 -1.9381  0.8553 -2.4319
 8235SOL     OW36337   3.542   4.241   5.001  0.3406 -0.4191 -0.6273
 8235SOL    HW136338   3.511   4.277   5.085 -1.3583  1.2810 -1.9880
 8235SOL    HW236339   3.631   4.218   5.029  0.7664 -1.2216 -2.6570
 8236SOL     OW36340   1.662   0.723  13.533  0.0415 -0.8705 -0.2920
 8236SOL    HW136341   1.614   0.798  13.570 -0.5171 -1.1578 -0.4390
 8236SOL    HW236342   1.652   0.734  13.439 -0.0252 -0.6579 -0.2607
 8237SOL     OW36343   2.405   1.840   7.348  0.4206  0.2347 -0.2918
 8237SOL    HW136344   2.457   1.902   7.399 -0.4759  1.4267 -0.8412
 8237SOL    HW236345   2.453   1.759   7.368 -1.3586 -0.9802 -0.9021
 8238SOL     OW36346   1.821   0.776   7.203  0.0256 -0.1841  0.3842
 8238SOL    HW136347   1.827   0.682   7.222 -0.0483 -0.1718  0.4673
 8238SOL    HW236348   1.902   0.781   7.152  0.1671  0.5414  0.6904
 8239SOL     OW36349   2.846   4.398  12.197 -0.3140  0.4433 -0.1240
 8239SOL    HW136350   2.804   4.356  12.273 -2.0370 -1.8460 -2.3398
 8239SOL    HW236351   2.837   4.333  12.128 -1.2511  0.6216 -0.1642
 8240SOL     OW36352   1.362   3.140   4.772  0.0699 -0.0390  0.0243
 8240SOL    HW136353   1.393   3.050   4.768  0.0535 -0.0786  0.8186
 8240SOL    HW236354   1.269   3.117   4.773  0.5586 -1.9518  0.6973
 8241SOL     OW36355   0.160   1.466   0.716 -0.4810 -0.1996 -0.9117
 8241SOL    HW136356   0.071   1.479   0.749 -0.9240  0.2116 -2.2738
 8241SOL    HW236357   0.158   1.505   0.628 -0.8229  2.9787  0.4877
 8242SOL     OW36358   1.766   1.336  14.251 -0.2596  0.6519 -0.2514
 8242SOL    HW136359   1.829   1.400  14.218  1.4530 -0.4053  0.9804
 8242SOL    HW236360   1.833   1.268  14.247  0.8655  1.8012 -1.1269
 8243SOL     OW36361   2.557   1.140   6.778  0.1794  0.2694 -0.0205
 8243SOL    HW136362   2.615   1.205   6.818  1.0739 -0.9849  0.6922
 8243SOL    HW236363   2.512   1.205   6.724  1.3668  1.8905  0.9416
 8244SOL     OW36364   0.426   0.890  16.093 -0.2164  0.1210  0.2380
 8244SOL    HW136365   0.505   0.934  16.063  1.0831 -3.4292 -1.6138
 8244SOL    HW236366   0.443   0.895  16.187 -1.1149  3.1739  0.2249
 8245SOL     OW36367   1.363   1.334  10.576 -0.5094  0.2318 -0.0920
 8245SOL    HW136368   1.417   1.379  10.511 -1.6869  3.4706  1.1388
 8245SOL    HW236369   1.280   1.360  10.536 -1.4196 -2.4961  0.0462
 8246SOL     OW36370   3.698   0.249  13.592  0.1848  0.0307  0.1899
 8246SOL    HW136371   3.686   0.161  13.626  0.4948 -0.4480 -0.9436
 8246SOL    HW236372   3.610   0.282  13.612 -0.3472 -1.4063  0.1846
 8247SOL     OW36373   1.511   2.987   6.123 -0.0399  0.1930  0.2253
 8247SOL    HW136374   1.596   2.960   6.157  0.0853  0.1525 -0.1136
 8247SOL    HW236375   1.493   3.049   6.193 -0.1872  0.0068  0.3519
 8248SOL     OW36376   4.629   2.147  11.421  0.3451 -0.1751 -0.3351
 8248SOL    HW136377   4.615   2.164  11.328 -0.3983 -1.1605 -0.4095
 8248SOL    HW236378   4.689   2.072  11.422  1.7364  0.9401 -1.2414
 8249SOL     OW36379   4.102   2.071   5.918 -0.0790  0.7625  0.1449
 8249SOL    HW136380   4.188   2.074   5.877  0.2364  0.4157  0.7779
 8249SOL    HW236381   4.114   2.001   5.982 -2.1257 -1.0645 -1.4719
 8250SOL     OW36382   4.161   0.630   6.641  0.5445 -0.3121 -0.4395
 8250SOL    HW136383   4.177   0.556   6.581 -0.2795 -0.4184 -0.5211
 8250SOL    HW236384   4.103   0.587   6.704  1.9227  2.2127  2.5229
 8251SOL     OW36385   2.153   4.644  15.523  0.0659  0.1754  0.1484
 8251SOL    HW136386   2.067   4.673  15.555  0.8266  1.7653  0.7324
 8251SOL    HW236387   2.151   4.667  15.430  1.8828 -1.5668 -0.3163
 8252SOL     OW36388   0.626   2.701   5.375  0.2902 -0.3068 -0.7062
 8252SOL    HW136389   0.616   2.636   5.305  2.0564  1.5848 -2.6806
 8252SOL    HW236390   0.533   2.711   5.396  0.9579 -0.0676  2.1138
 8253SOL     OW36391   4.458   2.103   1.754  0.1064 -0.3827  1.0962
 8253SOL    HW136392   4.525   2.089   1.687 -1.3417 -1.4103 -0.1131
 8253SOL    HW236393   4.473   2.192   1.786  2.8053 -0.1384 -0.9155
 8254SOL     OW36394   0.551   1.446  13.396  0.1786  0.2452 -0.2637
 8254SOL    HW136395   0.530   1.353  13.405 -1.1457  0.0575 -5.1958
 8254SOL    HW236396   0.639   1.451  13.434  1.3358  4.0358 -3.4404
 8255SOL     OW36397   0.165   0.008   4.184 -0.2811  0.9202 -0.1873
 8255SOL    HW136398   0.154   0.089   4.235  2.0058  2.0384 -1.4350
 8255SOL    HW236399   0.158   4.684   4.257 -1.4349 -0.1384 -1.1948
 8256SOL     OW36400   4.701   2.773   1.168  0.2484 -0.1491 -0.0248
 8256SOL    HW136401   4.734   2.692   1.207 -0.3077  0.1705  1.0926
 8256SOL    HW236402   4.645   2.744   1.097  2.1053 -1.6804 -0.8667
 8257SOL     OW36403   1.306   1.478   9.817 -0.1339  0.2724  0.9811
 8257SOL    HW136404   1.392   1.485   9.775 -1.0594 -2.7925 -1.4390
 8257SOL    HW236405   1.298   1.545   9.885  0.0328 -0.6176  1.8805
 8258SOL     OW36406   3.346   2.674   3.667  0.0541  0.1849  0.7693
 8258SOL    HW136407   3.298   2.613   3.723  1.7601 -0.9154  1.0247
 8258SOL    HW236408   3.281   2.735   3.633  0.2619 -0.3814 -0.6620
 8259SOL     OW36409   1.645   2.251  13.715  0.2965  0.2206 -0.1908
 8259SOL    HW136410   1.709   2.267  13.645  1.2458  2.4807  1.1762
 8259SOL    HW236411   1.645   2.156  13.709 -0.9217  0.1770  0.6269
 8260SOL     OW36412   4.616   2.365  11.930  0.1771 -0.1979 -0.1547
 8260SOL    HW136413   4.576   2.344  11.846  1.0537  2.0026 -1.1308
 8260SOL    HW236414   4.710   2.350  11.914  0.0256 -1.7472  0.4267
 8261SOL     OW36415   1.827   0.512   6.706  1.0021 -0.7744 -0.7093
 8261SOL    HW136416   1.906   0.503   6.652  0.3154  2.7226 -2.3100
 8261SOL    HW236417   1.877   0.499   6.787  2.1138  1.7589 -0.9933
 8262SOL     OW36418   4.221   4.307   2.608 -0.6892  0.1848  0.6565
 8262SOL    HW136419   4.193   4.394   2.580  0.3411  0.5859  0.8525
 8262SOL    HW236420   4.266   4.277   2.530 -0.0825 -0.5462  1.2844
 8263SOL     OW36421   3.798   2.298   7.070  0.2273 -0.0596  0.0574
 8263SOL    HW136422   3.891   2.320   7.061 -0.3266  1.3296 -2.2575
 8263SOL    HW236423   3.776   2.330   7.157 -0.7185  1.6611 -0.8244
 8264SOL     OW36424   1.091   3.876   9.471  0.3264  0.3120  0.1078
 8264SOL    HW136425   1.113   3.958   9.513 -1.6383 -0.1540  2.0478
 8264SOL    HW236426   1.057   3.821   9.542  0.2587  1.4855  0.9889
 8265SOL     OW36427   0.975   1.649   7.320  0.0686  0.9012 -0.1885
 8265SOL    HW136428   0.882   1.627   7.309  0.4881 -0.7508 -0.3366
 8265SOL    HW236429   0.988   1.695   7.237  0.2687  1.7868  0.3268
 8266SOL     OW36430   0.412   2.212   9.537 -0.4204 -0.1989 -0.2844
 8266SOL    HW136431   0.321   2.207   9.567  0.2370  1.0100  1.9101
 8266SOL    HW236432   0.391   2.264   9.460  0.4946 -0.1660 -0.5102
 8267SOL     OW36433   3.987   1.567   3.900  0.3357  0.1843 -0.4949
 8267SOL    HW136434   3.983   1.589   3.993  1.9127 -1.5628 -0.0204
 8267SOL    HW236435   3.896   1.539   3.895  0.5729 -0.9803  1.5627
 8268SOL     OW36436   0.811   1.556   2.729 -0.2867 -0.5841 -0.0912
 8268SOL    HW136437   0.835   1.491   2.662  1.9595 -0.2442  0.3662
 8268SOL    HW236438   0.743   1.515   2.781  0.7522 -1.3128  0.6948
 8269SOL     OW36439   3.923   3.530   0.871 -0.3178 -0.2143  0.1802
 8269SOL    HW136440   3.904   3.458   0.810 -1.1953 -0.4110  0.6898
 8269SOL    HW236441   3.896   3.610   0.825  0.4843 -0.0886 -0.0706
 8270SOL     OW36442   2.136   4.724  15.265  0.3206  0.0615  0.1848
 8270SOL    HW136443   2.070   0.053  15.246  0.6674 -0.0306 -1.3352
 8270SOL    HW236444   2.143   4.677  15.182  0.7090 -0.4673  0.5215
 8271SOL     OW36445   3.297   2.811  16.957 -0.0183 -0.1723 -0.4483
 8271SOL    HW136446   3.262   2.814  16.868 -2.2057 -0.3166  0.4104
 8271SOL    HW236447   3.382   2.851  16.939 -0.5490  0.2596 -1.9654
 8272SOL     OW36448   0.483   0.904  11.955 -0.3278  0.2810 -0.1835
 8272SOL    HW136449   0.531   0.928  11.875 -2.5465 -0.9866 -1.9109
 8272SOL    HW236450   0.548   0.917  12.023 -1.4204  2.0223  0.5336
 8273SOL     OW36451   1.765   3.071  10.862 -0.0003 -0.2975  0.7125
 8273SOL    HW136452   1.687   3.078  10.806  0.0862  2.1627  0.9022
 8273SOL    HW236453   1.837   3.051  10.803 -0.0285  2.4619 -0.2731
 8274SOL     OW36454   0.338   0.961   1.154 -0.2068 -0.3317  0.4379
 8274SOL    HW136455   0.383   0.883   1.122 -2.1785 -1.6027  0.8270
 8274SOL    HW236456   0.414   1.019   1.143  1.7655 -3.2071 -1.2081
 8275SOL     OW36457   2.969   1.691   1.212 -0.4960  0.8292  0.6350
 8275SOL    HW136458   2.906   1.639   1.161  0.9876 -1.1180  0.8026
 8275SOL    HW236459   3.043   1.704   1.152 -1.7590  0.4467 -0.9964
 8276SOL     OW36460   3.099   3.975   2.270 -0.5692 -0.0653  0.3408
 8276SOL    HW136461   3.007   3.949   2.261 -0.6107 -0.5044  2.0370
 8276SOL    HW236462   3.105   3.987   2.364  1.4716 -0.1339  0.2151
 8277SOL     OW36463   3.707   2.216   5.607  0.0915 -0.4139  0.7602
 8277SOL    HW136464   3.738   2.176   5.526  0.6947 -0.3590  0.9683
 8277SOL    HW236465   3.781   2.276   5.617 -1.8920  2.2502 -0.4035
 8278SOL     OW36466   4.054   4.245   1.988  0.5331 -0.6249  0.8775
 8278SOL    HW136467   4.043   4.274   1.898  2.4744 -1.5652  0.3467
 8278SOL    HW236468   4.089   4.325   2.029  0.0358  0.1485 -0.2184
 8279SOL     OW36469   3.680   2.093   2.383  0.4071 -0.1556 -0.3635
 8279SOL    HW136470   3.719   2.008   2.404  1.4077  0.8571  1.9232
 8279SOL    HW236471   3.762   2.143   2.376 -0.4060  0.8286 -2.6741
 8280SOL     OW36472   0.058   0.690   1.315  0.0442 -0.1510 -0.3175
 8280SOL    HW136473   0.002   0.632   1.264 -1.5330  1.1083 -0.0098
 8280SOL    HW236474   0.016   0.767   1.277  0.9644  0.6643  0.3390
 8281SOL     OW36475   2.602   3.918   4.790  0.3592 -0.5946  0.4784
 8281SOL    HW136476   2.627   3.972   4.865  0.8542 -0.2644  0.0740
 8281SOL    HW236477   2.646   3.837   4.817  0.1574 -1.1540 -0.8954
 8282SOL     OW36478   1.131   2.413   5.079  0.0321  0.1617  0.2712
 8282SOL    HW136479   1.149   2.434   4.987  1.8127  2.1030  1.0526
 8282SOL    HW236480   1.141   2.494   5.129  0.0490 -0.8053  1.8216
 8283SOL     OW36481   0.848   0.983   2.013 -0.0048  0.2846 -0.0763
 8283SOL    HW136482   0.888   0.916   2.067  2.0780  2.5725  1.2014
 8283SOL    HW236483   0.924   1.019   1.968  1.3438 -1.4065  0.8622
 8284SOL     OW36484   0.115   3.839  16.132 -0.0672 -0.2645  0.7034
 8284SOL    HW136485   0.139   3.784  16.206  1.4636 -0.7465 -0.1662
 8284SOL    HW236486   0.154   3.924  16.152  1.2981 -0.7423  0.0073
 8285SOL     OW36487   0.940   2.077   8.009 -0.6225  0.4000 -0.2267
 8285SOL    HW136488   0.924   2.169   8.031  1.0689  0.8614 -0.8439
 8285SOL    HW236489   0.973   2.063   8.097  1.1241  2.9563 -0.4637
 8286SOL     OW36490   1.249   4.208  10.881 -0.2155  0.3778 -0.4052
 8286SOL    HW136491   1.220   4.126  10.841  0.9794  0.3653 -1.2649
 8286SOL    HW236492   1.342   4.200  10.904 -0.3475 -0.7153 -0.2548
 8287SOL     OW36493   1.024   4.360   6.264  0.1498 -0.6217  0.4313
 8287SOL    HW136494   0.951   4.304   6.237 -0.1444 -0.1773  0.2967
 8287SOL    HW236495   1.103   4.306   6.264 -1.0611 -2.3787 -1.3600
 8288SOL     OW36496   0.070   3.176   9.004  0.0877 -0.0652  0.2190
 8288SOL    HW136497   0.138   3.118   8.971 -0.9903 -1.7114  0.9267
 8288SOL    HW236498   4.718   3.156   8.973  0.2149 -1.0322  0.4831
 8289SOL     OW36499   2.238   2.187   8.232 -0.4492  0.1171  0.1051
 8289SOL    HW136500   2.216   2.162   8.142 -0.9182 -3.1209  1.1359
 8289SOL    HW236501   2.256   2.280   8.214 -1.8214  0.7097  1.9122
 8290SOL     OW36502   4.070   2.414   8.408 -0.3951  0.1219 -0.0294
 8290SOL    HW136503   4.145   2.356   8.397 -1.0838 -0.5528 -1.1175
 8290SOL    HW236504   3.996   2.356   8.390 -0.3405 -0.1868  0.7026
 8291SOL     OW36505   4.052   2.221   7.586 -0.9331  0.4841 -0.2026
 8291SOL    HW136506   4.035   2.132   7.555  0.2165 -0.7128  2.5803
 8291SOL    HW236507   4.128   2.237   7.530 -0.0559 -2.0003  0.2649
 8292SOL     OW36508   0.215   0.363   5.774  0.6472  0.1914 -0.0448
 8292SOL    HW136509   0.187   0.454   5.782  0.8436  0.3462 -1.0641
 8292SOL    HW236510   0.182   0.348   5.685  1.9987  1.9472 -0.8269
 8293SOL     OW36511   1.984   2.086   7.701  0.2500  0.4884  0.2996
 8293SOL    HW136512   2.067   2.107   7.657  0.5846 -1.8057 -0.1761
 8293SOL    HW236513   1.958   2.002   7.662  0.2354 -0.2960  2.0179
 8294SOL     OW36514   0.140   4.117   9.017  0.0617 -0.0090 -0.4324
 8294SOL    HW136515   0.191   4.098   9.096  1.3815  1.2331 -0.9950
 8294SOL    HW236516   0.065   4.063   9.041 -0.5190  0.4952 -1.1458
 8295SOL     OW36517   1.073   2.364   3.511  0.1973  0.0791 -0.3876
 8295SOL    HW136518   1.073   2.328   3.422  1.5523 -1.6828  0.3215
 8295SOL    HW236519   1.044   2.452   3.489  0.3450  0.4350  0.8359
 8296SOL     OW36520   0.586   1.755   8.939  0.0832 -0.3844 -0.0532
 8296SOL    HW136521   0.556   1.772   8.849  0.0213  0.4494  0.1297
 8296SOL    HW236522   0.513   1.770   8.998 -1.8600 -0.0050 -2.5561
 8297SOL     OW36523   0.994   3.940   3.267 -0.1377 -0.4363  0.0579
 8297SOL    HW136524   0.995   3.984   3.182 -1.4477 -0.3521  0.0963
 8297SOL    HW236525   0.993   4.014   3.329  0.9939  0.6021 -1.1639
 8298SOL     OW36526   2.625   2.852   9.142 -0.1507 -0.4563  0.1572
 8298SOL    HW136527   2.633   2.901   9.224 -0.3489 -0.7896  0.3717
 8298SOL    HW236528   2.574   2.907   9.083  3.0943  2.4842  0.0084
 8299SOL     OW36529   1.329   2.924  10.117 -0.3057 -0.0371 -0.5081
 8299SOL    HW136530   1.312   2.968  10.200  2.5837  2.2171 -1.1173
 8299SOL    HW236531   1.260   2.858  10.123  0.6478 -1.1906 -2.0848
 8300SOL     OW36532   3.082   1.466  14.781  0.4587  0.1948 -0.2018
 8300SOL    HW136533   3.142   1.406  14.824  2.3660  2.0501 -0.2778
 8300SOL    HW236534   2.993   1.436  14.801  0.1864  0.6535 -0.7263
 8301SOL     OW36535   1.145   1.204   5.010  0.2133  0.6047  0.1789
 8301SOL    HW136536   1.213   1.137   5.010  1.3182  1.7310  1.0858
 8301SOL    HW236537   1.143   1.224   5.103 -0.4305  1.1665  0.0442
 8302SOL     OW36538   1.683   2.576   3.625 -0.2807 -0.0177 -0.0400
 8302SOL    HW136539   1.738   2.647   3.658  0.0101  0.1541 -0.8866
 8302SOL    HW236540   1.692   2.591   3.531 -2.3361  0.0899 -0.2120
 8303SOL     OW36541   3.882   2.883  12.248 -0.4576 -0.1983  0.0028
 8303SOL    HW136542   3.911   2.868  12.338  0.2877 -0.0926 -0.2249
 8303SOL    HW236543   3.819   2.954  12.257  0.7284  0.8388  0.1074
 8304SOL     OW36544   3.086   4.488  10.490  0.1949 -0.0832  0.5010
 8304SOL    HW136545   3.180   4.497  10.471  0.5206 -2.6286  0.9892
 8304SOL    HW236546   3.073   4.579  10.517  0.6374  1.0505 -3.0197
 8305SOL     OW36547   3.981   0.332   4.653  0.1149  0.2536 -0.0017
 8305SOL    HW136548   3.894   0.371   4.666 -0.5273 -1.4232  0.8085
 8305SOL    HW236549   3.996   0.384   4.574 -1.6883  3.0035  1.4608
 8306SOL     OW36550   0.644   2.045   0.838  0.0140  0.4042 -0.0704
 8306SOL    HW136551   0.563   2.029   0.886  0.8602 -2.8413  0.2688
 8306SOL    HW236552   0.643   1.980   0.768  1.6150  0.9524 -0.6245
 8307SOL     OW36553   4.275   2.797  17.074  0.1637  0.1308  0.3657
 8307SOL    HW136554   4.335   2.723  17.070 -1.0139 -0.8154  0.1820
 8307SOL    HW236555   4.196   2.751  17.045 -0.2885  0.3472  1.2434
 8308SOL     OW36556   1.794   1.937   4.050 -0.4272  0.1164 -0.2206
 8308SOL    HW136557   1.711   1.970   4.083 -1.2379 -0.6643 -1.5043
 8308SOL    HW236558   1.766   1.853   4.013 -2.2159  0.6658 -0.1171
 8309SOL     OW36559   3.757   3.712   2.217 -0.5306 -0.3377 -0.5372
 8309SOL    HW136560   3.810   3.637   2.190  0.8753  1.3279 -2.4545
 8309SOL    HW236561   3.738   3.677   2.304 -0.2723 -2.6227 -1.3867
 8310SOL     OW36562   1.615   1.590   8.950 -0.5729 -0.0070  0.1855
 8310SOL    HW136563   1.553   1.555   9.015 -0.0133 -3.4224 -1.1476
 8310SOL    HW236564   1.644   1.672   8.990 -0.2979  0.3161 -0.6777
 8311SOL     OW36565   0.912   3.991   0.322  0.1497 -0.5045 -0.2846
 8311SOL    HW136566   0.925   3.901   0.352  0.1394  0.1393  1.6380
 8311SOL    HW236567   0.846   4.016   0.387 -0.5698  1.6396 -1.8458
 8312SOL     OW36568   1.010   3.134   6.601 -0.8406 -0.6846 -0.1743
 8312SOL    HW136569   0.943   3.068   6.617  0.2084 -2.1168 -1.7579
 8312SOL    HW236570   0.982   3.207   6.656 -1.1493 -2.2860  1.7950
 8313SOL     OW36571   2.480   0.357   4.028  0.2618  0.1583  0.0935
 8313SOL    HW136572   2.492   0.396   3.941  0.5243 -0.0483  0.0368
 8313SOL    HW236573   2.426   0.280   4.010 -0.5611  0.3714  1.6086
 8314SOL     OW36574   1.094   3.207   7.856 -0.2541 -0.0324 -0.5319
 8314SOL    HW136575   1.025   3.142   7.843  2.1746 -2.5098 -0.9527
 8314SOL    HW236576   1.110   3.194   7.950  0.2105  1.3416 -0.4184
 8315SOL     OW36577   3.227   1.085   4.207 -0.0188  0.0625  0.6637
 8315SOL    HW136578   3.144   1.112   4.247 -0.9368 -0.9322 -0.6139
 8315SOL    HW236579   3.195   1.050   4.124  2.0193  0.8799 -0.4639
 8316SOL     OW36580   3.675   4.719  13.666 -0.2149  0.2499 -0.3610
 8316SOL    HW136581   3.618   4.646  13.640  0.3241 -0.8216  1.4498
 8316SOL    HW236582   3.763   4.681  13.664  0.3541  1.6295 -2.1089
 8317SOL     OW36583   3.129   4.288   1.421 -0.2726 -0.5198  0.1991
 8317SOL    HW136584   3.181   4.366   1.435  0.2002 -1.1467  1.9646
 8317SOL    HW236585   3.133   4.281   1.326 -1.4310 -1.5230  0.2088
 8318SOL     OW36586   3.704   3.207   6.869  0.6032 -0.4528  0.0208
 8318SOL    HW136587   3.785   3.180   6.913  0.4621  2.4409  2.0757
 8318SOL    HW236588   3.704   3.137   6.804 -0.2716 -1.4025  1.0337
 8319SOL     OW36589   2.390   1.624  17.654  0.2518 -0.2487  0.1356
 8319SOL    HW136590   2.304   1.583  17.646 -0.2697  0.6574  1.1255
 8319SOL    HW236591   2.362   1.704  17.698  1.6031 -0.6544  1.7430
 8320SOL     OW36592   3.515   2.163  10.040 -0.2078 -0.4346  0.4643
 8320SOL    HW136593   3.487   2.217  10.114 -1.4978 -0.8914  0.3132
 8320SOL    HW236594   3.502   2.075  10.076  1.0892 -0.2574  1.3577
 8321SOL     OW36595   1.697   4.402   2.214 -0.1449  0.8970 -0.3358
 8321SOL    HW136596   1.695   4.320   2.166 -1.5838 -0.1488  1.5154
 8321SOL    HW236597   1.721   4.370   2.301  1.5192  3.1765  0.0606
 8322SOL     OW36598   3.500   3.672  11.827  0.6445 -0.0348 -0.4438
 8322SOL    HW136599   3.506   3.595  11.883 -2.7708 -1.8300 -2.6123
 8322SOL    HW236600   3.419   3.698  11.870 -0.4300 -3.3734 -0.5030
 8323SOL     OW36601   3.063   4.442   3.548 -0.3000  0.4347 -0.1231
 8323SOL    HW136602   3.029   4.455   3.460 -0.2555 -0.7533 -0.3028
 8323SOL    HW236603   2.988   4.453   3.606 -1.6397 -0.2076 -1.7733
 8324SOL     OW36604   2.811   4.257   8.996  0.8181  0.3944  0.0379
 8324SOL    HW136605   2.905   4.235   8.996  0.7541  0.1344  0.9332
 8324SOL    HW236606   2.772   4.202   8.928  1.3711  1.3600 -1.0547
 8325SOL     OW36607   4.334   2.049   9.205 -0.6093 -0.0397  0.4801
 8325SOL    HW136608   4.393   2.031   9.278 -1.1183 -0.6603  0.7418
 8325SOL    HW236609   4.249   2.071   9.244 -0.5615  2.5354 -0.8189
 8326SOL     OW36610   4.540   2.014   7.595 -0.3746 -0.5349 -0.2215
 8326SOL    HW136611   4.584   2.059   7.667 -0.4901 -0.3355 -0.2728
 8326SOL    HW236612   4.527   1.929   7.636 -1.9124  0.2419  0.9179
 8327SOL     OW36613   2.786   4.674   8.592  0.0287 -0.3694  0.0001
 8327SOL    HW136614   2.750   4.714   8.671  0.4758  0.1683 -0.0648
 8327SOL    HW236615   2.735   4.594   8.583 -1.0308  0.3924 -0.8534
 8328SOL     OW36616   0.290   3.696  10.386  0.1539 -0.1590  0.3821
 8328SOL    HW136617   0.279   3.679  10.292  1.5572  0.7045  0.0677
 8328SOL    HW236618   0.340   3.615  10.400  2.7918  1.2070 -1.1868
 8329SOL     OW36619   0.173   1.444   7.373 -0.1822 -0.0764  0.7181
 8329SOL    HW136620   0.234   1.393   7.426  0.9422  0.4827 -0.0180
 8329SOL    HW236621   0.117   1.467   7.446 -0.3986  4.4154 -0.8156
 8330SOL     OW36622   0.143   2.344   3.933  0.5477 -0.0417 -0.2030
 8330SOL    HW136623   0.182   2.363   4.019 -1.2854 -1.2248  0.8891
 8330SOL    HW236624   0.066   2.304   3.973  1.2503 -2.6368 -1.4691
 8331SOL     OW36625   2.316   1.135   7.564  0.1690 -0.1512  0.5121
 8331SOL    HW136626   2.330   1.132   7.470  0.5107 -1.6053  0.6058
 8331SOL    HW236627   2.260   1.058   7.577  0.3877 -0.0097  2.2683
 8332SOL     OW36628   0.558   2.106   8.591  0.5760  0.5243  0.2092
 8332SOL    HW136629   0.605   2.188   8.602  0.4101  0.8697 -1.7907
 8332SOL    HW236630   0.584   2.093   8.500 -0.8422 -0.9954  0.0094
 8333SOL     OW36631   1.193   2.620   6.774 -0.5587 -0.2564  0.0923
 8333SOL    HW136632   1.163   2.529   6.771  0.1779 -0.5049  0.3324
 8333SOL    HW236633   1.115   2.667   6.803  0.9762  2.5219 -0.2661
 8334SOL     OW36634   3.757   0.636   8.169 -0.7455  0.2447 -0.3094
 8334SOL    HW136635   3.724   0.688   8.095  0.0112 -1.3931 -1.8234
 8334SOL    HW236636   3.842   0.679   8.176 -0.7676  0.1138  0.6593
 8335SOL     OW36637   4.723   3.536   9.051 -0.9460 -0.5571  0.0607
 8335SOL    HW136638   4.663   3.558   8.979 -1.6517  2.3499  1.5428
 8335SOL    HW236639   4.664   3.477   9.098 -1.0222  0.3557  1.1148
 8336SOL     OW36640   0.825   1.410   8.800 -0.1214 -0.3673 -0.1300
 8336SOL    HW136641   0.861   1.322   8.794  1.2460  0.1399  0.5911
 8336SOL    HW236642   0.894   1.447   8.855  0.1741 -1.1070 -0.0052
 8337SOL     OW36643   1.417   2.148   1.714 -0.0940  0.7265 -0.1627
 8337SOL    HW136644   1.350   2.211   1.690 -0.3360  0.1861 -0.9226
 8337SOL    HW236645   1.406   2.153   1.809  0.9466  0.5412 -0.0283
 8338SOL     OW36646   1.558   4.004   4.032  0.5492  0.4179  0.2265
 8338SOL    HW136647   1.594   4.006   3.944 -1.5676 -0.6005 -0.6768
 8338SOL    HW236648   1.483   3.945   4.024  0.1755  1.1224 -1.3204
 8339SOL     OW36649   1.747   3.993  10.657  0.3035 -0.3579  0.2082
 8339SOL    HW136650   1.786   3.915  10.618  0.9549  1.1379 -2.0769
 8339SOL    HW236651   1.740   4.052  10.582  0.2237 -1.0677 -0.3421
 8340SOL     OW36652   4.363   2.512   3.236 -0.6188  0.2980  0.2234
 8340SOL    HW136653   4.407   2.593   3.260 -2.3818  1.3448 -0.0452
 8340SOL    HW236654   4.291   2.531   3.296  2.1980  1.0146  3.3754
 8341SOL     OW36655   3.290   4.258  10.521 -0.4023  0.3710 -0.4710
 8341SOL    HW136656   3.343   4.203  10.463 -1.1497  0.7603 -1.5231
 8341SOL    HW236657   3.306   4.346  10.486  5.6798 -1.6818 -2.9190
 8342SOL     OW36658   2.573   3.851   6.086 -0.0435  0.2211  0.3773
 8342SOL    HW136659   2.484   3.886   6.091  0.3884  1.7209 -2.2508
 8342SOL    HW236660   2.580   3.863   5.991 -0.7299 -0.6593  0.2080
 8343SOL     OW36661   3.473   3.778   7.582  0.1548 -0.4655  0.0757
 8343SOL    HW136662   3.405   3.724   7.621  2.0798 -0.1560  3.8642
 8343SOL    HW236663   3.447   3.868   7.603  0.2120 -2.3265  8.1072
 8344SOL     OW36664   1.217   1.324  16.575  0.0216  0.3610 -0.3137
 8344SOL    HW136665   1.312   1.333  16.578  0.2035 -2.4243  1.8279
 8344SOL    HW236666   1.201   1.234  16.604 -0.4200 -0.1127 -2.0168
 8345SOL     OW36667   0.278   2.212   3.340 -0.0747  0.1851  0.2778
 8345SOL    HW136668   0.198   2.225   3.392  0.4673  2.6382  0.5139
 8345SOL    HW236669   0.288   2.118   3.351 -2.8621 -0.1371  0.0288
 8346SOL     OW36670   3.333   1.990  14.548 -0.2581 -0.1895  0.9077
 8346SOL    HW136671   3.400   2.001  14.617 -1.4839 -2.4725  2.4438
 8346SOL    HW236672   3.384   2.006  14.468 -0.1622  3.4228  1.6551
 8347SOL     OW36673   3.134   3.129   3.589 -0.1752 -0.0607  0.0423
 8347SOL    HW136674   3.047   3.156   3.560 -0.1498 -0.5228 -0.4709
 8347SOL    HW236675   3.164   3.204   3.641 -0.3330  1.1192 -1.5662
 8348SOL     OW36676   0.547   1.002  14.707  0.4592  0.1750  0.6652
 8348SOL    HW136677   0.627   0.980  14.657  1.4883 -0.8259  2.7564
 8348SOL    HW236678   0.569   1.089  14.739  2.3919  0.1287 -0.4928
 8349SOL     OW36679   0.399   0.406  13.762 -0.1435  0.1987 -0.4799
 8349SOL    HW136680   0.469   0.342  13.774 -1.0734 -1.1273 -2.1511
 8349SOL    HW236681   0.340   0.368  13.827 -0.0146 -1.9996 -1.6644
 8350SOL     OW36682   4.194   0.475   2.292 -0.4188  0.0139 -0.0368
 8350SOL    HW136683   4.136   0.400   2.302  1.2095 -1.2762 -0.2171
 8350SOL    HW236684   4.151   0.549   2.334 -4.4123 -2.3365 -0.0310
 8351SOL     OW36685   2.972   2.910   9.841 -0.2146 -0.2068  0.7674
 8351SOL    HW136686   2.981   3.005   9.832 -1.8258 -0.1751 -0.4520
 8351SOL    HW236687   3.050   2.901   9.896 -0.0616 -1.6212  0.3207
 8352SOL     OW36688   0.381   2.059   8.791 -0.2221  0.5821  0.1439
 8352SOL    HW136689   0.456   2.058   8.732  0.5458 -1.5585  1.1425
 8352SOL    HW236690   0.381   2.150   8.821  1.2026  1.1751 -1.6952
 8353SOL     OW36691   4.617   0.817   3.450 -0.7962  0.7197 -0.0135
 8353SOL    HW136692   4.570   0.765   3.384 -2.2423 -0.5913  2.0555
 8353SOL    HW236693   4.664   0.748   3.496  1.2888  0.7518 -2.0988
 8354SOL     OW36694   4.674   2.071   2.328 -0.5556  0.2775 -0.1640
 8354SOL    HW136695   4.645   2.155   2.291 -3.3105  0.5933  2.7217
 8354SOL    HW236696   4.692   2.018   2.251 -0.8974 -0.8020  0.4974
 8355SOL     OW36697   0.671   2.974   2.252 -0.7551  0.7938  0.0110
 8355SOL    HW136698   0.635   3.059   2.278  1.2532  1.9195 -0.7936
 8355SOL    HW236699   0.642   2.964   2.162 -0.9747  1.6029 -0.0139
 8356SOL     OW36700   1.701   0.347   2.413 -0.2630 -0.3884  1.1477
 8356SOL    HW136701   1.675   0.294   2.489  1.3796  0.4822  2.3316
 8356SOL    HW236702   1.751   0.415   2.458  0.8133 -0.6954  0.3905
 8357SOL     OW36703   3.572   0.608   0.690 -0.2076  0.4387 -0.1598
 8357SOL    HW136704   3.654   0.600   0.739 -0.2871 -0.7406 -0.2149
 8357SOL    HW236705   3.527   0.532   0.728 -1.7020  1.2997 -0.2102
 8358SOL     OW36706   0.630   0.396  14.966  0.6213 -0.1382  0.2428
 8358SOL    HW136707   0.652   0.314  14.921  0.7826  0.4782 -0.7957
 8358SOL    HW236708   0.537   0.377  14.981  0.0646 -1.2922 -4.6449
 8359SOL     OW36709   4.549   3.415   4.019  0.6044 -0.6131 -0.1510
 8359SOL    HW136710   4.597   3.406   4.100  0.5851 -0.4368 -0.1187
 8359SOL    HW236711   4.578   3.341   3.967 -1.6893 -2.3051  0.9811
 8360SOL     OW36712   0.997   1.108   5.648  0.3697 -0.2463 -0.0677
 8360SOL    HW136713   1.024   1.023   5.612 -0.8829 -0.7048  0.0837
 8360SOL    HW236714   0.940   1.137   5.577  0.9227  1.9732  0.3762
 8361SOL     OW36715   3.685   1.394   7.136 -0.0861  0.1304 -0.3779
 8361SOL    HW136716   3.673   1.335   7.210 -2.3300  0.5326 -0.4023
 8361SOL    HW236717   3.635   1.468   7.169  2.4541  1.9515 -0.6179
 8362SOL     OW36718   3.022   0.690   3.415 -0.2931 -0.1490 -0.2192
 8362SOL    HW136719   3.056   0.706   3.503 -1.7695 -2.7676  0.8473
 8362SOL    HW236720   2.970   0.770   3.403  0.9901  0.7218  0.0039
 8363SOL     OW36721   1.144   0.842   2.348 -0.7988  0.0072  0.0134
 8363SOL    HW136722   1.087   0.892   2.407  1.8334  3.9058 -0.7506
 8363SOL    HW236723   1.209   0.911   2.332  0.4998 -1.4952 -1.1622
 8364SOL     OW36724   4.399   4.635   1.623  0.3691 -0.3801 -0.2194
 8364SOL    HW136725   4.437   4.597   1.544  1.4882 -0.3595  0.3127
 8364SOL    HW236726   4.391   4.554   1.674 -0.7334 -0.3127 -0.2874
 8365SOL     OW36727   1.765   0.681   1.316 -0.4098 -0.4508  0.1158
 8365SOL    HW136728   1.687   0.737   1.316 -0.2362 -0.2143  0.9276
 8365SOL    HW236729   1.728   0.594   1.299  0.8223 -0.5697 -1.9712
 8366SOL     OW36730   4.058   4.460   5.195 -0.3586 -0.2987  0.3817
 8366SOL    HW136731   4.040   4.476   5.102  1.1142  1.5696  0.4165
 8366SOL    HW236732   4.114   4.383   5.192  2.5305  1.8361 -0.1638
 8367SOL     OW36733   4.428   2.651   2.350  0.0172  0.1159  0.0753
 8367SOL    HW136734   4.407   2.740   2.323  0.8812 -0.6048 -3.0178
 8367SOL    HW236735   4.350   2.624   2.399 -1.1610  1.7332 -0.9235
 8368SOL     OW36736   1.092   3.114   8.376 -0.1595 -0.0613  0.0124
 8368SOL    HW136737   1.055   3.175   8.313  0.8929  0.2178 -0.3406
 8368SOL    HW236738   1.158   3.174   8.412 -0.9244  0.5671  0.3686
 8369SOL     OW36739   3.187   0.066   2.286 -0.0472 -0.2459 -0.4140
 8369SOL    HW136740   3.229   4.730   2.330 -2.2218 -1.8453 -1.0553
 8369SOL    HW236741   3.216   0.046   2.196  2.6693 -2.2228  0.9073
 8370SOL     OW36742   4.155   4.671   5.425 -0.0216  0.1237  0.1420
 8370SOL    HW136743   4.074   4.687   5.473 -0.0091 -0.4837  0.3638
 8370SOL    HW236744   4.124   4.644   5.338  0.1286  0.8718 -0.1462
 8371SOL     OW36745   3.165   3.157   2.554 -0.2747  0.1053  0.5088
 8371SOL    HW136746   3.166   3.078   2.500 -0.5109  1.9580 -2.1601
 8371SOL    HW236747   3.077   3.184   2.578 -0.9228  0.1560 -1.9599
 8372SOL     OW36748   4.311   4.342   3.091 -0.1415  0.0486 -0.0538
 8372SOL    HW136749   4.359   4.350   3.174  1.7054 -1.0282 -1.0156
 8372SOL    HW236750   4.381   4.311   3.033 -0.1519 -0.9521  0.4659
 8373SOL     OW36751   4.092   0.622   0.637  0.1245  1.0717 -0.5091
 8373SOL    HW136752   4.097   0.598   0.730 -0.0223  0.7315 -0.5905
 8373SOL    HW236753   4.036   0.699   0.631  1.0953  1.8873  0.7499
 8374SOL     OW36754   4.053   1.278   0.619  0.3689  0.4694  0.2329
 8374SOL    HW136755   4.090   1.300   0.534  0.2897  1.1951  0.3908
 8374SOL    HW236756   3.963   1.249   0.604 -0.3551  1.4682  2.6176
 8375SOL     OW36757   2.705   1.640   3.692 -0.1056 -0.1831 -0.1356
 8375SOL    HW136758   2.789   1.671   3.657  0.3981 -0.3187  0.9665
 8375SOL    HW236759   2.725   1.612   3.781  1.2942  1.4421  0.0756
 8376SOL     OW36760   2.412   3.774   5.755 -0.1296 -0.2974  0.6235
 8376SOL    HW136761   2.320   3.802   5.750 -0.3440 -1.3838 -1.6853
 8376SOL    HW236762   2.405   3.679   5.742 -1.4981 -0.1214  0.0290
 8377SOL     OW36763   3.059   3.957   6.573  0.6055 -0.2740 -0.7163
 8377SOL    HW136764   2.999   3.885   6.589  1.8063 -1.0236  0.4456
 8377SOL    HW236765   3.138   3.908   6.595  0.8599  0.5814  0.3360
 8378SOL     OW36766   4.692   2.082  17.311 -0.0185 -0.3644  0.9498
 8378SOL    HW136767   4.730   2.011  17.364 -0.5016 -0.4109  1.2282
 8378SOL    HW236768   4.601   2.069  17.336 -0.4291 -0.7985 -0.8265
 8379SOL     OW36769   1.352   4.372   4.582 -0.0600  0.4929  0.3499
 8379SOL    HW136770   1.422   4.407   4.526 -0.1437  1.9767  1.1849
 8379SOL    HW236771   1.277   4.383   4.524 -0.4970  0.2343  0.8716
 8380SOL     OW36772   0.079   0.201   3.303 -0.1170 -0.1190 -0.3504
 8380SOL    HW136773   4.735   0.190   3.352  0.7410 -0.1056  1.0462
 8380SOL    HW236774   0.122   0.118   3.320  1.3964  1.0347  1.3331
 8381SOL     OW36775   1.810   3.610   4.608  0.2196  0.2140 -0.1411
 8381SOL    HW136776   1.877   3.622   4.676  1.1719 -0.0994 -1.0297
 8381SOL    HW236777   1.789   3.699   4.581 -1.7327 -0.0727  0.4446
 8382SOL     OW36778   0.567   2.391   1.415 -0.1442 -0.3740 -0.5234
 8382SOL    HW136779   0.573   2.313   1.360 -0.4536  0.4345 -1.6893
 8382SOL    HW236780   0.630   2.370   1.484 -1.6700  0.4871  1.1358
 8383SOL     OW36781   0.155   3.230   4.375  0.3297  0.3973 -0.5789
 8383SOL    HW136782   0.228   3.289   4.391  2.1347 -1.7936 -0.7915
 8383SOL    HW236783   0.161   3.189   4.462 -3.3508 -0.0693 -0.5374
 8384SOL     OW36784   2.886   2.064   4.838  0.0770  0.2703  0.3329
 8384SOL    HW136785   2.875   2.075   4.932  2.0820  0.0434  0.5892
 8384SOL    HW236786   2.968   2.111   4.827  0.4772 -0.3477  0.6765
 8385SOL     OW36787   3.100   2.897   5.549  0.0250  0.0656  0.2666
 8385SOL    HW136788   3.078   2.815   5.505  0.6069  1.4705 -2.6659
 8385SOL    HW236789   3.080   2.964   5.484 -0.4697  1.4776  1.8849
 8386SOL     OW36790   2.611   3.988   3.478 -0.2750 -0.0787  0.0869
 8386SOL    HW136791   2.582   4.073   3.445  0.1481 -0.1082 -0.3657
 8386SOL    HW236792   2.630   3.945   3.394 -1.1877 -0.2653 -0.0249
 8387SOL     OW36793   3.732   2.743   2.135  0.2690 -0.1205  0.6763
 8387SOL    HW136794   3.782   2.671   2.173 -2.1256 -1.4231  1.3274
 8387SOL    HW236795   3.783   2.764   2.056 -0.3335 -0.7887  0.1140
 8388SOL     OW36796   0.347   4.541  15.894 -0.0791  0.3280  0.3890
 8388SOL    HW136797   0.269   4.596  15.906  0.1002  0.4231  1.1618
 8388SOL    HW236798   0.296   4.472  15.852  2.6497 -0.6286 -1.3192
 8389SOL     OW36799   0.520   3.120   9.420  0.1927 -0.1377  0.3643
 8389SOL    HW136800   0.540   3.030   9.397  0.4116 -0.1094  0.4452
 8389SOL    HW236801   0.474   3.151   9.342 -0.6854 -5.2744 -1.0894
 8390SOL     OW36802   4.562   3.703   8.040 -0.4094 -0.2914  0.0960
 8390SOL    HW136803   4.551   3.632   7.976  1.6343 -0.0991 -0.4764
 8390SOL    HW236804   4.652   3.682   8.065 -0.3259  1.0143  0.8804
 8391SOL     OW36805   0.564   3.549  13.041  0.2162 -0.5152  0.0166
 8391SOL    HW136806   0.506   3.473  13.040 -0.9779  0.3878 -0.9379
 8391SOL    HW236807   0.546   3.595  13.123  0.4265  0.3654 -0.4313
 8392SOL     OW36808   3.895   2.648   8.683 -0.3791  0.1058  0.0160
 8392SOL    HW136809   3.833   2.721   8.685  1.0702  1.2447  3.6735
 8392SOL    HW236810   3.915   2.637   8.590 -0.8730  0.2440 -0.1059
 8393SOL     OW36811   4.067   0.143  15.443  0.0413  0.3849  0.9270
 8393SOL    HW136812   4.069   0.063  15.495  0.4732  2.8454  4.7212
 8393SOL    HW236813   4.014   0.110  15.372  0.0291  1.9910  0.1915
 8394SOL     OW36814   3.786   2.160  16.015 -0.2553  0.1052  0.9710
 8394SOL    HW136815   3.708   2.215  16.021 -0.2066  0.0745  1.8222
 8394SOL    HW236816   3.752   2.080  15.975  0.0049 -0.6436  2.2353
 8395SOL     OW36817   2.346   0.902   6.951 -0.2868  0.5260  0.1879
 8395SOL    HW136818   2.431   0.863   6.930 -0.4408  1.0404 -1.3936
 8395SOL    HW236819   2.316   0.858   7.030 -0.7993 -1.2674 -1.0131
 8396SOL     OW36820   1.250   1.283  16.256  0.8640  0.6862 -0.2392
 8396SOL    HW136821   1.333   1.242  16.231 -0.4648 -1.6722 -0.8266
 8396SOL    HW236822   1.275   1.307  16.345  0.3161  0.0975  0.0711
 8397SOL     OW36823   1.002   2.767   9.662 -0.1077  0.1933  0.0856
 8397SOL    HW136824   1.062   2.761   9.736 -0.2207 -2.3458 -0.0434
 8397SOL    HW236825   1.055   2.739   9.587  1.3762  1.6743  0.5682
 8398SOL     OW36826   0.546   0.621   6.989  0.1195  0.2393  0.1851
 8398SOL    HW136827   0.634   0.631   6.955  0.9506  0.6335  2.4821
 8398SOL    HW236828   0.533   0.698   7.044 -1.3151  1.3122 -1.6325
 8399SOL     OW36829   0.606   2.937   2.920  0.3924 -0.5005  0.1275
 8399SOL    HW136830   0.619   2.842   2.912 -0.2389 -0.6975  1.4475
 8399SOL    HW236831   0.658   2.967   2.994  1.7374  0.2285 -1.1115
 8400SOL     OW36832   4.533   2.896  12.990 -0.0956  0.5559  0.5309
 8400SOL    HW136833   4.621   2.866  12.966 -0.2301  0.1480  0.5484
 8400SOL    HW236834   4.493   2.811  13.007 -1.7101  1.2792  0.3145
 8401SOL     OW36835   4.613   2.741  16.313  0.4359  0.7889  0.5240
 8401SOL    HW136836   4.694   2.738  16.263  1.5260  0.6149  2.2826
 8401SOL    HW236837   4.604   2.831  16.344  1.5148  1.0026  0.2081
 8402SOL     OW36838   3.274   3.821   9.217 -0.2336  0.0119 -0.5350
 8402SOL    HW136839   3.290   3.795   9.126 -0.0552  1.8140 -1.0154
 8402SOL    HW236840   3.330   3.765   9.270  1.7334  0.5953 -1.9817
 8403SOL     OW36841   4.606   2.441   6.633  0.0404  0.3862 -0.0797
 8403SOL    HW136842   4.626   2.396   6.715 -2.5760 -0.0883  0.2671
 8403SOL    HW236843   4.583   2.364   6.581  1.8672 -0.3245  0.1678
 8404SOL     OW36844   3.375   1.880  16.428 -0.1104  0.7838 -0.1219
 8404SOL    HW136845   3.339   1.794  16.408 -0.0955  0.5731  0.7561
 8404SOL    HW236846   3.367   1.868  16.522  2.4766  0.1141  0.0279
 8405SOL     OW36847   0.627   1.659  17.001  0.3755 -0.4289  0.1369
 8405SOL    HW136848   0.534   1.645  17.017  0.3166 -0.3686 -0.1416
 8405SOL    HW236849   0.673   1.598  17.058  0.8778 -0.2116 -0.0324
 8406SOL     OW36850   2.787   0.724  14.217  0.3592 -0.1353 -0.0608
 8406SOL    HW136851   2.703   0.706  14.259 -0.6252 -0.8131 -2.3004
 8406SOL    HW236852   2.822   0.790  14.277  0.5293 -2.1787  2.0540
 8407SOL     OW36853   3.044   1.308   8.854 -0.2550 -0.0885  0.3430
 8407SOL    HW136854   3.007   1.233   8.808 -0.5630  0.2142  0.0951
 8407SOL    HW236855   2.973   1.371   8.858 -0.8718 -0.8446  1.3349
 8408SOL     OW36856   3.483   3.599  10.075  0.1142 -0.0413 -0.0770
 8408SOL    HW136857   3.506   3.691  10.088 -0.3050  0.1865 -0.9329
 8408SOL    HW236858   3.449   3.575  10.161 -2.6415  0.4629 -1.0280
 8409SOL     OW36859   0.292   0.349   1.101  0.3448 -0.2436  0.2262
 8409SOL    HW136860   0.351   0.292   1.149  3.4027  1.8439 -1.0504
 8409SOL    HW236861   0.258   0.402   1.173 -0.9001  1.2664 -1.4467
 8410SOL     OW36862   2.990   3.778   0.775 -0.1010 -0.4490  0.1617
 8410SOL    HW136863   3.084   3.771   0.790 -0.2287 -2.1978  0.1156
 8410SOL    HW236864   2.962   3.753   0.863  0.7811  0.1337  0.6111
 8411SOL     OW36865   2.591   0.619  10.267  0.4634 -0.0868  0.4176
 8411SOL    HW136866   2.644   0.643  10.343  1.5860 -1.0487 -0.0503
 8411SOL    HW236867   2.545   0.700  10.246 -0.1898 -1.2385 -2.6465
 8412SOL     OW36868   1.050   4.173  10.257 -0.1286  0.3266 -0.6033
 8412SOL    HW136869   1.017   4.117  10.328  1.0251 -0.7929 -0.9473
 8412SOL    HW236870   1.085   4.248  10.305 -3.3618  0.7430  1.1066
 8413SOL     OW36871   1.574   3.502   7.316 -0.0850 -0.2346 -0.9222
 8413SOL    HW136872   1.542   3.534   7.400  0.2865 -1.0017 -0.4932
 8413SOL    HW236873   1.538   3.413   7.311  0.3938 -0.6017  2.5173
 8414SOL     OW36874   3.536   2.351  12.223  0.3830 -0.0486  0.0450
 8414SOL    HW136875   3.444   2.337  12.246  0.6403 -2.3865 -0.3245
 8414SOL    HW236876   3.561   2.435  12.260  0.9489 -0.6396  1.0139
 8415SOL     OW36877   2.367   1.685   0.286 -0.3439 -0.8166 -0.6531
 8415SOL    HW136878   2.351   1.591   0.273 -3.0761 -0.3995 -0.3141
 8415SOL    HW236879   2.294   1.722   0.335  0.2420 -0.5155 -0.0059
 8416SOL     OW36880   4.073   0.677   3.303 -0.3539 -0.4282  0.2078
 8416SOL    HW136881   4.017   0.608   3.269 -1.6957  0.8469 -0.2084
 8416SOL    HW236882   4.035   0.700   3.389  0.7087 -1.6770  1.0071
 8417SOL     OW36883   2.985   2.695   8.557 -0.5927 -0.1810  0.6351
 8417SOL    HW136884   2.947   2.616   8.518  1.3746 -0.6303 -0.3721
 8417SOL    HW236885   2.968   2.669   8.648 -1.1448 -2.9309 -0.2334
 8418SOL     OW36886   1.701   2.095   9.089 -0.3895 -0.1117 -0.2586
 8418SOL    HW136887   1.647   2.132   9.019 -0.5061  1.1954  0.5258
 8418SOL    HW236888   1.706   2.163   9.156 -0.2775 -0.6271  0.2526
 8419SOL     OW36889   1.437   4.350  10.108  0.1513  0.0380  0.1073
 8419SOL    HW136890   1.513   4.397  10.075 -1.2957  0.2544 -2.9236
 8419SOL    HW236891   1.381   4.367  10.032 -1.1197 -0.0435  1.0269
 8420SOL     OW36892   1.681   3.101   7.192 -0.3605 -0.4596 -0.0783
 8420SOL    HW136893   1.730   3.181   7.212 -1.6713  0.5007 -0.7434
 8420SOL    HW236894   1.752   3.052   7.151  0.3095 -0.8127  1.4743
 8421SOL     OW36895   4.509   3.400   0.192  0.1038  0.0435  0.1111
 8421SOL    HW136896   4.527   3.443   0.108 -0.7237  1.3683  0.6188
 8421SOL    HW236897   4.551   3.314   0.184 -1.4074 -0.7313  0.6134
 8422SOL     OW36898   1.508   0.113   3.785  0.4303 -0.2873  0.0754
 8422SOL    HW136899   1.584   0.171   3.795 -0.0146  0.2126  0.5470
 8422SOL    HW236900   1.520   0.080   3.696 -0.8186 -0.5475  0.0052
 8423SOL     OW36901   2.634   3.732  16.134 -0.2483  0.3763 -0.3890
 8423SOL    HW136902   2.658   3.809  16.184 -0.7317  0.6760 -0.6206
 8423SOL    HW236903   2.713   3.730  16.080  0.9644 -0.0091  1.3785
 8424SOL     OW36904   3.025   2.225   7.868 -0.0169 -0.0016 -0.4160
 8424SOL    HW136905   2.939   2.202   7.834 -0.2696 -1.8145  1.4697
 8424SOL    HW236906   3.055   2.282   7.796  0.6664  0.4845  0.2558
 8425SOL     OW36907   4.225   2.520   8.816 -0.8484 -0.0413  0.2448
 8425SOL    HW136908   4.277   2.556   8.889 -3.1909 -2.2875  3.0274
 8425SOL    HW236909   4.154   2.485   8.870 -1.1972 -1.8324 -1.3984
 8426SOL     OW36910   4.531   1.464   2.260  0.5312  0.3734  0.1582
 8426SOL    HW136911   4.453   1.410   2.248  0.8442  0.5009 -2.5872
 8426SOL    HW236912   4.502   1.554   2.277  1.4478  0.2819  2.0971
 8427SOL     OW36913   0.458   0.050   5.952 -0.5542  0.0326  0.0561
 8427SOL    HW136914   0.537   4.735   5.969  1.3694  2.6338 -0.7994
 8427SOL    HW236915   0.404   4.727   5.902 -0.1437  0.8736 -1.3897
 8428SOL     OW36916   1.001   2.831   3.011 -0.1693 -0.0956 -0.0746
 8428SOL    HW136917   1.006   2.779   2.930  0.3217 -1.3666  0.7728
 8428SOL    HW236918   0.916   2.875   3.009  2.2963  4.7444 -0.1192
 8429SOL     OW36919   2.365   2.537   0.804  0.2752  0.0586  0.2234
 8429SOL    HW136920   2.320   2.562   0.723  0.3798 -2.7176 -0.6651
 8429SOL    HW236921   2.301   2.472   0.835  0.8055 -0.3535  0.4465
 8430SOL     OW36922   1.539   1.249   2.137  0.2867  0.0034 -0.1349
 8430SOL    HW136923   1.447   1.232   2.156  1.0340  0.4004  3.6865
 8430SOL    HW236924   1.527   1.344   2.139 -0.2450 -0.0743  0.3621
 8431SOL     OW36925   3.408   3.275   2.789  0.0689  0.5019 -0.0919
 8431SOL    HW136926   3.504   3.280   2.794  0.0432  1.0789 -0.1823
 8431SOL    HW236927   3.390   3.363   2.821 -0.9314  0.5684 -0.8604
 8432SOL     OW36928   2.064   2.449   8.684  0.2311  0.0597  0.2788
 8432SOL    HW136929   2.048   2.474   8.593 -0.3418  0.7613  0.5741
 8432SOL    HW236930   2.071   2.537   8.722  1.3386  0.4087 -0.7551
 8433SOL     OW36931   4.195   3.008   6.592  0.1803  0.5634 -0.4392
 8433SOL    HW136932   4.120   2.966   6.549  0.3392 -0.1370 -0.0278
 8433SOL    HW236933   4.149   3.070   6.649 -0.6587  2.2007 -2.8551
 8434SOL     OW36934   0.600   4.379   7.787 -0.4929  0.2643 -0.1734
 8434SOL    HW136935   0.694   4.394   7.791 -0.5791  0.2889  1.6048
 8434SOL    HW236936   0.560   4.455   7.828 -0.5140  0.3953 -0.4429
 8435SOL     OW36937   4.506   0.046   8.769  0.0519  0.0863 -0.5570
 8435SOL    HW136938   4.484   0.064   8.677 -1.8897  0.0247 -0.0990
 8435SOL    HW236939   4.599   0.022   8.765  0.3991  1.4674 -0.6201
 8436SOL     OW36940   2.563   0.845  14.070  0.1375 -0.0209 -0.1189
 8436SOL    HW136941   2.538   0.753  14.069  1.4157 -0.3656 -0.7875
 8436SOL    HW236942   2.538   0.877  14.157 -0.3600 -0.4970 -0.0900
 8437SOL     OW36943   3.933   2.012   3.171  0.0239 -0.1167 -0.5436
 8437SOL    HW136944   3.905   1.936   3.120 -0.5968  0.9468 -1.7669
 8437SOL    HW236945   3.852   2.062   3.177  0.5353  0.6623 -0.1031
 8438SOL     OW36946   4.162   1.792   2.950 -0.2119 -0.2288  0.0555
 8438SOL    HW136947   4.237   1.842   2.982  0.5639 -0.6846 -1.0225
 8438SOL    HW236948   4.136   1.746   3.030  1.5577 -2.2756 -0.5386
 8439SOL     OW36949   0.847   0.265   6.706  0.0470  0.1977 -0.0147
 8439SOL    HW136950   0.819   0.301   6.622  0.0315 -2.4097 -1.1024
 8439SOL    HW236951   0.942   0.279   6.713 -0.1921  1.6621  0.2554
 8440SOL     OW36952   4.585   0.334   1.695  0.0515  0.0072 -0.6858
 8440SOL    HW136953   4.665   0.368   1.655  0.9685 -1.7781 -0.3356
 8440SOL    HW236954   4.572   0.391   1.771  0.7963 -0.8492  0.0807
 8441SOL     OW36955   0.013   4.248   4.091 -0.4775 -0.1970  0.0555
 8441SOL    HW136956   4.704   4.332   4.096 -0.8318 -0.3559 -0.5663
 8441SOL    HW236957   4.706   4.189   4.151 -1.4530  0.3627 -0.1219
 8442SOL     OW36958   4.222   2.571   3.463  0.3034  0.0482 -0.0724
 8442SOL    HW136959   4.274   2.635   3.512  1.6386 -1.1174  0.0280
 8442SOL    HW236960   4.155   2.553   3.530  0.4894 -0.6679 -0.0805
 8443SOL     OW36961   3.260   3.513   3.547 -0.1227  0.7838 -0.0126
 8443SOL    HW136962   3.279   3.544   3.636 -0.9678 -3.1203  1.5324
 8443SOL    HW236963   3.193   3.575   3.517 -0.4575  0.6305  0.4177
 8444SOL     OW36964   2.530   0.183   5.388  0.3822  0.4772  0.3517
 8444SOL    HW136965   2.588   0.226   5.325 -0.8366 -0.5016 -1.4680
 8444SOL    HW236966   2.554   0.242   5.459 -2.3105 -2.1387  3.3931
 8445SOL     OW36967   3.219   3.082   1.507  0.4837 -0.2276 -0.5701
 8445SOL    HW136968   3.289   3.030   1.468  1.2272 -1.2678  2.1661
 8445SOL    HW236969   3.236   3.090   1.601  0.1958 -1.5242 -0.4192
 8446SOL     OW36970   1.970   2.249   3.897 -0.8794  0.4538 -0.1972
 8446SOL    HW136971   1.875   2.251   3.896 -0.8797  0.5813  0.2782
 8446SOL    HW236972   1.991   2.280   3.808  0.7353  0.0119  0.0303
 8447SOL     OW36973   3.437   4.575   7.762  0.2080 -0.0282  0.2516
 8447SOL    HW136974   3.344   4.565   7.783  0.4737 -0.5884  1.1628
 8447SOL    HW236975   3.429   4.653   7.707  0.7473 -1.1189 -1.3580
 8448SOL     OW36976   1.620   2.933   2.730  0.1601 -0.0251 -0.3573
 8448SOL    HW136977   1.641   2.944   2.638 -1.5474 -0.7333 -0.8447
 8448SOL    HW236978   1.524   2.936   2.735  0.2550  2.2628  0.0158
 8449SOL     OW36979   1.157   2.654   8.087  0.2994  0.2829  0.7867
 8449SOL    HW136980   1.169   2.604   8.007 -1.6602 -0.7514  1.1546
 8449SOL    HW236981   1.063   2.670   8.081  0.6272  1.2761 -1.5792
 8450SOL     OW36982   3.927   2.152   1.705  0.2096  0.5489 -0.0225
 8450SOL    HW136983   3.935   2.167   1.800  1.1401  0.4507 -0.0836
 8450SOL    HW236984   4.001   2.092   1.693  2.3330  3.0702  0.2930
 8451SOL     OW36985   2.094   3.556   8.082  0.0545 -0.5598 -0.5672
 8451SOL    HW136986   2.076   3.645   8.114  2.2473 -1.3566  2.7611
 8451SOL    HW236987   2.006   3.524   8.059 -0.5650  0.5508  0.2546
 8452SOL     OW36988   0.075   4.460  12.316 -0.3550 -0.2145 -0.0312
 8452SOL    HW136989   0.158   4.505  12.328 -0.8158  0.6145 -0.0027
 8452SOL    HW236990   0.033   4.477  12.400  3.3441 -3.1663  2.4109
 8453SOL     OW36991   0.702   1.453   8.555  0.0900 -0.1999 -0.2197
 8453SOL    HW136992   0.677   1.545   8.563 -1.2049 -0.5598 -0.1534
 8453SOL    HW236993   0.732   1.424   8.642 -0.4050 -0.9253 -0.2867
 8454SOL     OW36994   2.671   2.313   5.098 -0.3268  0.0935 -0.1090
 8454SOL    HW136995   2.604   2.337   5.162 -0.7505  0.1369 -0.5599
 8454SOL    HW236996   2.605   2.298   5.029 -1.0091  0.4796  0.4554
 8455SOL     OW36997   3.956   1.594   9.694  0.4589 -0.5373  0.1903
 8455SOL    HW136998   4.044   1.579   9.728  0.7862  0.7847 -0.0587
 8455SOL    HW236999   3.907   1.552   9.765  0.3707  0.1924  0.5707
 8456SOL     OW37000   3.279   1.332   8.242 -0.5850 -0.1575  0.4242
 8456SOL    HW137001   3.363   1.317   8.198 -1.7734 -0.9844 -1.5322
 8456SOL    HW237002   3.236   1.263   8.192 -1.6906  0.0596  1.0774
 8457SOL     OW37003   3.167   0.580   8.566 -0.5295 -0.4333  0.1241
 8457SOL    HW137004   3.168   0.487   8.586  1.3589 -0.3980  0.2152
 8457SOL    HW237005   3.241   0.588   8.505 -0.1157 -0.6054  0.6082
 8458SOL     OW37006   3.483   3.225   7.259  0.2406  1.1372 -0.2232
 8458SOL    HW137007   3.574   3.210   7.281  0.2598 -0.3452 -1.3839
 8458SOL    HW237008   3.443   3.175   7.330  1.3295 -1.5618 -1.5323
 8459SOL     OW37009   2.775   3.219  12.729 -0.2063 -0.1269 -0.0767
 8459SOL    HW137010   2.729   3.161  12.790 -0.2015 -0.0696 -0.0192
 8459SOL    HW237011   2.850   3.256  12.775  0.2042  0.9688 -1.6144
 8460SOL     OW37012   0.978   3.141   7.537 -0.5529 -0.1037  0.0971
 8460SOL    HW137013   0.901   3.102   7.578 -0.2583 -1.3892 -0.5688
 8460SOL    HW237014   0.931   3.210   7.489 -1.1607 -1.4999 -1.3292
 8461SOL     OW37015   3.319   0.322   1.596  0.4717  0.0545 -0.1697
 8461SOL    HW137016   3.264   0.277   1.660 -0.0586  0.7779 -0.1108
 8461SOL    HW237017   3.288   0.290   1.511 -2.7781  0.4402  0.8836
 8462SOL     OW37018   2.063   1.267   6.285  0.2681  0.0475 -0.3857
 8462SOL    HW137019   1.994   1.323   6.320 -1.8992 -3.2991  0.6563
 8462SOL    HW237020   2.079   1.213   6.362 -0.2491 -1.0244 -1.0364
 8463SOL     OW37021   0.846   3.923   3.881  0.3667  0.0837 -0.0315
 8463SOL    HW137022   0.766   3.976   3.890 -0.7898 -1.2724 -2.2660
 8463SOL    HW237023   0.830   3.876   3.799 -1.3564  0.3215  0.1535
 8464SOL     OW37024   0.195   0.028  10.119 -0.0606  0.0624 -0.1766
 8464SOL    HW137025   0.113   0.062  10.156  0.5326 -0.9947  2.0985
 8464SOL    HW237026   0.256   0.099  10.141  0.3688 -1.2642  2.9584
 8465SOL     OW37027   2.378   4.091   8.334 -0.8045  0.7020 -0.0655
 8465SOL    HW137028   2.389   4.119   8.425  2.9124 -2.6674  0.5241
 8465SOL    HW237029   2.321   4.016   8.348 -0.0422 -0.6153 -3.9125
 8466SOL     OW37030   2.665   4.533   2.112  0.4339  0.6661 -0.1250
 8466SOL    HW137031   2.578   4.546   2.149 -1.1429  0.5872 -3.8066
 8466SOL    HW237032   2.653   4.463   2.047 -0.3909  0.2938  0.4358
 8467SOL     OW37033   4.524   2.469  16.853 -0.2623  0.3258 -0.1503
 8467SOL    HW137034   4.468   2.410  16.802 -1.2123  0.9223  0.1916
 8467SOL    HW237035   4.520   2.539  16.787 -0.1281  0.4061 -0.0734
 8468SOL     OW37036   2.748   0.160   5.965  0.0134 -0.2808  0.8777
 8468SOL    HW137037   2.738   0.065   5.970  1.8109 -0.4278  1.6649
 8468SOL    HW237038   2.840   0.158   5.937  0.1686 -2.9994  1.6204
 8469SOL     OW37039   2.413   2.228   7.288  0.2385 -0.0351  0.2734
 8469SOL    HW137040   2.401   2.310   7.337 -0.4155 -1.0186  1.7780
 8469SOL    HW237041   2.350   2.240   7.218 -0.3253 -0.8625  0.6372
 8470SOL     OW37042   2.044   1.841   1.709  0.1744  0.2098 -0.4350
 8470SOL    HW137043   2.067   1.915   1.765  1.3139 -1.1520  0.8995
 8470SOL    HW237044   2.127   1.794   1.718  1.0878  2.0241  0.7335
 8471SOL     OW37045   0.831   2.795   5.493  0.0021 -0.1062 -0.1827
 8471SOL    HW137046   0.751   2.756   5.457  0.3782  0.2155 -1.3564
 8471SOL    HW237047   0.818   2.887   5.515 -0.3781 -0.4099  0.8771
 8472SOL     OW37048   3.834   0.226   7.540  0.2286  0.3480 -0.2958
 8472SOL    HW137049   3.926   0.207   7.518  0.3500 -0.4937  0.9289
 8472SOL    HW237050   3.787   0.143   7.535 -0.5478  0.7533  0.3324
 8473SOL     OW37051   4.018   2.972  10.796 -0.6352  0.2143 -0.0055
 8473SOL    HW137052   3.954   2.976  10.867 -2.4102  0.5836 -1.6461
 8473SOL    HW237053   3.970   2.950  10.716 -0.3773  1.6488 -0.5630
 8474SOL     OW37054   3.479   0.925   9.416 -0.6935  0.3775  0.1604
 8474SOL    HW137055   3.487   0.891   9.505 -0.2462  0.8125  0.2858
 8474SOL    HW237056   3.433   1.007   9.432 -1.1870  0.0879  0.2368
 8475SOL     OW37057   4.459   1.299  11.928  0.0142  0.2988  0.2321
 8475SOL    HW137058   4.372   1.259  11.931  0.3882 -0.4121  1.5195
 8475SOL    HW237059   4.465   1.297  12.024  2.0692  1.5069  0.1350
 8476SOL     OW37060   3.733   3.319   7.644 -0.0476  0.4151 -0.2965
 8476SOL    HW137061   3.705   3.410   7.641  0.9387  0.7194 -0.1965
 8476SOL    HW237062   3.688   3.290   7.724 -0.1939 -0.5732 -0.7333
 8477SOL     OW37063   4.579   2.341  14.926 -0.1687  0.3149  0.3816
 8477SOL    HW137064   4.617   2.345  14.838  1.5100 -1.4336  1.0251
 8477SOL    HW237065   4.633   2.405  14.973  0.0173  0.3024  0.1846
 8478SOL     OW37066   3.708   3.460   3.311 -0.5981  0.3187  0.5640
 8478SOL    HW137067   3.656   3.524   3.359  0.1032  1.1432  0.2129
 8478SOL    HW237068   3.730   3.402   3.384 -0.1362  1.0584  1.0054
 8479SOL     OW37069   0.917   1.031   5.183 -0.3998 -0.3577  0.2327
 8479SOL    HW137070   1.001   1.000   5.218  0.1180  0.5595 -0.1938
 8479SOL    HW237071   0.925   1.012   5.090  1.3720  1.9619 -0.1009
 8480SOL     OW37072   2.588   0.531   3.454  0.3456  0.0104  0.0796
 8480SOL    HW137073   2.615   0.593   3.522 -0.4250  0.7010 -0.2412
 8480SOL    HW237074   2.609   0.574   3.371 -1.8081 -2.9339 -1.9901
 8481SOL     OW37075   1.479   2.503   9.402  0.6720 -0.1537  0.1500
 8481SOL    HW137076   1.566   2.541   9.412  0.0792  1.1312  0.4756
 8481SOL    HW237077   1.473   2.483   9.309  2.1217  0.6760 -0.1261
 8482SOL     OW37078   3.327   4.199  10.786 -0.8630 -0.1295  0.2643
 8482SOL    HW137079   3.420   4.180  10.772 -0.1624  2.9572  0.8014
 8482SOL    HW237080   3.310   4.246  10.704 -2.5983 -0.4779  0.4205
 8483SOL     OW37081   3.381   1.846   6.329  0.2663  0.0994 -0.3825
 8483SOL    HW137082   3.315   1.912   6.308  1.9476  1.9308  0.0151
 8483SOL    HW237083   3.404   1.817   6.241  2.2889 -0.3758  0.3018
 8484SOL     OW37084   1.560   0.949   1.020 -0.0688  0.0850 -0.0687
 8484SOL    HW137085   1.648   0.967   0.989 -0.2373  0.4747 -0.3201
 8484SOL    HW237086   1.553   0.854   1.018 -0.0514  0.1202 -2.0472
 8485SOL     OW37087   1.475   4.446   4.836 -0.2654 -0.0170  0.5031
 8485SOL    HW137088   1.543   4.444   4.768  0.0854  1.5673  0.8088
 8485SOL    HW237089   1.401   4.466   4.779  0.0965  2.6306  0.9758
 8486SOL     OW37090   1.910   0.052   3.414 -0.2829  0.1805 -0.8711
 8486SOL    HW137091   1.849   0.100   3.358  1.6890  1.9586 -1.4763
 8486SOL    HW237092   1.985   0.111   3.414  0.7830 -1.1713  0.9720
 8487SOL     OW37093   2.232   3.762  12.614  0.2412  0.5424  0.0023
 8487SOL    HW137094   2.275   3.722  12.538  0.1184 -3.1157  1.8230
 8487SOL    HW237095   2.144   3.726  12.610  0.8783 -1.0482 -0.0110
 8488SOL     OW37096   2.770   2.360   2.685  0.3110 -0.5374  0.4426
 8488SOL    HW137097   2.681   2.370   2.719  0.4542  1.6953  0.1479
 8488SOL    HW237098   2.747   2.301   2.613 -2.3902 -2.6772  3.0668
 8489SOL     OW37099   4.505   3.098   1.956  0.7070  0.3601 -0.0969
 8489SOL    HW137100   4.521   3.152   2.034 -0.6692 -0.3935  0.7012
 8489SOL    HW237101   4.502   3.158   1.881  2.4966 -0.3730 -0.7666
 8490SOL     OW37102   4.107   2.542   4.207 -0.5407  1.0649 -0.1042
 8490SOL    HW137103   4.096   2.535   4.302 -1.8936  2.5151 -0.1527
 8490SOL    HW237104   4.084   2.635   4.199  0.9092  1.1270 -3.3591
 8491SOL     OW37105   2.990   4.216   1.082  0.4384  0.0386  0.0458
 8491SOL    HW137106   2.946   4.176   1.157  2.7236 -2.6592 -0.0480
 8491SOL    HW237107   2.930   4.218   1.007  1.2638  0.7927 -0.6044
 8492SOL     OW37108   1.657   1.119  15.535  0.1404 -0.5039  0.4081
 8492SOL    HW137109   1.580   1.156  15.493 -0.5844 -2.8344 -0.3583
 8492SOL    HW237110   1.698   1.194  15.577 -0.2836 -0.4281  0.6883
 8493SOL     OW37111   0.226   3.448   1.178 -1.0449 -0.2921 -0.0002
 8493SOL    HW137112   0.233   3.532   1.132  0.2136 -0.1800  0.3901
 8493SOL    HW237113   0.295   3.462   1.243 -1.0877  1.2029 -0.2818
 8494SOL     OW37114   1.050   3.765   4.013  0.0565 -0.1860 -0.2083
 8494SOL    HW137115   1.096   3.722   3.941 -2.4074 -3.7008  0.2923
 8494SOL    HW237116   0.972   3.807   3.976  1.3516  1.3603 -1.1683
 8495SOL     OW37117   0.513   0.672   8.105  0.3625  0.1742 -0.0314
 8495SOL    HW137118   0.485   0.752   8.150  1.1006  1.0035 -1.0345
 8495SOL    HW237119   0.493   0.600   8.165 -2.7177  1.5400  0.5278
 8496SOL     OW37120   4.089   3.522   8.492 -0.2169 -0.6877 -0.0476
 8496SOL    HW137121   4.024   3.469   8.538 -1.5801  0.1534 -0.9964
 8496SOL    HW237122   4.156   3.460   8.465  1.2638  0.9416 -0.1219
 8497SOL     OW37123   1.142   4.214  14.847  0.4534 -0.5036  0.3420
 8497SOL    HW137124   1.054   4.193  14.877  1.0815 -1.3358  1.6201
 8497SOL    HW237125   1.160   4.148  14.779  0.5536  0.9465 -1.0247
 8498SOL     OW37126   4.412   2.171   6.116  0.6086  0.0663 -0.2957
 8498SOL    HW137127   4.374   2.225   6.046 -1.0559  1.0753  1.3883
 8498SOL    HW237128   4.505   2.191   6.117  0.7859 -0.7932  0.3327
 8499SOL     OW37129   1.982   2.194  13.828 -0.3770 -0.2664 -0.1061
 8499SOL    HW137130   2.046   2.127  13.805 -0.5749  0.2529 -2.1257
 8499SOL    HW237131   1.910   2.150  13.872 -0.9260  1.3960  0.6502
 8500SOL     OW37132   0.472   1.188  13.416 -0.6715  0.2480 -0.0082
 8500SOL    HW137133   0.404   1.174  13.350  0.2503  0.9676 -1.1071
 8500SOL    HW237134   0.432   1.147  13.493 -0.5544 -0.3019 -0.2350
 8501SOL     OW37135   0.487   0.892   2.905  0.1480 -0.2766 -0.0586
 8501SOL    HW137136   0.414   0.858   2.854 -0.8060 -1.2946  1.9461
 8501SOL    HW237137   0.443   0.896   2.991  1.0361  0.5303  0.3524
 8502SOL     OW37138   3.498   1.888   5.894 -0.1432 -0.6204  0.2654
 8502SOL    HW137139   3.577   1.897   5.840 -0.8936  1.0771 -0.5536
 8502SOL    HW237140   3.427   1.900   5.831 -0.5001  0.7319  0.9254
 8503SOL     OW37141   2.509   0.369   6.636  0.5701 -0.2147  0.1595
 8503SOL    HW137142   2.584   0.402   6.685  0.0532 -2.5359  2.4577
 8503SOL    HW237143   2.555   0.367   6.552 -0.3398 -0.0608 -0.3487
 8504SOL     OW37144   0.404   2.096  11.034 -0.0583 -0.1849 -0.0518
 8504SOL    HW137145   0.372   2.055  11.115  0.4187  3.1720  1.8020
 8504SOL    HW237146   0.498   2.081  11.049 -0.1569  0.2022  0.9637
 8505SOL     OW37147   3.158   4.482   9.191 -0.0288 -0.0447  0.1720
 8505SOL    HW137148   3.092   4.467   9.124  0.9712 -1.3315 -0.5115
 8505SOL    HW237149   3.151   4.396   9.231  1.1701 -1.0158 -1.7468
 8506SOL     OW37150   4.512   4.257   2.931 -0.1518 -0.0040  1.1354
 8506SOL    HW137151   4.543   4.195   2.998  0.0853  0.1873  1.2011
 8506SOL    HW237152   4.546   4.213   2.854 -2.1029 -0.8538  0.7454
 8507SOL     OW37153   0.649   0.952   1.783  0.0975  0.0837 -0.3847
 8507SOL    HW137154   0.719   0.944   1.847 -1.0649 -3.2800  0.4684
 8507SOL    HW237155   0.690   0.976   1.700 -0.9309  0.8589 -0.6781
 8508SOL     OW37156   0.661   1.300  14.559 -0.5442  0.2857  0.0921
 8508SOL    HW137157   0.627   1.308  14.648  0.6913 -0.7150  0.6433
 8508SOL    HW237158   0.698   1.212  14.564 -2.4183 -0.3371  3.0084
 8509SOL     OW37159   4.121   2.915   8.550 -0.2529  0.2822 -0.3449
 8509SOL    HW137160   4.058   2.844   8.537 -0.8191  0.6574  0.4126
 8509SOL    HW237161   4.082   2.979   8.610  0.0015 -0.8088  0.9819
 8510SOL     OW37162   3.938   2.102   4.520  0.9196  0.1460  0.5907
 8510SOL    HW137163   3.929   2.009   4.539 -2.9753  0.1430 -1.2701
 8510SOL    HW237164   3.995   2.097   4.443 -0.1639  1.1803 -0.2851
 8511SOL     OW37165   0.475   0.703   2.314  0.0698 -0.5149  1.0218
 8511SOL    HW137166   0.482   0.609   2.295  1.8147 -0.4484  1.3878
 8511SOL    HW237167   0.459   0.736   2.226 -2.4396 -0.0300  1.6475
 8512SOL     OW37168   3.052   2.734   3.034 -0.3378 -0.1524 -0.1664
 8512SOL    HW137169   3.142   2.701   3.025 -0.2055 -0.0193  0.6723
 8512SOL    HW237170   3.012   2.652   3.063 -0.8641 -0.0175 -0.5172
 8513SOL     OW37171   2.735   2.959  11.446  0.5143 -0.3399 -0.0463
 8513SOL    HW137172   2.753   2.935  11.537 -0.1194 -0.2755  0.0912
 8513SOL    HW237173   2.641   2.973  11.446  0.3548 -1.3674 -1.3554
 8514SOL     OW37174   0.830   3.317   7.273  0.5149 -0.2361 -0.0625
 8514SOL    HW137175   0.781   3.291   7.194  0.0021  0.1420  0.1361
 8514SOL    HW237176   0.921   3.300   7.247  0.2851 -1.0519 -0.3431
 8515SOL     OW37177   1.156   1.805  15.993 -0.1764  0.6068 -0.6016
 8515SOL    HW137178   1.190   1.857  16.066 -1.0918 -0.5266  0.6218
 8515SOL    HW237179   1.226   1.825  15.930  1.2125 -0.8296  0.5108
 8516SOL     OW37180   0.474   3.160  15.964 -0.3107 -0.0494 -0.0624
 8516SOL    HW137181   0.384   3.169  15.995 -0.8499 -2.1427 -0.9807
 8516SOL    HW237182   0.473   3.218  15.888  2.5256 -1.0834 -0.8855
 8517SOL     OW37183   3.539   3.403   2.260 -0.1255  0.2999  0.0718
 8517SOL    HW137184   3.559   3.436   2.173  1.3864 -1.4997 -0.2524
 8517SOL    HW237185   3.596   3.328   2.276 -2.6634 -1.8509 -0.9080
 8518SOL     OW37186   1.242   3.844   1.801  0.0485 -0.0844 -0.2028
 8518SOL    HW137187   1.246   3.753   1.832  1.7996 -0.4200 -1.4033
 8518SOL    HW237188   1.224   3.827   1.709  1.7269  2.0932 -0.9206
 8519SOL     OW37189   0.170   0.605  10.966 -0.2665 -0.1153  0.4205
 8519SOL    HW137190   0.218   0.523  10.975 -0.5601 -0.2680  0.5839
 8519SOL    HW237191   0.239   0.671  10.965 -0.0999 -0.2906  0.2697
 8520SOL     OW37192   0.330   1.393   0.910  0.3617  0.0491  0.2043
 8520SOL    HW137193   0.396   1.463   0.905 -0.2107  0.6419  1.1039
 8520SOL    HW237194   0.266   1.422   0.846 -0.3583  0.3101  1.0410
 8521SOL     OW37195   3.934   2.960  11.684  0.0066  0.0450  0.1114
 8521SOL    HW137196   3.994   2.898  11.726  1.4950  0.9981 -0.6049
 8521SOL    HW237197   3.874   2.896  11.646  1.7703 -1.7803  0.4092
 8522SOL     OW37198   3.077   2.027   9.784  0.5167  0.3192 -0.0925
 8522SOL    HW137199   3.005   2.090   9.783 -0.3331 -0.6575 -0.0345
 8522SOL    HW237200   3.141   2.083   9.740  1.1351  0.9034  1.5578
 8523SOL     OW37201   2.654   4.407   6.515  0.2848 -0.2538 -0.5613
 8523SOL    HW137202   2.668   4.334   6.575 -0.5702  0.7271  0.8495
 8523SOL    HW237203   2.601   4.468   6.566  0.2791 -0.8992  0.1955
 8524SOL     OW37204   0.860   0.164   7.141  0.0916 -0.5557 -0.3394
 8524SOL    HW137205   0.802   0.124   7.077  0.6520 -0.6792 -0.7624
 8524SOL    HW237206   0.933   0.191   7.086  1.0504  0.7200  1.5400
 8525SOL     OW37207   4.400   4.233  13.998 -0.1060 -0.1501  0.2436
 8525SOL    HW137208   4.495   4.239  14.007 -0.1280 -0.0110  0.3775
 8525SOL    HW237209   4.372   4.324  14.006  0.7198  0.1490 -0.2084
 8526SOL     OW37210   4.672   0.810   0.998 -0.1673 -0.2786 -0.9919
 8526SOL    HW137211   4.712   0.861   0.928  2.2307  0.4443  0.8922
 8526SOL    HW237212   4.704   0.856   1.076  1.7854 -0.5428 -1.6271
 8527SOL     OW37213   1.406   0.315   3.125  0.3405  0.0943  0.4703
 8527SOL    HW137214   1.421   0.373   3.199  1.4890  2.6467 -1.7749
 8527SOL    HW237215   1.331   0.360   3.085 -0.7176 -2.7158 -0.7164
 8528SOL     OW37216   4.440   3.577   8.266 -0.4189  0.0110  0.4231
 8528SOL    HW137217   4.504   3.574   8.337  0.5826  0.0449 -0.4792
 8528SOL    HW237218   4.493   3.625   8.203 -0.3411  1.1247  1.3314
 8529SOL     OW37219   0.335   0.785   9.612  0.2356 -0.3037  0.0107
 8529SOL    HW137220   0.268   0.803   9.547  0.2229 -1.2285 -0.2315
 8529SOL    HW237221   0.394   0.726   9.565  0.3432  1.0830 -1.5962
 8530SOL     OW37222   2.680   0.075  17.352 -0.8132  0.2006  0.0023
 8530SOL    HW137223   2.616   0.107  17.415 -0.7259 -1.5681  1.0045
 8530SOL    HW237224   2.702   0.163  17.322 -0.2786  0.0423 -0.0803
 8531SOL     OW37225   1.925   2.072   7.155 -0.6816  0.5831 -0.2976
 8531SOL    HW137226   1.958   1.983   7.142 -0.7111  0.2318  2.1704
 8531SOL    HW237227   1.997   2.100   7.211  0.4715 -0.2239 -1.3686
 8532SOL     OW37228   0.638   3.794  15.507 -0.1372  0.1265 -0.1960
 8532SOL    HW137229   0.688   3.772  15.428 -1.9280  1.3237 -1.6828
 8532SOL    HW237230   0.706   3.844  15.552 -1.9146 -0.1308  2.7435
 8533SOL     OW37231   1.907   4.076  11.199 -0.2666  0.4238  1.0103
 8533SOL    HW137232   1.933   3.997  11.151 -0.2924 -0.3494  2.2553
 8533SOL    HW237233   1.822   4.098  11.161  0.5789 -0.9300 -1.6110
 8534SOL     OW37234   3.043   0.504  17.498  0.8123 -0.5664 -0.2253
 8534SOL    HW137235   3.024   0.421  17.542  3.0089 -2.0484 -2.0503
 8534SOL    HW237236   2.968   0.512  17.440  1.2893  1.0226 -0.6292
 8535SOL     OW37237   2.552   3.533  10.260  0.1886  0.4308 -0.0854
 8535SOL    HW137238   2.457   3.522  10.267  0.4585 -2.6827 -1.0005
 8535SOL    HW237239   2.578   3.589  10.332 -0.6686  2.8139 -1.6103
 8536SOL     OW37240   0.943   3.749  14.890 -0.1038 -0.4713  0.4221
 8536SOL    HW137241   0.937   3.802  14.810 -0.3903  0.8924  1.3582
 8536SOL    HW237242   1.033   3.756  14.921 -0.6785  1.1219  1.6779
 8537SOL     OW37243   0.962   4.671   2.250  0.1326  0.3286  0.1050
 8537SOL    HW137244   0.995   4.664   2.161  2.5382 -2.1272  1.1921
 8537SOL    HW237245   1.014   4.615   2.308 -4.1870 -1.5398  2.2269
 8538SOL     OW37246   0.143   1.226  10.487 -0.0500 -0.4169 -0.5543
 8538SOL    HW137247   0.069   1.165  10.488 -0.8778  0.5735 -1.3706
 8538SOL    HW237248   0.100   1.311  10.483  0.9598  0.1557  0.7159
 8539SOL     OW37249   4.242   1.519  13.037 -0.0304 -0.7294  0.9421
 8539SOL    HW137250   4.152   1.531  13.068 -0.0091 -1.2360  1.2017
 8539SOL    HW237251   4.284   1.506  13.122  2.1499  0.1254 -0.0039
 8540SOL     OW37252   3.833   3.819   8.032  0.4258 -0.3849 -0.1685
 8540SOL    HW137253   3.775   3.857   7.965  1.0332  0.2677 -0.3263
 8540SOL    HW237254   3.850   3.900   8.080  1.9905 -1.1128  0.5066
 8541SOL     OW37255   3.032   2.957   6.361  0.3928  0.1426 -0.1508
 8541SOL    HW137256   3.058   3.041   6.322 -0.6488  0.7044  0.3682
 8541SOL    HW237257   2.953   2.982   6.408  0.6434 -0.5080  0.6038
 8542SOL     OW37258   2.561   1.759   5.017 -0.1117  0.3745  0.3590
 8542SOL    HW137259   2.618   1.701   5.068  0.1145  0.0301 -0.2794
 8542SOL    HW237260   2.598   1.729   4.934 -1.8462 -3.8911  1.1347
 8543SOL     OW37261   1.427   0.936   8.054  0.0698  0.0042  0.5662
 8543SOL    HW137262   1.367   0.917   7.982 -1.0480 -1.6395  1.9400
 8543SOL    HW237263   1.394   0.865   8.108  0.6599 -0.5898  0.1430
 8544SOL     OW37264   1.753   4.585   3.517  0.5628 -0.5836  0.1940
 8544SOL    HW137265   1.816   4.652   3.487 -1.2036  1.1878  0.4584
 8544SOL    HW237266   1.815   4.534   3.569  2.2361  1.7879  0.5679
 8545SOL     OW37267   3.570   0.602  11.941 -0.2319  0.0012 -1.0223
 8545SOL    HW137268   3.546   0.543  11.869 -0.6476  1.3223 -1.9766
 8545SOL    HW237269   3.653   0.568  11.972 -0.0295  1.6428  0.2373
 8546SOL     OW37270   1.794   3.106  11.923  0.3582 -0.0204 -0.2603
 8546SOL    HW137271   1.866   3.168  11.911  1.2765 -1.1046 -0.3309
 8546SOL    HW237272   1.814   3.047  11.851 -1.2948 -1.7022  0.6534
 8547SOL     OW37273   1.262   0.494   1.737  0.0117  0.3291  0.0506
 8547SOL    HW137274   1.273   0.400   1.729 -2.3628  0.0786 -0.1072
 8547SOL    HW237275   1.281   0.496   1.831 -2.3746  2.2111  0.4937
 8548SOL     OW37276   3.222   0.902   5.190 -0.0020  0.3009 -0.0789
 8548SOL    HW137277   3.273   0.852   5.253 -0.5283 -0.8699 -0.5894
 8548SOL    HW237278   3.142   0.899   5.242 -0.3478 -3.3845 -0.8822
 8549SOL     OW37279   1.551   1.775  17.568  0.3211 -0.1874 -0.4862
 8549SOL    HW137280   1.480   1.714  17.591  0.2800 -0.2836 -0.8633
 8549SOL    HW237281   1.502   1.844  17.522 -2.1347 -0.6706  1.3858
 8550SOL     OW37282   1.217   4.139   7.769 -0.1773  0.2880 -0.5328
 8550SOL    HW137283   1.125   4.125   7.794  0.6406 -0.3519  2.0603
 8550SOL    HW237284   1.259   4.147   7.855 -0.1822  2.4910 -0.7238
 8551SOL     OW37285   1.141   0.332   9.585  0.1089 -0.0928  0.3562
 8551SOL    HW137286   1.053   0.355   9.554  0.8304  0.6325 -1.1623
 8551SOL    HW237287   1.136   0.376   9.669 -1.8417  0.9442 -0.3014
 8552SOL     OW37288   1.286   0.971  16.653  0.1653  0.7819 -0.3435
 8552SOL    HW137289   1.233   1.023  16.714 -0.9049 -0.4151 -0.2704
 8552SOL    HW237290   1.326   0.903  16.708  0.1145  1.5280  0.6161
 8553SOL     OW37291   1.319   2.942   3.752  0.3310  0.2154  0.1570
 8553SOL    HW137292   1.301   3.033   3.778 -2.1491  0.0899 -1.1210
 8553SOL    HW237293   1.338   2.957   3.659  0.1996 -1.5606 -0.1574
 8554SOL     OW37294   0.905   2.197   6.809 -0.2120 -0.3201  0.4048
 8554SOL    HW137295   0.923   2.111   6.770 -0.1329  1.2005 -2.9032
 8554SOL    HW237296   0.811   2.200   6.825 -0.0341 -0.6164  1.5283
 8555SOL     OW37297   0.187   1.906  11.625  0.0870  0.1734  0.5916
 8555SOL    HW137298   0.106   1.905  11.675 -0.2011 -0.8485  0.1077
 8555SOL    HW237299   0.177   1.815  11.596  0.3569  0.5515 -0.6862
 8556SOL     OW37300   3.567   0.761   9.620 -0.4268  0.2364  0.2773
 8556SOL    HW137301   3.659   0.734   9.618 -1.8101 -4.2635 -2.2736
 8556SOL    HW237302   3.580   0.845   9.664 -0.2001  0.2822  0.1269
 8557SOL     OW37303   3.458   2.321   5.722  0.1036 -0.2899 -0.7278
 8557SOL    HW137304   3.434   2.409   5.695 -0.0159 -0.1580 -0.1940
 8557SOL    HW237305   3.536   2.290   5.676 -0.5726 -1.3237 -1.1826
 8558SOL     OW37306   4.256   4.662  16.025  0.2021  0.3439 -0.1458
 8558SOL    HW137307   4.223   4.735  16.077 -0.5692 -1.0259  1.2757
 8558SOL    HW237308   4.225   4.679  15.936  0.1175 -0.5130 -0.2850
 8559SOL     OW37309   0.133   2.966  16.095 -0.0387 -0.2339  0.7225
 8559SOL    HW137310   0.055   2.935  16.049  0.3337  1.8698 -1.3277
 8559SOL    HW237311   0.088   2.956  16.179 -1.0756  0.0696  0.2031
 8560SOL     OW37312   0.968   4.422  16.137  0.0337 -0.0448  0.1807
 8560SOL    HW137313   0.946   4.356  16.072  1.6683 -0.2263 -0.1817
 8560SOL    HW237314   0.899   4.487  16.122  0.9704  1.4301  2.2902
 8561SOL     OW37315   2.377   1.351   6.853 -0.2617 -0.7023 -0.5508
 8561SOL    HW137316   2.351   1.434   6.894  0.1069 -1.5292  1.3479
 8561SOL    HW237317   2.419   1.399   6.782 -0.7997 -1.3614 -1.3185
 8562SOL     OW37318   0.145   4.736   3.499 -0.2436 -0.0728 -0.2076
 8562SOL    HW137319   0.177   4.668   3.440  2.6214 -0.7717  2.1962
 8562SOL    HW237320   0.217   0.003   3.561  0.4891  2.9866 -1.2609
 8563SOL     OW37321   2.876   1.396   5.449  0.2236  0.2080  0.4035
 8563SOL    HW137322   2.885   1.490   5.466  0.8014 -0.1325  2.0279
 8563SOL    HW237323   2.799   1.373   5.501 -0.6855 -0.5460 -1.2671
 8564SOL     OW37324   2.438   3.796   3.623  0.2346  0.0704 -0.0312
 8564SOL    HW137325   2.483   3.736   3.564  1.4107  0.8809  0.0406
 8564SOL    HW237326   2.485   3.874   3.594  0.5441 -0.7036 -1.5637
 8565SOL     OW37327   2.210   3.057   7.145  0.4415 -0.1001 -0.7824
 8565SOL    HW137328   2.274   3.071   7.215  0.4074 -0.2574 -0.7185
 8565SOL    HW237329   2.211   2.962   7.132 -0.4197 -0.3010  0.6056
 8566SOL     OW37330   0.979   2.006   0.077 -0.2327  0.0374 -0.1226
 8566SOL    HW137331   1.001   1.967   0.161  0.7978 -0.2227 -0.5139
 8566SOL    HW237332   1.046   1.972   0.017  1.0396  2.3867 -0.0335
 8567SOL     OW37333   4.552   4.524   1.987 -0.5057 -0.2776  0.1456
 8567SOL    HW137334   4.479   4.570   1.944 -1.1411 -0.6327  0.8331
 8567SOL    HW237335   4.533   4.434   1.961  1.2038 -0.4483 -0.4528
 8568SOL     OW37336   2.671   2.744   2.733  0.3841 -0.1008 -0.2765
 8568SOL    HW137337   2.704   2.833   2.747 -0.9224  0.4714 -0.8342
 8568SOL    HW237338   2.600   2.728   2.795  0.9780  1.9252  0.9335
 8569SOL     OW37339   4.694   3.453   7.905 -0.4663 -0.0488 -0.0300
 8569SOL    HW137340   0.050   3.470   7.890 -0.4034 -1.3218 -1.1251
 8569SOL    HW237341   4.699   3.370   7.952  0.7008 -0.7114 -1.3272
 8570SOL     OW37342   3.240   2.593   2.108  0.1383  0.4726  0.3867
 8570SOL    HW137343   3.300   2.564   2.177  0.1778 -1.1243 -0.3117
 8570SOL    HW237344   3.154   2.575   2.147 -0.4658 -0.7502 -1.5221
 8571SOL     OW37345   4.444   4.008   2.038 -0.1257 -0.1325 -0.0814
 8571SOL    HW137346   4.351   3.997   2.021 -0.2132  0.9669 -0.3199
 8571SOL    HW237347   4.467   3.923   2.076  1.6814  0.7234  0.7330
 8572SOL     OW37348   3.751   2.435   5.888 -0.0171  0.4999 -0.5789
 8572SOL    HW137349   3.705   2.478   5.816 -1.7534  1.1672  0.9254
 8572SOL    HW237350   3.670   2.396   5.921  0.9214 -0.3070  0.7594
 8573SOL     OW37351   2.542   3.747   5.404  0.8125 -0.0751  0.7890
 8573SOL    HW137352   2.495   3.707   5.478  0.4292 -1.2996 -0.1160
 8573SOL    HW237353   2.526   3.835   5.436 -1.3258  0.0203 -0.5455
 8574SOL     OW37354   1.564   0.863   4.502 -0.6553  0.4169  0.2314
 8574SOL    HW137355   1.547   0.769   4.491 -1.2105  0.5362  0.0423
 8574SOL    HW237356   1.658   0.863   4.519 -0.4818  0.0030 -0.7148
 8575SOL     OW37357   4.406   2.627   7.463 -0.0585  0.6753 -0.0812
 8575SOL    HW137358   4.478   2.594   7.516 -0.8603 -2.8294 -1.1635
 8575SOL    HW237359   4.431   2.719   7.465 -1.1184  0.9959 -1.3595
 8576SOL     OW37360   2.873   3.382  13.063 -0.3591  0.4046 -0.3882
 8576SOL    HW137361   2.869   3.467  13.107 -0.0087  2.3369 -4.0754
 8576SOL    HW237362   2.797   3.335  13.099 -0.4034 -0.3799 -1.4857
 8577SOL     OW37363   0.894   2.195   3.636 -0.3913 -0.3693 -0.2693
 8577SOL    HW137364   0.952   2.154   3.700 -0.8480 -2.5899 -1.2800
 8577SOL    HW237365   0.931   2.283   3.635 -2.3042  0.4464  0.1999
 8578SOL     OW37366   3.186   0.351   1.240 -0.4105  0.4914 -0.4091
 8578SOL    HW137367   3.125   0.397   1.182 -0.0791  2.9006  1.1556
 8578SOL    HW237368   3.127   0.289   1.281  0.8980 -0.6407 -0.2247
 8579SOL     OW37369   3.551   3.436  11.998 -0.4296 -0.1239 -0.5186
 8579SOL    HW137370   3.621   3.389  12.043 -0.0029  2.0517  1.1119
 8579SOL    HW237371   3.527   3.372  11.931 -0.9307  0.6407 -1.0731
 8580SOL     OW37372   4.172   3.221   1.751  0.4562  0.2029  0.1666
 8580SOL    HW137373   4.175   3.271   1.669  0.2238 -0.9646 -0.5559
 8580SOL    HW237374   4.233   3.153   1.723  1.8485  0.1868  3.2852
 8581SOL     OW37375   3.807   4.345  17.276  0.5489 -0.0362 -0.9624
 8581SOL    HW137376   3.722   4.329  17.317  2.5767 -0.9297  2.9626
 8581SOL    HW237377   3.833   4.426  17.320  0.5874  0.3512 -1.7068
 8582SOL     OW37378   4.191   1.991  16.968  0.1591 -0.3249 -0.1619
 8582SOL    HW137379   4.235   1.978  17.052 -0.0068 -2.4750 -0.4326
 8582SOL    HW237380   4.230   1.914  16.928  1.1747 -0.2339  0.6215
 8583SOL     OW37381   0.611   1.168   3.534  0.8817  0.4973  0.3808
 8583SOL    HW137382   0.569   1.247   3.569 -0.5942 -0.3722  0.5241
 8583SOL    HW237383   0.660   1.126   3.605 -1.8643 -0.2110  1.8330
 8584SOL     OW37384   1.545   4.091   6.168 -0.3658 -0.0671  0.4606
 8584SOL    HW137385   1.599   4.150   6.115 -0.2374 -0.9636 -0.4221
 8584SOL    HW237386   1.512   4.026   6.106  1.3934 -1.1211  0.6296
 8585SOL     OW37387   2.250   1.071  14.162  0.3665  0.5013  0.3367
 8585SOL    HW137388   2.263   0.976  14.164  1.7555  0.6571 -1.6624
 8585SOL    HW237389   2.293   1.092  14.080 -0.3465  0.3473 -0.0778
 8586SOL     OW37390   0.970   2.649   0.178 -0.3402  0.0934  0.4219
 8586SOL    HW137391   0.940   2.574   0.229  0.0942  0.3048  0.9796
 8586SOL    HW237392   1.032   2.614   0.114  0.5419  0.2985  1.1724
 8587SOL     OW37393   4.573   1.058   7.852  0.6337 -0.0048 -0.2274
 8587SOL    HW137394   4.613   1.026   7.933 -2.1639 -2.2447  0.2576
 8587SOL    HW237395   4.644   1.044   7.790  0.2098 -1.0794 -0.4738
 8588SOL     OW37396   2.464   2.117   1.656  0.0245 -0.1354  0.0908
 8588SOL    HW137397   2.449   2.065   1.736 -2.2188 -0.5828 -0.6095
 8588SOL    HW237398   2.418   2.053   1.602 -0.5404 -1.7157  2.3932
 8589SOL     OW37399   2.986   3.173  10.710  0.7473  0.0505 -0.9859
 8589SOL    HW137400   2.982   3.252  10.765 -1.0529 -1.7509  1.4520
 8589SOL    HW237401   2.963   3.211  10.625  2.4506  1.5353 -0.7990
 8590SOL     OW37402   2.418   3.913   8.584 -0.2605 -0.1503 -0.2870
 8590SOL    HW137403   2.443   3.833   8.629 -1.8936 -0.3675  0.2540
 8590SOL    HW237404   2.496   3.966   8.598 -0.3879 -0.3395  1.1561
 8591SOL     OW37405   1.171   4.473  14.981 -0.5877  0.0408  0.0238
 8591SOL    HW137406   1.152   4.529  14.906  0.6043  0.5206  0.0686
 8591SOL    HW237407   1.186   4.386  14.947 -2.1489 -0.2442  0.0723
 8592SOL     OW37408   2.701   0.775   9.120  0.0269 -0.0813  0.0359
 8592SOL    HW137409   2.771   0.799   9.060  1.4743 -2.2849  0.8199
 8592SOL    HW237410   2.676   0.861   9.154  1.0489 -0.1081  0.8477
 8593SOL     OW37411   2.035   0.606  17.044  0.2796  0.2815 -0.3292
 8593SOL    HW137412   1.998   0.558  17.118  1.2265  0.4910  0.2694
 8593SOL    HW237413   1.989   0.690  17.040  1.0441  0.7229  0.3528
 8594SOL     OW37414   2.632   4.630   7.137  0.1496  0.2910  0.0225
 8594SOL    HW137415   2.728   4.637   7.134 -0.0865  2.3875 -2.3907
 8594SOL    HW237416   2.597   4.593   7.056 -2.0968 -0.2875  1.2631
 8595SOL     OW37417   2.029   3.476   2.199 -0.4089  0.1886 -0.0886
 8595SOL    HW137418   1.986   3.393   2.180 -2.0760  1.6943 -2.8511
 8595SOL    HW237419   1.994   3.532   2.130 -2.0097 -0.5773  0.0999
 8596SOL     OW37420   2.049   1.348   5.215 -0.6589 -0.4561  0.5073
 8596SOL    HW137421   2.047   1.440   5.186 -0.4488 -0.2611  1.1062
 8596SOL    HW237422   1.965   1.337   5.261 -0.1168 -0.8340  1.3920
 8597SOL     OW37423   1.648   2.864  10.600  0.3898 -0.1700  0.3105
 8597SOL    HW137424   1.704   2.789  10.616 -0.4341 -0.3411  2.2890
 8597SOL    HW237425   1.562   2.836  10.631 -0.0718 -0.6169 -1.3358
 8598SOL     OW37426   3.737   0.598   5.946  0.2888 -0.1726 -0.0212
 8598SOL    HW137427   3.762   0.630   6.033 -3.1531 -0.5977  1.1601
 8598SOL    HW237428   3.724   0.506   5.971  1.2299 -0.4010 -0.3620
 8599SOL     OW37429   0.560   1.209   5.470  0.3457 -0.2749  0.0574
 8599SOL    HW137430   0.635   1.240   5.520  0.5614 -1.7274  0.6543
 8599SOL    HW237431   0.591   1.120   5.452 -2.1995 -0.9734 -0.9605
 8600SOL     OW37432   3.727   3.181   2.253  0.8365  0.3574 -0.0200
 8600SOL    HW137433   3.714   3.095   2.292  0.6529  0.1303 -0.5881
 8600SOL    HW237434   3.740   3.158   2.161 -0.2981  0.3897 -0.1911
 8601SOL     OW37435   3.659   2.984  14.051  0.4915  0.3771 -0.2124
 8601SOL    HW137436   3.620   2.985  14.139 -2.6516 -1.7571 -1.5462
 8601SOL    HW237437   3.749   2.958  14.068  0.5882  1.6159  1.1237
 8602SOL     OW37438   1.166   1.663  15.342  0.7784 -0.5152 -0.0407
 8602SOL    HW137439   1.124   1.688  15.260  0.9894 -0.7079 -0.2064
 8602SOL    HW237440   1.153   1.569  15.333  1.7048 -0.7450  0.9069
 8603SOL     OW37441   0.834   3.183   6.163 -0.2930 -0.4313  0.5631
 8603SOL    HW137442   0.748   3.179   6.122 -0.1546 -0.3143  0.2557
 8603SOL    HW237443   0.802   3.180   6.253  2.0260 -0.1415  1.3977
 8604SOL     OW37444   0.751   4.633  14.713 -0.0502 -0.5092 -0.9092
 8604SOL    HW137445   0.799   4.571  14.767 -3.0562 -2.2602 -0.2695
 8604SOL    HW237446   0.813   4.677  14.654 -0.8016  0.8523 -0.6856
 8605SOL     OW37447   4.542   2.089   3.242 -0.4080 -0.2150 -0.3756
 8605SOL    HW137448   4.625   2.083   3.194 -0.3919  1.6691 -0.5654
 8605SOL    HW237449   4.483   2.026   3.200 -1.9019 -0.3155  1.8576
 8606SOL     OW37450   2.226   1.255   1.958  0.0737  0.1484  0.2510
 8606SOL    HW137451   2.312   1.245   1.998 -1.0214 -0.9008  2.3353
 8606SOL    HW237452   2.233   1.175   1.904 -0.4930 -1.6401  2.8269
 8607SOL     OW37453   2.294   3.214   4.225 -0.0719  0.5159 -0.1582
 8607SOL    HW137454   2.307   3.284   4.289 -0.4091  0.5521 -0.1282
 8607SOL    HW237455   2.250   3.271   4.161  1.7175  1.2456 -0.7285
 8608SOL     OW37456   1.471   1.715  16.409 -0.3283  0.0857 -0.1963
 8608SOL    HW137457   1.459   1.805  16.439  1.5391  1.1816 -2.6326
 8608SOL    HW237458   1.509   1.734  16.323 -0.0805  3.3025  0.6163
 8609SOL     OW37459   4.704   4.704  14.188  0.2839 -0.2900  0.3262
 8609SOL    HW137460   4.675   4.631  14.132 -2.1400  1.0402 -0.1651
 8609SOL    HW237461   0.053   4.664  14.200  1.5313  1.9601 -1.1208
 8610SOL     OW37462   1.405   0.817  13.737  0.4224  0.3053 -0.2510
 8610SOL    HW137463   1.421   0.841  13.646  0.5834 -0.2586 -0.3651
 8610SOL    HW237464   1.405   0.906  13.773 -0.0705  0.2562 -0.1206
 8611SOL     OW37465   1.191   3.062   8.081  0.3107 -0.1519  0.4209
 8611SOL    HW137466   1.171   2.968   8.075  1.9899 -0.4587 -0.4684
 8611SOL    HW237467   1.275   3.065   8.128  0.9783  0.5614 -0.8239
 8612SOL     OW37468   1.832   2.224   6.527 -0.1016  0.6217 -0.5997
 8612SOL    HW137469   1.798   2.150   6.477 -1.7904  1.5185 -0.7643
 8612SOL    HW237470   1.927   2.218   6.514 -0.5617 -0.1119 -3.6705
 8613SOL     OW37471   2.652   2.667   6.799  1.0856 -0.0484  0.2404
 8613SOL    HW137472   2.734   2.713   6.783  0.5265  0.6389 -0.7482
 8613SOL    HW237473   2.607   2.733   6.852 -0.9840 -0.0837 -1.4730
 8614SOL     OW37474   2.538   4.357  11.852  0.2177 -0.4632 -0.2271
 8614SOL    HW137475   2.600   4.288  11.829 -0.3993 -1.2920  0.5810
 8614SOL    HW237476   2.503   4.317  11.932 -2.4504 -0.4875 -1.3864
 8615SOL     OW37477   4.212   1.622   4.211  0.0682 -0.5936 -0.2716
 8615SOL    HW137478   4.176   1.594   4.127 -0.5550 -2.6819  0.7118
 8615SOL    HW237479   4.266   1.547   4.234 -1.4688 -0.4485  3.8034
 8616SOL     OW37480   3.220   1.366  11.648  0.0842  0.2109 -0.0193
 8616SOL    HW137481   3.216   1.461  11.645 -0.0331  0.2534  1.9226
 8616SOL    HW237482   3.315   1.356  11.654 -0.3665 -3.6866  0.7253
 8617SOL     OW37483   3.035   3.103   4.206  0.9739  0.1061 -0.7777
 8617SOL    HW137484   3.090   3.028   4.182 -0.6096 -0.5599 -2.2386
 8617SOL    HW237485   2.986   3.127   4.128  0.2324  0.4487 -0.2049
 8618SOL     OW37486   2.769   3.662   3.180  0.4891  0.0751 -0.2310
 8618SOL    HW137487   2.685   3.616   3.170  1.2139 -1.5634  1.1004
 8618SOL    HW237488   2.732   3.749   3.191  1.0837  0.3525 -0.4400
 8619SOL     OW37489   1.731   1.343  15.108  0.2352  0.4749 -0.3050
 8619SOL    HW137490   1.672   1.268  15.104 -0.7181  1.2475 -0.6718
 8619SOL    HW237491   1.668   1.416  15.111 -1.6159 -1.1003 -1.0223
 8620SOL     OW37492   3.042   2.482   9.773 -0.0438  0.6796  0.0412
 8620SOL    HW137493   3.066   2.550   9.711 -1.6947  0.4492 -0.8428
 8620SOL    HW237494   3.054   2.523   9.859 -0.5261  0.4698  0.2093
 8621SOL     OW37495   0.298   0.767  12.461 -0.1321  0.1737 -0.1985
 8621SOL    HW137496   0.239   0.757  12.535  0.1799 -0.3577 -0.0217
 8621SOL    HW237497   0.309   0.675  12.438  1.0942  0.3178 -0.1761
 8622SOL     OW37498   4.631   3.033   5.251  0.2852 -0.1107 -0.3416
 8622SOL    HW137499   4.633   3.050   5.346 -0.0728 -0.5687 -0.2470
 8622SOL    HW237500   4.714   2.989   5.236  1.1077  1.2574  0.2571
 8623SOL     OW37501   3.429   3.134   5.701  0.5188 -0.4114  0.2316
 8623SOL    HW137502   3.476   3.153   5.782  0.4215 -1.8632  0.6310
 8623SOL    HW237503   3.460   3.196   5.634  1.4974  0.8322  1.8432
 8624SOL     OW37504   3.191   0.145   2.683  0.1040 -0.5114 -0.0210
 8624SOL    HW137505   3.133   0.095   2.626 -2.7046  2.0562  0.6096
 8624SOL    HW237506   3.227   0.213   2.627  1.8925 -1.1927  0.2919
 8625SOL     OW37507   2.240   3.031   8.145  0.2208  0.3621 -0.5711
 8625SOL    HW137508   2.157   2.990   8.170  1.4439 -0.6865  1.8314
 8625SOL    HW237509   2.262   3.102   8.206  0.1016 -0.4097  0.3697
 8626SOL     OW37510   1.714   1.697  15.862  0.1127  0.3990  0.4305
 8626SOL    HW137511   1.723   1.603  15.872  0.3114  0.3457 -0.2208
 8626SOL    HW237512   1.654   1.719  15.933 -0.5949  0.3601 -0.1516
 8627SOL     OW37513   3.706   3.870  17.257 -0.3230  0.2661  0.1098
 8627SOL    HW137514   3.692   3.947  17.312 -1.6714 -0.3932  0.6858
 8627SOL    HW237515   3.621   3.838  17.230 -1.0334  1.5116  0.8846
 8628SOL     OW37516   1.251   3.555   9.784  0.3704  0.0285  0.5512
 8628SOL    HW137517   1.187   3.484   9.793 -0.1564  0.3645 -0.5768
 8628SOL    HW237518   1.317   3.522   9.845  1.2914  1.5320  0.3610
 8629SOL     OW37519   1.187   0.414   3.702  0.0083 -0.0164  0.5179
 8629SOL    HW137520   1.194   0.484   3.767  1.9102 -1.1692  1.5309
 8629SOL    HW237521   1.225   0.340   3.749  0.1302 -0.4300 -0.2368
 8630SOL     OW37522   0.267   0.195   9.009  0.1517  0.2269 -0.0746
 8630SOL    HW137523   0.212   0.135   8.958 -1.1362  0.2038  1.3166
 8630SOL    HW237524   0.304   0.252   8.942 -1.6959 -0.4985 -1.7491
 8631SOL     OW37525   2.138   1.847   0.782  0.0850 -0.0913 -0.0305
 8631SOL    HW137526   2.099   1.873   0.866 -0.3299  0.3404 -0.3538
 8631SOL    HW237527   2.212   1.907   0.783  0.7815 -0.9619  0.3849
 8632SOL     OW37528   3.033   3.455   7.395 -0.1971  0.2289  0.1124
 8632SOL    HW137529   2.955   3.511   7.394  0.1680  0.6984 -0.9883
 8632SOL    HW237530   3.058   3.439   7.486  1.0396 -1.4406 -0.5132
 8633SOL     OW37531   0.094   2.162   7.964 -0.1983 -0.1428 -0.3273
 8633SOL    HW137532   0.027   2.183   7.899 -0.7883  1.0432  0.6871
 8633SOL    HW237533   0.037   2.155   8.040 -1.0522  0.0052 -0.9470
 8634SOL     OW37534   0.211   4.038   7.728  0.2915 -0.2705 -0.6237
 8634SOL    HW137535   0.159   4.079   7.797  1.4324  0.8905 -0.4539
 8634SOL    HW237536   0.178   4.083   7.651  0.1583  0.3757 -0.1875
 8635SOL     OW37537   0.205   4.413   6.475  0.2722  0.1992 -0.6322
 8635SOL    HW137538   0.286   4.440   6.433  0.5553 -1.6293 -1.2482
 8635SOL    HW237539   0.190   4.494   6.525 -1.5222 -1.3234  1.2978
 8636SOL     OW37540   4.672   0.328   0.791  0.2003 -0.0200 -0.2234
 8636SOL    HW137541   4.660   0.417   0.824  0.0321  0.3326 -1.2159
 8636SOL    HW237542   4.724   0.352   0.714  0.1891  0.8674  0.0459
 8637SOL     OW37543   4.236   3.435  16.031 -0.0420  0.2320  0.5272
 8637SOL    HW137544   4.174   3.362  16.026  0.6696 -0.4193  1.1694
 8637SOL    HW237545   4.251   3.453  15.938 -1.5657  2.7581  0.7887
 8638SOL     OW37546   0.335   0.655   6.583  0.2598  0.1307  0.2796
 8638SOL    HW137547   0.359   0.569   6.617  2.6704  0.0378 -1.6484
 8638SOL    HW237548   0.253   0.667   6.631 -0.3924 -2.3569 -0.2078
 8639SOL     OW37549   1.092   1.400  15.322 -0.3741  0.4753  0.0785
 8639SOL    HW137550   1.131   1.388  15.409  0.9647 -1.3559 -0.7889
 8639SOL    HW237551   1.170   1.396  15.267  0.0009  0.3338  0.6207
 8640SOL     OW37552   1.206   2.232   8.481  0.1923  0.0001  0.0278
 8640SOL    HW137553   1.276   2.195   8.535 -1.6691  0.6438  2.9119
 8640SOL    HW237554   1.209   2.325   8.502 -1.5352 -0.3272  1.7790
 8641SOL     OW37555   4.301   2.194   5.487  0.7214 -0.2015  0.5708
 8641SOL    HW137556   4.249   2.191   5.407 -1.0441  1.6665  1.6403
 8641SOL    HW237557   4.282   2.108   5.525 -0.0982 -0.7928 -1.1623
 8642SOL     OW37558   0.783   2.807   7.143  0.0151  0.0456 -0.1899
 8642SOL    HW137559   0.763   2.720   7.179  2.3075 -0.7716 -0.8624
 8642SOL    HW237560   0.818   2.862   7.213 -0.1243 -1.9327  1.4606
 8643SOL     OW37561   3.451   0.541   5.067  0.2285  0.7483 -0.2475
 8643SOL    HW137562   3.393   0.535   4.991  4.0560  0.1079 -3.0870
 8643SOL    HW237563   3.534   0.554   5.023  0.0924  0.9345 -0.4490
 8644SOL     OW37564   1.258   0.833   2.878 -0.0166  0.3135  0.4792
 8644SOL    HW137565   1.245   0.861   2.968 -2.3741  2.6447 -0.5761
 8644SOL    HW237566   1.306   0.752   2.895 -0.3002  0.1810  0.6426
 8645SOL     OW37567   1.164   1.031   8.364 -0.4919  0.7647  0.0367
 8645SOL    HW137568   1.136   0.980   8.441 -1.0919 -0.2016 -0.8207
 8645SOL    HW237569   1.255   1.060   8.372  0.3239 -1.4247 -1.2419
 8646SOL     OW37570   0.696   0.414   8.454 -0.1150  0.0680 -0.4631
 8646SOL    HW137571   0.752   0.359   8.509 -0.0603 -0.0095 -0.5962
 8646SOL    HW237572   0.749   0.493   8.450 -0.6486  0.4739  0.3788
 8647SOL     OW37573   2.398   1.434   2.971 -0.3520  0.1290 -0.2191
 8647SOL    HW137574   2.308   1.468   2.966 -1.2390 -1.9313  1.9409
 8647SOL    HW237575   2.443   1.508   3.011  1.4857 -1.7078  1.0939
 8648SOL     OW37576   3.586   0.091   1.798 -0.1205 -0.1351 -0.0648
 8648SOL    HW137577   3.506   0.048   1.767  0.6249 -0.7036 -1.1963
 8648SOL    HW237578   3.655   0.028   1.776  2.4442  2.7240 -0.2219
 8649SOL     OW37579   2.911   0.970   8.483 -0.3734  0.1067  0.3959
 8649SOL    HW137580   2.971   0.897   8.498 -1.8124 -0.6703  2.3666
 8649SOL    HW237581   2.844   0.951   8.550 -1.5519 -0.4724 -0.9491
 8650SOL     OW37582   3.823   3.047  12.544  0.2661  0.3612  0.4611
 8650SOL    HW137583   3.875   2.967  12.534 -0.5634 -0.0433 -0.6288
 8650SOL    HW237584   3.894   3.105  12.570 -0.0374  0.7006  0.5278
 8651SOL     OW37585   3.557   1.625   6.737  0.3333  0.3710  0.4468
 8651SOL    HW137586   3.500   1.555   6.769 -0.7802  1.4267  0.7853
 8651SOL    HW237587   3.626   1.579   6.690 -0.1031  0.7601 -0.5749
 8652SOL     OW37588   4.531   1.788   8.280 -0.2347  0.2696  0.3399
 8652SOL    HW137589   4.463   1.748   8.227  1.0069  0.3279 -1.3022
 8652SOL    HW237590   4.568   1.844   8.211 -0.4516 -0.2102 -0.1583
 8653SOL     OW37591   3.015   3.826  16.810  0.1823  0.4510 -0.1363
 8653SOL    HW137592   3.014   3.917  16.840 -1.5378 -0.5793  2.8688
 8653SOL    HW237593   3.046   3.840  16.720 -1.0471  3.2228 -0.1362
 8654SOL     OW37594   2.113   0.901   8.767 -0.6509  0.1390  0.1758
 8654SOL    HW137595   2.052   0.896   8.694 -0.7765 -2.1302  0.4406
 8654SOL    HW237596   2.069   0.857   8.840 -1.1866  2.1369  1.0647
 8655SOL     OW37597   3.914   2.432   3.316  0.1175  0.1295  0.2515
 8655SOL    HW137598   3.873   2.498   3.372 -1.0137 -0.7360  0.4476
 8655SOL    HW237599   3.876   2.355   3.358 -2.2617 -0.2950 -2.6894
 8656SOL     OW37600   0.349   0.692   8.449 -0.9048  0.4810  0.0090
 8656SOL    HW137601   0.362   0.719   8.540 -0.8703 -2.3128  0.8361
 8656SOL    HW237602   0.278   0.630   8.463  0.2790 -1.3402 -2.1494
 8657SOL     OW37603   1.254   4.015  10.076 -0.2124 -0.9059  0.0214
 8657SOL    HW137604   1.175   4.051  10.117  1.0426  2.5832 -0.6356
 8657SOL    HW237605   1.306   4.000  10.154 -2.0929  0.4726  1.5312
 8658SOL     OW37606   0.969   2.275   0.638  0.1597  0.5157  0.2271
 8658SOL    HW137607   0.912   2.255   0.712  0.4482  1.5972  0.7523
 8658SOL    HW237608   1.005   2.358   0.670 -2.2121  0.7600  2.2010
 8659SOL     OW37609   3.883   1.603   4.146 -0.0471 -0.1955 -0.3484
 8659SOL    HW137610   3.825   1.569   4.078 -0.4897  0.7240 -0.4254
 8659SOL    HW237611   3.887   1.521   4.196 -0.7079  0.4215  0.7174
 8660SOL     OW37612   4.552   2.053   4.458  0.1505 -0.1318  0.5830
 8660SOL    HW137613   4.475   1.998   4.446 -0.2182  0.7631 -1.1502
 8660SOL    HW237614   4.594   2.002   4.527 -0.6388 -0.0436  1.1262
 8661SOL     OW37615   0.637   2.107   4.484 -0.0353 -0.3740  0.9566
 8661SOL    HW137616   0.586   2.178   4.445  0.6957 -1.1826 -1.4948
 8661SOL    HW237617   0.711   2.150   4.526 -0.1780 -0.2439  1.0754
 8662SOL     OW37618   2.025   1.519   8.098  0.0234  0.1100  0.6909
 8662SOL    HW137619   1.972   1.461   8.153 -0.9474  1.0454  0.7403
 8662SOL    HW237620   2.100   1.463   8.080 -0.4780 -0.0518 -0.9202
 8663SOL     OW37621   0.107   2.108  16.648 -0.4804  0.3000  0.2840
 8663SOL    HW137622   0.192   2.127  16.608 -0.3867  2.2340  1.4217
 8663SOL    HW237623   0.063   2.087  16.565  0.9397 -0.1975 -0.3450
 8664SOL     OW37624   1.930   1.439   5.611  0.2757  0.0168 -0.5813
 8664SOL    HW137625   1.849   1.458   5.659  0.6336 -0.4385  0.2056
 8664SOL    HW237626   1.888   1.408   5.531 -2.6550 -0.0705  0.9624
 8665SOL     OW37627   1.957   1.955   9.413 -0.3186 -0.0212  0.6209
 8665SOL    HW137628   1.862   1.947   9.404 -0.4377 -0.5047  2.3217
 8665SOL    HW237629   1.950   2.050   9.418 -0.3497  0.1723 -3.0169
 8666SOL     OW37630   1.566   1.032   5.346 -0.3984 -0.4599  0.1115
 8666SOL    HW137631   1.543   1.124   5.330 -0.4287 -0.0367  2.5895
 8666SOL    HW237632   1.651   1.047   5.388 -1.3080  0.6321  1.5636
 8667SOL     OW37633   1.955   4.651   4.917 -0.1264  0.5399 -0.1484
 8667SOL    HW137634   2.017   4.612   4.855 -1.3221  1.6619 -2.0220
 8667SOL    HW237635   1.890   4.677   4.853 -0.9117 -0.2254  0.3360
 8668SOL     OW37636   2.091   3.948   1.477  0.2880 -0.0253 -0.6017
 8668SOL    HW137637   2.018   4.006   1.495  0.6448  0.3705 -0.4380
 8668SOL    HW237638   2.159   3.966   1.541 -0.2954 -2.2091  0.6385
 8669SOL     OW37639   3.464   1.885   7.281  0.2464  0.2172  0.2039
 8669SOL    HW137640   3.541   1.879   7.225 -0.7437  3.4726 -1.5501
 8669SOL    HW237641   3.481   1.977   7.304 -1.2588 -0.6265  4.6940
 8670SOL     OW37642   1.428   0.867   0.656  0.0646  0.1151  0.2349
 8670SOL    HW137643   1.421   0.958   0.685  0.6293 -0.1371  1.1656
 8670SOL    HW237644   1.345   0.844   0.615  0.5568  0.7542 -1.1253
 8671SOL     OW37645   2.748   2.064   9.473 -0.3037  0.1009 -1.3455
 8671SOL    HW137646   2.840   2.055   9.450 -0.5045  2.1228 -2.9342
 8671SOL    HW237647   2.744   2.160   9.482  1.8314  0.0044  0.6962
 8672SOL     OW37648   1.363   3.471  16.627 -0.2828 -0.3620  0.0258
 8672SOL    HW137649   1.423   3.457  16.700  1.6494 -1.4798 -1.8157
 8672SOL    HW237650   1.304   3.541  16.657 -0.5585 -0.0042 -1.3610
 8673SOL     OW37651   3.344   4.259   1.708 -0.1738 -0.0642 -0.3333
 8673SOL    HW137652   3.433   4.289   1.729  0.1173 -1.4792  0.4830
 8673SOL    HW237653   3.366   4.172   1.675  0.7079  1.0495 -2.6525
 8674SOL     OW37654   4.672   1.226   9.211 -0.3677 -0.1523  0.3212
 8674SOL    HW137655   4.688   1.157   9.276  1.2781 -2.3611 -2.3967
 8674SOL    HW237656   4.604   1.267   9.265 -0.0101  0.8357  0.0158
 8675SOL     OW37657   4.623   0.057   2.117  0.0414  0.2878 -0.8224
 8675SOL    HW137658   4.604   4.706   2.085 -0.4765 -0.5431  1.7526
 8675SOL    HW237659   4.546   0.078   2.170 -0.0032 -2.4129  0.2009
 8676SOL     OW37660   4.613   2.260   5.538  0.0209 -0.3530 -0.3782
 8676SOL    HW137661   4.548   2.202   5.500 -0.4070 -1.0275  1.3984
 8676SOL    HW237662   4.681   2.263   5.471  1.0519  0.7625  0.7141
 8677SOL     OW37663   4.709   2.521   3.783 -0.0312 -0.1335  0.0342
 8677SOL    HW137664   4.628   2.475   3.802 -0.5990  0.0184 -2.0043
 8677SOL    HW237665   0.034   2.458   3.820 -0.0569 -0.5010 -0.5524
 8678SOL     OW37666   2.582   2.703   4.564 -0.5757  0.0697  0.1486
 8678SOL    HW137667   2.574   2.744   4.478 -0.6531 -0.0137  0.1156
 8678SOL    HW237668   2.584   2.782   4.617 -0.8711  0.3000 -0.1819
 8679SOL     OW37669   4.719   0.332  14.976  0.1739 -0.4496  0.2058
 8679SOL    HW137670   0.059   0.286  14.942  0.9502  0.2240  1.0718
 8679SOL    HW237671   4.712   0.289  15.062  0.6774  0.5145  0.7261
 8680SOL     OW37672   3.516   3.602   9.675 -0.7842  0.2443  0.0144
 8680SOL    HW137673   3.468   3.669   9.626  0.9258  1.6266  0.2337
 8680SOL    HW237674   3.608   3.624   9.658 -0.5759  1.2852  2.5261
 8681SOL     OW37675   2.069   2.723   4.409  0.2289  0.4186 -0.2506
 8681SOL    HW137676   2.154   2.763   4.427 -0.4610  0.9720  1.7832
 8681SOL    HW237677   2.011   2.787   4.451 -0.5833 -0.1105 -0.5598
 8682SOL     OW37678   3.288   3.188   7.791  0.2305  0.2319 -0.1294
 8682SOL    HW137679   3.249   3.236   7.864  0.9746  0.4559  0.1279
 8682SOL    HW237680   3.250   3.101   7.800  0.6604  0.0323 -0.2275
 8683SOL     OW37681   1.519   0.814   5.526  0.4952  0.2300  0.3313
 8683SOL    HW137682   1.511   0.897   5.478  0.6890 -0.2398 -0.5225
 8683SOL    HW237683   1.606   0.790   5.497  0.1213 -0.1806 -0.4595
 8684SOL     OW37684   3.345   4.140  17.311 -0.0263 -0.1666 -0.1490
 8684SOL    HW137685   3.371   4.048  17.312 -1.0913 -0.4768 -0.8563
 8684SOL    HW237686   3.289   4.134  17.234 -2.2005  1.8303  1.2552
 8685SOL     OW37687   3.161   2.229   2.732 -0.2337 -0.0824  1.0355
 8685SOL    HW137688   3.168   2.138   2.703  1.9045  0.0183  1.2877
 8685SOL    HW237689   3.112   2.262   2.656  0.4497  0.1645  0.7051
 8686SOL     OW37690   1.507   1.523  12.709  0.6288  0.9277  0.0588
 8686SOL    HW137691   1.496   1.540  12.616  0.3271 -3.1399 -0.6412
 8686SOL    HW237692   1.517   1.427  12.710 -1.1592  0.7370 -0.8628
 8687SOL     OW37693   0.449   1.375   3.005  0.4973 -0.0158 -0.2140
 8687SOL    HW137694   0.368   1.332   2.976  0.5711 -1.1800  1.2845
 8687SOL    HW237695   0.500   1.370   2.924  0.3139 -1.1592 -0.2662
 8688SOL     OW37696   3.577   3.111  12.673 -0.3159 -0.2443 -0.7550
 8688SOL    HW137697   3.659   3.062  12.671 -0.9325 -1.4494  1.9814
 8688SOL    HW237698   3.609   3.194  12.639  0.1973  1.0604  2.8378
 8689SOL     OW37699   3.000   2.971  13.015 -0.3573  0.1419 -0.0475
 8689SOL    HW137700   2.920   3.015  13.043 -1.3149 -0.9782 -1.0175
 8689SOL    HW237701   2.999   3.005  12.925 -0.9932 -1.4610 -0.6531
 8690SOL     OW37702   4.024   3.148   6.749  0.4945 -0.1396  0.4496
 8690SOL    HW137703   3.986   3.084   6.809  0.2211  0.6108  1.0878
 8690SOL    HW237704   4.007   3.228   6.799  1.4408 -0.0463  0.6257
 8691SOL     OW37705   0.591   2.866   5.735 -0.1207 -0.2199  0.0743
 8691SOL    HW137706   0.588   2.951   5.691 -0.8910 -0.1410  0.2845
 8691SOL    HW237707   0.668   2.857   5.792  0.6131 -1.5898 -1.1180
 8692SOL     OW37708   2.737   4.440   5.602 -0.3306 -0.1785 -0.0320
 8692SOL    HW137709   2.722   4.534   5.593 -3.3130 -0.6717 -0.3001
 8692SOL    HW237710   2.806   4.430   5.667 -1.9570 -2.3195  1.3619
 8693SOL     OW37711   2.884   0.601  15.207 -0.3992 -0.2781 -0.2916
 8693SOL    HW137712   2.974   0.616  15.238  0.3444 -0.5160 -2.3418
 8693SOL    HW237713   2.857   0.527  15.262 -0.7622 -0.9762 -1.4213
 8694SOL     OW37714   2.964   3.164   5.491 -0.0008  0.5037 -0.5764
 8694SOL    HW137715   2.918   3.231   5.540 -1.8070 -2.3256  1.6017
 8694SOL    HW237716   2.897   3.111   5.448 -1.4137  1.6426  0.2736
 8695SOL     OW37717   4.724   1.910   7.026 -0.0701 -0.4082 -0.0075
 8695SOL    HW137718   4.730   1.888   6.933  1.8481 -0.2622  0.0835
 8695SOL    HW237719   4.630   1.922   7.038  0.1918 -0.0083  1.6168
 8696SOL     OW37720   2.316   3.093   3.451 -0.0169 -0.0252  0.6314
 8696SOL    HW137721   2.243   3.049   3.408 -1.2133  1.2879  1.3128
 8696SOL    HW237722   2.396   3.052   3.417  0.2873  1.1655 -0.0789
 8697SOL     OW37723   4.259   3.218   6.051  0.0238  0.0741  0.0221
 8697SOL    HW137724   4.221   3.284   5.993  1.7684 -0.3012 -1.5249
 8697SOL    HW237725   4.181   3.198   6.104 -0.4096  3.3064  0.6274
 8698SOL     OW37726   3.527   4.683   4.373  0.0701  0.3337 -0.5974
 8698SOL    HW137727   3.466   4.625   4.328 -2.1001  1.7670  0.5348
 8698SOL    HW237728   3.465   4.702   4.443  1.0258  1.6265 -0.1060
 8699SOL     OW37729   3.310   3.392  15.040  0.3862  0.3684  0.0453
 8699SOL    HW137730   3.225   3.355  15.063  0.8124 -2.0405 -2.1759
 8699SOL    HW237731   3.371   3.322  15.061  0.9123  1.0807  0.8800
 8700SOL     OW37732   4.292   4.542   8.834 -0.0140 -0.6772 -0.1642
 8700SOL    HW137733   4.357   4.602   8.796 -1.8363  0.5744 -1.3265
 8700SOL    HW237734   4.252   4.589   8.907  1.3699  0.0350  0.1323
 8701SOL     OW37735   0.806   1.931  11.978  0.4834 -0.4935 -0.3387
 8701SOL    HW137736   0.719   1.924  12.015  1.1334  0.3838  1.3418
 8701SOL    HW237737   0.832   1.839  11.965 -0.8995 -0.8844 -0.3397
 8702SOL     OW37738   2.326   4.718  11.569 -0.4773 -0.0670 -0.1320
 8702SOL    HW137739   2.344   4.681  11.483  0.5722 -0.7411  0.3687
 8702SOL    HW237740   2.340   0.074  11.556 -0.4381 -0.0597 -0.0380
 8703SOL     OW37741   1.203   4.508  15.851 -0.8589  0.5867  0.2648
 8703SOL    HW137742   1.115   4.471  15.856 -0.4500 -0.1136  2.3454
 8703SOL    HW237743   1.252   4.433  15.887  0.4940  1.0937 -0.5155
 8704SOL     OW37744   3.383   3.647   2.380  0.2239  0.2936 -0.3246
 8704SOL    HW137745   3.333   3.629   2.300  0.1791  1.0709 -0.4732
 8704SOL    HW237746   3.437   3.568   2.385  1.7755  1.4245  0.7458
 8705SOL     OW37747   0.040   2.245   6.879 -0.0012 -0.0407 -0.1429
 8705SOL    HW137748   0.074   2.165   6.841  0.8853 -1.0767  2.8387
 8705SOL    HW237749   0.114   2.301   6.854  0.8879 -1.7699 -1.3169
 8706SOL     OW37750   2.067   0.799  11.902  0.3389 -0.2438 -0.1053
 8706SOL    HW137751   2.161   0.795  11.880  0.7702  2.7309  1.0946
 8706SOL    HW237752   2.044   0.712  11.872 -0.3433  0.0649 -0.4676
 8707SOL     OW37753   4.419   1.781   3.374  0.3431 -0.1793 -0.3772
 8707SOL    HW137754   4.386   1.816   3.291 -3.2126  0.2590  1.2257
 8707SOL    HW237755   4.510   1.775   3.346  0.8038  0.9545  0.8946
 8708SOL     OW37756   1.807   2.827   7.440  0.3511  0.3354 -0.4021
 8708SOL    HW137757   1.840   2.753   7.389 -2.4422 -0.0082 -1.6680
 8708SOL    HW237758   1.855   2.905   7.412  0.1226  0.6705  0.1255
 8709SOL     OW37759   3.625   3.901   4.805 -0.0830 -0.7103  0.4333
 8709SOL    HW137760   3.681   3.826   4.823  0.0045 -0.9589 -0.8803
 8709SOL    HW237761   3.669   3.960   4.866 -0.3320  0.3042 -0.3636
 8710SOL     OW37762   2.565   2.340   1.955  0.2058 -0.1704  0.5736
 8710SOL    HW137763   2.555   2.294   2.039  0.4009 -0.1236  0.6233
 8710SOL    HW237764   2.484   2.390   1.949  0.5816  0.2767 -0.7448
 8711SOL     OW37765   2.038   0.634   4.930  0.1945 -0.3603 -0.4339
 8711SOL    HW137766   2.014   0.543   4.946 -0.3304 -0.9737 -4.6755
 8711SOL    HW237767   2.054   0.627   4.836  1.7323  1.4602 -0.3070
 8712SOL     OW37768   2.418   4.420   8.762  0.1848  0.6920  0.0431
 8712SOL    HW137769   2.359   4.483   8.720  1.4972  0.2543 -2.4503
 8712SOL    HW237770   2.390   4.429   8.853 -1.1994 -3.9477  0.0932
 8713SOL     OW37771   1.070   4.698   5.320  0.4711  0.3697 -0.8195
 8713SOL    HW137772   1.001   4.654   5.370 -0.4743  0.9714 -1.5982
 8713SOL    HW237773   1.147   4.669   5.369  0.3208  0.5256 -0.4957
 8714SOL     OW37774   4.510   3.510  17.701 -0.3951 -0.6366  0.3780
 8714SOL    HW137775   4.546   3.436  17.652  1.2678 -0.2688  1.0250
 8714SOL    HW237776   4.420   3.497  17.673 -0.9324 -2.3109  2.8864
 8715SOL     OW37777   2.785   3.655   5.342  0.5019  0.3011 -0.2121
 8715SOL    HW137778   2.783   3.560   5.352 -1.9254  0.4892  0.8246
 8715SOL    HW237779   2.697   3.684   5.365  0.6293 -0.2037  0.8847
 8716SOL     OW37780   4.110   4.177  11.448  0.7666  0.0974  0.3493
 8716SOL    HW137781   4.165   4.233  11.393  1.6459 -1.6835 -0.5815
 8716SOL    HW237782   4.177   4.140  11.505 -0.4268 -0.8963  1.1022
 8717SOL     OW37783   3.193   0.772   4.525  0.0672 -0.5055  0.3089
 8717SOL    HW137784   3.168   0.693   4.574 -1.4750 -1.8659 -2.6960
 8717SOL    HW237785   3.288   0.762   4.517  0.2829  0.9570  1.0292
 8718SOL     OW37786   2.509   4.048   6.820 -0.0397  0.1848 -0.7251
 8718SOL    HW137787   2.414   4.057   6.813  0.0411  0.6532 -1.2489
 8718SOL    HW237788   2.518   4.121   6.882  0.2423 -0.0524 -0.4864
 8719SOL     OW37789   1.709   1.237  16.464  0.0266 -0.2591  0.8323
 8719SOL    HW137790   1.632   1.181  16.476 -0.7717  0.8743  0.9731
 8719SOL    HW237791   1.734   1.229  16.372 -2.1520  0.9939  0.1235
 8720SOL     OW37792   2.532   0.431   8.063  0.2071 -0.5270  0.2683
 8720SOL    HW137793   2.604   0.490   8.041 -1.6511  0.5463 -2.9162
 8720SOL    HW237794   2.471   0.492   8.106 -0.9991 -1.3273 -0.3206
 8721SOL     OW37795   3.556   4.124   1.923 -0.0893 -0.4112  0.0711
 8721SOL    HW137796   3.564   4.059   1.854 -0.3759  0.9511 -1.2584
 8721SOL    HW237797   3.570   4.070   2.000  1.3102 -0.0279  0.0888
 8722SOL     OW37798   2.052   0.300  16.985 -0.0268  0.3838  0.0231
 8722SOL    HW137799   2.085   0.374  17.035  1.4463  1.0832 -1.9807
 8722SOL    HW237800   2.116   0.283  16.916 -0.1235 -1.2153  0.3316
 8723SOL     OW37801   3.349   0.896   8.990  0.3350 -0.0849  0.7043
 8723SOL    HW137802   3.429   0.948   9.001  0.5430  0.2627 -2.4845
 8723SOL    HW237803   3.380   0.821   9.041 -1.2045 -1.9295 -1.0716
 8724SOL     OW37804   3.099   3.892  16.546  0.0685 -0.0428 -0.2062
 8724SOL    HW137805   3.099   3.858  16.457 -0.7650 -0.9952  0.1501
 8724SOL    HW237806   3.163   3.963  16.536 -0.2165  0.1078 -0.9365
 8725SOL     OW37807   1.430   2.148  15.859 -0.1381 -0.2205 -0.6098
 8725SOL    HW137808   1.399   2.059  15.844 -3.3324  0.6943  0.5269
 8725SOL    HW237809   1.344   2.188  15.874 -0.5057 -1.2855  0.0803
 8726SOL     OW37810   2.704   1.888   1.878  0.2509  0.2919 -0.6052
 8726SOL    HW137811   2.720   1.818   1.816 -1.5553 -1.2492  0.6859
 8726SOL    HW237812   2.776   1.949   1.857  0.6483  0.0548  0.0580
 8727SOL     OW37813   1.701   0.141   4.062  0.5706 -0.0238  0.1805
 8727SOL    HW137814   1.669   0.210   4.120  1.1831 -1.3945  2.1428
 8727SOL    HW237815   1.777   0.186   4.026 -0.0339  0.5354 -0.3978
 8728SOL     OW37816   2.129   1.617   5.491  0.5303  0.0800  0.5861
 8728SOL    HW137817   2.119   1.708   5.518 -0.2997  0.0381  0.4267
 8728SOL    HW237818   2.050   1.575   5.524  0.1073  0.8507  0.5629
 8729SOL     OW37819   1.432   2.784  11.984  0.2207  0.0988  0.3710
 8729SOL    HW137820   1.403   2.693  11.992  0.7429 -0.0823  0.1698
 8729SOL    HW237821   1.525   2.765  11.985  0.2493  0.1830 -0.8546
 8730SOL     OW37822   3.980   3.142  11.464 -0.5332 -0.2101 -0.1179
 8730SOL    HW137823   4.044   3.090  11.415 -1.3958 -0.3644 -1.0919
 8730SOL    HW237824   3.965   3.081  11.536  0.3997  0.2427  0.4619
 8731SOL     OW37825   4.039   2.687  10.049 -0.0298  0.2372 -0.0555
 8731SOL    HW137826   4.062   2.597  10.027  0.9177  0.5907 -0.5175
 8731SOL    HW237827   4.109   2.740  10.011 -1.2663  1.9073 -0.0136
 8732SOL     OW37828   0.777   2.682   9.521  0.2931  0.0434  0.0810
 8732SOL    HW137829   0.867   2.677   9.552  0.2127  0.8581  0.4622
 8732SOL    HW237830   0.723   2.643   9.589  0.5554  0.2220  0.3928
 8733SOL     OW37831   1.868   0.413  11.695  0.8018 -0.3499  0.1767
 8733SOL    HW137832   1.863   0.368  11.610 -1.0069 -1.8819  1.0770
 8733SOL    HW237833   1.798   0.370  11.745 -1.1577 -0.8319 -3.0059
 8734SOL     OW37834   1.253   0.960   6.009  0.7354 -0.4436  0.2635
 8734SOL    HW137835   1.207   0.922   6.084  0.0595 -0.1274  0.0092
 8734SOL    HW237836   1.337   0.914   6.010  0.8679 -0.2000  0.2944
 8735SOL     OW37837   1.957   1.673   8.416 -0.1263  0.0371  0.4236
 8735SOL    HW137838   1.976   1.685   8.509  0.9783 -1.4064  0.3975
 8735SOL    HW237839   1.883   1.613   8.417  1.5162 -1.9753  1.7671
 8736SOL     OW37840   3.554   3.887   6.875 -0.2644  0.1329 -0.4403
 8736SOL    HW137841   3.494   3.888   6.800 -0.4783  2.3148 -0.2202
 8736SOL    HW237842   3.490   3.881   6.946  0.6845 -3.0150  0.1827
 8737SOL     OW37843   1.544   2.720   5.299  0.2186  0.2162 -0.2592
 8737SOL    HW137844   1.593   2.723   5.217  0.7526  1.5217  0.1039
 8737SOL    HW237845   1.511   2.808   5.321  2.0120  1.3780 -2.1914
 8738SOL     OW37846   0.675   1.899  11.608 -0.3969 -0.1806  0.3089
 8738SOL    HW137847   0.628   1.945  11.538  0.7064 -1.6267 -1.3755
 8738SOL    HW237848   0.602   1.860  11.657  0.5144 -0.8095  1.1577
 8739SOL     OW37849   2.101   1.281   6.627 -0.2528 -0.1938  0.0249
 8739SOL    HW137850   2.010   1.255   6.612  0.4337 -1.0281 -2.6415
 8739SOL    HW237851   2.132   1.233   6.704 -0.5778  0.4969  0.5828
 8740SOL     OW37852   2.476   3.335   3.948  0.9457  0.0673  0.4510
 8740SOL    HW137853   2.397   3.387   3.965 -1.2003 -3.0514  0.0583
 8740SOL    HW237854   2.537   3.401   3.915 -1.6356  1.5913 -1.2432
 8741SOL     OW37855   0.491   3.127   5.654  0.3469  0.3054  0.1564
 8741SOL    HW137856   0.485   3.181   5.575 -0.7862 -1.5220 -0.9929
 8741SOL    HW237857   0.400   3.109   5.676  0.5219  1.2004  1.6572
 8742SOL     OW37858   1.680   0.566   2.639 -0.1078 -0.7415 -0.6982
 8742SOL    HW137859   1.611   0.518   2.685  0.9052  0.3837  2.0015
 8742SOL    HW237860   1.623   0.607   2.573 -0.8427  0.4313  0.6588
 8743SOL     OW37861   3.993   1.689   4.422  0.6941  0.0462 -0.3521
 8743SOL    HW137862   3.933   1.672   4.349  0.4843 -2.2170  0.3397
 8743SOL    HW237863   4.078   1.667   4.384  1.0309 -0.4109  0.6672
 8744SOL     OW37864   3.575   2.510   3.111  0.2866 -0.0753 -0.2647
 8744SOL    HW137865   3.651   2.532   3.057 -1.0020  2.1863 -1.1775
 8744SOL    HW237866   3.575   2.415   3.102 -0.5450 -0.2850  1.8093
 8745SOL     OW37867   3.805   0.516   0.817  0.4683 -0.1072 -0.6354
 8745SOL    HW137868   3.780   0.423   0.814 -1.3130  0.3722 -0.8003
 8745SOL    HW237869   3.871   0.523   0.886 -0.8216 -0.7029  0.6592
 8746SOL     OW37870   2.892   4.266   4.287  0.4859 -1.0597  0.2537
 8746SOL    HW137871   2.921   4.177   4.305  0.7698 -1.0500 -0.1400
 8746SOL    HW237872   2.811   4.247   4.239  0.0508  1.8164 -0.1227
 8747SOL     OW37873   2.252   1.489   9.383 -0.2764  0.1789  0.1543
 8747SOL    HW137874   2.330   1.445   9.349  0.2366 -1.1669  3.0775
 8747SOL    HW237875   2.184   1.428   9.353  1.3238 -1.2851 -0.4927
 8748SOL     OW37876   2.740   0.862  11.059 -0.0922  0.2545  0.1030
 8748SOL    HW137877   2.791   0.942  11.066  1.6671 -0.9201  0.4769
 8748SOL    HW237878   2.675   0.859  11.130 -1.0277  3.2875 -0.5972
 8749SOL     OW37879   3.626   1.260  17.391  0.4142  0.2046  0.4063
 8749SOL    HW137880   3.590   1.333  17.441  1.9374  1.1957  0.0229
 8749SOL    HW237881   3.554   1.233  17.334 -1.2307  1.3211  1.9729
 8750SOL     OW37882   2.182   0.268   2.985  0.0668 -0.0578 -0.2189
 8750SOL    HW137883   2.120   0.337   2.959 -1.7490 -1.6055 -0.0160
 8750SOL    HW237884   2.264   0.297   2.945 -0.3799  2.3841  0.6393
 8751SOL     OW37885   2.298   1.769   1.269  0.4633  0.1078 -0.1348
 8751SOL    HW137886   2.354   1.786   1.193  0.6273  1.8749  0.3974
 8751SOL    HW237887   2.270   1.683   1.235  1.5429 -0.1843 -0.2952
 8752SOL     OW37888   3.468   1.581   3.418 -0.6307 -0.0739 -0.1608
 8752SOL    HW137889   3.524   1.522   3.468 -1.8875 -1.1454 -0.0295
 8752SOL    HW237890   3.526   1.584   3.341 -1.4848  0.1680 -0.7993
 8753SOL     OW37891   2.369   0.655   8.243 -0.1342 -0.0677 -0.3654
 8753SOL    HW137892   2.297   0.699   8.287  0.7942  0.7206  0.3559
 8753SOL    HW237893   2.417   0.602   8.306 -0.7930 -1.0831 -0.6987
 8754SOL     OW37894   1.649   2.039   7.163  0.0828 -0.2975  0.1958
 8754SOL    HW137895   1.667   2.004   7.076 -1.5507 -2.0650  0.5502
 8754SOL    HW237896   1.737   2.046   7.199 -0.8910  1.3396  2.2962
 8755SOL     OW37897   3.195   0.898  11.819 -0.0717  0.2309 -1.5000
 8755SOL    HW137898   3.117   0.858  11.857  1.5062  0.5242  1.9820
 8755SOL    HW237899   3.194   0.847  11.738  0.9700 -1.0141 -0.7138
 8756SOL     OW37900   4.554   1.964   5.356  0.1075  0.9479 -0.2131
 8756SOL    HW137901   4.568   2.058   5.344  1.5100  0.9431  1.3451
 8756SOL    HW237902   4.527   1.933   5.270  0.8594  1.9891 -0.8246
 8757SOL     OW37903   2.548   2.380   2.843  0.4801  0.0216 -0.0010
 8757SOL    HW137904   2.523   2.321   2.914 -1.7167 -0.4082 -1.1193
 8757SOL    HW237905   2.589   2.455   2.886  1.9198 -0.4892 -0.4766
 8758SOL     OW37906   2.032   2.842   9.162 -0.2633  0.3146 -0.4465
 8758SOL    HW137907   1.990   2.927   9.174 -1.8420 -0.4063 -0.8709
 8758SOL    HW237908   2.116   2.865   9.201 -0.7835  2.4713 -0.6405
 8759SOL     OW37909   1.897   1.669  16.329 -0.0907 -0.5389  0.0942
 8759SOL    HW137910   1.954   1.666  16.251 -1.9990 -3.0475 -1.1884
 8759SOL    HW237911   1.888   1.763  16.343  1.9311 -0.7065  2.4200
 8760SOL     OW37912   2.629   0.782  13.815 -0.5407  0.7667 -0.1971
 8760SOL    HW137913   2.643   0.834  13.894 -1.2619 -0.8477  0.9858
 8760SOL    HW237914   2.546   0.823  13.787 -1.8304 -1.7310 -0.0007
 8761SOL     OW37915   1.417   0.623   6.604 -0.2802 -0.2723 -0.2692
 8761SOL    HW137916   1.412   0.616   6.699  2.0529  0.0653 -0.1107
 8761SOL    HW237917   1.363   0.550   6.573  1.3230 -1.7371  0.3788
 8762SOL     OW37918   3.772   2.615   9.846 -0.3760 -0.0602 -0.5548
 8762SOL    HW137919   3.810   2.701   9.828 -0.4179  0.5194  2.0831
 8762SOL    HW237920   3.756   2.584   9.757  1.7045  0.8343 -1.2475
 8763SOL     OW37921   4.650   4.511  12.521 -0.3736 -0.2160  0.2326
 8763SOL    HW137922   4.679   4.472  12.604 -2.5294 -0.6605  0.7728
 8763SOL    HW237923   4.589   4.577  12.555  1.3709  1.1011  0.8110
 8764SOL     OW37924   4.027   4.356  17.072  0.1904  0.1617 -0.5145
 8764SOL    HW137925   3.990   4.269  17.084  1.6900 -0.1998  1.5837
 8764SOL    HW237926   3.953   4.414  17.091  0.4152  0.0940  0.5364
 8765SOL     OW37927   3.805   4.438   5.655  0.1834  0.3068 -0.4719
 8765SOL    HW137928   3.870   4.415   5.589 -0.8292  1.2389 -1.8036
 8765SOL    HW237929   3.750   4.360   5.661 -1.1536  1.2974  0.2539
 8766SOL     OW37930   0.859   3.885  15.618  0.2139  0.1846 -0.2456
 8766SOL    HW137931   0.874   3.862  15.710 -0.6637  0.2844 -0.0693
 8766SOL    HW237932   0.947   3.908  15.592 -0.4278  1.4002 -1.2993
 8767SOL     OW37933   1.999   3.249   3.774  0.3556  0.5481  0.0592
 8767SOL    HW137934   1.930   3.184   3.786  1.0014 -0.3576 -1.1426
 8767SOL    HW237935   2.004   3.248   3.679 -0.1477 -2.7948  0.0702
 8768SOL     OW37936   2.718   1.254  17.253 -0.5054  0.6045 -0.5776
 8768SOL    HW137937   2.792   1.283  17.198  0.5855  0.9408  1.0831
 8768SOL    HW237938   2.697   1.338  17.294 -2.4229  0.3411 -1.0282
 8769SOL     OW37939   2.994   1.195   9.233 -0.3480  0.2959  0.1553
 8769SOL    HW137940   2.915   1.223   9.188 -0.5164  2.1081  1.5737
 8769SOL    HW237941   3.047   1.158   9.162  0.0128 -0.6324  0.9037
 8770SOL     OW37942   0.572   2.711  15.850  0.5190  0.1209 -0.2409
 8770SOL    HW137943   0.601   2.773  15.917  0.6240 -0.5500  0.3380
 8770SOL    HW237944   0.526   2.768  15.788 -0.5825 -2.2074 -1.5368
 8771SOL     OW37945   4.474   0.556  16.243 -0.0694  0.1314 -0.6569
 8771SOL    HW137946   4.528   0.557  16.164  0.3181 -0.3855 -0.3989
 8771SOL    HW237947   4.530   0.503  16.300 -0.2414 -1.0040 -1.5430
 8772SOL     OW37948   2.508   3.547   8.400 -0.6355  0.1889 -0.3978
 8772SOL    HW137949   2.474   3.517   8.316  1.1133 -1.2608 -0.5873
 8772SOL    HW237950   2.564   3.620   8.373 -2.0936  0.9242 -1.4555
 8773SOL     OW37951   1.058   2.142   8.259  0.3285 -0.1359 -0.2498
 8773SOL    HW137952   0.997   2.199   8.305  0.1970 -1.6201  1.4099
 8773SOL    HW237953   1.124   2.138   8.328  1.7863 -0.3530 -1.6540
 8774SOL     OW37954   0.661   0.197   9.309  0.4073  0.0206 -0.2595
 8774SOL    HW137955   0.567   0.196   9.291  0.4274 -0.7002 -0.3368
 8774SOL    HW237956   0.658   0.138   9.384 -0.8961  0.7909  0.2987
 8775SOL     OW37957   3.254   0.161   8.707  0.1612  0.2898 -0.4872
 8775SOL    HW137958   3.185   0.226   8.722  1.2176  1.3997 -0.5143
 8775SOL    HW237959   3.190   0.094   8.683  1.4680 -0.7747 -0.9613
 8776SOL     OW37960   4.120   1.944  10.132  0.4317 -0.1534 -0.3842
 8776SOL    HW137961   4.200   1.979  10.171  1.5853  0.4711 -3.2626
 8776SOL    HW237962   4.136   1.966  10.040  2.7939 -0.4269 -0.0506
 8777SOL     OW37963   0.332   2.241  13.029 -0.3568 -0.1457 -0.3221
 8777SOL    HW137964   0.383   2.183  12.973  0.1914  1.0840 -1.0884
 8777SOL    HW237965   0.263   2.179  13.050 -0.7400  0.5747  0.5664
 8778SOL     OW37966   0.524   0.998   8.788 -0.2269  0.3617 -0.2056
 8778SOL    HW137967   0.562   1.085   8.801  1.9815 -0.5736 -0.3510
 8778SOL    HW237968   0.525   0.963   8.878  0.7091  1.1387  0.0933
 8779SOL     OW37969   3.690   3.634  16.884 -0.1607 -0.1428  0.1657
 8779SOL    HW137970   3.718   3.712  16.933 -2.8936  0.7297  0.3654
 8779SOL    HW237971   3.698   3.668  16.795 -0.8348  0.8352  0.4764
 8780SOL     OW37972   3.489   3.966   1.096 -0.1602  0.1157 -0.2179
 8780SOL    HW137973   3.521   3.955   1.006 -1.0137 -0.7362 -0.4229
 8780SOL    HW237974   3.432   4.041   1.081 -0.8923 -0.8279 -2.2220
 8781SOL     OW37975   1.870   2.508   9.901  0.2905  0.3704 -0.3108
 8781SOL    HW137976   1.946   2.484   9.954  1.5467  1.2626 -1.7168
 8781SOL    HW237977   1.877   2.603   9.913  3.4376 -0.1060  1.4579
 8782SOL     OW37978   3.481   0.523   4.005 -0.7012  0.4509  0.2948
 8782SOL    HW137979   3.553   0.564   4.053 -0.3164  1.2347 -0.9426
 8782SOL    HW237980   3.523   0.450   3.959 -2.7784 -1.5706  1.5798
 8783SOL     OW37981   2.799   3.071   8.004 -0.0131 -0.4290 -0.0780
 8783SOL    HW137982   2.805   3.149   7.949  1.3834  0.0102  0.6906
 8783SOL    HW237983   2.704   3.068   8.018  0.1754 -0.0677  1.2196
 8784SOL     OW37984   1.677   0.799   0.688  0.4185 -0.2732 -0.3631
 8784SOL    HW137985   1.589   0.838   0.683 -0.2408 -1.8165 -0.5918
 8784SOL    HW237986   1.657   0.706   0.695  0.8914 -0.4701 -1.7682
 8785SOL     OW37987   4.145   2.766   1.265  0.2083  0.0518 -0.3260
 8785SOL    HW137988   4.093   2.847   1.261 -0.2380 -0.2138  0.1806
 8785SOL    HW237989   4.147   2.747   1.171 -1.2301 -0.4817 -0.2452
 8786SOL     OW37990   2.855   1.890  15.419  0.7152  0.1538 -0.4163
 8786SOL    HW137991   2.859   1.982  15.394 -2.8448  0.6953  0.9509
 8786SOL    HW237992   2.775   1.864  15.372 -0.5378  0.4556  1.5238
 8787SOL     OW37993   0.357   1.242  11.559 -0.3958  0.6107  0.3388
 8787SOL    HW137994   0.441   1.222  11.517 -0.5585  0.6481 -0.0036
 8787SOL    HW237995   0.329   1.154  11.584  0.4831  0.3761  0.5162
 8788SOL     OW37996   1.255   3.316   5.041 -0.4222 -0.2117 -0.0164
 8788SOL    HW137997   1.166   3.296   5.012 -0.1865  0.5345 -1.2599
 8788SOL    HW237998   1.305   3.286   4.965  1.0520  2.1249  0.0567
 8789SOL     OW37999   1.237   1.719  10.062 -0.0307 -0.6721  0.1918
 8789SOL    HW138000   1.298   1.729   9.988 -0.3703  0.0911  0.0123
 8789SOL    HW238001   1.156   1.758  10.027 -0.0447  0.2803  1.2997
 8790SOL     OW38002   0.140   0.766  17.582  0.8099  0.6999 -0.3381
 8790SOL    HW138003   0.214   0.822  17.558  2.4380 -1.2889  0.0648
 8790SOL    HW238004   0.193   0.689  17.599 -0.5895 -0.2093 -0.0921
 8791SOL     OW38005   2.065   0.982   6.723 -0.1088  0.2068 -0.0266
 8791SOL    HW138006   2.098   0.901   6.764 -1.2425 -0.0550  0.3820
 8791SOL    HW238007   1.993   1.009   6.781  0.0453  0.8151 -0.1254
 8792SOL     OW38008   4.384   4.251   6.592 -0.0412  0.2700 -0.3738
 8792SOL    HW138009   4.339   4.167   6.587  3.2331 -1.4106 -1.4195
 8792SOL    HW238010   4.436   4.259   6.512 -0.0645  0.1209 -0.4028
 8793SOL     OW38011   3.084   1.018   8.958  0.2609  0.5611 -0.2991
 8793SOL    HW138012   3.153   0.953   8.968  0.2515  0.4872 -0.7037
 8793SOL    HW238013   3.005   0.965   8.969 -0.8322  2.1422 -0.4231
 8794SOL     OW38014   0.007   2.487   3.495 -0.2632 -0.7243 -0.0546
 8794SOL    HW138015   0.009   2.394   3.516 -0.7734 -0.6138  0.4462
 8794SOL    HW238016   4.724   2.532   3.577  0.0561  1.2648 -1.0585
 8795SOL     OW38017   3.100   4.519   6.598 -0.6055 -0.0918  0.1897
 8795SOL    HW138018   3.154   4.521   6.520 -0.4893 -0.1800  0.2677
 8795SOL    HW238019   3.014   4.517   6.557 -0.6332  0.7619  0.2034
 8796SOL     OW38020   2.270   2.811   4.939  0.2288  0.2009 -0.4510
 8796SOL    HW138021   2.332   2.739   4.928  1.7558  1.6538 -1.5272
 8796SOL    HW238022   2.207   2.793   4.869 -0.0777  0.6956 -0.3020
 8797SOL     OW38023   3.715   3.675   3.697 -0.3299  0.6487 -0.6791
 8797SOL    HW138024   3.708   3.670   3.793 -1.8048  1.4277 -0.7457
 8797SOL    HW238025   3.810   3.669   3.684 -0.4692 -1.8289 -0.5129
 8798SOL     OW38026   0.745   1.645   4.853  0.1648  0.6059  0.5236
 8798SOL    HW138027   0.831   1.660   4.892  0.2136 -1.7817  1.3422
 8798SOL    HW238028   0.692   1.719   4.880 -1.2529 -0.6820  1.2706
 8799SOL     OW38029   0.895   2.069   5.845  0.2629 -0.0133  0.1351
 8799SOL    HW138030   0.969   2.021   5.881 -1.3220 -0.4520  2.7618
 8799SOL    HW238031   0.852   2.001   5.794 -2.4789  1.4631  0.4428
 8800SOL     OW38032   1.531   2.443   7.440 -0.2911 -0.7114 -0.0872
 8800SOL    HW138033   1.474   2.401   7.375  0.8883 -2.6491  0.1131
 8800SOL    HW238034   1.490   2.527   7.457  0.3556 -0.1674 -1.2066
 8801SOL     OW38035   4.535   3.250   1.258  0.0565  0.5977  0.6650
 8801SOL    HW138036   4.581   3.166   1.245  0.7347  0.7357  2.2527
 8801SOL    HW238037   4.606   3.311   1.238 -0.8128  0.7794 -1.9291
 8802SOL     OW38038   0.428   2.463  11.711  0.0996 -0.0641  0.0514
 8802SOL    HW138039   0.459   2.447  11.800  2.5726 -0.9975 -0.9901
 8802SOL    HW238040   0.362   2.532  11.717 -1.1832 -1.2292 -0.5922
 8803SOL     OW38041   0.152   3.477  15.546 -0.0609  0.4064 -0.3535
 8803SOL    HW138042   0.233   3.438  15.579 -0.3353 -0.5457 -0.7934
 8803SOL    HW238043   0.159   3.438  15.459  0.4341 -4.2089  1.7027
 8804SOL     OW38044   4.126   2.274   6.625  0.0879  0.5261 -0.1348
 8804SOL    HW138045   4.074   2.285   6.705  1.5367 -0.8987  0.9912
 8804SOL    HW238046   4.159   2.361   6.605  0.8065 -0.2154 -2.1047
 8805SOL     OW38047   0.859   1.925   6.228  0.1768 -0.3296 -0.0736
 8805SOL    HW138048   0.925   1.878   6.278  0.2311  0.2955  0.4433
 8805SOL    HW238049   0.786   1.891   6.279  0.5285  0.0589  0.6919
 8806SOL     OW38050   0.774   0.881   2.539  0.0551 -0.5445  0.1569
 8806SOL    HW138051   0.767   0.808   2.477  0.7539 -1.3471  1.0254
 8806SOL    HW238052   0.762   0.815   2.608  1.0936 -0.7051  0.1860
 8807SOL     OW38053   1.110   2.815   5.464  0.2148  0.1000  0.0357
 8807SOL    HW138054   1.016   2.830   5.469 -0.1857 -2.2123 -0.4314
 8807SOL    HW238055   1.139   2.810   5.555  1.2458  0.0282 -0.2962
 8808SOL     OW38056   2.308   1.052   6.627 -0.0788  0.0095 -0.4043
 8808SOL    HW138057   2.285   1.123   6.567 -2.3583  0.1607  0.6018
 8808SOL    HW238058   2.227   1.014   6.662 -1.5473  2.3242 -1.2515
 8809SOL     OW38059   0.111   1.356   2.956 -0.1736  0.0346  0.1556
 8809SOL    HW138060   0.049   1.376   2.886 -1.1569  2.8175  1.8449
 8809SOL    HW238061   0.181   1.316   2.904 -0.8932 -1.6795  0.5234
 8810SOL     OW38062   1.734   2.813   9.453  0.3225 -0.1626  0.0982
 8810SOL    HW138063   1.802   2.831   9.518  0.7212  1.7403 -0.8289
 8810SOL    HW238064   1.656   2.831   9.505 -1.4439  0.2447 -2.6941
 8811SOL     OW38065   0.317   1.653   3.357 -0.1892 -0.6781 -0.2422
 8811SOL    HW138066   0.224   1.656   3.379  0.1322 -1.4913  1.2751
 8811SOL    HW238067   0.315   1.629   3.265 -0.0891  0.6936 -0.5890
 8812SOL     OW38068   1.002   2.620   6.239  0.2349 -0.8110  0.3935
 8812SOL    HW138069   0.965   2.546   6.192 -0.8714 -0.3796  0.5739
 8812SOL    HW238070   0.926   2.672   6.267  1.4066  1.7499 -1.2463
 8813SOL     OW38071   1.037   4.180   7.036  0.0420  0.1173  0.2470
 8813SOL    HW138072   1.062   4.224   7.117 -1.6406 -1.2530  1.4840
 8813SOL    HW238073   0.954   4.136   7.050  1.0207 -1.4842  1.0183
 8814SOL     OW38074   1.030   3.086   4.455  0.2559  0.3432  0.1887
 8814SOL    HW138075   1.085   3.164   4.453  1.3657 -0.3814  2.0932
 8814SOL    HW238076   0.950   3.121   4.495  0.0869  0.4840 -0.2710
 8815SOL     OW38077   3.125   3.943   8.875  0.0866  0.3700  0.5195
 8815SOL    HW138078   3.032   3.958   8.890 -0.1428  0.5390 -1.0581
 8815SOL    HW238079   3.122   3.847   8.868  0.3021  0.5652 -2.3240
 8816SOL     OW38080   2.071   2.294   5.344  0.2811  0.3387  0.1535
 8816SOL    HW138081   2.130   2.282   5.269  0.6721  1.2891  0.3171
 8816SOL    HW238082   1.986   2.269   5.306 -0.3854  0.6712  1.4373
 8817SOL     OW38083   2.143   3.201   9.490 -0.0040 -0.0475  0.3666
 8817SOL    HW138084   2.113   3.251   9.414  0.2830 -0.6598 -0.1472
 8817SOL    HW238085   2.220   3.154   9.456  0.1804  0.8812 -0.5092
 8818SOL     OW38086   0.931   4.545   8.273 -0.3894  0.0618 -0.4416
 8818SOL    HW138087   0.957   4.497   8.194 -2.0541 -0.1175 -0.8887
 8818SOL    HW238088   0.928   4.471   8.333  0.3215  1.7196  1.6220
 8819SOL     OW38089   4.689   3.787   8.650  0.0177  0.0632  0.8398
 8819SOL    HW138090   0.004   3.825   8.579  0.8043 -0.3827  1.1820
 8819SOL    HW238091   4.667   3.870   8.692  0.7228  0.0533  1.2165
 8820SOL     OW38092   1.956   0.975  14.737 -0.0621  0.0629  0.0781
 8820SOL    HW138093   1.893   0.904  14.722 -1.6038  1.0979  1.7195
 8820SOL    HW238094   1.930   1.000  14.825 -1.2260  0.6268 -0.4307
 8821SOL     OW38095   0.675   0.040  10.543  0.3503  0.5103  0.1943
 8821SOL    HW138096   0.715   0.127  10.542 -1.0013  1.1536  0.8788
 8821SOL    HW238097   0.708   0.006  10.625 -2.0790 -1.1292  0.4997
 8822SOL     OW38098   2.288   3.909   4.243 -0.5206 -0.1392 -0.1129
 8822SOL    HW138099   2.224   3.870   4.184 -1.8755  0.5645  0.8877
 8822SOL    HW238100   2.343   3.837   4.274 -3.0445 -1.9059  0.2084
 8823SOL     OW38101   3.321   2.461   1.864 -0.5600  0.1471 -0.1558
 8823SOL    HW138102   3.272   2.379   1.854  0.2984 -0.5900  1.5788
 8823SOL    HW238103   3.264   2.512   1.922 -1.8824 -1.1051 -0.3181
 8824SOL     OW38104   2.840   0.678  11.272  0.3083  0.4970  0.0696
 8824SOL    HW138105   2.907   0.626  11.227  0.0634  1.8958 -1.9172
 8824SOL    HW238106   2.821   0.746  11.207  1.5231 -0.8140 -1.6401
 8825SOL     OW38107   3.462   1.888   3.304  0.0245 -0.5038  0.2280
 8825SOL    HW138108   3.391   1.951   3.294 -0.8553 -1.2529  1.7414
 8825SOL    HW238109   3.480   1.915   3.394  3.4150  0.5431 -0.7545
 8826SOL     OW38110   1.152   3.993  12.762 -0.1657  0.1125 -0.2546
 8826SOL    HW138111   1.102   3.959  12.836 -0.0751  0.8732  0.1530
 8826SOL    HW238112   1.078   4.030  12.714 -1.6797 -1.0670  1.1648
 8827SOL     OW38113   2.558   3.731   9.990  0.5189  0.1315  0.4242
 8827SOL    HW138114   2.614   3.780  10.050 -0.1172  1.9492 -0.4719
 8827SOL    HW238115   2.533   3.654  10.042 -2.6693 -0.2723 -1.6757
 8828SOL     OW38116   3.553   0.796   4.868 -0.1986  0.6630 -0.1810
 8828SOL    HW138117   3.646   0.819   4.868  0.3195 -1.4904 -0.1284
 8828SOL    HW238118   3.516   0.863   4.926  1.1405 -0.6035  2.1559
 8829SOL     OW38119   3.131   3.174   8.069 -0.3319 -0.6165  0.1433
 8829SOL    HW138120   3.174   3.137   8.146 -0.6279 -0.4383  0.3921
 8829SOL    HW238121   3.042   3.140   8.076 -0.3020 -0.7125  0.0729
 8830SOL     OW38122   1.041   0.559   8.137 -0.0818 -0.2333 -0.0667
 8830SOL    HW138123   0.954   0.572   8.175 -0.7296  0.1404 -1.6533
 8830SOL    HW238124   1.089   0.559   8.220  0.9827  0.7638 -0.6935
 8831SOL     OW38125   0.024   4.546   0.473 -0.1496 -0.3925 -0.3752
 8831SOL    HW138126   4.733   4.477   0.533  0.1319 -0.1911 -0.0163
 8831SOL    HW238127   0.105   4.505   0.444 -0.9877 -1.8205 -0.7430
 8832SOL     OW38128   0.688   1.276   3.931 -0.6923  0.3000 -0.3997
 8832SOL    HW138129   0.625   1.229   3.877  0.7157  0.4658 -2.1899
 8832SOL    HW238130   0.633   1.349   3.961 -0.5520 -0.2138  1.1049
 8833SOL     OW38131   1.862   0.861   4.845  0.1333 -0.4638 -0.3352
 8833SOL    HW138132   1.811   0.802   4.789  2.8658 -2.6108 -0.6015
 8833SOL    HW238133   1.937   0.808   4.871  0.7753  1.0043  0.8075
 8834SOL     OW38134   2.511   2.606   8.543 -0.0499  0.2724  0.0357
 8834SOL    HW138135   2.441   2.541   8.537  0.0100  0.3381 -1.5595
 8834SOL    HW238136   2.573   2.557   8.598  0.0093 -0.0562 -0.3202
 8835SOL     OW38137   0.245   1.646   1.699 -0.2050  0.2345  0.2660
 8835SOL    HW138138   0.187   1.606   1.634 -0.0743  0.0599  0.2572
 8835SOL    HW238139   0.329   1.647   1.654 -0.8397 -0.7893 -0.9468
 8836SOL     OW38140   2.415   3.927   9.784 -0.1360  0.3722  0.6750
 8836SOL    HW138141   2.447   3.867   9.852 -0.0699 -0.4626 -0.0889
 8836SOL    HW238142   2.505   3.944   9.756 -0.0938  0.0295  0.5920
 8837SOL     OW38143   4.668   4.007  12.712 -0.6478 -0.2466 -0.0146
 8837SOL    HW138144   4.640   4.072  12.777 -2.1797 -1.8613  0.9656
 8837SOL    HW238145   4.634   4.050  12.634  0.0096  2.1800  1.0418
 8838SOL     OW38146   1.059   2.249   2.020 -0.2033  0.1120 -0.4914
 8838SOL    HW138147   1.091   2.231   2.108  2.1523 -0.1963 -1.3892
 8838SOL    HW238148   1.046   2.343   2.035 -1.6325 -0.6559  3.1047
 8839SOL     OW38149   4.689   0.314   2.038 -0.1266  0.2032 -0.7969
 8839SOL    HW138150   0.041   0.281   2.026 -0.1033 -0.0176 -0.0499
 8839SOL    HW238151   4.652   0.227   2.055  0.5606  0.1833  0.6319
 8840SOL     OW38152   0.432   2.521  17.555  0.2072  0.0588  0.0331
 8840SOL    HW138153   0.448   2.440  17.604  0.0686 -1.1318 -1.9223
 8840SOL    HW238154   0.365   2.485  17.498  1.5191 -0.1346 -1.3865
 8841SOL     OW38155   3.324   2.428   4.847 -0.3823 -0.1453  0.2029
 8841SOL    HW138156   3.305   2.490   4.917 -3.6095 -1.2101  0.2812
 8841SOL    HW238157   3.288   2.465   4.766 -0.6281  0.9547  0.8028
 8842SOL     OW38158   1.797   0.180   9.470 -0.0470 -0.6327 -0.4243
 8842SOL    HW138159   1.783   0.087   9.452 -4.6312 -0.1722  0.6301
 8842SOL    HW238160   1.890   0.201   9.462 -0.5525  0.5105 -3.2504
 8843SOL     OW38161   0.778   2.288   0.421 -0.0577  0.5796  0.4702
 8843SOL    HW138162   0.748   2.199   0.444 -0.4575  0.3989 -0.7768
 8843SOL    HW238163   0.841   2.294   0.493 -1.3702  1.3711  1.5591
 8844SOL     OW38164   2.435   4.253   5.184 -0.2039 -0.0773 -0.7820
 8844SOL    HW138165   2.403   4.290   5.102 -1.4744  1.1088  0.2489
 8844SOL    HW238166   2.468   4.333   5.225  0.0186 -1.4434  1.7150
 8845SOL     OW38167   3.659   3.922  12.522  0.3730  0.9013 -0.4130
 8845SOL    HW138168   3.701   4.008  12.515  0.1072  1.0781  0.1501
 8845SOL    HW238169   3.628   3.930  12.613  1.2826  1.1771 -0.1298
 8846SOL     OW38170   3.707   3.191  12.073 -0.1481  0.4702  0.2669
 8846SOL    HW138171   3.753   3.142  12.006 -1.4225  0.1413 -0.3603
 8846SOL    HW238172   3.669   3.119  12.124 -1.3847  1.3668  0.6293
 8847SOL     OW38173   0.568   1.484  12.132  0.2767 -0.0918  0.7125
 8847SOL    HW138174   0.533   1.558  12.082  2.3931  0.7331  0.4607
 8847SOL    HW238175   0.660   1.504  12.144  0.0839  0.5839  1.0622
 8848SOL     OW38176   3.811   2.469   2.704 -0.2385  0.4052 -0.0491
 8848SOL    HW138177   3.818   2.450   2.610  0.7665  0.3376  0.0319
 8848SOL    HW238178   3.804   2.382   2.744  1.5178  0.8741  1.3038
 8849SOL     OW38179   2.578   2.344  10.444 -0.7927  0.0775  0.0839
 8849SOL    HW138180   2.566   2.422  10.390 -0.6100 -1.0495 -1.5863
 8849SOL    HW238181   2.627   2.291  10.380  2.8016  3.0236  0.3902
 8850SOL     OW38182   1.624   0.228  15.405  0.0778  0.4602  0.1261
 8850SOL    HW138183   1.693   0.168  15.433 -0.3555 -0.5981 -1.0698
 8850SOL    HW238184   1.667   0.276  15.334 -0.4368 -0.6905 -0.9657
 8851SOL     OW38185   0.190   2.196  13.988  0.4822  0.0908  0.0301
 8851SOL    HW138186   0.225   2.278  13.952 -0.2730 -0.3175 -1.6581
 8851SOL    HW238187   0.200   2.136  13.914 -2.1188 -1.8441  1.2606
 8852SOL     OW38188   1.782   0.667   2.073 -0.0433 -0.2252  0.4058
 8852SOL    HW138189   1.706   0.624   2.034 -0.8659  1.8206 -0.2630
 8852SOL    HW238190   1.829   0.688   1.992  0.4907  0.8071  0.9806
 8853SOL     OW38191   3.539   1.580   1.895 -0.5768 -0.0389 -0.1102
 8853SOL    HW138192   3.555   1.600   1.987 -0.2714  0.9921 -0.3856
 8853SOL    HW238193   3.610   1.517   1.885 -1.0960 -0.6462 -0.0055
 8854SOL     OW38194   3.520   4.050   7.796 -0.0382 -0.1320  0.5365
 8854SOL    HW138195   3.431   4.036   7.827  0.8663 -2.7749  1.8475
 8854SOL    HW238196   3.529   4.137   7.836 -2.5801 -0.3869  1.6795
 8855SOL     OW38197   2.850   3.918  11.489  0.0942 -0.9912  0.5045
 8855SOL    HW138198   2.874   4.011  11.489 -3.3023 -0.1025  1.7650
 8855SOL    HW238199   2.929   3.883  11.528  1.0842  0.6400 -0.0404
 8856SOL     OW38200   3.865   1.915   9.908  0.7620  0.2740 -0.3643
 8856SOL    HW138201   3.892   1.826   9.929  0.1880 -0.4214 -2.5086
 8856SOL    HW238202   3.851   1.941   9.999  1.3928 -0.4148 -0.0732
 8857SOL     OW38203   2.232   4.722   5.828 -0.1584 -0.3469 -0.2793
 8857SOL    HW138204   2.171   0.014   5.761 -0.2365  0.0358 -0.0353
 8857SOL    HW238205   2.315   4.700   5.785  0.5557  2.3274 -0.2727
 8858SOL     OW38206   4.078   1.914   3.432 -0.0511  0.0164 -0.3303
 8858SOL    HW138207   4.038   1.915   3.345  1.3724 -2.9493 -1.0104
 8858SOL    HW238208   4.116   2.001   3.444  0.9316 -0.7046  1.8823
 8859SOL     OW38209   0.295   1.868   6.621 -0.4914  0.2854 -0.7095
 8859SOL    HW138210   0.278   1.866   6.527  1.6783  0.9700 -1.1095
 8859SOL    HW238211   0.259   1.781   6.640  2.7117 -1.3078 -2.0676
 8860SOL     OW38212   0.270   1.608   9.296  0.6593 -0.0986 -0.4371
 8860SOL    HW138213   0.330   1.649   9.358  0.8843 -0.6259 -0.3070
 8860SOL    HW238214   0.188   1.630   9.341 -0.1626  0.5050 -2.2222
 8861SOL     OW38215   3.977   1.176   3.970  0.5317  0.5806 -0.3190
 8861SOL    HW138216   3.932   1.110   3.918  3.7470 -0.1949 -2.1267
 8861SOL    HW238217   3.909   1.201   4.032 -0.9456 -0.2460 -1.5923
 8862SOL     OW38218   0.258   0.151  10.952  0.2311 -0.3370 -0.0345
 8862SOL    HW138219   0.301   0.115  11.029 -0.5382 -0.6683  0.2394
 8862SOL    HW238220   0.297   0.238  10.956  1.8273 -1.1552  2.4444
 8863SOL     OW38221   0.900   1.853   2.734  0.4126  0.1394 -0.2816
 8863SOL    HW138222   0.953   1.882   2.659 -1.5745 -1.2630 -2.2181
 8863SOL    HW238223   0.878   1.765   2.704  1.8918 -0.6032  0.8028
 8864SOL     OW38224   2.095   2.029   3.753 -0.4988 -0.0234  0.0618
 8864SOL    HW138225   2.026   2.085   3.787 -2.0241 -1.5743 -0.5030
 8864SOL    HW238226   2.158   2.040   3.825 -0.9975  2.5266  0.0955
 8865SOL     OW38227   3.969   1.936   5.704  0.0371 -0.6554  0.0753
 8865SOL    HW138228   4.062   1.947   5.724  0.2058 -1.9774 -0.0243
 8865SOL    HW238229   3.968   1.995   5.628  0.0510  0.4486  0.9231
 8866SOL     OW38230   0.943   1.150   8.821  0.1757  0.1380  0.0463
 8866SOL    HW138231   0.939   1.064   8.780 -0.3334  0.8129 -1.2984
 8866SOL    HW238232   0.875   1.124   8.884 -1.5328  0.0040 -1.8790
 8867SOL     OW38233   3.019   2.815   9.582  0.0591 -0.0660  0.0195
 8867SOL    HW138234   2.945   2.834   9.524  0.4623  1.2257 -0.0722
 8867SOL    HW238235   2.975   2.840   9.663  0.2950  1.1012 -0.2208
 8868SOL     OW38236   0.760   1.373  17.375 -0.5348 -0.4859 -0.0338
 8868SOL    HW138237   0.801   1.301  17.422 -0.4195 -2.8927 -3.8171
 8868SOL    HW238238   0.690   1.398  17.436 -0.0356 -1.2154  0.8299
 8869SOL     OW38239   3.822   0.087   5.979 -0.3865  0.0885 -0.3801
 8869SOL    HW138240   3.842   0.000   5.945 -1.5134 -0.3766  0.1453
 8869SOL    HW238241   3.866   0.136   5.909 -0.6998 -0.8573 -1.2298
 8870SOL     OW38242   1.044   1.075   0.439 -0.3497 -0.5812 -0.1586
 8870SOL    HW138243   1.040   1.133   0.514 -0.6361  0.5528 -1.0549
 8870SOL    HW238244   1.038   1.139   0.368 -2.2197 -0.6448 -0.0657
 8871SOL     OW38245   4.650   2.614   6.156 -0.3616 -0.3741  0.5938
 8871SOL    HW138246   4.705   2.601   6.079  1.4316  1.2667  1.6008
 8871SOL    HW238247   4.569   2.570   6.128  0.0686 -1.4800  1.0979
 8872SOL     OW38248   1.857   3.917   6.886  0.3766 -0.9204 -0.3408
 8872SOL    HW138249   1.924   3.862   6.927  2.9138  0.8408 -2.1431
 8872SOL    HW238250   1.851   3.877   6.799 -1.3420 -1.0001 -0.1992
 8873SOL     OW38251   3.616   0.637  12.603 -0.1621 -0.0614 -0.3011
 8873SOL    HW138252   3.704   0.648  12.567 -0.5023  0.1565 -1.0503
 8873SOL    HW238253   3.591   0.563  12.548 -3.8827  0.8870  0.1177
 8874SOL     OW38254   0.206   2.216   0.755 -0.8270 -0.5360 -0.3902
 8874SOL    HW138255   0.202   2.253   0.667 -0.2021 -0.7084 -0.4939
 8874SOL    HW238256   0.164   2.282   0.809  0.8375 -0.8496  1.2792
 8875SOL     OW38257   0.957   4.067   8.594  0.3789  0.5497 -0.3109
 8875SOL    HW138258   0.932   3.977   8.576 -0.9774  0.9006 -0.1956
 8875SOL    HW238259   0.914   4.119   8.525  0.3291  1.2751  0.2698
 8876SOL     OW38260   2.388   1.240   6.364 -0.4023  0.4586 -0.1193
 8876SOL    HW138261   2.480   1.267   6.364  0.9377 -4.0627 -2.2917
 8876SOL    HW238262   2.379   1.205   6.276  1.0986 -1.2247  0.3707
 8877SOL     OW38263   1.640   4.668   6.215  0.5247  0.2950  0.4080
 8877SOL    HW138264   1.703   4.601   6.244 -1.5675 -2.4477 -1.3404
 8877SOL    HW238265   1.663   0.008   6.266  2.3369 -1.1612  1.7956
 8878SOL     OW38266   1.383   1.073   5.044  0.0218  0.0844 -0.8786
 8878SOL    HW138267   1.451   1.009   5.025 -0.5026 -0.3710 -1.2291
 8878SOL    HW238268   1.425   1.146   4.998  0.6427  0.2489 -0.0405
 8879SOL     OW38269   0.860   3.681   5.510 -0.1846 -0.0301 -0.4001
 8879SOL    HW138270   0.894   3.617   5.572 -0.9951  1.7196  1.8559
 8879SOL    HW238271   0.938   3.690   5.456  0.1584  0.9106  0.2454
 8880SOL     OW38272   0.192   2.321   7.113  0.2404  0.2960 -0.1875
 8880SOL    HW138273   0.131   2.270   7.166 -0.8185  1.7228 -0.0362
 8880SOL    HW238274   0.210   2.262   7.041  0.8109  0.4995 -0.2146
 8881SOL     OW38275   1.104   0.970   3.810  0.8838 -0.2668  0.4650
 8881SOL    HW138276   1.090   1.064   3.804 -0.6132 -0.5349 -0.2646
 8881SOL    HW238277   1.021   0.949   3.852  0.5849  0.1431  0.0633
 8882SOL     OW38278   4.516   1.868   5.604 -0.3716  0.3531  0.0810
 8882SOL    HW138279   4.598   1.821   5.596 -1.3296 -1.2080 -0.5718
 8882SOL    HW238280   4.509   1.909   5.517  1.9133 -0.5716 -0.5156
 8883SOL     OW38281   1.894   4.145   2.785  0.0437  0.0053 -0.2762
 8883SOL    HW138282   1.920   4.140   2.693  0.3996  0.3942 -0.1984
 8883SOL    HW238283   1.855   4.232   2.793  0.6660  0.4349 -1.8918
 8884SOL     OW38284   0.932   4.273  15.626  0.4974  0.1693 -0.3197
 8884SOL    HW138285   0.971   4.308  15.546 -2.4316  2.7000 -0.6320
 8884SOL    HW238286   0.978   4.189  15.618  0.3510  0.0540  0.0484
 8885SOL     OW38287   3.143   0.034   6.698 -0.1181  0.4454 -0.2489
 8885SOL    HW138288   3.148   4.688   6.652 -0.5189 -0.5764  1.6054
 8885SOL    HW238289   3.076   0.018   6.764 -1.1762  0.4404 -1.3276
 8886SOL     OW38290   3.532   2.111   7.404  0.0669  0.1034 -0.0415
 8886SOL    HW138291   3.485   2.191   7.381 -0.8927 -0.4598 -0.0512
 8886SOL    HW238292   3.617   2.144   7.431 -0.6475 -0.4153  2.8412
 8887SOL     OW38293   1.979   2.257   5.728 -0.3011 -0.3081 -0.5598
 8887SOL    HW138294   1.903   2.316   5.729 -0.3254 -0.3499  0.0331
 8887SOL    HW238295   1.949   2.202   5.656  0.4204 -2.4301  0.7751
 8888SOL     OW38296   4.026   1.104   6.435  0.5921  0.0796 -0.8809
 8888SOL    HW138297   4.077   1.137   6.509  1.5693 -2.3156 -0.4746
 8888SOL    HW238298   3.978   1.033   6.476  1.2030 -0.2402 -0.7162
 8889SOL     OW38299   2.540   2.876   4.788 -0.0148 -0.1631 -0.5672
 8889SOL    HW138300   2.525   2.813   4.858 -1.1467 -1.0558 -1.6090
 8889SOL    HW238301   2.497   2.949   4.833  3.2115  1.8698 -0.7500
 8890SOL     OW38302   2.337   0.339   9.465  0.3457  0.3974 -0.6325
 8890SOL    HW138303   2.400   0.354   9.536  1.0567 -1.0819 -0.9526
 8890SOL    HW238304   2.260   0.388   9.492  0.4997 -0.1185  0.7205
 8891SOL     OW38305   0.791   1.897  15.855  0.0407  0.2473 -1.3090
 8891SOL    HW138306   0.823   1.821  15.903  0.8706  1.6093  0.2762
 8891SOL    HW238307   0.730   1.942  15.914 -1.4239  2.0924 -4.2245
 8892SOL     OW38308   0.688   3.016   6.991 -0.2928 -0.1201  0.2298
 8892SOL    HW138309   0.712   2.942   7.048 -2.7265 -0.6176  0.5832
 8892SOL    HW238310   0.761   3.075   7.011  0.8904 -1.5230  0.1241
 8893SOL     OW38311   1.492   2.220  17.560 -0.3544 -0.5732 -0.1938
 8893SOL    HW138312   1.491   2.137  17.512 -4.1650 -0.8740  0.4042
 8893SOL    HW238313   1.583   2.246  17.570 -0.7488  0.7008 -0.0055
 8894SOL     OW38314   4.423   4.606   5.010  0.4478 -0.3711  0.2703
 8894SOL    HW138315   4.496   4.653   5.051  0.2127 -1.1443  1.5869
 8894SOL    HW238316   4.351   4.667   5.000  1.7235  0.8793 -1.2308
 8895SOL     OW38317   2.993   3.875   6.226  0.4846  1.3960  0.2663
 8895SOL    HW138318   3.041   3.936   6.282  1.8975  1.5792 -1.1362
 8895SOL    HW238319   2.906   3.865   6.265 -0.2331 -0.8676 -1.8569
 8896SOL     OW38320   3.285   2.652   6.354  0.1031  0.3626 -0.1265
 8896SOL    HW138321   3.309   2.703   6.276  1.2440  0.3582  0.2159
 8896SOL    HW238322   3.324   2.570   6.323 -0.6066 -0.6897  1.7385
 8897SOL     OW38323   3.405   3.171  12.084  0.3100  0.0816 -0.3249
 8897SOL    HW138324   3.484   3.225  12.079  0.4449  0.3004  4.2652
 8897SOL    HW238325   3.379   3.169  12.176  0.4517  2.1050 -0.2311
 8898SOL     OW38326   2.722   4.136   0.917  0.1370 -0.8852 -0.6456
 8898SOL    HW138327   2.681   4.067   0.866 -0.3075 -1.6101  0.6861
 8898SOL    HW238328   2.667   4.127   0.995  0.1322 -1.6625 -0.7396
 8899SOL     OW38329   3.390   3.299   3.421 -0.3418  0.3887 -0.8877
 8899SOL    HW138330   3.405   3.361   3.350 -0.7783  1.2511 -0.2312
 8899SOL    HW238331   3.345   3.355   3.484  0.9085 -0.0223  0.3587
 8900SOL     OW38332   1.692   1.458  15.450  0.2669  0.4391  0.4980
 8900SOL    HW138333   1.650   1.441  15.534  0.1418 -0.7912  0.1898
 8900SOL    HW238334   1.656   1.545  15.433  1.7101  0.5564 -1.9966
 8901SOL     OW38335   3.369   1.214   1.710  0.1076 -0.0002  0.6873
 8901SOL    HW138336   3.432   1.270   1.755  0.5134 -1.3597  1.8359
 8901SOL    HW238337   3.377   1.240   1.618  1.7670 -0.2760  0.7555
 8902SOL     OW38338   1.682   2.041   8.607 -0.3533  0.4170  0.1636
 8902SOL    HW138339   1.712   2.046   8.516 -0.8234  1.8915  0.0808
 8902SOL    HW238340   1.737   2.107   8.649  1.2774  1.5780 -3.8127
 8903SOL     OW38341   0.653   1.263   5.834 -0.4930  0.2085  0.0493
 8903SOL    HW138342   0.710   1.300   5.767 -0.0024  1.6267  1.2429
 8903SOL    HW238343   0.583   1.328   5.828  0.0802  0.7680 -0.4312
 8904SOL     OW38344   3.316   4.187   4.209 -0.3675 -0.1817 -0.0806
 8904SOL    HW138345   3.268   4.246   4.151  1.4990 -2.1008 -3.5850
 8904SOL    HW238346   3.393   4.170   4.154  1.3393  1.4638  1.7827
 8905SOL     OW38347   3.646   1.339   9.742 -0.2066 -0.5710  0.1794
 8905SOL    HW138348   3.562   1.364   9.780  0.2753  1.0035  0.1862
 8905SOL    HW238349   3.708   1.380   9.802 -1.0348 -0.1669  0.7584
 8906SOL     OW38350   3.289   1.729   3.573 -0.2157 -0.1922  0.2910
 8906SOL    HW138351   3.361   1.674   3.544 -0.1279  0.8258 -1.3903
 8906SOL    HW238352   3.276   1.785   3.497 -1.6983 -2.4785 -1.1483
 8907SOL     OW38353   1.365   2.722   6.367  0.1706  0.0224  0.3647
 8907SOL    HW138354   1.420   2.687   6.437  0.7092  3.0447  1.4606
 8907SOL    HW238355   1.401   2.810   6.356 -0.6318  0.3037  0.0042
 8908SOL     OW38356   1.277   0.026  15.932  0.0795 -0.4077  0.4489
 8908SOL    HW138357   1.231   4.681  15.915  0.3264 -0.2949 -0.7643
 8908SOL    HW238358   1.199   0.081  15.925 -0.6050 -1.4908 -0.4548
 8909SOL     OW38359   3.631   4.490   8.721 -0.1152 -0.1450  0.4263
 8909SOL    HW138360   3.590   4.565   8.676  2.1970  1.6606  1.3182
 8909SOL    HW238361   3.571   4.420   8.695 -1.5253  1.3051 -0.2855
 8910SOL     OW38362   1.590   4.439   3.352 -0.0508  0.2287 -0.1717
 8910SOL    HW138363   1.652   4.496   3.397 -0.3121  0.9433 -0.7062
 8910SOL    HW238364   1.577   4.471   3.263  0.8111 -0.3181 -0.4834
 8911SOL     OW38365   2.897   4.040  12.860  0.7171 -0.7508 -0.7282
 8911SOL    HW138366   2.917   4.012  12.950  2.3118 -0.2394 -0.9228
 8911SOL    HW238367   2.957   3.987  12.808  0.7669 -0.1206 -1.3068
 8912SOL     OW38368   2.502   2.334  12.029 -0.2403  0.0506  0.0645
 8912SOL    HW138369   2.408   2.347  12.013 -0.3229  1.4665  1.6912
 8912SOL    HW238370   2.497   2.358  12.122  0.3374 -2.3410  0.6924
 8913SOL     OW38371   4.047   0.411   3.169  0.0022  0.2774  0.3762
 8913SOL    HW138372   4.125   0.433   3.117 -0.4929  1.0655 -0.0482
 8913SOL    HW238373   4.029   0.324   3.134  0.1208  0.1994  0.5128
 8914SOL     OW38374   4.222   1.903  14.409  0.4343  0.7126  0.7739
 8914SOL    HW138375   4.146   1.845  14.413  2.7852 -2.4622 -0.8929
 8914SOL    HW238376   4.187   1.990  14.430 -2.0715  0.3851 -2.1078
 8915SOL     OW38377   2.224   0.516   5.450 -0.0178 -0.1628 -0.0210
 8915SOL    HW138378   2.141   0.535   5.405  0.8069  3.6543  0.1066
 8915SOL    HW238379   2.243   0.594   5.500  1.1190 -0.4082 -0.0781
 8916SOL     OW38380   1.424   0.120   4.186 -0.4197 -0.3967  0.6628
 8916SOL    HW138381   1.367   0.074   4.124  0.7480 -0.0981 -0.6297
 8916SOL    HW238382   1.513   0.098   4.159 -0.6269 -2.0069  1.2995
 8917SOL     OW38383   2.355   0.447   2.804  0.2571 -0.1582 -0.0904
 8917SOL    HW138384   2.416   0.501   2.853 -1.0829  0.7851  0.5529
 8917SOL    HW238385   2.295   0.512   2.768 -0.8295  0.5291  2.9552
 8918SOL     OW38386   4.042   2.510   7.924 -0.5062 -0.1812  0.3973
 8918SOL    HW138387   4.033   2.515   7.829 -0.2248  0.6650  0.4101
 8918SOL    HW238388   4.020   2.601   7.945 -1.4957  0.5861 -4.1123
 8919SOL     OW38389   4.120   0.017   1.675  0.1360 -0.3500  0.0684
 8919SOL    HW138390   4.214   0.021   1.689 -0.1641  2.5880  1.2728
 8919SOL    HW238391   4.092   0.109   1.668 -1.5262 -0.8922 -0.4612
 8920SOL     OW38392   2.630   0.209  11.752  0.0286 -0.1119 -0.7916
 8920SOL    HW138393   2.725   0.219  11.750  0.2831 -2.1087  1.2071
 8920SOL    HW238394   2.598   0.298  11.765  0.5280  0.2867 -2.3653
 8921SOL     OW38395   3.468   0.210   5.878  0.1117 -0.0324 -0.3286
 8921SOL    HW138396   3.413   0.144   5.835 -1.3969  0.3201  1.0838
 8921SOL    HW238397   3.432   0.295   5.852 -2.6857 -1.0446  0.2957
 8922SOL     OW38398   1.440   3.840   8.567 -0.1784  0.5396  0.3669
 8922SOL    HW138399   1.467   3.883   8.648  0.6798  0.0888  0.3172
 8922SOL    HW238400   1.510   3.778   8.549 -1.0722  0.3300 -2.3649
 8923SOL     OW38401   0.379   4.600   1.425  0.0421 -0.7267 -0.1042
 8923SOL    HW138402   0.315   4.535   1.456 -0.0459  0.2265  1.7642
 8923SOL    HW238403   0.365   4.675   1.483  0.5045 -0.6275 -0.1222
 8924SOL     OW38404   2.910   3.148   9.731  0.3266  0.3726  0.2563
 8924SOL    HW138405   2.857   3.106   9.663  0.1065  2.2504 -0.7293
 8924SOL    HW238406   2.848   3.185   9.793  0.5680 -0.0295  0.7321
 8925SOL     OW38407   1.213   4.556  16.254  0.0383 -0.3647 -0.5843
 8925SOL    HW138408   1.170   4.641  16.260 -1.7147 -0.9936 -4.0374
 8925SOL    HW238409   1.141   4.500  16.225 -0.2670  0.5631 -1.5879
 8926SOL     OW38410   1.542   2.961   2.409 -0.1725 -0.2165  0.2509
 8926SOL    HW138411   1.508   2.968   2.320 -0.1691 -0.1451  0.2551
 8926SOL    HW238412   1.559   2.867   2.410 -1.1294 -0.3882  0.4861
 8927SOL     OW38413   3.939   1.876   9.651 -0.6061 -0.3567  0.7259
 8927SOL    HW138414   3.904   1.911   9.734  0.0806 -0.1764  0.9379
 8927SOL    HW238415   3.917   1.784   9.668 -1.7667  0.0593  1.4627
 8928SOL     OW38416   4.070   3.531   6.104  0.2599 -0.7346  0.3759
 8928SOL    HW138417   4.048   3.620   6.130  2.8119  0.0289 -0.0742
 8928SOL    HW238418   4.049   3.534   6.011 -0.9320 -0.0586  0.6741
 8929SOL     OW38419   0.197   2.350   8.646  0.0959 -0.0075  0.6658
 8929SOL    HW138420   0.116   2.305   8.666  0.0528 -0.3494 -0.2754
 8929SOL    HW238421   0.231   2.365   8.734  1.4115  2.6359 -0.2882
 8930SOL     OW38422   1.002   0.542   9.377  0.2596 -0.1179  0.4445
 8930SOL    HW138423   1.064   0.552   9.305  0.8036  1.0409  1.0780
 8930SOL    HW238424   0.957   0.460   9.356 -1.9607  1.5809 -1.4584
 8931SOL     OW38425   0.450   2.237   3.913 -0.2965  0.0441  0.4629
 8931SOL    HW138426   0.520   2.302   3.902  0.0029 -0.5155 -0.8945
 8931SOL    HW238427   0.453   2.187   3.831  0.5792 -0.0483  0.5505
 8932SOL     OW38428   4.478   1.839  16.387 -0.1650  0.5211 -0.2841
 8932SOL    HW138429   4.407   1.903  16.390 -0.6885 -0.2396  3.4221
 8932SOL    HW238430   4.438   1.790  16.315 -1.1560  1.2239 -0.2119
 8933SOL     OW38431   3.741   3.918   2.488 -0.3114  0.1138  0.1012
 8933SOL    HW138432   3.750   3.823   2.495  2.1802  0.2324 -1.3104
 8933SOL    HW238433   3.834   3.937   2.475  0.0374 -0.4434  1.6914
 8934SOL     OW38434   2.687   2.180   1.109 -0.0547  0.0428 -0.4044
 8934SOL    HW138435   2.671   2.112   1.175 -0.8529  1.8479  1.2437
 8934SOL    HW238436   2.731   2.251   1.157  1.0141 -0.4739 -0.6187
 8935SOL     OW38437   0.864   0.576   1.893  0.2317 -0.9424  0.1987
 8935SOL    HW138438   0.836   0.499   1.942  1.3199 -0.3388  1.7646
 8935SOL    HW238439   0.952   0.588   1.928  1.6890 -2.2784 -2.9970
 8936SOL     OW38440   2.957   3.436   9.529 -0.2476 -0.1756  0.0345
 8936SOL    HW138441   2.893   3.505   9.545 -0.7436 -0.0570 -2.4018
 8936SOL    HW238442   3.005   3.470   9.453 -0.9655  1.8139  0.4863
 8937SOL     OW38443   1.378   3.372   4.237 -0.1177  0.0076 -0.0272
 8937SOL    HW138444   1.337   3.289   4.210  0.7924 -0.4098 -0.1123
 8937SOL    HW238445   1.303   3.416   4.277 -1.0154 -0.3389 -1.3354
 8938SOL     OW38446   3.095   4.545   4.704  0.5375 -0.2755 -0.7546
 8938SOL    HW138447   3.117   4.462   4.746  3.1112 -0.4236 -2.4536
 8938SOL    HW238448   3.039   4.511   4.634 -0.3754  0.1842 -0.2482
 8939SOL     OW38449   3.864   1.040   1.691  0.6991 -0.7666  0.3981
 8939SOL    HW138450   3.773   1.046   1.722  0.7447  1.4807  0.1278
 8939SOL    HW238451   3.859   0.968   1.628 -0.2796  0.7717 -1.3304
 8940SOL     OW38452   4.394   0.711   6.294 -0.7147 -0.1387 -0.2734
 8940SOL    HW138453   4.485   0.682   6.295 -0.9565 -0.9548 -1.8745
 8940SOL    HW238454   4.353   0.625   6.303 -1.2759  0.2124  0.4770
 8941SOL     OW38455   0.438   1.389   3.313 -0.6428 -0.1109  0.1462
 8941SOL    HW138456   0.354   1.347   3.328 -0.5187 -1.1998 -2.3131
 8941SOL    HW238457   0.432   1.395   3.218 -2.3678  0.7976  0.3213
 8942SOL     OW38458   2.435   1.685  11.398 -0.2898 -0.0767  0.1159
 8942SOL    HW138459   2.339   1.691  11.406 -0.3775 -0.9295 -0.2655
 8942SOL    HW238460   2.462   1.776  11.389  0.8144 -0.4518 -0.3712
 8943SOL     OW38461   4.132   0.739   1.493 -0.0390  0.0264  0.3007
 8943SOL    HW138462   4.133   0.686   1.573  0.6008  1.5943  1.3343
 8943SOL    HW238463   4.226   0.759   1.493  0.0525 -0.4131  0.9997
 8944SOL     OW38464   4.556   4.130   4.253 -0.2587  0.0452 -0.8061
 8944SOL    HW138465   4.476   4.124   4.201  0.3584  0.9429 -1.8621
 8944SOL    HW238466   4.519   4.190   4.318 -0.9509 -0.9331 -0.2933
 8945SOL     OW38467   0.918   1.777   5.189 -0.6761  0.0905 -0.3061
 8945SOL    HW138468   0.927   1.758   5.096 -1.2090 -2.6104  0.2072
 8945SOL    HW238469   1.010   1.761   5.209 -0.9256 -0.6226  0.2909
 8946SOL     OW38470   0.450   4.575  10.706  0.4214  0.2094  0.9292
 8946SOL    HW138471   0.392   4.514  10.662  1.3000 -0.0024  0.0533
 8946SOL    HW238472   0.535   4.558  10.665 -0.1572  1.5398 -0.8373
 8947SOL     OW38473   1.965   3.054   7.446  0.2313  0.3122 -0.1661
 8947SOL    HW138474   2.044   3.046   7.392  1.4302  0.2071  1.6189
 8947SOL    HW238475   1.928   3.135   7.409 -1.2119 -1.3483 -2.3273
 8948SOL     OW38476   0.099   3.569   7.486 -0.2789  0.0374 -0.0612
 8948SOL    HW138477   0.186   3.571   7.446 -0.9809 -1.0287 -1.6719
 8948SOL    HW238478   0.117   3.596   7.575  2.2862  1.3198 -0.9816
 8949SOL     OW38479   1.793   1.353   0.222  0.2002 -0.5169 -0.2579
 8949SOL    HW138480   1.747   1.273   0.247 -0.3988 -0.1253 -0.0848
 8949SOL    HW238481   1.885   1.327   0.226  0.6319  0.9429 -0.5932
 8950SOL     OW38482   2.964   0.275   5.582 -0.9498  0.5182  0.3002
 8950SOL    HW138483   2.980   0.239   5.669 -0.0863 -1.0310 -0.4961
 8950SOL    HW238484   3.003   0.207   5.526 -1.6026 -0.3721  0.9229
 8951SOL     OW38485   2.918   4.006   9.053  0.0686 -0.1938  0.0466
 8951SOL    HW138486   2.830   4.038   9.039 -0.2209  0.2766  2.8084
 8951SOL    HW238487   2.977   4.081   9.064 -0.1010 -0.2015  1.0105
 8952SOL     OW38488   0.269   4.348   8.950 -0.7611 -0.0030 -0.1359
 8952SOL    HW138489   0.209   4.279   8.978 -1.0867  0.0064 -0.8315
 8952SOL    HW238490   0.233   4.430   8.982 -0.6538 -0.4384  1.1009
 8953SOL     OW38491   3.232   2.010   5.306 -0.3884 -0.9869  0.3089
 8953SOL    HW138492   3.138   2.006   5.325 -1.0563  1.0296 -2.5835
 8953SOL    HW238493   3.271   2.007   5.393  0.2465 -3.0257 -0.0505
 8954SOL     OW38494   0.252   2.625   3.430  0.3322 -0.1611 -0.2216
 8954SOL    HW138495   0.186   2.579   3.483  0.8981 -0.7619 -0.0329
 8954SOL    HW238496   0.273   2.561   3.361 -0.9138 -0.0453 -0.7203
 8955SOL     OW38497   1.845   4.427   2.694 -0.1171 -0.2213 -0.3030
 8955SOL    HW138498   1.884   4.425   2.781 -1.7468 -0.6279  0.4186
 8955SOL    HW238499   1.837   4.522   2.685 -1.6662 -0.5567 -2.4899
 8956SOL     OW38500   1.612   0.353  11.322  0.1314 -0.0988  0.0691
 8956SOL    HW138501   1.568   0.341  11.238 -0.8675 -1.1379  0.7436
 8956SOL    HW238502   1.659   0.434  11.303  0.6507 -0.2189  0.8445
 8957SOL     OW38503   1.834   2.532   7.352  0.6765  0.3720  0.9276
 8957SOL    HW138504   1.751   2.486   7.338  2.0427 -1.1093 -2.5183
 8957SOL    HW238505   1.855   2.554   7.261 -1.6204 -2.3568 -0.2683
 8958SOL     OW38506   3.352   3.601   8.582 -0.2775  0.0316  0.5761
 8958SOL    HW138507   3.366   3.507   8.568 -0.1688  0.1019  0.2299
 8958SOL    HW238508   3.302   3.620   8.503 -1.1125  0.6832  1.2473
 8959SOL     OW38509   2.947   3.137   4.907 -0.1135 -0.0711  0.1298
 8959SOL    HW138510   3.014   3.205   4.914 -0.1727 -0.1108  0.9997
 8959SOL    HW238511   2.975   3.078   4.977 -1.3304 -3.2219 -2.0333
 8960SOL     OW38512   1.479   0.475   2.801  0.3806  0.2770  0.2659
 8960SOL    HW138513   1.409   0.472   2.735 -1.1133  0.0671  1.8641
 8960SOL    HW238514   1.460   0.545   2.863  1.4534 -0.1485  1.0754
 8961SOL     OW38515   4.375   0.132   6.210 -0.1253  0.0105 -0.0914
 8961SOL    HW138516   4.365   0.050   6.162  0.3062  1.9743 -3.5805
 8961SOL    HW238517   4.418   0.112   6.293  1.1894  1.7426 -0.3555
 8962SOL     OW38518   4.686   4.188  14.025  0.7120  0.3366 -0.7336
 8962SOL    HW138519   4.666   4.096  14.042 -0.0066  0.8075  0.9531
 8962SOL    HW238520   0.023   4.182  13.964  1.6486  0.5768  0.3943
 8963SOL     OW38521   4.036   2.750   3.294  0.0060 -0.7616  0.3009
 8963SOL    HW138522   3.942   2.759   3.280 -0.2242 -1.7598  1.2541
 8963SOL    HW238523   4.054   2.656   3.289  1.7629 -0.2610 -2.7116
 8964SOL     OW38524   0.481   2.821   0.095 -0.1113 -0.5373 -0.1717
 8964SOL    HW138525   0.521   2.907   0.110 -0.3744 -0.6046  0.9436
 8964SOL    HW238526   0.493   2.803   0.002 -1.4393 -0.8151 -0.2844
 8965SOL     OW38527   2.873   0.916   3.386  0.6051  0.2635 -0.4657
 8965SOL    HW138528   2.892   1.008   3.371 -0.6167  0.5969  0.0318
 8965SOL    HW238529   2.867   0.909   3.481 -1.8730 -2.5547 -0.8014
 8966SOL     OW38530   3.929   2.325  16.250  0.0075 -0.6497  0.4247
 8966SOL    HW138531   3.912   2.280  16.167 -1.5047  1.2871 -0.3270
 8966SOL    HW238532   3.988   2.398  16.230 -0.8218 -0.1346 -0.1465
 8967SOL     OW38533   0.441   0.962   3.428 -0.3979  0.3874 -0.3894
 8967SOL    HW138534   0.366   1.017   3.405  1.6041  2.5887 -1.6318
 8967SOL    HW238535   0.502   1.026   3.464 -0.9436  0.1409  0.9706
 8968SOL     OW38536   1.949   1.740   3.219  0.0013 -0.2578  0.3391
 8968SOL    HW138537   1.995   1.657   3.231 -0.3273 -0.4095  0.5604
 8968SOL    HW238538   2.023   1.793   3.250 -1.2123  2.7989 -1.9778
 8969SOL     OW38539   1.292   4.589   4.063  0.3687  0.4036 -0.1248
 8969SOL    HW138540   1.288   4.592   3.967 -1.2711 -1.2366 -0.1184
 8969SOL    HW238541   1.203   4.554   4.070  0.3468  0.9104  2.0315
 8970SOL     OW38542   3.741   0.943   3.982  0.6544  0.0364  0.1232
 8970SOL    HW138543   3.658   0.902   4.006 -0.7563  1.7532 -1.8316
 8970SOL    HW238544   3.779   0.969   4.065 -3.1835 -1.2669  2.2920
 8971SOL     OW38545   0.012   1.719   1.498  0.7377 -0.0303 -0.4943
 8971SOL    HW138546   4.695   1.709   1.576  0.0736  1.9240 -0.7077
 8971SOL    HW238547   0.048   1.633   1.479  0.2702 -0.1582 -0.8040
 8972SOL     OW38548   2.118   1.181  15.081 -0.7067 -0.1577  0.6420
 8972SOL    HW138549   2.033   1.137  15.084 -1.7817  1.9763  1.8483
 8972SOL    HW238550   2.171   1.117  15.033 -0.7338  0.8032 -0.6655
 8973SOL     OW38551   0.041   2.694  12.946  0.3155 -0.1743  0.1101
 8973SOL    HW138552   4.720   2.688  13.021  1.3898 -1.6618  0.8356
 8973SOL    HW238553   0.082   2.608  12.956  0.6980 -0.0824 -0.6349
 8974SOL     OW38554   4.523   4.520   5.789  0.0494 -0.9018  0.3608
 8974SOL    HW138555   4.501   4.601   5.835  0.0916 -1.1858  0.8848
 8974SOL    HW238556   4.487   4.542   5.703 -0.4304 -1.3673  0.4382
 8975SOL     OW38557   2.230   4.610   3.300 -0.1161  0.4482 -0.2179
 8975SOL    HW138558   2.318   4.604   3.263 -0.3575 -1.0602 -0.5260
 8975SOL    HW238559   2.182   4.629   3.220 -0.7020  1.8994  0.4719
 8976SOL     OW38560   0.372   0.631   6.133  0.2105 -0.5701  0.1978
 8976SOL    HW138561   0.335   0.703   6.184  2.0828 -0.9810  2.1272
 8976SOL    HW238562   0.380   0.668   6.045  0.9918 -0.2279  0.4157
 8977SOL     OW38563   1.704   0.185   3.330 -0.7809 -0.3833  0.2070
 8977SOL    HW138564   1.610   0.205   3.326 -0.2755  1.8835 -0.1607
 8977SOL    HW238565   1.755   0.265   3.342  0.0674 -1.0171  0.8290
 8978SOL     OW38566   3.469   2.724   8.511  0.9651 -0.1187 -0.1732
 8978SOL    HW138567   3.415   2.705   8.588 -2.9507  1.0169 -2.6139
 8978SOL    HW238568   3.453   2.652   8.451 -0.4591  1.5756 -1.8393
 8979SOL     OW38569   1.603   1.074  15.033  0.9991 -0.0974 -0.3837
 8979SOL    HW138570   1.516   1.056  15.070  0.2823 -0.1891 -2.1065
 8979SOL    HW238571   1.571   1.052  14.945 -0.6443 -0.0518  0.1991
 8980SOL     OW38572   0.803   4.353  11.888  0.0375  0.5184  0.2349
 8980SOL    HW138573   0.742   4.290  11.849  1.7722 -1.3424  0.5674
 8980SOL    HW238574   0.886   4.337  11.844  0.0595  0.8584  0.1531
 8981SOL     OW38575   4.052   3.030  12.781  0.2227 -0.8219 -0.3752
 8981SOL    HW138576   4.129   3.022  12.838  0.0755 -0.1244 -0.0742
 8981SOL    HW238577   4.007   2.948  12.800 -1.0480 -0.2520 -0.9404
 8982SOL     OW38578   2.899   1.846   3.229 -0.3584  0.1253  0.3957
 8982SOL    HW138579   2.847   1.908   3.279 -2.1691 -0.9389 -0.1694
 8982SOL    HW238580   2.986   1.884   3.244 -0.0706  0.8321 -3.0243
 8983SOL     OW38581   4.568   2.711   7.071 -0.2603  0.6872  0.1979
 8983SOL    HW138582   4.646   2.656   7.085 -1.2165 -0.2925  1.6624
 8983SOL    HW238583   4.610   2.797   7.071 -0.2274  0.6668  1.7696
 8984SOL     OW38584   1.571   1.864  14.297  0.1366  0.0106  0.8668
 8984SOL    HW138585   1.563   1.783  14.247 -0.8385  0.4869  0.2515
 8984SOL    HW238586   1.550   1.934  14.235  0.9787 -1.6978 -1.3365
 8985SOL     OW38587   1.623   2.400   5.398 -0.3228  0.0213 -0.0273
 8985SOL    HW138588   1.659   2.315   5.373  1.1687  0.2266  1.5033
 8985SOL    HW238589   1.689   2.445   5.450  0.6175  0.1457 -1.3144
 8986SOL     OW38590   2.895   3.059   3.412 -0.6806 -0.7365 -0.1811
 8986SOL    HW138591   2.867   3.075   3.322 -1.4257 -1.5660 -0.0948
 8986SOL    HW238592   2.874   3.141   3.457 -1.8068 -0.9407 -0.3392
 8987SOL     OW38593   2.697   2.112  17.087  0.0606  0.1856 -0.4358
 8987SOL    HW138594   2.732   2.178  17.027 -0.9451  2.0790  1.0724
 8987SOL    HW238595   2.666   2.054  17.016  0.3543 -0.7395  0.1906
 8988SOL     OW38596   0.479   3.574  12.051  0.6812  0.3959 -0.5040
 8988SOL    HW138597   0.417   3.503  12.038  1.8180 -0.6401 -0.3013
 8988SOL    HW238598   0.548   3.540  11.994 -0.2134 -2.4020  0.0947
 8989SOL     OW38599   4.732   3.520  10.707  0.4589  0.3948  0.0909
 8989SOL    HW138600   4.705   3.499  10.796 -2.8057  2.6666 -0.3848
 8989SOL    HW238601   0.064   3.585  10.724 -0.0525  1.2558 -1.0249
 8990SOL     OW38602   3.619   0.944   8.756 -0.2574  0.3041  0.0549
 8990SOL    HW138603   3.696   0.897   8.723 -0.4951  0.6425 -0.9845
 8990SOL    HW238604   3.548   0.886   8.731 -0.5819  0.2080  1.1835
 8991SOL     OW38605   0.924   1.513   1.353 -0.2723  0.3755 -0.0849
 8991SOL    HW138606   0.871   1.593   1.340 -2.3114 -0.5616  2.3752
 8991SOL    HW238607   0.975   1.513   1.272 -1.0804 -1.5015 -0.5887
 8992SOL     OW38608   0.245   1.188   2.112 -0.1105 -0.1124 -0.3714
 8992SOL    HW138609   0.292   1.269   2.130 -2.1745  0.7055  1.3631
 8992SOL    HW238610   0.290   1.113   2.152 -0.4145  1.4080  2.8157
 8993SOL     OW38611   1.500   2.390   3.702 -0.2354 -0.6126  0.1769
 8993SOL    HW138612   1.550   2.464   3.667  0.1014  0.0285  2.0100
 8993SOL    HW238613   1.416   2.431   3.683  1.5214  2.8673 -0.1213
 8994SOL     OW38614   3.751   0.520   3.695  0.3317  0.1406  0.1145
 8994SOL    HW138615   3.758   0.616   3.695  1.9300  0.0222 -2.2805
 8994SOL    HW238616   3.806   0.499   3.771 -1.8782 -1.2596  1.3360
 8995SOL     OW38617   4.340   1.176   4.946 -0.1270  0.0547  0.2734
 8995SOL    HW138618   4.414   1.116   4.936  0.6537  0.8366  1.3727
 8995SOL    HW238619   4.335   1.170   5.042  0.9483 -0.7783  0.2778
 8996SOL     OW38620   0.942   2.280   5.252  0.5549 -0.0074  0.3393
 8996SOL    HW138621   1.012   2.304   5.191 -0.0608 -2.4333 -1.3039
 8996SOL    HW238622   0.990   2.300   5.332  1.0641  2.7229 -0.6456
 8997SOL     OW38623   2.572   1.431  17.618  0.0211  0.1658  0.5132
 8997SOL    HW138624   2.614   1.442  17.533 -1.3572 -1.3030 -0.3468
 8997SOL    HW238625   2.509   1.503  17.618 -0.2886 -0.0972  2.2596
 8998SOL     OW38626   0.957   0.071  14.586  0.3024 -0.0691 -0.3420
 8998SOL    HW138627   0.940   0.164  14.601  1.9542 -0.0570  1.4276
 8998SOL    HW238628   1.006   0.068  14.504 -0.4453  0.7896 -0.8078
 8999SOL     OW38629   0.720   3.079   3.966 -0.1102  0.6057  0.2676
 8999SOL    HW138630   0.672   3.160   3.986 -1.4382 -0.7997  2.6471
 8999SOL    HW238631   0.656   3.020   3.926 -2.0382  0.6050  3.3768
 9000SOL     OW38632   4.298   2.293   4.418  0.5584  0.8012  0.3569
 9000SOL    HW138633   4.372   2.328   4.467 -0.1123  2.9383 -0.1733
 9000SOL    HW238634   4.222   2.329   4.464  0.2395  1.7138 -0.8796
 9001SOL     OW38635   0.056   3.125   4.143  0.4597  0.0846  0.6674
 9001SOL    HW138636   0.039   3.043   4.188  0.3125 -0.1586  0.1707
 9001SOL    HW238637   0.097   3.186   4.204 -0.1508  0.8706  0.2974
 9002SOL     OW38638   0.922   2.952   0.450 -0.2973  0.4023 -0.4837
 9002SOL    HW138639   0.887   2.964   0.361  2.4555  0.3640 -1.5687
 9002SOL    HW238640   0.878   2.871   0.477  4.4365 -1.4244  1.6716
 9003SOL     OW38641   1.689   0.605   5.965 -0.3203  0.0000 -0.1282
 9003SOL    HW138642   1.729   0.560   6.040  2.4874 -0.8014 -2.1059
 9003SOL    HW238643   1.632   0.668   6.009  0.6386  0.6963  0.1298
 9004SOL     OW38644   3.780   2.263   9.092  0.0638 -0.1047 -0.5297
 9004SOL    HW138645   3.725   2.221   9.026  0.7522 -0.5716 -0.8065
 9004SOL    HW238646   3.716   2.299   9.153 -1.0230  1.0622 -2.3611
 9005SOL     OW38647   3.377   2.797   9.220 -0.3563  0.4553  0.5097
 9005SOL    HW138648   3.327   2.786   9.139  1.6215 -1.7134 -0.4335
 9005SOL    HW238649   3.314   2.768   9.285  0.7769 -2.3598  0.3647
 9006SOL     OW38650   0.343   3.083   2.800  0.3732 -0.5954  0.0920
 9006SOL    HW138651   0.290   3.108   2.875  0.3274 -0.7356  0.1066
 9006SOL    HW238652   0.402   3.014   2.830  0.6011 -0.8231 -0.8610
 9007SOL     OW38653   1.685   0.780   6.705  0.1765 -0.4736  0.7348
 9007SOL    HW138654   1.607   0.740   6.666 -1.3853  1.9302  1.4028
 9007SOL    HW238655   1.747   0.708   6.696  1.0495  0.7530 -3.0325
 9008SOL     OW38656   3.120   4.563   5.511 -0.6039 -0.6031  0.1217
 9008SOL    HW138657   3.101   4.654   5.488  2.4734 -0.0784 -0.3323
 9008SOL    HW238658   3.035   4.522   5.521 -1.3108  0.8586  0.1718
 9009SOL     OW38659   1.226   1.313   9.601  0.5349 -0.1846  0.5418
 9009SOL    HW138660   1.274   1.356   9.672  1.0005  1.4918 -0.8005
 9009SOL    HW238661   1.138   1.351   9.600 -0.9186 -3.5495 -0.7704
 9010SOL     OW38662   1.831   2.179   1.751  0.0881  0.2266  0.0273
 9010SOL    HW138663   1.909   2.152   1.799  0.5902 -1.7680 -1.9689
 9010SOL    HW238664   1.812   2.268   1.781 -2.0495  0.5215 -2.2396
 9011SOL     OW38665   0.286   1.583   2.131  0.0517  0.2746 -0.3288
 9011SOL    HW138666   0.320   1.502   2.168  0.9063  0.6511 -0.2921
 9011SOL    HW238667   0.359   1.607   2.074  0.8360 -0.7045  0.2696
 9012SOL     OW38668   3.175   0.971  10.445  1.0753  0.0571 -0.0074
 9012SOL    HW138669   3.162   0.955  10.538  0.4879 -0.0130 -0.0975
 9012SOL    HW238670   3.167   0.884  10.407 -0.8785  0.4586 -0.5466
 9013SOL     OW38671   2.848   4.395  10.572  0.3186 -0.4738 -0.3216
 9013SOL    HW138672   2.929   4.407  10.522 -0.7087  2.2615 -1.3075
 9013SOL    HW238673   2.811   4.483  10.571 -0.7033 -0.9341 -2.0580
 9014SOL     OW38674   3.174   3.341  13.693  0.4848 -0.2618  0.2239
 9014SOL    HW138675   3.193   3.330  13.600  0.6376  0.5449  0.1555
 9014SOL    HW238676   3.256   3.310  13.731  0.5999 -0.1756  0.0436
 9015SOL     OW38677   3.122   4.081  11.743 -0.1684  0.0358 -0.4671
 9015SOL    HW138678   3.042   4.112  11.700  1.2234  1.3514 -2.1382
 9015SOL    HW238679   3.183   4.155  11.736 -1.9438  1.6522  1.2793
 9016SOL     OW38680   1.191   4.278   1.144 -0.0904  0.5722 -0.1564
 9016SOL    HW138681   1.275   4.300   1.187  0.2671  1.3435 -1.2568
 9016SOL    HW238682   1.136   4.333   1.200 -0.3771  0.7471 -0.6191
 9017SOL     OW38683   0.128   0.822   7.760  0.0042  0.0669 -0.2133
 9017SOL    HW138684   0.188   0.897   7.760  1.1848 -0.8879  0.0070
 9017SOL    HW238685   0.172   0.761   7.820 -1.8723 -0.9640  0.1056
 9018SOL     OW38686   4.114   1.935   5.233 -0.5014  0.0337  0.5111
 9018SOL    HW138687   4.198   1.911   5.193  0.9850 -0.2556  3.8763
 9018SOL    HW238688   4.067   1.963   5.154  0.6954 -1.0482 -0.5896
 9019SOL     OW38689   3.318   1.100  11.490  0.1843 -0.6964  0.0274
 9019SOL    HW138690   3.387   1.103  11.556  0.3030 -0.6053 -0.1019
 9019SOL    HW238691   3.243   1.048  11.519  0.7538 -0.2996  2.2117
 9020SOL     OW38692   3.061   3.820  11.656 -0.1879  0.0045 -0.2224
 9020SOL    HW138693   3.020   3.767  11.725  0.3644 -2.5122 -1.8416
 9020SOL    HW238694   3.103   3.880  11.718  1.2887 -1.3560  0.0680
 9021SOL     OW38695   3.986   3.196   0.460 -0.1137 -0.5524  0.1713
 9021SOL    HW138696   3.930   3.133   0.508 -1.0316 -1.7342 -2.4522
 9021SOL    HW238697   4.050   3.136   0.423  2.2715  1.9421  0.3332
 9022SOL     OW38698   1.172   0.169  12.739 -0.9215  1.1051 -0.2091
 9022SOL    HW138699   1.165   0.136  12.828  0.2830  2.4065  0.3753
 9022SOL    HW238700   1.248   0.227  12.751 -0.9006  1.0935 -0.2839
 9023SOL     OW38701   0.019   3.260   8.069 -0.6101  0.2256  0.0534
 9023SOL    HW138702   0.076   3.331   8.100 -0.1705  0.9943 -2.5797
 9023SOL    HW238703   0.001   3.205   8.146  0.3371 -1.0606 -0.6432
 9024SOL     OW38704   2.889   4.036   8.558  0.4873 -0.0696 -0.3334
 9024SOL    HW138705   2.949   4.099   8.518 -0.6681  0.0640 -1.8825
 9024SOL    HW238706   2.807   4.057   8.514  0.3296  0.2929  0.1395
 9025SOL     OW38707   3.377   1.190   9.534 -0.8619 -0.9725  0.1540
 9025SOL    HW138708   3.303   1.133   9.554  1.7117 -3.5096  2.4747
 9025SOL    HW238709   3.330   1.263   9.493 -0.5519  0.2170  1.9207
 9026SOL     OW38710   3.513   3.045  17.466 -0.1295 -0.2307 -0.7326
 9026SOL    HW138711   3.485   3.132  17.439 -1.5743 -1.0069 -1.6993
 9026SOL    HW238712   3.593   3.033  17.415 -0.8437 -1.4485 -1.5440
 9027SOL     OW38713   0.130   4.036   6.319 -0.2279 -0.1063 -0.0996
 9027SOL    HW138714   0.085   4.091   6.383  1.1007  0.4013  0.3824
 9027SOL    HW238715   0.170   4.108   6.270 -1.1487 -0.4151 -1.3191
 9028SOL     OW38716   3.725   1.656  10.749 -0.5829 -0.3350  0.2724
 9028SOL    HW138717   3.655   1.613  10.797  0.0411 -0.8185  0.7512
 9028SOL    HW238718   3.786   1.582  10.742  2.3748  2.1058  0.2533
 9029SOL     OW38719   0.107   2.611   7.076 -0.3497  0.0302 -0.1598
 9029SOL    HW138720   0.128   2.523   7.107 -1.5574 -0.6927 -1.4143
 9029SOL    HW238721   0.184   2.615   7.019 -1.6513  0.8608 -1.8351
 9030SOL     OW38722   1.169   1.206   6.307  0.2674 -0.1001  0.0338
 9030SOL    HW138723   1.232   1.170   6.370 -1.2594 -1.2472  0.9026
 9030SOL    HW238724   1.230   1.261   6.258  0.7353 -0.1944  0.5030
 9031SOL     OW38725   1.419   4.621  16.086  0.2493  0.4639 -0.0384
 9031SOL    HW138726   1.337   4.593  16.126  0.2724  0.1135 -0.2385
 9031SOL    HW238727   1.383   4.686  16.026 -1.2320  0.0561  0.4061
 9032SOL     OW38728   4.340   0.934   6.154 -0.3072  0.1949 -0.1799
 9032SOL    HW138729   4.350   0.866   6.220 -1.0049  1.9521  1.7486
 9032SOL    HW238730   4.407   0.921   6.087 -0.4846 -0.7159 -0.1736
 9033SOL     OW38731   3.598   0.179   1.460 -0.5535 -0.4687  0.4577
 9033SOL    HW138732   3.528   0.218   1.513 -1.1508 -0.4087 -0.3802
 9033SOL    HW238733   3.574   0.198   1.370  1.0103 -1.9195 -0.2556
 9034SOL     OW38734   2.364   4.392   8.337 -0.2700  0.2237  0.6159
 9034SOL    HW138735   2.275   4.389   8.373  0.2334  2.4595  2.0156
 9034SOL    HW238736   2.406   4.312   8.371 -1.1704 -1.0464 -1.2551
 9035SOL     OW38737   3.795   0.941   2.057  0.2029 -0.1169  0.0563
 9035SOL    HW138738   3.720   0.906   2.009 -0.4010  1.2370  0.0071
 9035SOL    HW238739   3.757   1.028   2.068  3.0684  1.4155 -2.2350
 9036SOL     OW38740   0.818   4.561   7.716 -0.0605 -0.1463 -0.5162
 9036SOL    HW138741   0.770   4.643   7.717  0.8902  0.4177 -1.0139
 9036SOL    HW238742   0.835   4.547   7.623  0.5888  2.5898 -0.8186
 9037SOL     OW38743   4.184   3.686  16.279  0.2170 -0.1168  0.0151
 9037SOL    HW138744   4.194   3.608  16.225 -1.6921 -0.0304 -0.4801
 9037SOL    HW238745   4.089   3.695  16.285  0.1202 -0.1922 -1.3405
 9038SOL     OW38746   1.344   0.683   5.341  0.3749 -0.4029  0.2293
 9038SOL    HW138747   1.275   0.651   5.400  2.8980 -0.7646  3.0025
 9038SOL    HW238748   1.356   0.767   5.386  2.4890 -1.0425  0.8714
 9039SOL     OW38749   1.643   4.411   8.452 -0.1358  0.0503 -0.1782
 9039SOL    HW138750   1.565   4.457   8.482 -0.4656  0.0039 -0.9696
 9039SOL    HW238751   1.699   4.418   8.529 -2.3455  0.1393  1.3932
 9040SOL     OW38752   3.126   2.852   7.496 -0.3007 -0.3064 -0.4545
 9040SOL    HW138753   3.204   2.863   7.441 -0.1468 -2.1052 -0.5888
 9040SOL    HW238754   3.125   2.762   7.526 -1.4247 -0.1423  0.0055
 9041SOL     OW38755   2.484   4.515   6.901  0.0871 -0.5507 -0.1368
 9041SOL    HW138756   2.391   4.537   6.899 -0.0620 -1.0968  0.7507
 9041SOL    HW238757   2.507   4.527   6.809 -0.8243  0.8704 -0.1851
 9042SOL     OW38758   2.363   4.069   3.878  0.2548 -0.5377 -0.3044
 9042SOL    HW138759   2.420   4.137   3.840  0.7305 -0.1049  1.1693
 9042SOL    HW238760   2.280   4.086   3.833  0.6969  0.1142 -0.8816
 9043SOL     OW38761   3.313   4.538  15.640 -0.0241  0.2717  0.3336
 9043SOL    HW138762   3.348   4.449  15.635 -0.5527  0.1072 -0.4288
 9043SOL    HW238763   3.283   4.548  15.549 -1.7527 -1.3597  0.7315
 9044SOL     OW38764   0.420   3.799   8.466 -0.2675  0.5600  0.1107
 9044SOL    HW138765   0.381   3.824   8.550  1.6351 -1.5491  1.6118
 9044SOL    HW238766   0.444   3.883   8.427  0.2735  0.5776  0.4704
 9045SOL     OW38767   1.794   2.399   5.899 -0.1549  0.1686 -0.0054
 9045SOL    HW138768   1.746   2.454   5.836  0.4432  1.5957  0.7969
 9045SOL    HW238769   1.739   2.321   5.894 -0.8599  0.6620 -0.0337
 9046SOL     OW38770   1.861   4.573  15.422 -0.1293 -0.2652 -1.0986
 9046SOL    HW138771   1.911   4.524  15.357  2.3612 -0.0599  0.6804
 9046SOL    HW238772   1.775   4.558  15.382 -0.4502 -0.1734 -0.4480
 9047SOL     OW38773   3.084   3.358   4.320  0.6304  0.1422 -0.6283
 9047SOL    HW138774   3.015   3.334   4.382  2.9104  1.4872  2.4193
 9047SOL    HW238775   3.103   3.269   4.289 -0.6190 -0.4256  0.2170
 9048SOL     OW38776   0.266   0.238   2.783 -0.2021  0.2567 -0.4392
 9048SOL    HW138777   0.314   0.304   2.731 -0.1264 -1.5283 -2.6319
 9048SOL    HW238778   0.191   0.277   2.827 -0.7452 -1.0412 -0.2401
 9049SOL     OW38779   1.282   3.785   5.202 -0.5614  0.2455 -0.0923
 9049SOL    HW138780   1.334   3.731   5.144  1.5795 -0.4062  2.4261
 9049SOL    HW238781   1.269   3.859   5.143  1.3268  0.2021 -0.5517
 9050SOL     OW38782   2.818   0.087  17.053  0.0666  0.3738  0.1919
 9050SOL    HW138783   2.807   0.045  17.139 -1.2746 -1.1356 -0.7270
 9050SOL    HW238784   2.726   0.089  17.028 -0.1617 -3.7320  0.7193
 9051SOL     OW38785   2.087   1.569   1.882  0.0633 -0.4863  0.0298
 9051SOL    HW138786   2.141   1.490   1.879  0.7559 -0.0131  0.1291
 9051SOL    HW238787   2.149   1.639   1.861  1.1451 -0.8352  2.1135
 9052SOL     OW38788   4.264   4.515  11.889 -0.1755  0.7489 -0.1339
 9052SOL    HW138789   4.179   4.558  11.905  0.2696  0.9111  1.8413
 9052SOL    HW238790   4.307   4.548  11.968  0.3466  2.6401 -1.2017
 9053SOL     OW38791   3.083   3.895   4.071 -0.0938 -0.0646 -0.4402
 9053SOL    HW138792   3.054   3.862   3.986  1.3730  1.5016 -1.5576
 9053SOL    HW238793   3.178   3.906   4.066 -0.3625  1.3321 -2.5470
 9054SOL     OW38794   2.702   1.519   2.861 -0.1564 -0.2828  0.3153
 9054SOL    HW138795   2.737   1.538   2.948  0.4926 -0.2435  0.0442
 9054SOL    HW238796   2.692   1.602   2.814  1.6774  0.2303  0.8304
 9055SOL     OW38797   1.115   4.657  17.011 -0.4397 -0.1753 -0.3781
 9055SOL    HW138798   1.080   4.589  16.953  1.3703 -0.1845 -1.4592
 9055SOL    HW238799   1.205   4.658  16.979 -0.8669  1.0394 -1.5637
 9056SOL     OW38800   0.081   2.741  11.639 -0.6730  0.2962  0.1436
 9056SOL    HW138801   0.039   2.785  11.564  0.3795  0.3476 -0.4096
 9056SOL    HW238802   0.145   2.810  11.654  0.6682 -0.7000 -0.9494
 9057SOL     OW38803   1.090   0.470  15.366 -0.0778 -0.7382 -0.3773
 9057SOL    HW138804   1.009   0.419  15.375 -0.5744  0.0657 -0.2720
 9057SOL    HW238805   1.120   0.433  15.283  0.7648  0.3839 -0.5740
 9058SOL     OW38806   3.876   2.501  16.793 -0.4935  0.0441  0.0994
 9058SOL    HW138807   3.813   2.494  16.864 -0.5171 -1.5521 -0.0737
 9058SOL    HW238808   3.956   2.463  16.830 -1.9942 -1.2367  2.0212
 9059SOL     OW38809   1.851   0.633   7.561  0.2959  0.0568 -0.3079
 9059SOL    HW138810   1.797   0.658   7.487  3.9110  2.4759 -2.1283
 9059SOL    HW238811   1.790   0.590   7.621  0.0284  1.5868  0.5311
 9060SOL     OW38812   2.972   3.627   3.348 -0.0114  0.4243 -0.5240
 9060SOL    HW138813   2.885   3.634   3.309 -0.8208 -2.5005  0.7285
 9060SOL    HW238814   3.014   3.564   3.290 -1.4711 -1.5128  0.5045
 9061SOL     OW38815   4.704   3.540   5.046 -0.0640  0.5642  0.0968
 9061SOL    HW138816   4.716   3.452   5.080 -1.1164  0.7391  0.9159
 9061SOL    HW238817   0.047   3.589   5.064 -0.0822  0.9376 -0.8534
 9062SOL     OW38818   2.648   1.845   2.218 -0.2078 -0.3216  0.0910
 9062SOL    HW138819   2.738   1.868   2.242 -0.4958 -0.5616  1.4177
 9062SOL    HW238820   2.640   1.861   2.124  0.4671  1.0201  0.2572
 9063SOL     OW38821   0.358   3.706   2.391  0.6039 -0.8159  0.1507
 9063SOL    HW138822   0.435   3.746   2.433  1.0297  0.3535 -1.7176
 9063SOL    HW238823   0.287   3.760   2.426  0.2926  0.2819 -2.1251
 9064SOL     OW38824   3.509   1.743   5.424 -0.1303  0.1239  0.5170
 9064SOL    HW138825   3.525   1.694   5.504 -1.1423  1.3696  1.4873
 9064SOL    HW238826   3.579   1.719   5.363  0.1121  0.6019  0.6041
 9065SOL     OW38827   1.653   3.550   9.754  0.3804  0.2458  0.4825
 9065SOL    HW138828   1.577   3.500   9.723 -0.7534  1.9920  0.4495
 9065SOL    HW238829   1.625   3.613   9.821 -0.0557  1.5735 -0.9516
 9066SOL     OW38830   3.959   0.414   3.439  0.3575  0.1483 -0.3259
 9066SOL    HW138831   3.983   0.325   3.463  1.4658  1.0410  1.8872
 9066SOL    HW238832   3.997   0.417   3.351 -0.7533  0.4789 -0.8053
 9067SOL     OW38833   4.260   3.705   6.368  0.3098  0.8663 -0.1901
 9067SOL    HW138834   4.341   3.717   6.417 -0.0503  2.1683  0.0815
 9067SOL    HW238835   4.284   3.636   6.306 -0.8285  0.4531 -0.1726
 9068SOL     OW38836   1.571   1.795   7.480  0.1019 -0.0087 -0.1039
 9068SOL    HW138837   1.663   1.821   7.489  0.1208 -0.2062  0.2930
 9068SOL    HW238838   1.540   1.831   7.563 -1.0230  1.2879 -1.0769
 9069SOL     OW38839   0.002   3.391   6.485 -0.0394  0.1753  0.1650
 9069SOL    HW138840   4.649   3.412   6.462 -0.6053 -0.3363  1.9268
 9069SOL    HW238841   4.729   3.398   6.580  1.8995 -0.3096  0.4064
 9070SOL     OW38842   3.254   2.211  13.088 -0.1322 -0.2628 -0.2219
 9070SOL    HW138843   3.216   2.131  13.125 -0.5907  0.0888  0.0681
 9070SOL    HW238844   3.327   2.169  13.043  0.0066  0.0214 -0.2568
 9071SOL     OW38845   2.949   3.347  14.702  0.6032  0.4566  0.3244
 9071SOL    HW138846   2.927   3.406  14.630  0.8580  0.3565  0.1636
 9071SOL    HW238847   2.924   3.267  14.655  4.8007 -0.3500 -0.5061
 9072SOL     OW38848   1.308   3.725   9.356 -0.4541 -0.0719  0.2288
 9072SOL    HW138849   1.375   3.712   9.423 -2.9385  0.5614  2.8256
 9072SOL    HW238850   1.243   3.753   9.420  0.3930  0.0261  1.0550
 9073SOL     OW38851   2.281   2.411   4.700 -0.4844  0.1697  0.0697
 9073SOL    HW138852   2.263   2.367   4.617  0.6080  1.2477 -0.7405
 9073SOL    HW238853   2.282   2.505   4.680 -3.1538  0.2133  0.1367
 9074SOL     OW38854   1.541   0.995   9.644 -0.3088  0.7532 -0.2692
 9074SOL    HW138855   1.465   1.021   9.593 -1.6636  2.4147  2.5923
 9074SOL    HW238856   1.504   0.980   9.731  1.0369 -1.0876  0.0030
 9075SOL     OW38857   4.077   3.782   6.784  0.3333  0.2485  0.0934
 9075SOL    HW138858   4.060   3.762   6.693  0.9639 -0.8910  0.2275
 9075SOL    HW238859   4.141   3.711   6.794  1.1602  0.9636 -0.0963
 9076SOL     OW38860   0.309   2.689   5.189  0.0325 -0.2313  0.1696
 9076SOL    HW138861   0.341   2.722   5.105 -0.1005 -0.9641 -0.1702
 9076SOL    HW238862   0.288   2.597   5.170 -3.8011  0.8014 -0.5366
 9077SOL     OW38863   1.149   2.040   4.976  0.2297  0.5525  0.1532
 9077SOL    HW138864   1.053   2.046   4.975  0.1185 -0.8826  2.9218
 9077SOL    HW238865   1.164   2.119   4.925 -2.8671 -0.0728 -1.7222
 9078SOL     OW38866   0.121   1.326   5.197 -0.4614  0.1585  0.0038
 9078SOL    HW138867   0.028   1.308   5.210 -0.9885  0.9938 -2.4814
 9078SOL    HW238868   0.141   1.309   5.104  0.5156  1.6923 -0.0576
 9079SOL     OW38869   0.860   0.600  11.984 -0.1595 -0.3503 -0.1846
 9079SOL    HW138870   0.783   0.551  12.013 -0.4895  0.0017 -0.4588
 9079SOL    HW238871   0.829   0.691  11.981  1.6916  0.2529 -1.4301
 9080SOL     OW38872   0.103   3.764   9.102 -0.8056 -0.5400  0.3387
 9080SOL    HW138873   0.191   3.743   9.071 -0.5992  1.4002 -0.3932
 9080SOL    HW238874   0.055   3.687   9.070 -0.5318 -0.8139  0.5941
 9081SOL     OW38875   0.787   2.185  16.948 -0.2730 -0.3491  0.2728
 9081SOL    HW138876   0.749   2.218  17.030 -0.4227 -0.2304  0.1577
 9081SOL    HW238877   0.713   2.128  16.929 -0.5686 -0.0313  0.4591
 9082SOL     OW38878   2.022   0.110  14.339  0.1847 -0.0557 -0.0692
 9082SOL    HW138879   2.089   0.099  14.272 -0.5983 -1.1384 -0.6748
 9082SOL    HW238880   2.053   0.053  14.410  0.4741 -0.8033 -0.8013
 9083SOL     OW38881   1.739   0.571  10.965  0.2202  1.0162 -0.8779
 9083SOL    HW138882   1.704   0.570  11.054  0.8220 -0.6729 -0.6717
 9083SOL    HW238883   1.755   0.666  10.959 -0.4663  1.3225  1.9555
 9084SOL     OW38884   3.261   1.261  10.032  0.0482 -0.2615  0.1332
 9084SOL    HW138885   3.205   1.336  10.013  0.0974 -0.0700  0.7434
 9084SOL    HW238886   3.234   1.235  10.120  0.5467 -0.7947  0.1239
 9085SOL     OW38887   2.403   2.150   5.763 -0.3938 -0.1471 -0.7418
 9085SOL    HW138888   2.347   2.141   5.840  1.9112  2.2250  1.1871
 9085SOL    HW238889   2.340   2.166   5.692 -1.5326 -3.5891 -0.5304
 9086SOL     OW38890   2.615   1.815   7.998 -0.4417 -0.1459 -0.0599
 9086SOL    HW138891   2.605   1.756   8.073  0.1888  0.7382  0.7129
 9086SOL    HW238892   2.632   1.753   7.926 -1.6418 -1.8482  1.1115
 9087SOL     OW38893   2.587   2.042   3.920  0.7606 -0.2289 -0.0412
 9087SOL    HW138894   2.586   2.055   4.015 -1.2878  1.0051 -0.2341
 9087SOL    HW238895   2.678   2.065   3.899  0.5067 -0.1219 -1.0365
 9088SOL     OW38896   4.686   4.376   4.874 -0.6565  0.5094 -0.3397
 9088SOL    HW138897   4.711   4.468   4.883 -2.2921  0.6787  2.4200
 9088SOL    HW238898   4.597   4.379   4.841 -0.9889 -2.5997  0.3054
 9089SOL     OW38899   1.540   1.711  10.477  0.2088 -0.2972  0.0524
 9089SOL    HW138900   1.472   1.684  10.415  0.7814  0.9821 -1.1415
 9089SOL    HW238901   1.489   1.713  10.558 -1.6644 -2.8283 -1.0875
 9090SOL     OW38902   4.650   0.720  17.435  0.4899 -0.2104 -0.1609
 9090SOL    HW138903   4.665   0.716  17.340  2.3590  0.6676  0.1031
 9090SOL    HW238904   0.001   0.745  17.462  0.0853 -0.6195  1.5400
 9091SOL     OW38905   0.265   4.569   8.292  0.4743  0.0982 -0.6505
 9091SOL    HW138906   0.212   4.626   8.348  0.3143  1.0701 -1.7895
 9091SOL    HW238907   0.346   4.568   8.342 -1.0355 -0.7558  1.7845
 9092SOL     OW38908   2.439   2.156  12.621 -0.0335  0.0937  0.9120
 9092SOL    HW138909   2.463   2.145  12.529 -0.0865 -0.2154  0.9358
 9092SOL    HW238910   2.525   2.145  12.662  1.3482  2.6836 -1.2467
 9093SOL     OW38911   3.274   0.050   2.035  0.1936 -0.7747  0.0657
 9093SOL    HW138912   3.284   4.694   2.017 -0.0508 -1.2724  2.5966
 9093SOL    HW238913   3.201   0.070   1.976 -0.5234 -0.9266  0.9035
 9094SOL     OW38914   0.160   3.920  10.488 -0.2752 -0.4837 -0.2885
 9094SOL    HW138915   0.207   3.836  10.491  1.0712  0.3804  2.7069
 9094SOL    HW238916   0.076   3.884  10.515 -0.4480  0.8752  1.0036
 9095SOL     OW38917   2.575   1.465   7.620 -0.5120 -0.7242 -0.0817
 9095SOL    HW138918   2.604   1.510   7.700 -0.0004  0.3172 -0.8387
 9095SOL    HW238919   2.565   1.377   7.654  3.1099 -0.9514  0.4084
 9096SOL     OW38920   2.458   3.576   9.690 -0.3523 -0.2769 -0.1802
 9096SOL    HW138921   2.442   3.616   9.776 -0.6981  1.7515 -1.1869
 9096SOL    HW238922   2.433   3.485   9.705 -2.7182  0.4330  0.0966
 9097SOL     OW38923   1.923   1.537   2.818  0.2216  0.3189  0.4048
 9097SOL    HW138924   1.994   1.514   2.758  0.4117  1.9601 -0.0075
 9097SOL    HW238925   1.850   1.505   2.765  0.4811 -1.6736  1.2747
 9098SOL     OW38926   4.379   0.861   3.229  0.5817  0.4380 -0.1996
 9098SOL    HW138927   4.456   0.809   3.206 -1.2317 -2.9901  1.4581
 9098SOL    HW238928   4.335   0.815   3.300 -1.1866 -0.5049 -1.9144
 9099SOL     OW38929   3.720   1.956   6.468  0.3550  0.1137  0.5434
 9099SOL    HW138930   3.802   1.926   6.508 -0.1633 -0.2853  1.3250
 9099SOL    HW238931   3.750   1.981   6.381 -1.3367  1.4627  0.3615
 9100SOL     OW38932   1.563   3.846   3.474  0.0882 -0.0811  0.1897
 9100SOL    HW138933   1.553   3.931   3.432 -3.0951 -0.8910 -0.6627
 9100SOL    HW238934   1.657   3.856   3.492  0.2961  0.8811 -1.5273
 9101SOL     OW38935   4.558   2.735   6.583 -0.6161  0.0658 -0.5807
 9101SOL    HW138936   4.485   2.724   6.521 -1.3976  0.9212  0.1843
 9101SOL    HW238937   4.567   2.644   6.610  1.0199  0.8022  1.3214
 9102SOL     OW38938   4.193   3.306   3.895 -0.3599 -0.5871 -0.0994
 9102SOL    HW138939   4.101   3.281   3.902 -0.6504 -0.0723 -2.2360
 9102SOL    HW238940   4.179   3.401   3.906 -5.0841 -1.2165 -0.8656
 9103SOL     OW38941   3.589   1.027   8.392  0.1633  0.4504  0.1270
 9103SOL    HW138942   3.662   1.015   8.453  0.6298  0.8324 -0.3491
 9103SOL    HW238943   3.632   1.013   8.307 -1.6223 -3.7096 -0.0905
 9104SOL     OW38944   3.229   1.485   9.034  0.2633  0.2729 -0.3730
 9104SOL    HW138945   3.189   1.398   9.033 -1.6979  1.1557  0.5426
 9104SOL    HW238946   3.314   1.471   8.992 -0.1803 -2.0117 -0.5263
 9105SOL     OW38947   0.438   1.653  13.827  0.8992 -0.1535 -0.5641
 9105SOL    HW138948   0.505   1.585  13.819  2.2591  1.0491  0.4847
 9105SOL    HW238949   0.378   1.607  13.885 -0.0818  1.2761 -0.4501
 9106SOL     OW38950   0.238   4.480   4.707 -0.9065 -0.0729 -0.6167
 9106SOL    HW138951   0.209   4.399   4.666 -0.9925 -0.3913  0.0722
 9106SOL    HW238952   0.260   4.445   4.793  1.4686  2.2191 -0.2705
 9107SOL     OW38953   4.155   2.368  11.348 -0.1651 -0.2178 -0.1636
 9107SOL    HW138954   4.227   2.351  11.288  0.5862  0.8124  0.4403
 9107SOL    HW238955   4.116   2.281  11.358 -0.2617 -0.1939 -0.3501
 9108SOL     OW38956   0.196   2.278   6.153  0.5919 -0.1908  0.4771
 9108SOL    HW138957   0.223   2.323   6.073 -0.2672  0.8001  0.7521
 9108SOL    HW238958   0.164   2.356   6.197 -2.5906 -0.1101 -2.0188
 9109SOL     OW38959   2.085   4.077   5.850 -0.0284 -0.0193  0.3063
 9109SOL    HW138960   1.991   4.057   5.851  0.0515 -0.3479  1.1335
 9109SOL    HW238961   2.063   4.153   5.798  0.1030  0.6382  1.2112
 9110SOL     OW38962   0.073   4.051   7.156 -0.2005 -0.6090 -0.1805
 9110SOL    HW138963   0.121   4.038   7.237  0.2306 -1.8679 -0.6431
 9110SOL    HW238964   0.028   3.967   7.149  2.9385 -2.3298  0.2917
 9111SOL     OW38965   3.990   3.550  11.387  0.1955 -0.5978  0.1097
 9111SOL    HW138966   3.965   3.477  11.444 -1.3736 -1.5338 -1.7869
 9111SOL    HW238967   3.930   3.612  11.428  1.8747  2.4207 -2.0543
 9112SOL     OW38968   1.109   1.826   8.220 -0.1776  0.5279  0.2155
 9112SOL    HW138969   1.103   1.922   8.217 -0.5929  0.4506 -1.3488
 9112SOL    HW238970   1.074   1.799   8.136  0.3156 -0.7569  0.4264
 9113SOL     OW38971   2.667   1.039   2.329 -0.3842  0.7355 -0.2486
 9113SOL    HW138972   2.689   0.962   2.382  0.3201  0.8515 -0.3676
 9113SOL    HW238973   2.622   0.993   2.258  0.8699  1.6102 -1.6038
 9114SOL     OW38974   2.503   3.933   1.557  0.0610 -0.8966  0.0904
 9114SOL    HW138975   2.433   3.973   1.609 -1.0103 -1.9353 -0.5708
 9114SOL    HW238976   2.479   3.842   1.573 -0.3688 -0.4547  2.0002
 9115SOL     OW38977   3.061   1.120  15.931 -0.6747  0.4793  0.1747
 9115SOL    HW138978   2.990   1.057  15.918 -0.7572  0.0121  2.8335
 9115SOL    HW238979   3.138   1.064  15.930 -1.2161 -0.2843  1.0627
 9116SOL     OW38980   1.239   2.975   6.355  0.4833 -0.1272  0.7468
 9116SOL    HW138981   1.217   2.914   6.285  1.4105  0.7390 -0.3006
 9116SOL    HW238982   1.234   2.917   6.431 -1.2319  1.1066  1.5833
 9117SOL     OW38983   3.583   2.712   0.399 -0.3415 -0.1039  0.0937
 9117SOL    HW138984   3.524   2.639   0.417 -2.6254  1.4410 -1.1595
 9117SOL    HW238985   3.633   2.666   0.332  0.7157  0.0488  0.7789
 9118SOL     OW38986   4.129   1.825   6.874 -0.2493  0.4953 -0.6856
 9118SOL    HW138987   4.169   1.910   6.889  1.5825 -0.3592 -0.7227
 9118SOL    HW238988   4.050   1.861   6.834 -0.9955  1.5532  1.7473
 9119SOL     OW38989   4.545   3.018  12.374 -0.1744 -0.7487 -0.0609
 9119SOL    HW138990   4.572   3.107  12.395  2.4628 -1.3645 -0.7913
 9119SOL    HW238991   4.452   3.027  12.397 -0.8259 -1.4145 -2.4251
 9120SOL     OW38992   3.805   4.099   6.242  0.2977 -0.1125 -0.2864
 9120SOL    HW138993   3.825   4.116   6.334  1.6140 -1.2276 -0.3731
 9120SOL    HW238994   3.801   4.192   6.218  1.3202  0.3716  1.3734
 9121SOL     OW38995   3.028   0.710   7.551 -0.1735  0.4245 -0.0852
 9121SOL    HW138996   3.059   0.759   7.627 -1.0398  0.7309  0.0690
 9121SOL    HW238997   3.051   0.621   7.578  3.5057  0.9568 -1.4895
 9122SOL     OW38998   3.912   2.868   3.515 -0.1793  0.2465 -0.1578
 9122SOL    HW138999   3.887   2.957   3.491  0.9035  0.7071  0.4256
 9122SOL    HW239000   3.976   2.846   3.447  1.9149  0.3912  1.7988
 9123SOL     OW39001   1.429   0.262   5.013 -0.0008  0.7047  0.2798
 9123SOL    HW139002   1.392   0.174   5.024 -0.2613  0.7213 -0.4259
 9123SOL    HW239003   1.473   0.253   4.928  0.2394  1.7799  0.2958
 9124SOL     OW39004   0.017   0.549  11.396  0.2299 -0.4784 -0.4374
 9124SOL    HW139005   0.026   0.643  11.411  1.9499 -1.0209  1.9263
 9124SOL    HW239006   4.707   0.563  11.314  1.2009 -1.2177 -1.1176
 9125SOL     OW39007   1.489   0.347   9.017  0.6514  0.8820 -0.3763
 9125SOL    HW139008   1.403   0.372   8.986  0.2248 -0.1914 -0.0775
 9125SOL    HW239009   1.519   0.301   8.938 -0.0816 -2.5313  1.3200
 9126SOL     OW39010   2.566   2.721   3.730  0.1839 -0.1664 -0.0140
 9126SOL    HW139011   2.599   2.712   3.820  1.4088  0.6434 -0.3823
 9126SOL    HW239012   2.644   2.760   3.691 -0.8449  1.0932 -0.8086
 9127SOL     OW39013   3.213   1.153  10.263  0.4114  0.0233 -0.2608
 9127SOL    HW139014   3.149   1.087  10.288  0.8557 -0.3520 -0.1260
 9127SOL    HW239015   3.278   1.136  10.331 -2.6752  1.1159  2.9398
 9128SOL     OW39016   2.939   3.589   4.380 -0.1150 -0.3360 -0.1871
 9128SOL    HW139017   3.009   3.530   4.352 -1.4424 -3.3084  2.7619
 9128SOL    HW239018   2.867   3.530   4.405  0.9634 -0.7080  2.0263
 9129SOL     OW39019   4.585   2.637   7.685 -0.2014 -0.6297 -0.9830
 9129SOL    HW139020   4.539   2.579   7.745  1.5717 -0.3578  0.6413
 9129SOL    HW239021   4.527   2.714   7.689 -1.5302 -1.6787  0.0907
 9130SOL     OW39022   0.737   3.237  15.286  0.5449  0.4889 -0.4476
 9130SOL    HW139023   0.705   3.161  15.237 -0.9949 -0.0698  1.4133
 9130SOL    HW239024   0.831   3.236  15.268  0.2531 -0.8298 -1.8757
 9131SOL     OW39025   2.029   3.753   4.770  0.2227 -0.1178  0.2436
 9131SOL    HW139026   2.007   3.726   4.859  2.3425  0.3490  0.9088
 9131SOL    HW239027   2.125   3.749   4.768  0.1312 -2.1728 -0.3123
 9132SOL     OW39028   1.067   0.175  10.996  0.5162  0.6094  0.5047
 9132SOL    HW139029   1.161   0.160  10.991  0.2052 -1.5076  0.9502
 9132SOL    HW239030   1.035   0.125  11.071 -0.6996  1.7699  0.7729
 9133SOL     OW39031   0.663   1.115   2.992 -0.1760 -0.1494 -0.5969
 9133SOL    HW139032   0.711   1.110   3.075 -1.5863  1.2512  0.2940
 9133SOL    HW239033   0.622   1.029   2.979  0.2780 -0.8523  2.6517
 9134SOL     OW39034   0.029   2.679   8.483 -0.1453  0.4111 -0.5882
 9134SOL    HW139035   0.040   2.733   8.406  0.8781  0.3889 -0.4554
 9134SOL    HW239036   4.678   2.709   8.503 -1.2536 -3.0815 -0.2468
 9135SOL     OW39037   3.571   0.760  10.246  0.3736 -0.0852  0.0417
 9135SOL    HW139038   3.493   0.792  10.201 -0.5553 -2.4994 -0.0508
 9135SOL    HW239039   3.573   0.672  10.208 -1.5296  0.0795 -0.4732
 9136SOL     OW39040   4.419   4.418   4.280  0.1235  0.5524  0.2840
 9136SOL    HW139041   4.412   4.500   4.329 -1.3679 -0.8566  2.3836
 9136SOL    HW239042   4.472   4.369   4.342 -0.5010  0.5789  0.8360
 9137SOL     OW39043   3.259   3.629   7.409 -0.5825 -0.1336  0.0275
 9137SOL    HW139044   3.176   3.584   7.401 -0.2591 -0.9009  1.0408
 9137SOL    HW239045   3.217   3.709   7.377  0.0417  0.9224  1.7969
 9138SOL     OW39046   2.028   3.115   2.755 -0.0722  0.1876 -0.6550
 9138SOL    HW139047   1.968   3.068   2.697  0.2861  0.2002 -1.0363
 9138SOL    HW239048   1.971   3.184   2.788  1.0816  0.6978  0.2652
 9139SOL     OW39049   0.135   2.015   5.307  0.7069  0.4817  0.3858
 9139SOL    HW139050   0.097   1.941   5.261 -2.2376  2.2815 -0.1325
 9139SOL    HW239051   0.091   2.003   5.391  1.3252 -1.6657  0.3924
 9140SOL     OW39052   0.189   3.986   4.570 -0.4992  0.0765  0.0027
 9140SOL    HW139053   0.242   3.908   4.584  0.0122  0.3980 -0.1792
 9140SOL    HW239054   0.229   4.020   4.490 -0.1355 -0.6800 -0.1354
 9141SOL     OW39055   2.078   2.660  10.551 -0.0192  0.3040  0.0448
 9141SOL    HW139056   2.156   2.687  10.599  1.7615  0.8297 -3.1218
 9141SOL    HW239057   2.052   2.731  10.491 -0.6085  0.5940  0.6446
 9142SOL     OW39058   0.022   4.732   8.410  0.4765 -0.0133 -0.4678
 9142SOL    HW139059   0.043   0.088   8.411 -1.2025  0.3849 -1.1009
 9142SOL    HW239060   4.708   4.730   8.329  0.5049 -0.4962 -0.4687
 9143SOL     OW39061   0.722   2.805   3.824 -0.1005 -0.4955  0.2468
 9143SOL    HW139062   0.655   2.765   3.879 -0.3030 -1.7363 -0.8900
 9143SOL    HW239063   0.806   2.767   3.849 -0.1921 -0.3754  0.7336
 9144SOL     OW39064   4.593   4.440   8.305 -0.0172 -0.0779 -0.0097
 9144SOL    HW139065   4.538   4.410   8.378  0.2870 -1.0212 -0.1647
 9144SOL    HW239066   4.527   4.453   8.237  3.3995  0.8747 -3.1361
 9145SOL     OW39067   0.949   4.137   1.038  0.3233 -0.0020  0.1519
 9145SOL    HW139068   1.020   4.200   1.050  0.0245  0.8410 -2.3948
 9145SOL    HW239069   0.938   4.106   1.128  0.3758  1.3520  0.6251
 9146SOL     OW39070   4.567   2.662   3.332 -0.1337  0.3370 -0.0640
 9146SOL    HW139071   4.612   2.578   3.342  0.7963  0.6310 -1.8944
 9146SOL    HW239072   4.642   2.721   3.325  1.2155 -1.3590  0.0812
 9147SOL     OW39073   3.037   3.131   9.048  0.3853 -0.9387 -0.2911
 9147SOL    HW139074   2.943   3.146   9.061  0.2093 -2.9752  0.8281
 9147SOL    HW239075   3.038   3.036   9.061  0.7619 -1.0022 -0.7832
 9148SOL     OW39076   0.853   1.170   2.824 -0.2609  0.4627  0.6563
 9148SOL    HW139077   0.926   1.156   2.885 -2.6824 -2.7160  2.8372
 9148SOL    HW239078   0.778   1.159   2.883 -0.4735 -0.0760  0.2824
 9149SOL     OW39079   1.750   2.992   9.797  0.3465 -0.3720  0.0237
 9149SOL    HW139080   1.807   2.919   9.820 -0.1178 -1.5992 -2.7639
 9149SOL    HW239081   1.811   3.065   9.805 -0.5908  0.3669  0.4783
 9150SOL     OW39082   4.021   1.810  11.647  0.2559  0.0306  0.5057
 9150SOL    HW139083   4.056   1.748  11.583  2.7725  0.5369  1.3786
 9150SOL    HW239084   4.098   1.866  11.649  0.7198 -0.5864  0.1687
 9151SOL     OW39085   1.160   3.046   2.925 -0.1103 -0.0758  0.4544
 9151SOL    HW139086   1.085   2.985   2.925 -0.5652  0.4896 -1.1893
 9151SOL    HW239087   1.128   3.126   2.966 -0.7120  0.6124 -1.3982
 9152SOL     OW39088   2.703   4.566  17.212 -0.0894 -0.2121  0.2996
 9152SOL    HW139089   2.710   4.498  17.278 -3.8127 -0.4885  0.4102
 9152SOL    HW239090   2.671   4.639  17.264  0.1000  1.1042 -1.4245
 9153SOL     OW39091   1.489   2.457   9.140 -0.4124  0.0521  0.3163
 9153SOL    HW139092   1.500   2.396   9.068  4.3036  0.4092  0.7689
 9153SOL    HW239093   1.433   2.523   9.098 -0.0161  0.7879  0.9303
 9154SOL     OW39094   0.722   1.181   6.109  0.0782 -0.3778  0.3258
 9154SOL    HW139095   0.629   1.160   6.113 -0.6565  2.5111 -1.6175
 9154SOL    HW239096   0.734   1.207   6.018 -0.3128  0.9173  0.6528
 9155SOL     OW39097   0.660   0.603  15.819  0.1546 -0.3448  0.2699
 9155SOL    HW139098   0.701   0.686  15.845 -1.1973  0.1487  0.8227
 9155SOL    HW239099   0.566   0.622  15.823  0.5238  1.6026 -0.1001
 9156SOL     OW39100   0.720   1.547   7.278 -0.3832  0.0349 -0.8996
 9156SOL    HW139101   0.710   1.507   7.192  0.8287 -1.4435 -0.3438
 9156SOL    HW239102   0.708   1.641   7.264 -0.3335  0.3242  1.0618
 9157SOL     OW39103   4.152   0.284  14.409 -1.1955 -0.3628 -0.1437
 9157SOL    HW139104   4.245   0.263  14.410 -1.1180 -0.0803 -1.7655
 9157SOL    HW239105   4.154   0.368  14.453 -0.9543 -1.0612  1.1783
 9158SOL     OW39106   3.230   1.072   8.697 -0.1726 -0.3369  0.3154
 9158SOL    HW139107   3.175   1.117   8.761 -1.0999 -2.1221  0.7733
 9158SOL    HW239108   3.188   0.987   8.686  0.0637 -0.4048 -0.0658
 9159SOL     OW39109   4.652   1.666   8.529  0.0989  0.2664  0.1653
 9159SOL    HW139110   4.584   1.684   8.465 -0.7156  1.1456  1.2787
 9159SOL    HW239111   4.720   1.727   8.502  0.4215 -0.6270 -1.0618
 9160SOL     OW39112   3.319   0.687  10.693  0.1208 -0.2129  0.3227
 9160SOL    HW139113   3.372   0.631  10.637 -0.8983 -0.5368 -0.3146
 9160SOL    HW239114   3.370   0.686  10.773  0.1840  0.7212  0.3020
 9161SOL     OW39115   0.932   0.130  15.211 -0.1819 -0.5095 -0.5455
 9161SOL    HW139116   0.856   0.165  15.259 -0.2640 -1.2297 -0.1452
 9161SOL    HW239117   0.889   0.125  15.126  0.4573 -2.2154 -0.7649
 9162SOL     OW39118   0.669   1.644   8.124  0.0607 -0.4488 -0.0852
 9162SOL    HW139119   0.626   1.573   8.172 -1.0820 -1.0913 -2.0659
 9162SOL    HW239120   0.598   1.708   8.117 -0.0252 -0.6031 -0.5979
 9163SOL     OW39121   2.130   1.227   8.065  0.4235  0.4510  0.6135
 9163SOL    HW139122   2.190   1.229   7.991 -0.3687  1.3423 -0.0020
 9163SOL    HW239123   2.051   1.243   8.013  1.0524  0.6776 -0.2566
 9164SOL     OW39124   1.089   0.856   0.296  0.2410 -0.4897 -0.1851
 9164SOL    HW139125   1.123   0.786   0.352  0.2591  1.9836  2.9011
 9164SOL    HW239126   1.074   0.927   0.358 -3.5279 -2.6288  1.3120
 9165SOL     OW39127   3.780   2.245   0.195 -0.1160 -0.1207  0.1776
 9165SOL    HW139128   3.820   2.161   0.175 -2.6773 -1.6812  1.5316
 9165SOL    HW239129   3.752   2.275   0.109 -2.2005  0.8108  1.1601
 9166SOL     OW39130   4.571   3.571   8.519 -0.1455  0.7084 -0.2001
 9166SOL    HW139131   4.650   3.518   8.508 -0.1491  0.0733  2.6857
 9166SOL    HW239132   4.612   3.643   8.568  2.2213 -1.1252  0.4901
 9167SOL     OW39133   1.718   4.631  17.306 -0.0505  0.2534  0.1832
 9167SOL    HW139134   1.760   4.663  17.226 -1.9737  1.2301 -0.4271
 9167SOL    HW239135   1.766   4.551  17.328 -2.0983 -1.0980 -0.3088
 9168SOL     OW39136   4.225   3.837  11.789 -0.2918 -0.4504 -0.3574
 9168SOL    HW139137   4.280   3.824  11.866 -0.7832 -0.0482  0.0640
 9168SOL    HW239138   4.217   3.744  11.769 -0.9704 -0.0478 -1.9389
 9169SOL     OW39139   1.385   2.458  16.540  0.1900 -0.4025 -0.3562
 9169SOL    HW139140   1.437   2.450  16.460  1.7720 -0.2419  0.6653
 9169SOL    HW239141   1.309   2.503  16.503  0.4011  1.6486  1.7631
 9170SOL     OW39142   3.769   2.023   7.933  0.0260  0.0901  0.1377
 9170SOL    HW139143   3.722   2.070   7.864  0.2696  3.7597  2.4381
 9170SOL    HW239144   3.858   2.033   7.901 -0.4465  0.8972 -0.9370
 9171SOL     OW39145   2.143   2.222   9.845 -0.0375 -0.6727 -0.0577
 9171SOL    HW139146   2.134   2.264   9.759 -0.9301  1.0029  0.8368
 9171SOL    HW239147   2.151   2.129   9.828 -0.2014 -1.1085  2.2809
 9172SOL     OW39148   3.386   0.187  13.310  0.1589  0.0666  0.1688
 9172SOL    HW139149   3.324   0.258  13.294 -1.4225 -1.1771  0.8425
 9172SOL    HW239150   3.427   0.211  13.393 -0.2203  0.0826  0.3512
 9173SOL     OW39151   0.621   1.010   2.129 -0.0563  0.0346  0.2551
 9173SOL    HW139152   0.600   0.917   2.121  0.3073 -0.0096 -0.1649
 9173SOL    HW239153   0.713   1.004   2.101  0.1845 -0.9316  1.2541
 9174SOL     OW39154   0.889   4.399   9.539 -0.4099 -0.1371  0.5206
 9174SOL    HW139155   0.953   4.365   9.477 -1.1106  0.7564 -0.6899
 9174SOL    HW239156   0.953   4.443   9.595  0.3403 -0.5088 -0.0463
 9175SOL     OW39157   3.556   3.378   3.746 -0.2041 -0.1113 -0.1268
 9175SOL    HW139158   3.499   3.303   3.731 -0.4552  0.4325 -1.8747
 9175SOL    HW239159   3.620   3.358   3.677  1.6451  1.3844  1.1592
 9176SOL     OW39160   1.378   1.956   9.132 -0.2999 -0.2619 -0.5959
 9176SOL    HW139161   1.348   1.973   9.043  2.2283 -0.2904 -1.4572
 9176SOL    HW239162   1.351   2.034   9.181 -0.1490 -0.3090 -0.4366
 9177SOL     OW39163   2.450   0.146   7.013  0.0554  0.2079 -0.1998
 9177SOL    HW139164   2.439   0.051   7.020 -0.4093  0.1741 -1.2775
 9177SOL    HW239165   2.365   0.172   7.048  1.4600  1.3044  2.4019
 9178SOL     OW39166   2.879   0.510  10.276 -0.1645  0.7845  0.1619
 9178SOL    HW139167   2.788   0.537  10.287  0.3922  2.4915  0.5629
 9178SOL    HW239168   2.929   0.562  10.339 -1.1073 -0.1156  1.6727
 9179SOL     OW39169   0.891   2.781   8.740  0.2128 -0.2354  0.3048
 9179SOL    HW139170   0.919   2.830   8.662 -0.8059 -0.0266  0.0680
 9179SOL    HW239171   0.956   2.802   8.807  0.1822  0.8662 -0.0074
 9180SOL     OW39172   1.305   1.003   6.696 -0.2061  0.3330  0.4825
 9180SOL    HW139173   1.266   0.921   6.725 -2.6819  0.9226 -1.1546
 9180SOL    HW239174   1.279   1.073   6.756  0.6451  2.1222 -1.2277
 9181SOL     OW39175   0.794   2.811  14.497  0.0037  0.3371 -0.2934
 9181SOL    HW139176   0.858   2.823  14.426 -0.9475 -3.2196 -1.7384
 9181SOL    HW239177   0.792   2.890  14.552  1.2239  0.2550 -0.1354
 9182SOL     OW39178   3.138   0.526   7.345  0.5116  0.5558  0.1974
 9182SOL    HW139179   3.159   0.558   7.433  0.1294  3.1003 -0.6229
 9182SOL    HW239180   3.042   0.528   7.344  0.5134  0.1610 -1.3212
 9183SOL     OW39181   2.864   3.305   4.011 -0.4496 -0.0588 -0.2247
 9183SOL    HW139182   2.797   3.307   4.078  1.8050  0.2497  2.0030
 9183SOL    HW239183   2.810   3.337   3.938  1.6639  3.4017 -0.2783
 9184SOL     OW39184   3.106   4.507  15.792 -0.1961 -0.1907 -0.6259
 9184SOL    HW139185   3.091   4.592  15.834  2.0041 -0.3022  0.3811
 9184SOL    HW239186   3.174   4.522  15.726  0.6716  1.2247  0.5904
 9185SOL     OW39187   0.556   1.821   4.968  0.5219  0.3194 -0.3633
 9185SOL    HW139188   0.485   1.786   4.914  0.3789  0.7088 -0.4262
 9185SOL    HW239189   0.534   1.797   5.059 -0.6498  0.8322 -0.5115
 9186SOL     OW39190   0.531   2.954   9.061  0.6650  0.1908 -0.2068
 9186SOL    HW139191   0.569   2.891   8.999 -1.4014 -0.3663 -0.8857
 9186SOL    HW239192   0.461   2.903   9.102 -0.2778  0.1612 -1.8770
 9187SOL     OW39193   1.684   1.961   2.782 -0.4822 -0.0311 -0.2662
 9187SOL    HW139194   1.589   1.950   2.772 -0.1057 -0.7230 -3.0218
 9187SOL    HW239195   1.706   1.883   2.833  0.0028  0.0919 -0.2957
 9188SOL     OW39196   1.709   4.340   7.218 -0.4112  0.2702  0.8817
 9188SOL    HW139197   1.789   4.388   7.238  0.8482 -0.6710 -1.9409
 9188SOL    HW239198   1.645   4.410   7.225  0.2910  0.8684  1.3182
 9189SOL     OW39199   0.546   3.403   5.117 -0.5000 -0.1264 -0.2591
 9189SOL    HW139200   0.586   3.443   5.041  0.2508  1.1606  0.8206
 9189SOL    HW239201   0.578   3.468   5.179  1.3665 -0.6573 -0.6881
 9190SOL     OW39202   3.736   1.104   6.996  0.2019 -0.1416  0.2754
 9190SOL    HW139203   3.795   1.146   7.059  1.6128 -1.2892 -0.2928
 9190SOL    HW239204   3.794   1.047   6.946  1.0966 -0.5349  1.7689
 9191SOL     OW39205   0.223   2.419   1.536  0.0265 -0.5465  0.4446
 9191SOL    HW139206   0.305   2.465   1.554  0.3302 -0.8221 -0.2362
 9191SOL    HW239207   0.177   2.462   1.608  0.1771 -1.7444  1.2515
 9192SOL     OW39208   3.402   0.435   6.972 -0.2781 -0.3923  0.4650
 9192SOL    HW139209   3.330   0.480   7.015  0.1720 -0.9584  1.7958
 9192SOL    HW239210   3.356   0.397   6.897 -1.7655  0.4078  0.9808
 9193SOL     OW39211   1.707   3.386   1.164 -0.5688 -0.1124 -0.3018
 9193SOL    HW139212   1.719   3.452   1.095  1.4358 -0.6811 -0.4962
 9193SOL    HW239213   1.671   3.318   1.107  0.4100  1.5134 -2.8723
 9194SOL     OW39214   0.396   0.608   8.997 -0.7347  0.0175 -0.0764
 9194SOL    HW139215   0.452   0.685   9.005 -0.0765 -0.7755  2.8913
 9194SOL    HW239216   0.370   0.589   9.087  0.5626  1.8102  0.6763
 9195SOL     OW39217   0.745   1.590   5.484  0.5890 -0.2012  0.3408
 9195SOL    HW139218   0.724   1.606   5.392  1.2298 -2.1384 -0.1332
 9195SOL    HW239219   0.665   1.626   5.524  1.4768  3.3044 -0.9879
 9196SOL     OW39220   1.227   3.492   6.548  0.0572 -1.1578  0.6387
 9196SOL    HW139221   1.202   3.478   6.639 -2.3646 -1.5305 -0.0980
 9196SOL    HW239222   1.249   3.406   6.512 -0.1489 -1.4315  1.1785
 9197SOL     OW39223   1.568   4.444   4.019 -0.0933  0.4090  0.0247
 9197SOL    HW139224   1.513   4.372   4.048 -0.7282  0.4794 -1.0069
 9197SOL    HW239225   1.540   4.460   3.929  0.3468 -0.9777 -0.3670
 9198SOL     OW39226   3.966   3.954  11.763  0.1646  0.0597  0.7458
 9198SOL    HW139227   3.976   4.040  11.803  3.3025  1.0478 -2.0730
 9198SOL    HW239228   4.055   3.920  11.777 -0.4271 -1.4140  0.9248
 9199SOL     OW39229   0.872   0.089   3.472 -0.2283  0.6667  0.3397
 9199SOL    HW139230   0.917   0.158   3.423  1.1933 -0.7537 -0.3506
 9199SOL    HW239231   0.819   0.129   3.541 -0.5063 -2.2673  1.8185
 9200SOL     OW39232   1.127   1.281   5.301  0.4034 -0.1288  0.0669
 9200SOL    HW139233   1.098   1.198   5.338  0.0539 -0.8757 -1.8966
 9200SOL    HW239234   1.053   1.335   5.328 -0.0136 -2.3284  3.2862
 9201SOL     OW39235   0.037   0.114   3.959  0.3400 -0.0663  0.1301
 9201SOL    HW139236   4.718   0.037   3.959 -1.5323  1.2968  1.9400
 9201SOL    HW239237   0.106   0.092   4.021 -1.6361 -1.5780  1.8008
 9202SOL     OW39238   4.544   0.619  13.919  0.4335 -0.1156  0.2111
 9202SOL    HW139239   4.487   0.557  13.965 -1.0994  0.3305 -1.0814
 9202SOL    HW239240   4.485   0.640  13.846 -0.8841  0.5062  1.4517
 9203SOL     OW39241   0.759   0.432   6.506 -0.5997  0.0168 -0.0696
 9203SOL    HW139242   0.735   0.373   6.434 -1.0113 -0.0755  0.1428
 9203SOL    HW239243   0.687   0.495   6.509  0.5521  1.3289  0.3573
 9204SOL     OW39244   0.968   3.395  17.503 -0.3244 -0.3362  0.2909
 9204SOL    HW139245   0.976   3.479  17.459 -1.3299 -0.1957  0.3856
 9204SOL    HW239246   0.985   3.436  17.588 -0.1108 -0.3960  0.2770
 9205SOL     OW39247   3.431   0.883   4.599 -0.0949  0.2785 -0.3381
 9205SOL    HW139248   3.396   0.884   4.688  1.9882  1.9620  0.4341
 9205SOL    HW239249   3.525   0.886   4.613 -0.2707 -0.1886  0.8805
 9206SOL     OW39250   3.164   4.616  17.559  0.8679 -0.1442 -0.3789
 9206SOL    HW139251   3.075   4.647  17.542  0.9284 -0.5504 -1.4112
 9206SOL    HW239252   3.178   4.699  17.603  0.3377 -0.2586  0.0105
 9207SOL     OW39253   4.260   1.155   2.401  0.5362 -0.0903 -0.2119
 9207SOL    HW139254   4.203   1.157   2.324  0.4598 -3.5540 -0.2289
 9207SOL    HW239255   4.200   1.182   2.471  1.4074  3.1243 -0.7022
 9208SOL     OW39256   3.685   1.372   2.330  0.5175  0.0169 -0.3740
 9208SOL    HW139257   3.652   1.455   2.364  0.7748  1.0591 -2.6898
 9208SOL    HW239258   3.774   1.402   2.308 -0.1232  0.7845 -1.9009
 9209SOL     OW39259   0.279   4.203   4.736  0.2616 -0.1940 -0.0888
 9209SOL    HW139260   0.243   4.125   4.694  0.3051 -1.5829  2.4388
 9209SOL    HW239261   0.225   4.210   4.815 -4.1320  1.1381 -3.2212
 9210SOL     OW39262   0.814   3.933   2.472  0.2669  0.4788  0.0964
 9210SOL    HW139263   0.812   3.969   2.561 -1.6195  1.1410 -0.2215
 9210SOL    HW239264   0.866   4.007   2.439  2.2933 -0.8928  0.1656
 9211SOL     OW39265   3.317   0.332  10.750 -0.0093 -0.1028 -0.3167
 9211SOL    HW139266   3.367   0.262  10.792  1.5695  0.6806 -0.8737
 9211SOL    HW239267   3.383   0.383  10.703  2.0173 -0.4789  2.1105
 9212SOL     OW39268   0.752   0.736   5.255  0.3664 -0.0712 -0.5343
 9212SOL    HW139269   0.764   0.798   5.327  4.2667  0.3924 -1.5888
 9212SOL    HW239270   0.823   0.673   5.267 -0.0668 -0.4527  0.1174
 9213SOL     OW39271   3.406   2.611   6.616  0.0458  0.2192  0.0129
 9213SOL    HW139272   3.468   2.553   6.658  0.2828  0.5013  0.0534
 9213SOL    HW239273   3.341   2.546   6.589  0.2210  0.3967 -0.8509
 9214SOL     OW39274   0.795   1.099   7.383 -0.3508  0.5174  0.1761
 9214SOL    HW139275   0.857   1.151   7.433 -1.9208  0.4498  2.1931
 9214SOL    HW239276   0.774   1.039   7.455 -1.0022  0.4981 -0.0289
 9215SOL     OW39277   1.218   1.673   7.697 -0.2632 -0.6857 -0.0940
 9215SOL    HW139278   1.309   1.675   7.727 -0.4973  1.6667  0.4849
 9215SOL    HW239279   1.212   1.582   7.667  0.4524 -1.4461  2.0795
 9216SOL     OW39280   4.051   0.412   2.591  0.0563 -0.0512  0.0423
 9216SOL    HW139281   4.074   0.487   2.536 -0.2628 -0.1938 -0.2816
 9216SOL    HW239282   4.080   0.440   2.678 -0.0194  0.6440 -0.1524
 9217SOL     OW39283   0.625   4.666   2.834  0.3590  0.4317 -0.0120
 9217SOL    HW139284   0.576   4.699   2.910  2.1831  0.8132  0.9915
 9217SOL    HW239285   0.582   4.581   2.841  2.3667 -0.5817  0.0514
 9218SOL     OW39286   3.012   0.041   3.693  0.2078 -0.0529  0.0560
 9218SOL    HW139287   3.047   0.050   3.604  0.5329 -1.7086  0.0091
 9218SOL    HW239288   2.974   0.128   3.696  1.6046  0.5644 -0.2450
 9219SOL     OW39289   0.994   1.370   4.624 -0.3896  0.1964 -0.3093
 9219SOL    HW139290   0.958   1.451   4.588 -0.1022  1.5922  2.5651
 9219SOL    HW239291   1.032   1.402   4.706 -0.7477  0.2257 -0.1556
 9220SOL     OW39292   0.899   2.649   5.121  0.1051 -0.9084  0.4825
 9220SOL    HW139293   0.973   2.649   5.182  0.4509  1.1077  0.0595
 9220SOL    HW239294   0.945   2.667   5.039 -0.4286 -0.5327  0.2686
 9221SOL     OW39295   4.676   2.709   5.134 -0.0610 -0.8233  0.2161
 9221SOL    HW139296   4.702   2.629   5.180  0.9102 -2.0714 -2.5154
 9221SOL    HW239297   0.004   2.771   5.167  2.2611 -2.5560 -1.1281
 9222SOL     OW39298   4.303   2.846   4.913 -0.1975 -0.3207  0.3893
 9222SOL    HW139299   4.305   2.876   5.003 -1.8721 -1.4554  0.8058
 9222SOL    HW239300   4.371   2.779   4.918 -0.8859 -0.9021  1.9230
 9223SOL     OW39301   3.562   4.328   7.842  0.2322 -0.3534 -0.2529
 9223SOL    HW139302   3.530   4.297   7.927  1.2581  0.4088  0.4092
 9223SOL    HW239303   3.491   4.386   7.816  1.9385  1.1743 -1.4444
 9224SOL     OW39304   4.006   2.922   8.196  0.7155 -0.3525 -0.2430
 9224SOL    HW139305   4.050   3.001   8.227 -1.8390  0.9018  0.1552
 9224SOL    HW239306   4.018   2.862   8.270  1.8368  1.2526  0.8670
 9225SOL     OW39307   0.876   3.807   6.767 -0.0049 -0.2130  0.1272
 9225SOL    HW139308   0.913   3.818   6.680 -0.0618  0.9259  0.2438
 9225SOL    HW239309   0.915   3.884   6.809  0.6476 -0.9493  0.8590
 9226SOL     OW39310   3.210   0.499  16.645 -0.0605 -0.5774 -0.3389
 9226SOL    HW139311   3.240   0.476  16.556 -1.1953  0.9472 -1.1055
 9226SOL    HW239312   3.208   0.413  16.688  0.2897 -0.1606  0.5138
 9227SOL     OW39313   3.145   2.263   1.890 -0.1337  0.0729  0.6560
 9227SOL    HW139314   3.056   2.279   1.858  0.7148  0.6704 -1.4060
 9227SOL    HW239315   3.159   2.171   1.866 -1.5476  0.4831 -1.7580
 9228SOL     OW39316   3.023   0.508   9.909 -0.0822  0.0802 -0.0574
 9228SOL    HW139317   3.046   0.524   9.817 -0.4710  1.5203  0.1140
 9228SOL    HW239318   3.070   0.425   9.924  1.1342  1.2147  2.3834
 9229SOL     OW39319   3.465   1.764  12.503 -0.7833 -0.1953 -0.6936
 9229SOL    HW139320   3.431   1.817  12.431  1.8455  1.7108 -0.5176
 9229SOL    HW239321   3.384   1.718  12.527 -0.2987 -0.4144  0.5431
 9230SOL     OW39322   1.494   3.903  10.373 -0.1096 -0.0777  0.5154
 9230SOL    HW139323   1.453   3.892  10.459 -2.8025  3.0651 -0.3684
 9230SOL    HW239324   1.492   3.999  10.373  0.3884 -0.0733 -0.9803
 9231SOL     OW39325   0.665   0.947   5.455  0.1124  0.5123 -0.0085
 9231SOL    HW139326   0.674   0.860   5.493  2.1252  0.0159 -1.6200
 9231SOL    HW239327   0.584   0.924   5.409  0.8845 -0.9811 -0.5962
 9232SOL     OW39328   4.412   2.018  17.155 -0.1989  0.0624  0.3904
 9232SOL    HW139329   4.366   1.962  17.218  0.3130 -0.0145  0.6926
 9232SOL    HW239330   4.475   1.954  17.120 -1.9322 -1.8629  0.7748
 9233SOL     OW39331   1.861   0.958   6.883 -0.2789  0.1867  0.1715
 9233SOL    HW139332   1.789   0.939   6.822 -0.8052 -0.1659  0.9011
 9233SOL    HW239333   1.823   1.034   6.926  0.5644  1.0455 -0.5971
 9234SOL     OW39334   2.547   2.026   2.769  0.1934  1.4890  0.1865
 9234SOL    HW139335   2.471   2.075   2.738 -0.1857  0.0596 -1.1835
 9234SOL    HW239336   2.549   2.060   2.858 -1.4995 -3.2640  2.0866
 9235SOL     OW39337   3.600   0.154   8.436 -0.0426  0.1962 -0.3094
 9235SOL    HW139338   3.544   0.228   8.459  2.3756  1.5092  1.2859
 9235SOL    HW239339   3.681   0.172   8.483  0.1296 -0.6750 -0.2796
 9236SOL     OW39340   0.603   1.266  11.139  0.2412  0.6963  0.2543
 9236SOL    HW139341   0.698   1.279  11.131 -0.0735  3.1246  0.5627
 9236SOL    HW239342   0.581   1.292  11.050 -0.0175  0.5852  0.2863
 9237SOL     OW39343   1.347   4.169  12.863  0.1283  0.1932  0.1052
 9237SOL    HW139344   1.281   4.238  12.864  0.8167  0.8541  0.1679
 9237SOL    HW239345   1.294   4.099  12.825 -0.4011  1.2534 -1.1222
 9238SOL     OW39346   2.549   0.392   7.058  0.3633  0.4293  0.3349
 9238SOL    HW139347   2.531   0.302   7.030 -0.7641  1.0775 -0.9853
 9238SOL    HW239348   2.513   0.422   6.975 -0.7740  1.8344  1.3272
 9239SOL     OW39349   1.187   3.797  14.602 -0.3130 -0.5903 -0.4737
 9239SOL    HW139350   1.122   3.807  14.533 -1.0132 -1.5210  0.0501
 9239SOL    HW239351   1.253   3.757  14.545  2.6237 -0.5550  2.8715
 9240SOL     OW39352   1.199   3.305  12.356 -0.2036 -0.3480  0.0354
 9240SOL    HW139353   1.178   3.383  12.305 -1.5893 -0.5898  0.2307
 9240SOL    HW239354   1.203   3.240  12.286  0.1741  1.0537 -1.2510
 9241SOL     OW39355   2.082   2.437  13.862  0.5532  0.2376 -0.5907
 9241SOL    HW139356   2.107   2.436  13.955 -0.9679 -0.7177 -0.1842
 9241SOL    HW239357   2.043   2.350  13.854  0.4249  0.3968 -1.6179
 9242SOL     OW39358   1.395   3.890  12.709  0.0942 -0.5016  0.0169
 9242SOL    HW139359   1.384   3.797  12.725  0.6298 -0.2418  1.9247
 9242SOL    HW239360   1.309   3.924  12.736 -0.0406 -0.8101 -0.0335
 9243SOL     OW39361   0.914   0.312   2.531 -0.1618  0.6890 -0.2254
 9243SOL    HW139362   0.860   0.271   2.463  0.0303 -3.4394  2.1085
 9243SOL    HW239363   0.929   0.240   2.591  0.4445  2.0503  1.2565
 9244SOL     OW39364   4.138   1.829   7.257 -0.0011  0.5292 -0.8057
 9244SOL    HW139365   4.192   1.756   7.227  3.2698  1.6311  2.4193
 9244SOL    HW239366   4.051   1.791   7.262 -0.4444  1.1955 -3.2517
 9245SOL     OW39367   4.316   1.360   4.285 -0.3189 -0.2201  0.1385
 9245SOL    HW139368   4.401   1.324   4.260  0.3375  0.2108  1.7461
 9245SOL    HW239369   4.325   1.355   4.380  0.4773 -0.1528  0.0634
 9246SOL     OW39370   0.821   2.404   0.137 -0.0010 -0.1912 -0.0153
 9246SOL    HW139371   0.760   2.478   0.145 -0.8332 -0.5526 -2.8479
 9246SOL    HW239372   0.776   2.345   0.198  1.5016 -1.4997 -0.1526
 9247SOL     OW39373   2.904   1.395   1.509  0.0286 -0.1840  0.1952
 9247SOL    HW139374   2.946   1.481   1.504  0.1018 -0.1755  0.9702
 9247SOL    HW239375   2.885   1.382   1.416 -0.7521  0.7552  0.2192
 9248SOL     OW39376   1.583   3.531   2.512  0.6176 -0.1849  0.7407
 9248SOL    HW139377   1.646   3.546   2.583  0.2606  0.9810  0.8205
 9248SOL    HW239378   1.531   3.456   2.538  2.9295 -1.6254  1.1721
 9249SOL     OW39379   4.433   3.733  15.854  0.8632  0.3594  0.1695
 9249SOL    HW139380   4.514   3.687  15.876  0.2959 -0.8469 -0.2157
 9249SOL    HW239381   4.463   3.824  15.858  3.7276 -0.6147  0.7468
 9250SOL     OW39382   4.664   4.296   1.489 -0.0744  0.3483  0.0746
 9250SOL    HW139383   4.583   4.273   1.444  0.0525 -2.6663  1.4179
 9250SOL    HW239384   4.721   4.271   1.416 -1.1835 -1.6714 -0.0825
 9251SOL     OW39385   1.618   3.019  12.140  0.2867 -0.3808  0.4977
 9251SOL    HW139386   1.657   2.966  12.209 -2.0715  0.2352  2.2837
 9251SOL    HW239387   1.688   3.021  12.075  1.5104 -0.5074  1.8084
 9252SOL     OW39388   4.304   2.731   4.527 -0.1739 -0.5191  0.9009
 9252SOL    HW139389   4.336   2.820   4.545 -2.3727  0.3042  0.7851
 9252SOL    HW239390   4.348   2.675   4.591  3.9402 -0.4696 -1.8256
 9253SOL     OW39391   3.144   4.472  15.400 -0.2076  0.4597 -0.0252
 9253SOL    HW139392   3.100   4.425  15.471  1.2057 -2.4906 -1.0901
 9253SOL    HW239393   3.070   4.487  15.342 -0.6915  2.1575  1.0263
 9254SOL     OW39394   2.786   0.131  12.756 -0.1674 -0.3591  0.4567
 9254SOL    HW139395   2.717   0.083  12.712  0.3345 -0.0317 -0.6879
 9254SOL    HW239396   2.820   0.070  12.822  0.7165  1.0916  1.3447
 9255SOL     OW39397   1.279   2.099  11.769 -0.0034 -0.0430 -0.0326
 9255SOL    HW139398   1.212   2.070  11.830 -0.4153 -0.0294 -0.4781
 9255SOL    HW239399   1.333   2.021  11.770 -0.6147 -0.4937 -1.3086
 9256SOL     OW39400   1.690   0.591   5.202 -0.4065 -0.4782 -0.3870
 9256SOL    HW139401   1.759   0.657   5.198 -1.6905  0.9598  1.0144
 9256SOL    HW239402   1.626   0.629   5.142 -0.6252 -0.7482 -0.3259
 9257SOL     OW39403   0.961   0.029  14.938 -0.7651  0.4685  0.0992
 9257SOL    HW139404   1.051   0.041  14.968 -0.1915 -0.1519 -1.3832
 9257SOL    HW239405   0.946   0.119  14.909 -0.4371  0.9142  1.3191
 9258SOL     OW39406   1.202   0.297  14.794  0.3651 -0.3461 -0.5129
 9258SOL    HW139407   1.121   0.306  14.844  1.8915 -2.3958  2.3283
 9258SOL    HW239408   1.221   0.206  14.815 -0.9591  0.0296  2.4311
 9259SOL     OW39409   2.784   1.660   4.498  0.5048  0.0180  0.2090
 9259SOL    HW139410   2.817   1.744   4.529  0.2257  2.0080 -4.9672
 9259SOL    HW239411   2.870   1.617   4.489  0.2830 -0.5155  0.6939
 9260SOL     OW39412   2.829   2.160   3.898 -0.3052 -0.0976  0.8803
 9260SOL    HW139413   2.822   2.245   3.854  4.3407 -0.4804 -0.5567
 9260SOL    HW239414   2.820   2.185   3.990  3.3973  1.8775  0.7143
 9261SOL     OW39415   4.632   4.506   2.958 -0.2424 -0.3673 -0.1877
 9261SOL    HW139416   4.597   4.431   2.911 -2.2284 -0.5066  1.5343
 9261SOL    HW239417   4.660   4.460   3.037 -0.0891  2.3198  1.3349
 9262SOL     OW39418   0.240   0.555   2.261  0.1131 -0.0684  0.2611
 9262SOL    HW139419   0.145   0.551   2.256  0.2447 -0.0875 -2.4587
 9262SOL    HW239420   0.240   0.598   2.347  0.6479 -0.0433  0.2464
 9263SOL     OW39421   0.711   1.699   1.309 -0.3416  0.1885  0.2102
 9263SOL    HW139422   0.709   1.767   1.377  1.0828  1.7707 -1.3521
 9263SOL    HW239423   0.624   1.660   1.320  0.1787 -1.7084 -2.5236
 9264SOL     OW39424   0.180   3.659  12.004  0.0145  0.0692  0.4006
 9264SOL    HW139425   0.263   3.622  12.036 -0.2209 -0.8863 -0.0799
 9264SOL    HW239426   0.200   3.752  11.997 -0.7050  0.1306 -0.6370
 9265SOL     OW39427   2.695   1.843  16.215 -0.6566  0.0335 -0.0010
 9265SOL    HW139428   2.735   1.817  16.298  1.1749 -0.3214 -1.0014
 9265SOL    HW239429   2.772   1.879  16.170 -0.1308 -2.8841 -1.4331
 9266SOL     OW39430   0.733   3.992   5.127  0.0327 -0.1380  0.1525
 9266SOL    HW139431   0.748   4.015   5.219 -0.2859  0.3283  0.0862
 9266SOL    HW239432   0.714   4.077   5.088 -3.0749 -1.0326 -0.2597
 9267SOL     OW39433   0.625   1.360  13.690 -0.7278 -0.6453 -0.5195
 9267SOL    HW139434   0.701   1.383  13.636 -1.5482 -2.2748 -2.4156
 9267SOL    HW239435   0.650   1.415  13.763 -0.8339 -1.2433 -0.0330
 9268SOL     OW39436   0.815   4.189   6.220 -0.0863  0.8948 -0.0070
 9268SOL    HW139437   0.868   4.110   6.220  1.1896  1.7585 -0.5636
 9268SOL    HW239438   0.736   4.138   6.240 -0.6225  0.7973 -2.2801
 9269SOL     OW39439   1.893   1.140  12.410 -0.6795 -0.1084  0.2577
 9269SOL    HW139440   1.878   1.091  12.329 -1.2356 -0.6953  0.7054
 9269SOL    HW239441   1.987   1.125  12.410 -0.6797 -0.1021 -2.3818
 9270SOL     OW39442   1.400   2.245  13.863  0.6871  0.0241 -0.2397
 9270SOL    HW139443   1.364   2.315  13.919 -1.1575 -1.1672  0.0558
 9270SOL    HW239444   1.480   2.284  13.830  0.3099  1.0039 -0.0114
 9271SOL     OW39445   2.251   2.125   8.801 -0.2598 -0.3505 -0.4362
 9271SOL    HW139446   2.274   2.073   8.879 -0.1330 -1.0502 -0.9353
 9271SOL    HW239447   2.207   2.058   8.749  1.8715 -1.3375 -0.9697
 9272SOL     OW39448   3.282   2.100   3.697  0.3395  0.3277  0.6953
 9272SOL    HW139449   3.301   2.177   3.751  1.1696 -0.8556  2.1029
 9272SOL    HW239450   3.362   2.074   3.652  0.4089 -1.5814  1.9026
 9273SOL     OW39451   0.093   1.587  12.931  0.2311 -0.6268 -0.2490
 9273SOL    HW139452   0.014   1.641  12.934  0.9917  0.5568 -1.6431
 9273SOL    HW239453   0.134   1.604  13.016  0.9989  0.1060 -0.7737
 9274SOL     OW39454   4.493   1.520   3.512 -0.1504  0.3594 -0.0604
 9274SOL    HW139455   4.466   1.591   3.453 -2.3721 -1.2594 -1.0053
 9274SOL    HW239456   4.426   1.524   3.581 -0.8447  0.5998 -0.7417
 9275SOL     OW39457   0.421   4.597  10.211  1.2552 -0.8497  0.0199
 9275SOL    HW139458   0.328   4.604  10.193  0.7407 -4.5871  1.3445
 9275SOL    HW239459   0.427   4.642  10.296  1.7597 -2.8340  1.0339
 9276SOL     OW39460   4.535   0.230   4.039 -0.2951 -0.5850 -0.0271
 9276SOL    HW139461   4.487   0.235   3.956  0.6794 -0.3991 -0.5801
 9276SOL    HW239462   4.621   0.212   4.001 -0.9706  1.6004 -2.6325
 9277SOL     OW39463   3.767   3.278   7.378 -0.3277  0.8815  0.5084
 9277SOL    HW139464   3.818   3.351   7.344 -0.1134  0.5512  0.1250
 9277SOL    HW239465   3.778   3.294   7.472 -0.2095  0.2023  0.6130
 9278SOL     OW39466   1.322   1.959   6.661  0.0860  0.5418 -0.1989
 9278SOL    HW139467   1.391   1.940   6.597  0.8452 -2.1811  1.4108
 9278SOL    HW239468   1.297   2.043   6.623  0.8058  1.1413  0.6313
 9279SOL     OW39469   0.718   0.521   4.479 -0.1698  0.4079  0.2687
 9279SOL    HW139470   0.726   0.616   4.471 -4.5057  0.5488 -2.7066
 9279SOL    HW239471   0.624   0.506   4.489  0.0328  0.2400  1.9155
 9280SOL     OW39472   3.938   2.544  13.548 -0.3961 -0.1314  0.2955
 9280SOL    HW139473   3.995   2.502  13.612  1.2826 -0.2840 -1.3118
 9280SOL    HW239474   3.992   2.559  13.471 -1.4747  2.0242 -0.0675
 9281SOL     OW39475   1.421   3.336  10.646  0.0685  0.3808 -0.2020
 9281SOL    HW139476   1.495   3.275  10.646 -0.4611 -0.2797  2.1002
 9281SOL    HW239477   1.376   3.310  10.566 -0.6292 -1.3637  0.7574
 9282SOL     OW39478   0.992   4.635   4.105 -0.4364 -0.1838 -0.4941
 9282SOL    HW139479   0.980   4.711   4.161 -1.5218 -1.7364  1.3699
 9282SOL    HW239480   0.939   4.674   4.035  1.1295 -0.6292 -1.9103
 9283SOL     OW39481   2.746   3.706   8.043 -0.2750  0.1477 -0.9498
 9283SOL    HW139482   2.764   3.727   7.951 -1.3399  0.3030 -1.1254
 9283SOL    HW239483   2.822   3.739   8.091 -1.0410  0.1296  0.2642
 9284SOL     OW39484   1.548   1.480   7.543  0.2564  0.6343 -0.1857
 9284SOL    HW139485   1.642   1.462   7.553  0.0335 -0.0765  0.6712
 9284SOL    HW239486   1.542   1.569   7.509 -0.0023  0.9408  0.6494
 9285SOL     OW39487   3.733   0.511   6.659 -0.3712 -0.1360 -0.3084
 9285SOL    HW139488   3.664   0.562   6.702 -1.1999 -2.2331  0.8675
 9285SOL    HW239489   3.772   0.580   6.605 -2.0546  1.7133  0.8302
 9286SOL     OW39490   3.070   2.018   7.023  0.2732  0.6710 -0.0613
 9286SOL    HW139491   3.069   2.080   6.950  0.3169  0.4729 -0.2302
 9286SOL    HW239492   2.991   1.966   7.004  0.8440 -0.0583 -0.4405
 9287SOL     OW39493   0.154   4.655   2.164  0.0630 -0.6424  0.5517
 9287SOL    HW139494   0.069   4.612   2.177 -1.0611  0.7324 -2.2254
 9287SOL    HW239495   0.132   4.717   2.094  0.8319 -2.2064 -1.0858
 9288SOL     OW39496   0.931   0.658  15.180  0.4145  0.1603  0.2511
 9288SOL    HW139497   0.954   0.720  15.250  1.0898  2.0416 -1.6266
 9288SOL    HW239498   1.020   0.656  15.146  0.1679 -1.5435 -0.2640
 9289SOL     OW39499   4.284   4.590  13.181 -0.0165  0.0837  0.4357
 9289SOL    HW139500   4.216   4.613  13.118  0.6440  2.4583  0.5866
 9289SOL    HW239501   4.262   4.641  13.259  2.2052  0.2205  0.9747
 9290SOL     OW39502   0.330   4.395   8.072  0.0876 -0.6076 -0.2229
 9290SOL    HW139503   0.360   4.434   7.990  0.2132  0.6380  0.4176
 9290SOL    HW239504   0.308   4.476   8.119  0.4094 -0.4033 -0.4192
 9291SOL     OW39505   4.456   1.999   7.069  0.5995  0.1971 -0.5040
 9291SOL    HW139506   4.364   2.008   7.047 -0.2399 -1.0730  2.4495
 9291SOL    HW239507   4.459   1.958   7.156  1.9693 -2.1483 -1.6578
 9292SOL     OW39508   3.912   1.069   3.290  0.8228  0.2152  0.3529
 9292SOL    HW139509   3.894   0.987   3.336 -2.2374  0.4264 -0.4363
 9292SOL    HW239510   3.932   1.041   3.201 -0.4503  1.3589 -0.3101
 9293SOL     OW39511   0.802   1.617   2.133 -0.1846 -0.4227  0.2901
 9293SOL    HW139512   0.749   1.564   2.192  0.8377 -0.4342  1.1971
 9293SOL    HW239513   0.773   1.707   2.145 -0.7544 -0.6630  0.7418
 9294SOL     OW39514   4.617   0.534   3.955  0.2443  0.0224 -0.1910
 9294SOL    HW139515   4.595   0.456   4.006 -1.1989  0.9206  0.5799
 9294SOL    HW239516   4.695   0.498   3.913  0.0699  0.2942 -0.7532
 9295SOL     OW39517   0.371   4.470   5.478  0.1828 -0.3812 -0.7763
 9295SOL    HW139518   0.292   4.420   5.495  0.7597 -0.6153  1.2347
 9295SOL    HW239519   0.398   4.491   5.568 -1.2477 -1.5376 -0.0773
 9296SOL     OW39520   0.092   3.442   3.073 -0.0468  0.2859 -0.0422
 9296SOL    HW139521   0.173   3.487   3.098  0.1555  0.1355 -0.4199
 9296SOL    HW239522   0.043   3.441   3.155  1.8894  0.7177  1.1184
 9297SOL     OW39523   1.961   1.528   1.342  0.1533  0.5408 -0.0792
 9297SOL    HW139524   2.046   1.545   1.301  0.7180 -3.2461 -0.4828
 9297SOL    HW239525   1.980   1.523   1.435 -0.1609  1.4576  0.0359
 9298SOL     OW39526   0.917   0.270   2.850  0.3995 -0.0074  0.1180
 9298SOL    HW139527   0.898   0.202   2.915 -0.7929  1.2151  1.0779
 9298SOL    HW239528   0.999   0.302   2.887  0.2351  0.4076  0.1301
 9299SOL     OW39529   2.143   3.059   6.068 -0.0138 -0.1069  0.9883
 9299SOL    HW139530   2.147   3.008   6.149  1.8818 -0.2852  0.7750
 9299SOL    HW239531   2.204   3.132   6.083  2.3696 -1.7436 -0.9572
 9300SOL     OW39532   0.971   3.600  15.236  0.0227  0.9031  0.5835
 9300SOL    HW139533   0.999   3.572  15.323 -2.7623  0.6660  1.4036
 9300SOL    HW239534   1.053   3.623  15.192 -1.2567 -0.8456 -2.7495
 9301SOL     OW39535   4.538   3.361   5.604  0.3637  0.6568 -0.3414
 9301SOL    HW139536   4.602   3.326   5.666  1.8671  0.8604 -1.8027
 9301SOL    HW239537   4.463   3.307   5.630  1.8999 -1.5395 -0.4155
 9302SOL     OW39538   1.672   3.259   6.257 -0.5767 -0.5237  0.3099
 9302SOL    HW139539   1.678   3.320   6.183  0.0693 -0.8743  0.0769
 9302SOL    HW239540   1.747   3.276   6.313  3.0156 -3.0882 -3.7347
 9303SOL     OW39541   1.541   3.969   8.188  0.7947 -0.0427  0.5659
 9303SOL    HW139542   1.481   3.916   8.136  0.8054 -1.2437  1.7780
 9303SOL    HW239543   1.487   4.002   8.260  0.1442 -0.4631  0.2689
 9304SOL     OW39544   0.490   1.316   8.070  0.3568 -0.0826 -0.2083
 9304SOL    HW139545   0.405   1.327   8.028 -0.3523 -2.3896  0.6221
 9304SOL    HW239546   0.491   1.371   8.149 -1.3899  0.9026 -0.8625
 9305SOL     OW39547   0.795   1.058   3.690  0.8424  0.2490 -0.7958
 9305SOL    HW139548   0.852   1.121   3.734  2.0751  0.4631 -2.6831
 9305SOL    HW239549   0.789   0.995   3.762  1.5697  1.7909  0.6315
 9306SOL     OW39550   4.633   3.187   3.930  0.0109  0.4457 -0.2471
 9306SOL    HW139551   4.701   3.168   3.995  0.8031  3.2274 -0.2587
 9306SOL    HW239552   4.695   3.181   3.858  0.1164  0.1223 -0.1286
 9307SOL     OW39553   2.460   4.276  17.168 -0.1882  0.5030  0.4312
 9307SOL    HW139554   2.540   4.290  17.219  0.2330  0.2057 -0.1479
 9307SOL    HW239555   2.487   4.201  17.114 -0.4192  1.6354 -1.2485
 9308SOL     OW39556   0.867   2.639   4.141 -0.0452 -0.1681 -0.2348
 9308SOL    HW139557   0.913   2.705   4.194  1.8059 -0.7482 -1.1340
 9308SOL    HW239558   0.923   2.563   4.157  0.8381  0.2871 -1.1867
 9309SOL     OW39559   0.507   4.467   3.306 -0.0639  0.1095  0.0029
 9309SOL    HW139560   0.534   4.502   3.391 -0.4521  2.4624 -0.8224
 9309SOL    HW239561   0.557   4.385   3.308 -1.3829 -0.6738  0.4246
 9310SOL     OW39562   0.159   3.094   3.866  0.3439 -0.4488 -0.8429
 9310SOL    HW139563   0.190   3.110   3.776  3.1582  2.7372  0.6924
 9310SOL    HW239564   0.185   3.176   3.907  0.6252 -1.2833  0.6271
 9311SOL     OW39565   0.483   2.955   6.340 -0.0909  0.0254  1.2465
 9311SOL    HW139566   0.463   2.863   6.353  0.1255  0.1561  2.4426
 9311SOL    HW239567   0.432   2.994   6.411 -2.4438  2.0172 -1.4955
 9312SOL     OW39568   2.702   4.186   6.664 -0.0593  0.1390  0.3256
 9312SOL    HW139569   2.661   4.126   6.727 -1.4320 -2.6199 -3.2246
 9312SOL    HW239570   2.790   4.149   6.673 -0.7638 -2.0020 -1.5996
 9313SOL     OW39571   1.795   1.178   8.984  0.5946  0.0888  0.4121
 9313SOL    HW139572   1.783   1.110   9.051  0.9748  0.4021  0.7995
 9313SOL    HW239573   1.724   1.226   9.027  1.1603  0.6451  0.7281
 9314SOL     OW39574   3.258   2.593   4.017 -0.4435  0.5352  0.0757
 9314SOL    HW139575   3.287   2.627   4.102 -0.8761  0.5063  0.2382
 9314SOL    HW239576   3.325   2.610   3.952  1.2935 -1.4564  1.3542
 9315SOL     OW39577   1.040   1.179   0.694 -0.1862 -0.2268  0.0775
 9315SOL    HW139578   1.064   1.271   0.680  1.3451 -0.6169  0.1539
 9315SOL    HW239579   1.066   1.156   0.783 -0.9808 -1.1901  0.0602
 9316SOL     OW39580   2.984   4.583   0.157 -0.4769 -0.6713  0.4781
 9316SOL    HW139581   2.905   4.587   0.103 -0.6312 -2.6520  0.5613
 9316SOL    HW239582   3.030   4.508   0.122 -1.1894 -1.2320  0.7368
 9317SOL     OW39583   1.859   2.702   4.189  0.0752 -0.5630  0.0842
 9317SOL    HW139584   1.895   2.731   4.272  0.6764 -0.5660 -0.1784
 9317SOL    HW239585   1.912   2.631   4.151  0.5716  0.2087 -0.6692
 9318SOL     OW39586   0.638   2.108   3.687  0.0406  0.0860 -0.0719
 9318SOL    HW139587   0.620   2.160   3.609  1.2315 -1.5197 -1.4101
 9318SOL    HW239588   0.728   2.082   3.669 -0.1837 -0.2889 -0.6440
 9319SOL     OW39589   2.460   1.208   2.535 -0.6110 -0.3471 -0.9227
 9319SOL    HW139590   2.495   1.283   2.584 -0.5486 -0.1345 -1.2920
 9319SOL    HW239591   2.404   1.177   2.606 -1.4805  1.2893 -0.8957
 9320SOL     OW39592   3.767   0.836   6.293 -0.2939 -0.0820  0.2506
 9320SOL    HW139593   3.846   0.852   6.241 -0.8293  1.1269 -0.1992
 9320SOL    HW239594   3.764   0.740   6.292 -0.3258 -0.0787 -0.0642
 9321SOL     OW39595   0.406   0.310   5.941 -0.0694  0.4902  0.1295
 9321SOL    HW139596   0.426   0.217   5.939 -2.9532 -0.1047 -0.7154
 9321SOL    HW239597   0.324   0.320   5.893 -0.1440  0.7421  0.3080
 9322SOL     OW39598   3.662   1.022  13.079 -0.0849 -0.6101  0.1054
 9322SOL    HW139599   3.621   0.949  13.124 -0.9180 -0.7574 -0.8970
 9322SOL    HW239600   3.697   0.993  12.995 -0.0206  0.7820 -0.3463
 9323SOL     OW39601   1.271   3.224   6.486  0.2668 -0.1312 -0.1625
 9323SOL    HW139602   1.266   3.155   6.421  2.1827  1.4359 -1.9639
 9323SOL    HW239603   1.196   3.202   6.541  1.9160 -0.2117  2.1007
 9324SOL     OW39604   3.937   1.101  12.887  0.3186 -0.0053 -0.1475
 9324SOL    HW139605   3.993   1.128  12.959 -1.7255 -0.6065  1.6539
 9324SOL    HW239606   3.881   1.180  12.888 -2.2204 -1.7957 -0.1374
 9325SOL     OW39607   2.547   3.589   2.603  0.0334  0.4809  0.2987
 9325SOL    HW139608   2.468   3.564   2.556 -0.2405 -0.8482  1.4664
 9325SOL    HW239609   2.604   3.600   2.527  2.7560  2.7113  2.6289
 9326SOL     OW39610   0.121   0.518   6.338  0.0434 -0.7245  0.9911
 9326SOL    HW139611   0.214   0.511   6.315 -0.5723  0.0754 -1.7823
 9326SOL    HW239612   0.092   0.436   6.298  2.0243 -1.3978  0.9351
 9327SOL     OW39613   3.530   0.946   2.345 -0.4233  0.1950  0.0569
 9327SOL    HW139614   3.527   0.853   2.323  1.5911 -0.4762  2.6966
 9327SOL    HW239615   3.578   0.944   2.428  0.2481  1.5915 -0.3077
 9328SOL     OW39616   1.291   1.321   9.025  0.6079 -0.1647 -0.5249
 9328SOL    HW139617   1.273   1.255   8.958  0.2092  0.3429 -0.9139
 9328SOL    HW239618   1.286   1.259   9.098  0.7684 -0.7319 -0.9903
 9329SOL     OW39619   0.358   2.225  16.597  0.5016  0.2703  0.6038
 9329SOL    HW139620   0.382   2.290  16.664 -0.7431  0.4204  0.8925
 9329SOL    HW239621   0.427   2.159  16.608  1.0845  0.5386 -1.4656
 9330SOL     OW39622   1.522   2.673   5.751 -0.4772  0.0395  0.0911
 9330SOL    HW139623   1.579   2.715   5.687  0.0183  0.4220  0.7761
 9330SOL    HW239624   1.482   2.607   5.694 -1.4813 -0.9695  1.9779
 9331SOL     OW39625   3.741   3.136   0.887 -0.0276  0.1790 -0.1819
 9331SOL    HW139626   3.702   3.108   0.804  0.1025  1.7292 -0.7666
 9331SOL    HW239627   3.662   3.161   0.935 -0.4001 -0.4513 -0.4679
 9332SOL     OW39628   1.938   2.101  15.456 -0.2726  0.1232  0.3246
 9332SOL    HW139629   2.021   2.096  15.502 -0.4249 -1.1319  0.4716
 9332SOL    HW239630   1.954   2.057  15.373  0.6961 -2.3132  1.7990
 9333SOL     OW39631   0.429   3.775   6.234  0.6636  0.6686  0.1227
 9333SOL    HW139632   0.370   3.702   6.251 -0.2136  0.7812 -2.3561
 9333SOL    HW239633   0.495   3.728   6.182 -0.9199 -1.5403  0.1081
 9334SOL     OW39634   1.061   1.103   8.112  0.0996  0.3169 -0.0288
 9334SOL    HW139635   1.125   1.071   8.175  0.7986  1.5439 -0.1165
 9334SOL    HW239636   1.021   1.021   8.084 -2.0936  0.6907  2.0239
 9335SOL     OW39637   2.693   2.339   5.417  0.3676  0.2637 -0.2523
 9335SOL    HW139638   2.611   2.305   5.381  0.1892 -0.2228  0.6252
 9335SOL    HW239639   2.741   2.259   5.439 -1.0875 -0.9449 -1.4037
 9336SOL     OW39640   0.564   4.248   5.989  0.3797 -0.2150  0.0304
 9336SOL    HW139641   0.469   4.259   5.984  0.6711  2.3586  0.2471
 9336SOL    HW239642   0.578   4.155   6.005 -0.3273 -0.2544  0.4003
 9337SOL     OW39643   2.615   1.498   3.919 -0.1863 -0.3905 -0.0087
 9337SOL    HW139644   2.574   1.413   3.902  1.5786 -0.6178 -3.2546
 9337SOL    HW239645   2.540   1.555   3.907 -1.1287 -1.8461 -1.0217
 9338SOL     OW39646   4.619   2.975   3.448  0.2969  0.2770  0.2293
 9338SOL    HW139647   4.660   2.908   3.393 -3.0379 -1.3617 -0.3157
 9338SOL    HW239648   4.698   3.021   3.475  1.3781 -0.5490 -1.5471
 9339SOL     OW39649   4.689   4.654   4.833  0.1716  0.4050 -0.4455
 9339SOL    HW139650   4.613   4.712   4.827 -1.3434 -1.4121  0.8827
 9339SOL    HW239651   4.704   4.648   4.739 -1.2096  3.0018 -0.8245
 9340SOL     OW39652   3.146   1.115   5.680  0.0873 -0.6495 -0.1158
 9340SOL    HW139653   3.106   1.162   5.753 -0.0244 -1.8589  0.5991
 9340SOL    HW239654   3.085   1.041   5.675 -2.5803  1.5556 -0.0348
 9341SOL     OW39655   2.322   2.846   4.165  0.1876  0.1170 -0.3186
 9341SOL    HW139656   2.409   2.885   4.155  0.5260 -0.1613  1.4905
 9341SOL    HW239657   2.342   2.752   4.163  0.7455  0.2501 -1.0073
 9342SOL     OW39658   1.991   1.615   5.940 -0.3421  0.1857  0.2428
 9342SOL    HW139659   2.041   1.548   5.987  0.8235  1.0455  0.2077
 9342SOL    HW239660   1.917   1.618   6.001  0.6784  1.4921  1.3807
 9343SOL     OW39661   2.802   2.151   6.919 -0.0706  0.0181  0.3250
 9343SOL    HW139662   2.757   2.129   7.001  0.2564  2.0312  1.0327
 9343SOL    HW239663   2.738   2.129   6.851  1.2311 -1.0765 -0.5569
 9344SOL     OW39664   1.321   1.390  12.918 -0.1017  0.5461  0.1036
 9344SOL    HW139665   1.413   1.369  12.934  0.7731  4.6978  0.5335
 9344SOL    HW239666   1.327   1.455  12.848  2.4552  1.1392  0.8559
 9345SOL     OW39667   3.345   4.590  13.904  0.3591 -0.2854  0.2092
 9345SOL    HW139668   3.276   4.530  13.930  1.6649 -2.4590 -1.3766
 9345SOL    HW239669   3.311   4.616  13.819  0.9024 -0.8094 -0.1639
 9346SOL     OW39670   0.234   3.700   4.596 -0.5373  0.3674  0.0211
 9346SOL    HW139671   0.301   3.751   4.641  0.8816  0.1561 -1.8787
 9346SOL    HW239672   0.180   3.671   4.670  2.1475 -2.3789  0.8934
 9347SOL     OW39673   1.396   2.987  10.390  0.2741 -0.3715  0.3081
 9347SOL    HW139674   1.367   3.077  10.405 -2.0549 -0.7280 -2.0411
 9347SOL    HW239675   1.449   2.969  10.468 -1.9416  1.5757  2.2616
 9348SOL     OW39676   0.365   3.358   7.000 -0.2876 -0.1115  0.2841
 9348SOL    HW139677   0.321   3.273   7.010  2.4526 -1.4160  1.2890
 9348SOL    HW239678   0.371   3.369   6.906 -1.5095  1.3681  0.3767
 9349SOL     OW39679   1.436   0.994  15.862 -0.4142  0.3784  0.0716
 9349SOL    HW139680   1.386   1.021  15.786 -0.4913  0.0811  0.0169
 9349SOL    HW239681   1.379   0.929  15.903 -0.4974 -0.4979 -1.4675
 9350SOL     OW39682   0.152   0.318   5.060  0.3079  0.7042 -0.3923
 9350SOL    HW139683   0.199   0.296   4.980  0.3355 -0.3736 -0.0882
 9350SOL    HW239684   0.222   0.311   5.126  0.0040  2.3129  0.0900
 9351SOL     OW39685   3.862   1.410   4.338 -0.1568  0.0537  0.2614
 9351SOL    HW139686   3.806   1.437   4.410 -0.8675 -1.3706  0.2390
 9351SOL    HW239687   3.935   1.371   4.386  0.9692  0.4462 -1.1050
 9352SOL     OW39688   2.842   2.943   5.388  0.1069 -0.0799  0.0024
 9352SOL    HW139689   2.765   2.929   5.334 -0.8472  2.6612  0.6841
 9352SOL    HW239690   2.884   2.861   5.361  1.6160  0.8405 -0.4361
 9353SOL     OW39691   4.105   4.638   5.739  0.3077 -0.0653  0.3389
 9353SOL    HW139692   4.124   4.710   5.679 -1.2224 -0.4342 -0.5957
 9353SOL    HW239693   4.141   4.571   5.681  0.3089  1.1955 -1.1032
 9354SOL     OW39694   1.269   4.311   1.750 -0.0370  0.1605 -0.2906
 9354SOL    HW139695   1.190   4.364   1.761 -0.2527 -0.1151 -0.4851
 9354SOL    HW239696   1.314   4.320   1.834 -0.7353 -1.4107  0.2485
 9355SOL     OW39697   1.697   2.700  15.943  0.3041  0.1800  0.3073
 9355SOL    HW139698   1.749   2.720  16.021  0.2042 -0.9746  0.6715
 9355SOL    HW239699   1.771   2.704  15.881 -1.7267  0.4330 -2.0870
 9356SOL     OW39700   3.551   2.925  15.377  0.3943  0.4480  0.0018
 9356SOL    HW139701   3.503   2.980  15.316  1.0768  1.6094  0.5246
 9356SOL    HW239702   3.516   2.958  15.460  0.0072 -1.2005  0.5042
 9357SOL     OW39703   3.852   1.057   1.322  0.0462  0.2119  0.5757
 9357SOL    HW139704   3.884   0.987   1.265 -0.7570 -0.2882  0.7417
 9357SOL    HW239705   3.931   1.088   1.366 -0.3591 -1.7350  2.7112
 9358SOL     OW39706   3.489   1.152   5.248  0.1870 -0.4549  0.0840
 9358SOL    HW139707   3.421   1.139   5.314  1.7273  0.6818  1.8724
 9358SOL    HW239708   3.456   1.094   5.180  0.0818  0.0880 -0.3257
 9359SOL     OW39709   3.792   2.123   6.767  0.3304  0.7177  0.2177
 9359SOL    HW139710   3.824   2.198   6.817  0.4375  2.1296 -1.9431
 9359SOL    HW239711   3.703   2.109   6.798  0.7254 -0.9450  0.6347
 9360SOL     OW39712   3.095   3.333   8.527  0.1924 -0.0272 -0.1830
 9360SOL    HW139713   3.094   3.256   8.584  0.8513  0.3293  0.2974
 9360SOL    HW239714   3.052   3.397   8.584 -1.1145 -0.3676 -0.7835
 9361SOL     OW39715   4.082   1.168   4.882  0.7414 -0.4704 -0.3382
 9361SOL    HW139716   4.043   1.196   4.964  0.9196 -0.3273 -0.3034
 9361SOL    HW239717   4.174   1.183   4.905  1.0425 -0.3621 -1.6263
 9362SOL     OW39718   1.125   2.659   3.247  0.7131 -0.5398 -0.5576
 9362SOL    HW139719   1.053   2.681   3.188  0.2120 -0.0345  0.2254
 9362SOL    HW239720   1.191   2.713   3.203 -0.4067  0.7499 -0.6612
 9363SOL     OW39721   4.214   4.360   1.412 -0.2711  0.4725  0.9100
 9363SOL    HW139722   4.171   4.423   1.470  0.8755  1.0651  1.1266
 9363SOL    HW239723   4.162   4.390   1.338  1.4851  2.0027  0.2875
 9364SOL     OW39724   0.824   2.239   0.890  0.4150  0.1993  0.1542
 9364SOL    HW139725   0.809   2.279   0.975  0.5687 -1.7585  1.0997
 9364SOL    HW239726   0.770   2.160   0.898  0.0916  0.4773  0.7078
 9365SOL     OW39727   1.277   0.999   1.728 -0.1138  0.2170 -0.7384
 9365SOL    HW139728   1.345   1.067   1.735 -0.9574  0.9575  0.1564
 9365SOL    HW239729   1.282   0.978   1.635  2.2370  2.1738 -1.0706
 9366SOL     OW39730   2.138   4.494  10.530 -0.3623  0.0085 -0.4758
 9366SOL    HW139731   2.147   4.559  10.599  0.3320 -0.2555 -0.3193
 9366SOL    HW239732   2.154   4.542  10.449 -1.8579 -0.0482 -0.8074
 9367SOL     OW39733   2.490   0.289   4.315  0.0018  0.4088  0.4854
 9367SOL    HW139734   2.499   0.281   4.220  1.0445 -3.0180  0.8753
 9367SOL    HW239735   2.397   0.312   4.319 -0.7099 -2.4420 -0.2207
 9368SOL     OW39736   0.162   0.145   2.325 -0.4956 -0.3284  0.5470
 9368SOL    HW139737   0.160   0.061   2.278  1.2001 -0.0230 -0.0896
 9368SOL    HW239738   0.122   0.119   2.408  1.9308 -1.9592  1.2147
 9369SOL     OW39739   3.661   1.768  11.479 -0.3704 -0.0569 -0.5985
 9369SOL    HW139740   3.576   1.726  11.470 -0.7067  0.1862  1.4422
 9369SOL    HW239741   3.678   1.759  11.573  1.4809  0.4062 -0.8751
 9370SOL     OW39742   1.485   3.148   2.930  0.5677  0.2666 -0.4792
 9370SOL    HW139743   1.462   3.108   2.847  0.8432 -2.3101  0.6983
 9370SOL    HW239744   1.410   3.206   2.943 -0.4241 -1.0308 -0.4666
 9371SOL     OW39745   4.626   2.317   4.385 -0.7842  0.3842 -0.4929
 9371SOL    HW139746   4.647   2.335   4.476  0.2609  0.2465 -0.7019
 9371SOL    HW239747   4.601   2.225   4.394  0.0359  0.2773  0.7353
 9372SOL     OW39748   1.985   1.195   8.574 -0.3546  0.1430 -0.2167
 9372SOL    HW139749   2.031   1.225   8.495 -2.9278  0.9215 -1.3999
 9372SOL    HW239750   1.969   1.277   8.620  1.1396  0.0377  0.5135
 9373SOL     OW39751   2.786   1.336  11.841  0.2360 -0.2302  0.1763
 9373SOL    HW139752   2.713   1.398  11.840  0.5644  0.1424 -0.9300
 9373SOL    HW239753   2.854   1.389  11.884  1.6305 -0.4545 -1.7585
 9374SOL     OW39754   4.047   3.165   0.863 -0.2983  0.4899 -0.6987
 9374SOL    HW139755   4.029   3.228   0.793 -1.7648 -0.3288 -1.0757
 9374SOL    HW239756   3.956   3.150   0.890 -0.1069 -0.4842 -0.5766
 9375SOL     OW39757   1.093   3.783   7.905  0.4472  0.0584 -0.2703
 9375SOL    HW139758   1.030   3.794   7.977 -0.7081  0.3644 -1.3266
 9375SOL    HW239759   1.035   3.799   7.830  2.8704  0.0543 -2.1518
 9376SOL     OW39760   3.468   0.158   1.216  0.1969 -0.3975  0.1311
 9376SOL    HW139761   3.491   0.108   1.138  1.0116 -0.7120  0.5776
 9376SOL    HW239762   3.387   0.116   1.244  0.3575 -0.5806  0.3172
 9377SOL     OW39763   0.384   1.771   4.229  0.1655 -0.1388 -0.0871
 9377SOL    HW139764   0.364   1.833   4.160 -1.3513 -0.7313 -0.1685
 9377SOL    HW239765   0.340   1.693   4.197  1.3055 -2.4548  3.8845
 9378SOL     OW39766   3.379   2.180  17.286  0.2695 -0.0198 -0.0298
 9378SOL    HW139767   3.328   2.255  17.254 -1.1004 -0.3409  1.3967
 9378SOL    HW239768   3.328   2.108  17.247  2.9712 -3.1334  2.1971
 9379SOL     OW39769   1.215   3.266   9.596  0.6013  0.1528  0.5852
 9379SOL    HW139770   1.148   3.321   9.637 -0.2360 -0.4762  0.0488
 9379SOL    HW239771   1.214   3.196   9.661  2.3542 -0.3792  0.0519
 9380SOL     OW39772   2.560   2.992   7.773  0.0539 -0.3607  0.2867
 9380SOL    HW139773   2.566   3.016   7.865  0.6325  0.6667 -0.0055
 9380SOL    HW239774   2.467   2.970   7.778  0.0429 -0.3712  0.0427
 9381SOL     OW39775   2.802   1.549   2.348  0.4080  0.2307 -0.2998
 9381SOL    HW139776   2.790   1.455   2.362  3.2474  0.2164  1.9828
 9381SOL    HW239777   2.811   1.546   2.252  1.4474  0.0816 -0.1951
 9382SOL     OW39778   2.495   1.728  11.643 -0.2574  0.0295 -0.1141
 9382SOL    HW139779   2.411   1.772  11.655 -1.3221 -1.6957 -1.2802
 9382SOL    HW239780   2.491   1.684  11.559  0.8274 -0.6902  0.2044
 9383SOL     OW39781   1.073   2.106  15.930 -0.6969 -0.0548  0.0777
 9383SOL    HW139782   0.987   2.135  15.960  0.7791  2.7488  1.6929
 9383SOL    HW239783   1.062   2.038  15.865  2.4445 -1.4468  0.9780
 9384SOL     OW39784   2.471   3.220   7.644 -0.0096  0.8014 -0.0927
 9384SOL    HW139785   2.382   3.197   7.669  0.7410 -1.4548  0.5374
 9384SOL    HW239786   2.512   3.135   7.660  1.2526  0.6605 -4.0227
 9385SOL     OW39787   3.730   4.716   6.629 -0.3411 -0.3491  0.0617
 9385SOL    HW139788   3.770   0.064   6.614 -0.0154 -1.1471 -3.5724
 9385SOL    HW239789   3.662   4.715   6.562 -0.1306  1.0736 -0.1695
 9386SOL     OW39790   0.735   1.959  15.573  0.1911  0.0785 -0.3963
 9386SOL    HW139791   0.828   1.946  15.594  0.0510  0.2816  0.3505
 9386SOL    HW239792   0.712   1.975  15.664 -1.8070  1.0609 -1.0719
 9387SOL     OW39793   3.774   3.270   8.420  0.3246  0.1601  0.0282
 9387SOL    HW139794   3.838   3.263   8.490 -0.7305  0.5786  1.0267
 9387SOL    HW239795   3.715   3.332   8.461  0.4433  0.4993 -0.3122
 9388SOL     OW39796   2.363   0.155  15.445  0.2115 -0.4243 -0.3872
 9388SOL    HW139797   2.429   0.096  15.482  0.6835 -0.3839 -1.1717
 9388SOL    HW239798   2.340   0.113  15.363 -2.7326 -1.7749  1.1081
 9389SOL     OW39799   4.480   2.733   4.086 -0.3637  0.9613  0.4854
 9389SOL    HW139800   4.449   2.647   4.114  2.7313 -0.9026 -1.7788
 9389SOL    HW239801   4.434   2.788   4.149  1.8186  0.6902  2.3352
 9390SOL     OW39802   1.090   2.577  17.679  0.5816  0.6415 -0.1061
 9390SOL    HW139803   1.111   2.663  17.643  1.3418 -0.0915 -1.4460
 9390SOL    HW239804   1.144   2.518  17.626 -0.5837 -0.1912 -0.3748
 9391SOL     OW39805   0.765   1.818   6.657 -0.1490 -0.6583  0.1779
 9391SOL    HW139806   0.715   1.739   6.635 -0.2851 -0.5320  0.0353
 9391SOL    HW239807   0.703   1.890   6.652 -0.5073 -1.0918 -1.3978
 9392SOL     OW39808   0.161   0.509   8.466  0.2301  0.3396  0.1327
 9392SOL    HW139809   0.145   0.463   8.548 -0.9582  1.3785  0.4879
 9392SOL    HW239810   0.157   0.439   8.401  0.6570  1.2432 -0.8698
 9393SOL     OW39811   1.342   4.261   5.766 -0.2407 -0.0416 -0.0831
 9393SOL    HW139812   1.326   4.305   5.682 -0.2169 -1.6389 -0.9305
 9393SOL    HW239813   1.387   4.335   5.807 -1.6883 -0.4382  2.1828
 9394SOL     OW39814   0.648   3.186   8.957 -0.6135  0.0994 -0.9522
 9394SOL    HW139815   0.607   3.161   8.875  1.1008 -0.5729 -1.6086
 9394SOL    HW239816   0.625   3.104   9.002  0.1655 -1.6786 -3.8137
 9395SOL     OW39817   4.625   2.203  12.731 -0.0541 -0.1057  0.3589
 9395SOL    HW139818   4.643   2.235  12.642  2.4262  1.6867  1.5138
 9395SOL    HW239819   4.591   2.282  12.771  0.8949  0.3408  0.2999
 9396SOL     OW39820   2.696   0.600   3.203 -0.3173  0.2282 -0.2852
 9396SOL    HW139821   2.733   0.657   3.136  1.9859 -1.2423 -0.2848
 9396SOL    HW239822   2.618   0.572   3.157 -0.0998 -1.6343  0.4690
 9397SOL     OW39823   2.336   3.639   7.936 -0.3482  0.9058  0.1864
 9397SOL    HW139824   2.397   3.577   7.895 -2.3364 -1.8527  1.4500
 9397SOL    HW239825   2.247   3.605   7.931  0.3356 -1.0081  1.1027
 9398SOL     OW39826   3.291   1.464   3.783  0.1875 -0.4793 -0.1540
 9398SOL    HW139827   3.360   1.494   3.842  1.4339  1.5289 -2.6833
 9398SOL    HW239828   3.238   1.543   3.769  3.8178  2.0882  0.5336
 9399SOL     OW39829   1.353   1.703  10.296  0.2011 -0.4546  0.5517
 9399SOL    HW139830   1.325   1.673  10.209 -0.6617  2.5729 -0.2405
 9399SOL    HW239831   1.317   1.792  10.296  0.6639 -0.2680  0.6926
 9400SOL     OW39832   2.396   2.102   7.774  0.2519  0.0920 -0.5634
 9400SOL    HW139833   2.383   2.016   7.815 -1.4457  1.4021  1.6302
 9400SOL    HW239834   2.483   2.119   7.810 -0.1813 -0.6133  0.8091
 9401SOL     OW39835   4.322   2.219   0.082 -0.0510 -0.3813 -0.3170
 9401SOL    HW139836   4.260   2.272   0.133  1.0545 -0.4861  1.1553
 9401SOL    HW239837   4.323   2.267  17.747  2.2208  2.2358  1.2137
 9402SOL     OW39838   0.288   3.570   6.318  0.1890  0.3540  0.5035
 9402SOL    HW139839   0.195   3.547   6.314 -0.0698  1.6842 -0.7857
 9402SOL    HW239840   0.309   3.600   6.407 -0.8050 -1.3580  1.3398
 9403SOL     OW39841   2.583   3.368  15.423 -0.3491 -0.0497  0.3831
 9403SOL    HW139842   2.535   3.306  15.477 -0.6819  1.2731  1.5953
 9403SOL    HW239843   2.591   3.324  15.338  0.7612 -0.1478  0.5366
 9404SOL     OW39844   4.177   3.883  15.861  0.3013  0.1950 -0.4414
 9404SOL    HW139845   4.221   3.808  15.822 -2.3635 -0.4925 -2.0849
 9404SOL    HW239846   4.249   3.946  15.874  0.3068 -0.3809  2.3165
 9405SOL     OW39847   4.611   0.944   3.821 -0.2587 -0.1872  0.0079
 9405SOL    HW139848   4.683   0.902   3.868  1.5267  0.1085 -2.4446
 9405SOL    HW239849   4.538   0.903   3.867 -0.8071  1.0649  0.2753
 9406SOL     OW39850   0.690   3.769   2.905  0.6177 -0.9064  0.1320
 9406SOL    HW139851   0.730   3.736   2.985  1.7371 -0.9765 -0.4498
 9406SOL    HW239852   0.668   3.680   2.877 -1.2590 -0.4824  0.2942
 9407SOL     OW39853   0.116   2.887  12.709  0.0808 -0.2613  0.6719
 9407SOL    HW139854   0.195   2.849  12.672  0.0609  2.2322 -1.8300
 9407SOL    HW239855   0.070   2.814  12.751  0.6444 -0.2970  1.2281
 9408SOL     OW39856   3.166   0.266   5.002  0.2431  0.0267 -0.2675
 9408SOL    HW139857   3.168   0.227   5.090  0.0099  0.3436 -0.1226
 9408SOL    HW239858   3.153   0.359   5.019 -0.2664 -0.2560  0.8784
 9409SOL     OW39859   2.565   3.182   2.844 -1.0735 -0.4962  0.9570
 9409SOL    HW139860   2.522   3.098   2.856  1.0006 -1.8259 -0.8101
 9409SOL    HW239861   2.495   3.227   2.797  0.1193 -0.2267 -0.5895
 9410SOL     OW39862   4.089   2.097   9.306 -0.0196 -0.9134  0.4999
 9410SOL    HW139863   4.056   2.018   9.263  1.8892 -0.9749 -0.8986
 9410SOL    HW239864   4.108   2.064   9.393  1.5755 -2.4370 -0.4122
 9411SOL     OW39865   1.842   0.431   8.932  0.3315 -0.3858  0.2007
 9411SOL    HW139866   1.809   0.499   8.990  0.0481  1.3672 -2.0565
 9411SOL    HW239867   1.882   0.365   8.989 -0.3534 -1.3320 -0.4115
 9412SOL     OW39868   3.201   1.921   2.689  0.0638 -0.8661  0.6902
 9412SOL    HW139869   3.193   1.829   2.714 -0.9582 -1.1067 -0.4917
 9412SOL    HW239870   3.281   1.909   2.638 -0.3584 -1.5461  0.1839
 9413SOL     OW39871   2.526   3.026   8.051 -0.2954 -0.1170 -0.4810
 9413SOL    HW139872   2.523   3.026   8.146 -0.5036  0.1232 -0.4860
 9413SOL    HW239873   2.431   3.020   8.037 -0.4790  1.2257  0.1994
 9414SOL     OW39874   4.592   1.675   1.743 -0.2634  0.0361  0.0889
 9414SOL    HW139875   4.514   1.683   1.688 -1.2729 -1.0686  1.3622
 9414SOL    HW239876   4.579   1.743   1.810 -0.5250  0.3926 -0.3252
 9415SOL     OW39877   1.310   3.111   2.504  0.5402 -0.0789 -0.7729
 9415SOL    HW139878   1.297   3.095   2.598  0.3603 -0.9670 -0.9434
 9415SOL    HW239879   1.379   3.048   2.483  1.2644 -0.6991  3.4779
 9416SOL     OW39880   3.085   4.630   6.280  0.0923  0.2814  0.2830
 9416SOL    HW139881   3.007   4.618   6.334 -1.3755 -0.3046 -1.9567
 9416SOL    HW239882   3.104   4.723   6.289 -3.0070  0.9186  0.2235
 9417SOL     OW39883   3.526   3.934  12.770  0.0766 -0.4048 -0.3122
 9417SOL    HW139884   3.536   3.912  12.863  1.6374  1.3432 -0.0855
 9417SOL    HW239885   3.466   3.868  12.735  1.7757 -1.8802 -0.4705
 9418SOL     OW39886   3.155   4.391  11.487  0.5633 -0.2864 -0.1037
 9418SOL    HW139887   3.179   4.318  11.431  1.3166  0.9705 -1.4136
 9418SOL    HW239888   3.219   4.392  11.557 -0.5540 -3.1829  0.9422
 9419SOL     OW39889   2.106   4.259   5.634  0.1101 -0.8848  0.7707
 9419SOL    HW139890   2.178   4.309   5.597 -2.7536  1.5997 -1.5302
 9419SOL    HW239891   2.036   4.323   5.619  1.8722  1.0592  0.9486
 9420SOL     OW39892   0.113   2.857   3.026  0.5763  0.4767 -0.2935
 9420SOL    HW139893   0.145   2.947   3.028 -0.4806  0.8979 -2.4370
 9420SOL    HW239894   0.143   2.828   2.940 -1.9261 -0.3709 -0.8553
 9421SOL     OW39895   1.226   2.194   0.513  0.3102  0.6860 -0.2391
 9421SOL    HW139896   1.184   2.180   0.598  0.8133  0.9789  0.0596
 9421SOL    HW239897   1.185   2.271   0.475  1.4338  0.9400 -0.9412
 9422SOL     OW39898   4.075   4.067   6.892 -0.3377  0.4089 -0.2839
 9422SOL    HW139899   4.066   3.979   6.857 -0.4537  0.2214  0.2301
 9422SOL    HW239900   4.121   4.098   6.813  0.8992 -0.3987  0.1301
 9423SOL     OW39901   2.939   3.437  11.126 -0.0959  0.2298 -0.2038
 9423SOL    HW139902   2.958   3.422  11.219 -1.3808  2.9920  0.5181
 9423SOL    HW239903   2.922   3.531  11.115 -2.8917 -0.0847  1.1621
 9424SOL     OW39904   3.794   3.799  14.105 -0.6067  0.2513  0.0232
 9424SOL    HW139905   3.718   3.858  14.099 -0.8542 -0.1461 -0.6512
 9424SOL    HW239906   3.781   3.767  14.016  0.2424  0.6053 -0.2261
 9425SOL     OW39907   1.153   1.928  17.628  0.1794  0.0377  0.3233
 9425SOL    HW139908   1.214   1.966  17.564 -0.0078 -0.6767 -0.2881
 9425SOL    HW239909   1.161   1.838  17.596 -0.2098 -0.2922  1.1627
 9426SOL     OW39910   2.265   0.336  17.574 -0.2127 -0.4827  0.5734
 9426SOL    HW139911   2.198   0.301  17.515  0.6567 -0.5576 -0.3809
 9426SOL    HW239912   2.233   0.426  17.576  1.1376 -0.0346  1.8140
 9427SOL     OW39913   4.701   1.070   2.586  0.1084 -0.2381  0.4526
 9427SOL    HW139914   0.017   1.135   2.540 -1.5968  0.8423 -0.0194
 9427SOL    HW239915   4.638   1.062   2.514  0.9967  0.8417 -0.4658
 9428SOL     OW39916   2.964   4.569  11.444 -0.4003 -0.5996 -0.0533
 9428SOL    HW139917   3.040   4.515  11.464  0.8972  0.4032 -2.3653
 9428SOL    HW239918   2.895   4.522  11.492 -2.7625  2.2244 -0.6736
 9429SOL     OW39919   0.644   4.271   7.156 -0.3814 -0.6373 -0.0306
 9429SOL    HW139920   0.716   4.308   7.105  0.2228  0.8203  1.9243
 9429SOL    HW239921   0.625   4.334   7.225  1.1757  0.4698 -0.6131
 9430SOL     OW39922   3.547   3.440   7.120  0.3754  0.2965 -0.0545
 9430SOL    HW139923   3.513   3.366   7.170 -1.6908  0.3221 -1.4262
 9430SOL    HW239924   3.585   3.479   7.199  1.3678 -1.9481  0.5711
 9431SOL     OW39925   4.690   3.357  15.734  0.4292 -0.0162 -0.3707
 9431SOL    HW139926   4.706   3.277  15.683  2.7682 -1.3459  2.3877
 9431SOL    HW239927   0.022   3.414  15.701 -0.4316  0.3449 -1.5454
 9432SOL     OW39928   2.690   4.438   1.217  0.7209  0.5172 -0.1574
 9432SOL    HW139929   2.777   4.463   1.248  0.3045 -0.2911  1.6334
 9432SOL    HW239930   2.648   4.519   1.248  0.1238  0.3171 -0.4516
 9433SOL     OW39931   2.627   3.458  11.092 -0.3378 -0.3093  0.4081
 9433SOL    HW139932   2.660   3.547  11.104  0.0046 -0.1797 -1.5632
 9433SOL    HW239933   2.540   3.468  11.130 -0.5422  0.7567 -0.3517
 9434SOL     OW39934   0.100   2.702   7.331  0.0781 -0.3576 -0.2189
 9434SOL    HW139935   0.045   2.633   7.370 -1.7849  0.0703 -2.0894
 9434SOL    HW239936   0.107   2.681   7.238 -3.8405  0.9612 -0.8401
 9435SOL     OW39937   0.300   0.847  15.623 -0.3416 -0.0810  0.0138
 9435SOL    HW139938   0.318   0.804  15.707  0.4016  2.5091  1.1501
 9435SOL    HW239939   0.391   0.853  15.595 -0.4147 -2.4425 -0.7610
 9436SOL     OW39940   4.711   0.310   4.268  0.1514 -0.3198  0.2780
 9436SOL    HW139941   4.651   0.294   4.194 -0.7027  1.2064  0.6385
 9436SOL    HW239942   4.684   0.245   4.333  1.7142  1.5634  2.7908
 9437SOL     OW39943   0.389   3.386   4.583 -0.2001  0.0982 -0.0795
 9437SOL    HW139944   0.343   3.318   4.632 -0.3953  1.0057  0.9975
 9437SOL    HW239945   0.327   3.435   4.529  0.2481  0.7854  0.0270
 9438SOL     OW39946   2.207   3.837   9.184 -0.1756 -0.4790  0.0981
 9438SOL    HW139947   2.179   3.904   9.122  0.6269 -1.7464 -1.6264
 9438SOL    HW239948   2.211   3.895   9.260 -0.9991  1.0393 -1.0144
 9439SOL     OW39949   3.938   0.973   7.422 -0.5099  0.0294 -0.6863
 9439SOL    HW139950   3.916   0.911   7.491  1.3470 -0.7525 -0.7809
 9439SOL    HW239951   3.919   0.922   7.344  3.8585 -1.7644 -0.5696
 9440SOL     OW39952   4.670   4.341   8.712  0.1373 -0.0975 -0.1961
 9440SOL    HW139953   4.576   4.335   8.726  0.4451 -0.3617  1.8196
 9440SOL    HW239954   4.691   4.432   8.691 -2.8417  0.4237 -0.9308
 9441SOL     OW39955   2.982   0.292   6.764  0.1151  0.0387 -0.2686
 9441SOL    HW139956   2.960   0.199   6.757 -0.1766  0.1108 -0.2951
 9441SOL    HW239957   2.905   0.336   6.728 -0.2681 -0.3181  0.1206
 9442SOL     OW39958   3.333   1.356   2.072  0.3982 -0.0634 -0.1430
 9442SOL    HW139959   3.288   1.280   2.111 -0.8822  0.4549 -0.6158
 9442SOL    HW239960   3.316   1.419   2.142  0.9505  0.5850 -0.5997
 9443SOL     OW39961   0.552   0.121   1.622  0.0131  0.0690 -1.0475
 9443SOL    HW139962   0.484   0.183   1.596 -1.6964 -1.0459  0.8090
 9443SOL    HW239963   0.619   0.121   1.553  0.6482 -0.6825 -0.4273
 9444SOL     OW39964   0.947   3.292   8.765 -0.1493 -0.6675  0.2735
 9444SOL    HW139965   0.965   3.220   8.825 -1.8038 -0.4366  1.0448
 9444SOL    HW239966   1.033   3.333   8.771 -0.0688 -0.9012  0.6922
 9445SOL     OW39967   0.180   2.253   0.287 -0.5698  0.0853  0.4822
 9445SOL    HW139968   0.228   2.318   0.235  1.2257 -1.7386 -0.1158
 9445SOL    HW239969   0.105   2.228   0.232 -0.0282  0.6903 -0.5444
 9446SOL     OW39970   2.496   2.466   4.450 -0.7814 -0.1266 -0.1141
 9446SOL    HW139971   2.480   2.397   4.514 -0.0747  0.1634  0.3779
 9446SOL    HW239972   2.541   2.536   4.498  0.1459 -0.0254 -1.1304
 9447SOL     OW39973   1.518   2.048   5.434  0.4705  0.0086  0.2285
 9447SOL    HW139974   1.448   2.107   5.405  0.1064 -0.8024 -0.5409
 9447SOL    HW239975   1.587   2.081   5.375 -0.5140  1.6069 -0.0203
 9448SOL     OW39976   3.283   1.145  11.900 -0.2767  0.4592  0.7943
 9448SOL    HW139977   3.250   1.060  11.872 -0.6632  1.0866 -0.6175
 9448SOL    HW239978   3.363   1.162  11.851 -0.9823  0.7034 -0.2767
 9449SOL     OW39979   3.496   2.985   5.433  0.0227  0.3191 -0.0078
 9449SOL    HW139980   3.585   3.009   5.408  0.0334  0.5369  0.2365
 9449SOL    HW239981   3.489   3.006   5.526  0.2924 -1.2035  0.3600
 9450SOL     OW39982   0.347   0.491   2.696  0.2485  0.7954 -0.2243
 9450SOL    HW139983   0.302   0.575   2.701  0.8590  1.1059 -0.0063
 9450SOL    HW239984   0.321   0.460   2.609  1.7475  0.8440 -0.7017
 9451SOL     OW39985   0.524   3.246   1.292 -0.1097  0.5601 -0.0716
 9451SOL    HW139986   0.535   3.279   1.203  1.1219 -1.3172 -0.6194
 9451SOL    HW239987   0.474   3.318   1.329 -0.4417  0.8071 -0.9985
 9452SOL     OW39988   4.416   3.215  14.792  0.2716 -0.1241  0.0306
 9452SOL    HW139989   4.373   3.165  14.723  0.1367 -1.6478  1.2196
 9452SOL    HW239990   4.468   3.143  14.828  1.5186 -0.2436 -1.9989
 9453SOL     OW39991   1.505   0.790   9.157 -0.1342  0.6291 -0.0809
 9453SOL    HW139992   1.549   0.813   9.238 -0.4493 -0.2851  0.3625
 9453SOL    HW239993   1.552   0.708   9.138 -0.5789  0.3085  0.2037
 9454SOL     OW39994   3.384   1.588   8.551 -0.1072  0.2556 -0.1838
 9454SOL    HW139995   3.321   1.544   8.609 -0.4945  0.3777 -0.5143
 9454SOL    HW239996   3.459   1.609   8.607 -0.0054  0.5308 -0.4237
 9455SOL     OW39997   3.642   3.627   9.364 -0.6706 -0.1033 -0.6390
 9455SOL    HW139998   3.635   3.723   9.362 -1.5030 -0.1996 -2.2482
 9455SOL    HW239999   3.699   3.621   9.287 -1.6746 -0.8970 -1.3205
 9456SOL     OW40000   4.027   0.996   8.528  0.3368  0.3594  0.2255
 9456SOL    HW140001   4.119   0.983   8.552 -0.0550  0.3146  1.7051
 9456SOL    HW240002   3.991   0.908   8.516  0.0331  0.5256 -0.0927
 9457SOL     OW40003   2.322   1.547   7.018 -0.2713  0.3976 -0.1505
 9457SOL    HW140004   2.320   1.638   7.047  1.2550  0.2036  0.6149
 9457SOL    HW240005   2.329   1.491   7.096  0.4126  2.1773  1.0883
 9458SOL     OW40006   3.031   3.282   6.694  0.2584 -0.2279 -0.0080
 9458SOL    HW140007   3.067   3.341   6.628 -0.1419  0.0962  0.0720
 9458SOL    HW240008   3.091   3.206   6.694 -1.5386 -1.6448  1.7479
 9459SOL     OW40009   1.237   2.949   5.211 -0.6508 -0.0490  0.0821
 9459SOL    HW140010   1.329   2.973   5.222 -0.7885 -0.2349  1.5678
 9459SOL    HW240011   1.208   2.930   5.300 -0.7916 -0.7919 -0.1277
 9460SOL     OW40012   2.031   0.130   5.056  1.0125 -0.3135 -0.1647
 9460SOL    HW140013   1.995   0.046   5.029 -1.5262  0.9093 -0.6244
 9460SOL    HW240014   2.119   0.105   5.085  0.4359 -1.4800  0.5747
 9461SOL     OW40015   0.476   1.173   6.964 -0.5214 -0.2488 -0.1304
 9461SOL    HW140016   0.412   1.104   6.983 -2.2263  1.6909  1.0874
 9461SOL    HW240017   0.483   1.213   7.051  0.4379 -1.5883  0.4170
 9462SOL     OW40018   3.239   1.902  15.623  0.0716 -0.3617 -0.3743
 9462SOL    HW140019   3.209   1.967  15.559 -0.4859 -0.6042 -0.3553
 9462SOL    HW240020   3.158   1.859  15.649 -0.4443  0.3628 -0.7943
 9463SOL     OW40021   4.036   0.685   6.145  0.1817 -0.0954  0.4550
 9463SOL    HW140022   4.024   0.645   6.058 -0.6346  0.3202  0.3742
 9463SOL    HW240023   4.128   0.710   6.152 -0.2273  1.6513 -0.4938
 9464SOL     OW40024   3.479   3.420   9.866  0.4935  0.1109  0.3935
 9464SOL    HW140025   3.474   3.476   9.788  0.5459 -1.6130 -0.8450
 9464SOL    HW240026   3.437   3.485   9.922  0.8759  1.6167 -1.0371
 9465SOL     OW40027   3.029   3.132   7.501  0.2391  0.0372 -0.1855
 9465SOL    HW140028   2.947   3.176   7.524  0.3992  0.6202 -0.7495
 9465SOL    HW240029   3.009   3.047   7.542 -1.9027  0.3838 -0.4988
 9466SOL     OW40030   0.318   4.264   8.680 -0.3239 -0.3259  0.4746
 9466SOL    HW140031   0.293   4.294   8.768  2.6126  1.5956  0.6659
 9466SOL    HW240032   0.401   4.218   8.690 -0.1937  0.0357  1.0586
 9467SOL     OW40033   0.216   2.080   1.000  0.1484  0.0242  0.0705
 9467SOL    HW140034   0.125   2.050   1.007  0.4715 -1.0497 -0.4459
 9467SOL    HW240035   0.211   2.116   0.912  0.3903  1.3275  0.5836
 9468SOL     OW40036   1.072   1.747  11.797  0.2988 -0.6660  0.0063
 9468SOL    HW140037   0.997   1.716  11.848 -0.3910  0.8563 -0.0986
 9468SOL    HW240038   1.019   1.778  11.724  1.4647  0.0820 -0.5236
 9469SOL     OW40039   4.732   2.887   1.891  0.3736 -0.1627  0.2756
 9469SOL    HW140040   4.676   2.964   1.891  0.3451 -0.1837  0.2940
 9469SOL    HW240041   0.013   2.861   1.981  0.2843 -0.9368  0.0698
 9470SOL     OW40042   4.109   3.558   3.973 -0.0499  0.2837 -0.3027
 9470SOL    HW140043   4.089   3.637   4.022  0.4027  0.0288  0.2899
 9470SOL    HW240044   4.034   3.516   4.014 -0.3821  0.8678 -0.3049
 9471SOL     OW40045   3.694   4.587   7.827  0.2558 -0.4413  0.2180
 9471SOL    HW140046   3.599   4.575   7.833  0.1748  1.5149  2.9192
 9471SOL    HW240047   3.723   4.496   7.825  0.8812 -0.2503  0.7197
 9472SOL     OW40048   1.796   0.142   6.834  0.2086  0.2079 -0.3476
 9472SOL    HW140049   1.748   0.224   6.824  1.2147  1.2153  3.1921
 9472SOL    HW240050   1.762   0.087   6.763  0.8488  0.5629 -0.9263
 9473SOL     OW40051   0.485   2.386   5.189  0.2610  0.0292 -0.2195
 9473SOL    HW140052   0.417   2.392   5.121 -0.8806  0.3816  0.9442
 9473SOL    HW240053   0.561   2.370   5.134  0.5861 -0.7521  0.4598
 9474SOL     OW40054   3.079   1.022   4.545  0.0751  0.2732 -0.1143
 9474SOL    HW140055   3.126   0.939   4.554 -0.3491 -0.0396 -0.8012
 9474SOL    HW240056   3.058   1.045   4.636 -0.8016  3.5529 -1.1589
 9475SOL     OW40057   3.763   1.572   9.883  0.1912  0.0966  0.3516
 9475SOL    HW140058   3.778   1.635   9.953 -0.1172  0.5266  0.0298
 9475SOL    HW240059   3.681   1.605   9.845  0.4997 -0.1740 -0.5371
 9476SOL     OW40060   0.776   3.982   2.765  0.2677  0.2630 -0.5910
 9476SOL    HW140061   0.869   3.978   2.786  0.0712  0.0216  0.2005
 9476SOL    HW240062   0.733   3.908   2.807  1.4638 -0.7281 -1.1024
 9477SOL     OW40063   0.237   0.023   3.108  0.4317  0.1331  0.0622
 9477SOL    HW140064   0.291   0.100   3.088  0.1997 -0.6782 -3.7036
 9477SOL    HW240065   0.277   4.693   3.053  0.2824 -0.5950  0.8593
 9478SOL     OW40066   0.943   0.542   5.279 -0.3954 -0.6476 -0.2533
 9478SOL    HW140067   1.024   0.521   5.326 -1.1023  0.0066  1.2949
 9478SOL    HW240068   0.882   0.476   5.311 -1.4805 -0.1799 -1.3608
 9479SOL     OW40069   3.670   3.371   0.539 -0.4041 -0.2858  0.5122
 9479SOL    HW140070   3.756   3.352   0.577 -1.1465  3.0255  3.7434
 9479SOL    HW240071   3.689   3.423   0.461 -2.3813 -0.3712 -0.0158
 9480SOL     OW40072   1.332   2.588  16.783  0.4783 -0.3109  0.1760
 9480SOL    HW140073   1.325   2.521  16.715  2.1461 -0.3325  0.0069
 9480SOL    HW240074   1.422   2.613  16.763  0.1224  0.6508 -0.1927
 9481SOL     OW40075   0.674   3.018   8.490  0.3198  0.4379  0.1490
 9481SOL    HW140076   0.761   3.044   8.519 -0.2291  4.1753 -1.5706
 9481SOL    HW240077   0.662   2.923   8.502  2.7635  0.2079  0.9313
 9482SOL     OW40078   4.537   1.654   7.096 -0.3342  0.1852 -0.4862
 9482SOL    HW140079   4.562   1.582   7.155 -1.7711 -0.6845 -0.9482
 9482SOL    HW240080   4.605   1.721   7.103  0.0102 -0.1454 -0.6245
 9483SOL     OW40081   3.028   3.120  16.751  0.3238  0.2915  0.2536
 9483SOL    HW140082   2.968   3.079  16.814  0.0262  0.3536  0.0054
 9483SOL    HW240083   3.107   3.132  16.805 -0.0043  2.4173  0.2629
 9484SOL     OW40084   3.061   1.083  11.623  0.0467  0.4918 -0.0989
 9484SOL    HW140085   3.071   1.030  11.702 -2.0907  0.6016  0.2410
 9484SOL    HW240086   3.122   1.155  11.641  0.4630 -0.0943  0.7689
 9485SOL     OW40087   0.963   2.037   5.533  0.2114 -0.0320 -0.3585
 9485SOL    HW140088   0.894   2.000   5.587  1.3264 -1.4444  0.0845
 9485SOL    HW240089   0.910   2.028   5.454  1.8265  0.4342 -1.4814
 9486SOL     OW40090   4.424   4.430   7.778  0.5945  0.0203 -0.4152
 9486SOL    HW140091   4.433   4.476   7.861  0.0926 -0.3544 -0.1513
 9486SOL    HW240092   4.329   4.425   7.770  0.4877  0.2454  0.8627
 9487SOL     OW40093   2.031   0.764   6.987 -0.1982  0.1496 -0.0145
 9487SOL    HW140094   1.975   0.820   6.934  0.1660  0.5605  0.0369
 9487SOL    HW240095   1.997   0.675   6.974 -1.0285  0.8003 -2.3727
 9488SOL     OW40096   0.435   3.423   9.569  0.6071 -0.4573 -0.4103
 9488SOL    HW140097   0.390   3.419   9.484 -0.5610  0.9139  0.1457
 9488SOL    HW240098   0.438   3.329   9.583 -1.7305 -0.3763  0.5159
 9489SOL     OW40099   1.102   0.221  12.049  0.0991 -0.1744  0.0649
 9489SOL    HW140100   1.107   0.160  11.976 -0.8772  2.4288 -2.1814
 9489SOL    HW240101   1.023   0.271  12.030  0.2083  0.5618  1.5195
 9490SOL     OW40102   3.529   4.571  17.424  0.1076  0.8219  1.0596
 9490SOL    HW140103   3.498   4.512  17.492 -1.8839  0.5548 -0.0713
 9490SOL    HW240104   3.618   4.538  17.406 -0.7654 -0.5151 -0.7983
 9491SOL     OW40105   1.359   4.439   0.808 -0.4413 -0.0124 -0.4297
 9491SOL    HW140106   1.267   4.412   0.810 -1.0760  2.1744  0.2212
 9491SOL    HW240107   1.384   4.394   0.889 -0.1556 -0.1093 -0.5727
 9492SOL     OW40108   0.413   4.509   8.528 -0.7039  0.4990 -0.1259
 9492SOL    HW140109   0.355   4.434   8.544 -1.1284  0.4612 -1.7583
 9492SOL    HW240110   0.491   4.454   8.523 -1.4701 -0.6503  0.5249
 9493SOL     OW40111   0.337   0.279   1.516  0.4662 -0.3156  0.0641
 9493SOL    HW140112   0.331   0.346   1.584  0.2734  0.7033 -0.9574
 9493SOL    HW240113   0.275   0.316   1.454  0.8378 -2.6975 -1.7266
 9494SOL     OW40114   1.180   1.137   7.176  0.6138 -0.5118  0.4108
 9494SOL    HW140115   1.157   1.226   7.203 -0.7002 -0.8325  0.3759
 9494SOL    HW240116   1.089   1.106   7.185  0.6444 -0.8276 -0.3850
 9495SOL     OW40117   2.979   0.095   2.471  0.0267  0.7592 -0.1090
 9495SOL    HW140118   2.939   0.014   2.441  3.7071 -1.4187  0.9448
 9495SOL    HW240119   3.049   0.107   2.406  1.8974 -0.0474  1.7715
 9496SOL     OW40120   0.874   4.349  14.671  0.2810 -0.3651 -0.3520
 9496SOL    HW140121   0.915   4.359  14.757  0.0527 -3.8717  0.1459
 9496SOL    HW240122   0.950   4.344  14.613  0.1247  0.2580 -0.6239
 9497SOL     OW40123   0.324   4.452   9.800 -0.0091  0.1740 -0.5335
 9497SOL    HW140124   0.239   4.421   9.768 -1.8568  2.1489  2.4300
 9497SOL    HW240125   0.358   4.368   9.831  2.1954  0.8914 -1.0503
 9498SOL     OW40126   2.337   4.183   8.032 -0.2208 -0.4479 -0.7258
 9498SOL    HW140127   2.354   4.158   8.122 -1.7012  0.5456 -0.1705
 9498SOL    HW240128   2.321   4.277   8.039 -0.2811 -0.5769  0.8792
 9499SOL     OW40129   2.815   1.993   2.779 -0.2672 -0.2236  0.1196
 9499SOL    HW140130   2.722   2.002   2.760  0.4168  2.2391 -2.0626
 9499SOL    HW240131   2.814   1.963   2.870 -0.7398  1.2089  0.5805
 9500SOL     OW40132   3.637   3.970   4.544  0.3948  0.0045  0.4062
 9500SOL    HW140133   3.626   3.938   4.633  1.7317  0.4453  0.7275
 9500SOL    HW240134   3.706   4.036   4.555  1.4470 -0.8665 -0.8921
 9501SOL     OW40135   3.306   2.934   7.088  0.6050  0.1171  0.1050
 9501SOL    HW140136   3.359   3.011   7.068  1.8065  0.0637  3.1772
 9501SOL    HW240137   3.250   2.969   7.156 -1.3620 -1.4454 -0.7064
 9502SOL     OW40138   4.460   2.314   2.337  0.4028 -0.5821  0.1977
 9502SOL    HW140139   4.463   2.363   2.419  0.6604  0.7607 -0.6105
 9502SOL    HW240140   4.376   2.272   2.354  1.5631 -2.9668 -0.0877
 9503SOL     OW40141   2.385   1.421   5.911  0.0892  0.5360 -0.0000
 9503SOL    HW140142   2.387   1.504   5.958  0.1106  1.2915 -1.3284
 9503SOL    HW240143   2.326   1.375   5.969  1.3270 -2.3608 -1.0414
 9504SOL     OW40144   1.203   1.170   5.852  0.7866  0.2665 -0.7835
 9504SOL    HW140145   1.141   1.132   5.789  0.5889  2.8516 -2.1491
 9504SOL    HW240146   1.213   1.097   5.914 -1.4282 -3.3793 -4.6881
 9505SOL     OW40147   4.334   4.400  10.584 -0.1519 -0.4978 -0.1341
 9505SOL    HW140148   4.381   4.361  10.510 -0.3300  1.5558 -1.3467
 9505SOL    HW240149   4.364   4.490  10.574 -0.1713 -0.5947 -1.1486
 9506SOL     OW40150   3.018   0.005   3.373 -0.7244  0.2368  0.0576
 9506SOL    HW140151   3.017   0.099   3.392 -0.8924  0.1832  0.3230
 9506SOL    HW240152   2.985   0.003   3.284 -0.6989 -0.7955  0.0673
 9507SOL     OW40153   2.132   1.279   8.338  0.2794  0.5732 -0.3002
 9507SOL    HW140154   2.046   1.307   8.306 -0.2997  1.4901  2.0611
 9507SOL    HW240155   2.164   1.248   8.254 -2.7631 -1.8998 -0.5588
 9508SOL     OW40156   1.456   1.510  11.717  0.2889  0.4118 -0.0605
 9508SOL    HW140157   1.535   1.503  11.771  0.5675 -3.0405 -0.9153
 9508SOL    HW240158   1.478   1.578  11.654 -2.7945 -0.8578 -2.4708
 9509SOL     OW40159   2.660   0.901   6.564 -0.3095 -0.5677 -0.2326
 9509SOL    HW140160   2.750   0.896   6.595 -0.7967 -3.2357  0.7113
 9509SOL    HW240161   2.669   0.901   6.468  1.0088 -0.5749 -0.1067
 9510SOL     OW40162   0.571   1.304   4.317  0.0170 -0.0811  0.2580
 9510SOL    HW140163   0.519   1.341   4.389  0.5824  1.0010  0.1074
 9510SOL    HW240164   0.541   1.370   4.255  0.7635  0.5537  0.5748
 9511SOL     OW40165   3.027   2.227   6.756  0.1663 -0.4868 -0.4181
 9511SOL    HW140166   3.009   2.318   6.736  2.2706 -0.0793 -0.4961
 9511SOL    HW240167   2.943   2.196   6.790 -0.5031  1.1307 -0.6041
 9512SOL     OW40168   1.436   2.160   3.560 -0.4437 -0.5632 -0.4702
 9512SOL    HW140169   1.526   2.129   3.554 -0.4004 -1.0218  2.5745
 9512SOL    HW240170   1.453   2.242   3.607  1.5668 -1.2590 -0.0034
 9513SOL     OW40171   4.651   0.611   8.503 -0.2061  0.3659 -0.2797
 9513SOL    HW140172   0.004   0.609   8.470  0.7381 -0.8660  2.3776
 9513SOL    HW240173   4.665   0.570   8.588 -0.7728  1.4142  0.3137
 9514SOL     OW40174   2.428   3.153  10.310 -0.3052  0.0871 -0.3996
 9514SOL    HW140175   2.440   3.077  10.367  0.7346  0.4237 -0.1716
 9514SOL    HW240176   2.474   3.218  10.362  2.0368 -2.0140  0.1183
 9515SOL     OW40177   4.021   4.628   6.425 -0.9633  0.2195  0.7013
 9515SOL    HW140178   4.101   4.635   6.372 -1.6757 -1.4722 -0.6200
 9515SOL    HW240179   4.049   4.563   6.489  1.3034  0.7348  0.2469
 9516SOL     OW40180   1.075   4.637  17.300 -0.1093 -0.0513 -0.0424
 9516SOL    HW140181   1.072   4.558  17.246 -0.3889  0.0603 -0.1898
 9516SOL    HW240182   1.136   4.690  17.250 -1.8199  2.1739  0.2206
 9517SOL     OW40183   3.259   2.395  12.340  0.2776 -0.2154  0.4572
 9517SOL    HW140184   3.309   2.427  12.415  0.2095  1.0287 -0.0423
 9517SOL    HW240185   3.173   2.413  12.377  0.0894  0.6207 -0.4032
 9518SOL     OW40186   1.929   1.716   4.338  0.2426 -0.0626 -0.2519
 9518SOL    HW140187   1.901   1.801   4.306  0.9836 -0.0596 -0.8626
 9518SOL    HW240188   1.852   1.679   4.382  0.8587 -2.3909 -1.1306
 9519SOL     OW40189   2.100   0.095   2.411 -0.4617  0.3192  0.0893
 9519SOL    HW140190   2.095   0.134   2.499 -0.1218  0.4799  0.0361
 9519SOL    HW240191   2.132   0.172   2.364  0.4449  0.4602  0.9405
 9520SOL     OW40192   1.216   0.907  13.480  0.1876  0.1320  0.8088
 9520SOL    HW140193   1.199   0.970  13.550 -0.6981 -0.3925  1.0709
 9520SOL    HW240194   1.135   0.858  13.489 -1.3329  2.8093  1.6744
 9521SOL     OW40195   0.191   2.612   3.990 -0.0170  0.2205  0.0693
 9521SOL    HW140196   0.118   2.647   4.042  0.7924  2.6817 -0.4226
 9521SOL    HW240197   0.145   2.604   3.906  1.2152 -1.1212 -0.4754
 9522SOL     OW40198   3.116   1.732   5.043 -0.0817 -0.8325  0.2128
 9522SOL    HW140199   3.128   1.662   4.978  0.6327 -0.3027 -0.2343
 9522SOL    HW240200   3.130   1.805   4.983 -3.4214  0.0626  0.5212
 9523SOL     OW40201   0.474   4.311   4.148 -0.9333 -0.1561 -0.2544
 9523SOL    HW140202   0.448   4.355   4.067  0.7735 -0.4482 -0.9617
 9523SOL    HW240203   0.525   4.241   4.109  0.7917  0.6245  0.5815
 9524SOL     OW40204   3.475   0.059   6.108 -0.4176 -0.1922 -0.2366
 9524SOL    HW140205   3.478   0.123   6.038  1.2239  0.4750  0.4288
 9524SOL    HW240206   3.435   4.723   6.061  2.1460 -0.1655 -2.4690
 9525SOL     OW40207   3.507   0.309   7.702  0.0500 -0.4250  0.2309
 9525SOL    HW140208   3.584   0.277   7.749 -0.4813 -1.4575  0.4032
 9525SOL    HW240209   3.533   0.270   7.618 -2.4256 -0.6571 -0.4219
 9526SOL     OW40210   4.144   2.484   1.323 -0.1260  0.3559 -0.3490
 9526SOL    HW140211   4.086   2.472   1.399  1.9477 -0.3561  1.1191
 9526SOL    HW240212   4.145   2.580   1.329 -0.9392  0.3140  0.6194
 9527SOL     OW40213   0.025   1.193   8.335 -0.3681 -0.3064 -0.0178
 9527SOL    HW140214   4.677   1.207   8.376 -0.3093 -0.7583  0.2519
 9527SOL    HW240215   0.012   1.237   8.251 -0.0435  0.8949  0.5587
 9528SOL     OW40216   0.298   0.968  10.712 -0.1463  0.5963 -0.5495
 9528SOL    HW140217   0.232   1.014  10.764  0.0956  1.2250 -0.8118
 9528SOL    HW240218   0.241   0.909  10.663  0.0688 -1.7046  1.9323
 9529SOL     OW40219   3.742   0.486   7.175  0.7418 -0.3527  0.4550
 9529SOL    HW140220   3.751   0.394   7.153  1.4374 -0.3376  0.6764
 9529SOL    HW240221   3.800   0.480   7.251  1.2559  1.4637  0.2179
 9530SOL     OW40222   0.524   0.093  10.849  0.0744  0.0602  0.3246
 9530SOL    HW140223   0.439   0.132  10.826 -0.7134 -0.8771  1.6296
 9530SOL    HW240224   0.498   0.004  10.825 -2.0222  0.6866  0.2543
 9531SOL     OW40225   2.297   1.171   2.765 -0.3711  0.1145  0.3758
 9531SOL    HW140226   2.217   1.203   2.807  0.0333 -0.6321  1.7356
 9531SOL    HW240227   2.346   1.162   2.848  0.3667  1.8813  0.1438
 9532SOL     OW40228   2.120   2.331   9.564  0.5704  0.7623 -0.1426
 9532SOL    HW140229   2.051   2.271   9.539 -0.0774  2.0408 -1.4105
 9532SOL    HW240230   2.078   2.413   9.591  0.9210  1.4867 -1.8213
 9533SOL     OW40231   3.825   0.831   9.376  0.6342  0.0768  0.1645
 9533SOL    HW140232   3.782   0.798   9.455  0.6269  1.6591  0.8303
 9533SOL    HW240233   3.792   0.921   9.377 -0.7044 -0.4201  1.0096
 9534SOL     OW40234   4.539   1.990  17.536  0.2967  0.0297  0.6883
 9534SOL    HW140235   4.445   1.997  17.519  0.3118 -0.4899  0.3953
 9534SOL    HW240236   4.543   2.020  17.627 -2.4096 -0.3115  0.9315
 9535SOL     OW40237   4.162   3.969   6.235 -0.3837  0.3835  0.0847
 9535SOL    HW140238   4.112   3.919   6.170 -1.3467  1.3941  0.0450
 9535SOL    HW240239   4.181   3.898   6.297 -0.0720 -0.0315 -0.4851
 9536SOL     OW40240   4.006   3.412   9.759  0.0402  0.5318 -0.2429
 9536SOL    HW140241   4.025   3.475   9.829  1.1533 -0.2262  0.1406
 9536SOL    HW240242   3.926   3.369   9.788  1.1315 -0.8468  0.7001
 9537SOL     OW40243   0.125   3.791   3.270 -0.2684  0.4156  0.7510
 9537SOL    HW140244   0.045   3.746   3.296  0.4044 -0.2082  1.7253
 9537SOL    HW240245   0.139   3.869   3.323 -0.2286 -0.7783  2.4650
 9538SOL     OW40246   0.971   1.223   7.728  0.4894  0.3663  0.4945
 9538SOL    HW140247   1.006   1.294   7.781  0.1052  0.9138  0.0062
 9538SOL    HW240248   0.888   1.204   7.772  0.5466  1.3448  1.0142
 9539SOL     OW40249   0.390   0.447   7.133 -0.6820 -0.9111 -0.0216
 9539SOL    HW140250   0.427   0.515   7.077 -0.4076 -1.1673 -0.1460
 9539SOL    HW240251   0.301   0.482   7.148 -0.0728 -0.0995  1.7633
 9540SOL     OW40252   4.057   2.481   4.464 -0.4195  0.1022 -0.0049
 9540SOL    HW140253   4.078   2.573   4.482 -0.4145 -0.0727  0.9018
 9540SOL    HW240254   3.965   2.474   4.490  0.3514 -2.1008  2.1821
 9541SOL     OW40255   0.098   3.589   2.461 -0.0039 -0.2172 -0.0556
 9541SOL    HW140256   0.129   3.679   2.469  0.9672 -0.5616  0.0845
 9541SOL    HW240257   0.130   3.575   2.372  1.1283  0.5990  0.2294
 9542SOL     OW40258   2.370   3.815   1.049 -0.0988 -0.3613 -0.0585
 9542SOL    HW140259   2.282   3.790   1.079 -0.6546  0.7346 -0.7552
 9542SOL    HW240260   2.402   3.861   1.126 -1.1144  0.1426  0.0614
 9543SOL     OW40261   1.923   1.640  13.477 -0.0005  0.7780  0.0459
 9543SOL    HW140262   1.851   1.685  13.431 -1.6163 -2.3470 -0.5095
 9543SOL    HW240263   1.977   1.714  13.504  1.1010  0.3594 -1.0298
 9544SOL     OW40264   0.900   3.395  12.057  0.0435  0.0917  0.3458
 9544SOL    HW140265   0.888   3.337  12.133 -1.2108 -0.1589 -0.0400
 9544SOL    HW240266   0.957   3.460  12.098  0.9855 -0.4081 -0.1799
 9545SOL     OW40267   0.063   0.239   4.621 -0.3614 -0.1458 -0.3207
 9545SOL    HW140268   0.112   0.197   4.549  0.1568  0.0074 -0.0573
 9545SOL    HW240269   0.132   0.265   4.681 -1.5358 -1.2292  1.4765
 9546SOL     OW40270   4.098   3.892  15.238  0.0703 -0.3367  0.0480
 9546SOL    HW140271   4.097   3.798  15.220  0.0531 -0.2816 -0.2460
 9546SOL    HW240272   4.173   3.889  15.297  0.9715  1.6691 -0.9572
 9547SOL     OW40273   0.833   1.922  15.113 -0.9298  1.0255  0.1976
 9547SOL    HW140274   0.815   1.944  15.022 -0.1733  1.0810  0.0579
 9547SOL    HW240275   0.759   1.865  15.131 -0.9003  0.6435 -0.9045
 9548SOL     OW40276   4.461   1.954   2.553  0.7134 -0.1655 -0.2090
 9548SOL    HW140277   4.528   1.918   2.610 -1.3353 -0.6747  1.9048
 9548SOL    HW240278   4.511   1.979   2.476 -2.5055 -3.2839 -3.3335
 9549SOL     OW40279   1.282   0.989  15.635 -0.0075 -0.5776  0.2649
 9549SOL    HW140280   1.200   0.940  15.646  0.1312 -1.2502 -1.7579
 9549SOL    HW240281   1.300   0.960  15.545  0.6818  1.4413 -0.2342
 9550SOL     OW40282   2.218   0.550   9.166 -0.2771 -0.4593  0.1522
 9550SOL    HW140283   2.295   0.608   9.167  0.5161 -1.5340  1.8343
 9550SOL    HW240284   2.175   0.593   9.240  1.4449  1.8713 -0.1843
 9551SOL     OW40285   2.342   1.459  15.118  0.0740  0.2962  0.1580
 9551SOL    HW140286   2.355   1.365  15.132 -2.8603 -0.2011 -0.5226
 9551SOL    HW240287   2.258   1.476  15.160  0.3632 -0.5823  1.0915
 9552SOL     OW40288   2.057   0.060   6.875  0.3868  0.6908 -0.2937
 9552SOL    HW140289   2.024   4.727   6.932 -1.0434  0.4943 -1.3529
 9552SOL    HW240290   1.973   0.103   6.860 -0.4390 -0.9771 -0.4481
 9553SOL     OW40291   3.784   3.119  15.336 -0.4024  0.2954  0.2493
 9553SOL    HW140292   3.794   3.195  15.278  1.5191  0.4507  0.7747
 9553SOL    HW240293   3.741   3.170  15.405  1.3371 -0.6913  2.0529
 9554SOL     OW40294   0.473   2.774   1.541 -0.5233  0.0695  0.7266
 9554SOL    HW140295   0.399   2.770   1.481  1.0227 -1.3180 -1.1125
 9554SOL    HW240296   0.444   2.694   1.585 -0.1393 -0.5219 -0.0817
 9555SOL     OW40297   3.974   2.929  17.204  0.6200  0.0668  0.0870
 9555SOL    HW140298   3.998   2.872  17.131 -2.6986  0.2559 -1.1227
 9555SOL    HW240299   3.995   2.872  17.279 -1.3774 -2.1013 -1.0172
 9556SOL     OW40300   4.619   0.993  17.560 -0.1165 -0.4435 -0.5010
 9556SOL    HW140301   4.580   0.991  17.648  0.0014 -1.8021 -0.4742
 9556SOL    HW240302   4.628   0.899  17.544  0.4893 -0.6257  0.9171
 9557SOL     OW40303   3.960   2.808   0.869 -0.0845  0.1560 -0.4002
 9557SOL    HW140304   3.948   2.718   0.899  1.8129  0.0225 -0.0081
 9557SOL    HW240305   4.042   2.799   0.821  0.9737 -0.4770  1.5171
 9558SOL     OW40306   4.643   0.757   2.164  0.7032 -0.2117  0.2033
 9558SOL    HW140307   4.586   0.767   2.240 -0.9805  0.1570 -1.1110
 9558SOL    HW240308   4.663   0.668   2.194  0.7400 -0.1293  0.4269
 9559SOL     OW40309   2.544   0.541   7.702 -0.7472 -0.5640  0.2482
 9559SOL    HW140310   2.486   0.612   7.675 -0.0807 -0.7446 -1.6589
 9559SOL    HW240311   2.629   0.583   7.690 -0.9766 -0.4294 -0.8895
 9560SOL     OW40312   0.636   3.209  16.186  0.4185  0.1171  0.1922
 9560SOL    HW140313   0.620   3.208  16.091  0.9676  2.5310  0.0701
 9560SOL    HW240314   0.570   3.145  16.213 -1.5281  1.7182 -0.7270
 9561SOL     OW40315   1.774   3.555  17.677  0.1456 -0.3039 -0.2278
 9561SOL    HW140316   1.805   3.634  17.721  0.1142 -0.8813  0.8338
 9561SOL    HW240317   1.850   3.562  17.618 -0.9438 -0.4373 -1.6567
 9562SOL     OW40318   1.717   2.701   5.052  0.1351 -0.2056  0.1717
 9562SOL    HW140319   1.691   2.786   5.015  1.0525 -0.2926 -0.6708
 9562SOL    HW240320   1.739   2.663   4.966  1.3735 -0.6666  0.7001
 9563SOL     OW40321   1.492   3.684  13.318 -0.3787  0.1375  0.0431
 9563SOL    HW140322   1.458   3.746  13.253  0.4244  0.0563 -0.4592
 9563SOL    HW240323   1.580   3.717  13.339  0.0258 -0.9762  0.1029
 9564SOL     OW40324   2.348   1.764   2.539  0.1192  0.6071  0.1462
 9564SOL    HW140325   2.438   1.761   2.506 -0.8297 -1.1168 -2.3297
 9564SOL    HW240326   2.359   1.732   2.629  1.2374  0.4047 -0.0637
 9565SOL     OW40327   3.253   0.651  13.333 -1.1163 -0.1727  0.3641
 9565SOL    HW140328   3.176   0.680  13.383 -1.3962  2.2623 -1.5202
 9565SOL    HW240329   3.308   0.729  13.339  0.4991 -1.3698  1.1501
 9566SOL     OW40330   4.445   1.354   8.286  0.4049 -0.3121  0.2617
 9566SOL    HW140331   4.368   1.344   8.342 -1.5126  1.0280 -2.1968
 9566SOL    HW240332   4.506   1.310   8.345  0.1650  2.5925  2.7045
 9567SOL     OW40333   1.046   4.278   5.617  0.2896 -0.1245 -0.0053
 9567SOL    HW140334   0.983   4.209   5.638  0.3864 -0.7496 -1.7731
 9567SOL    HW240335   1.058   4.323   5.700  2.5920  0.1286 -0.4752
 9568SOL     OW40336   1.121   3.401   4.705  0.0912 -0.4408 -0.7986
 9568SOL    HW140337   1.053   3.425   4.768 -0.4987  1.8294 -2.3014
 9568SOL    HW240338   1.062   3.391   4.631 -0.0907  1.6261 -0.9504
 9569SOL     OW40339   4.357   1.695  14.705  0.4271 -0.5098 -0.0103
 9569SOL    HW140340   4.316   1.683  14.790  0.9246 -0.2655  0.2650
 9569SOL    HW240341   4.306   1.642  14.644  0.3381 -0.4101 -0.0232
 9570SOL     OW40342   2.241   0.450   6.992 -0.1530 -0.1820 -0.0952
 9570SOL    HW140343   2.229   0.536   7.032  0.7484 -0.0044 -0.2078
 9570SOL    HW240344   2.261   0.401   7.071  0.9096  2.0305  1.0080
 9571SOL     OW40345   0.207   3.185  15.969 -0.3658 -0.0078 -0.2349
 9571SOL    HW140346   0.122   3.228  15.978  0.2322  0.6061  2.4607
 9571SOL    HW240347   0.181   3.108  16.020 -1.2941  0.1081 -0.5277
   4.73738   4.73738  17.74780
