Membrane in water
40347
    1TMC1    C1    1   1.887   1.531  11.855 -0.1749  0.0872 -0.2088
    1TMC1    C2    2   1.978   1.521  11.759  0.7200  0.0999  0.0795
    1TMC1    C3    3   2.071   1.616  11.751 -0.0503 -0.1105  0.1818
    1TMC1    C4    4   1.894   1.632  11.954  0.5240  0.0885  0.0643
    1TMC1    C5    5   1.981   1.731  11.929  0.1731  0.1213  0.0730
    1TMC1    C6    6   2.080   1.726  11.830  0.2503 -0.6224  0.1355
    1TMC1     C    7   1.805   1.414  11.873 -0.1562 -0.2730  0.6285
    1TMC1     O    8   1.767   1.354  11.778 -0.6558 -0.2583 -0.7149
    1TMC1     H    9   1.980   1.443  11.685 -0.3649  0.1287  0.0310
    1TMC1    H1   10   1.824   1.649  12.034  1.4893  1.8044  0.5368
    1TMC1    H2   11   2.154   1.804  11.817  0.2184 -0.5751  0.2396
    1TMC1    C7   12   1.955   1.858  11.992 -0.1307  0.1743  0.0735
    1TMC1    C8   13   2.134   1.629  11.625 -0.6599  0.1012 -0.8508
    1TMC1    O1   14   1.992   1.892  12.103  0.0474  0.3815 -0.7153
    1TMC1    O2   15   2.250   1.668  11.608  0.3746  0.5441  0.0327
    1TMC1    O3   16   1.920   1.949  11.896  1.0368  0.1220  0.0783
    1TMC1    H3   17   1.905   1.915  11.805  2.4336  0.7815 -0.3879
    1TMC1    O5   18   2.034   1.624  11.534 -0.0566 -0.1372 -0.3144
    1TMC1    H5   19   1.941   1.621  11.565  0.4956  1.2442  1.4233
    2MPD2     C   20   1.512   1.162  12.200 -0.0783  0.0786  0.5248
    2MPD2    C1   21   1.528   1.142  12.066 -0.4771  0.5589  0.4594
    2MPD2    C2   22   1.605   1.235  11.991 -0.3477  0.0910  0.1916
    2MPD2    C3   23   1.668   1.335  12.061 -0.5851 -0.8667 -0.6071
    2MPD2    C4   24   1.659   1.343  12.197 -0.7602  0.4043 -0.0163
    2MPD2    C5   25   1.577   1.255  12.270 -0.5846  0.0207  0.0278
    2MPD2     H   26   1.603   1.230  11.882 -1.4101 -0.0680  0.2231
    2MPD2    H1   27   1.721   1.413  12.254 -1.1082 -0.3604  1.3004
    2MPD2    H2   28   1.450   1.100  12.263 -0.2643 -1.8033 -1.4960
    2MPD2    H3   29   1.565   1.277  12.376 -0.5639  0.3554 -0.0409
    2MPD2     N   30   1.768   1.416  12.004  0.5482 -0.3918 -0.0148
    2MPD2    H5   31   1.812   1.489  12.059 -1.1381 -0.9989  2.1337
    2MPD2    N1   32   1.442   1.050  11.996 -0.4663  0.2160  0.2887
    2MPD2    H7   33   1.452   1.058  11.896 -1.0664 -2.4417  0.0203
    3TMC1    C1   34   1.256   1.487  10.369 -0.2791  0.5025 -0.1184
    3TMC1    C2   35   1.277   1.359  10.332 -0.0004  0.3678 -0.3992
    3TMC1    C3   36   1.399   1.330  10.274 -1.1906 -0.1333 -0.2529
    3TMC1    C4   37   1.338   1.585  10.346  0.1958 -0.6136  0.2209
    3TMC1    C5   38   1.459   1.551  10.283 -0.3158 -0.8447  0.2853
    3TMC1    C6   39   1.494   1.421  10.252  0.1574  0.5284  0.4115
    3TMC1     C   40   1.139   1.503  10.458  0.2370 -0.3401  0.5413
    3TMC1     O   41   1.078   1.400  10.494  0.6951  0.2794 -0.2758
    3TMC1     H   42   1.214   1.275  10.361 -1.6377  1.5627 -0.5257
    3TMC1    H1   43   1.305   1.684  10.374  1.1505 -0.1393 -0.3306
    3TMC1    H2   44   1.580   1.391  10.194 -1.4159  0.1753 -1.7019
    3TMC1    C7   45   1.548   1.659  10.256  0.1566 -0.1527 -0.0922
    3TMC1    C8   46   1.419   1.187  10.251 -0.8675  0.5954  0.2234
    3TMC1    O1   47   1.544   1.761  10.327 -0.1719  0.1708 -0.8028
    3TMC1    O2   48   1.329   1.100  10.264 -1.1104  0.5333 -0.4230
    3TMC1    O3   49   1.642   1.625  10.170 -1.0017 -0.3800  0.7276
    3TMC1    H3   50   1.625   1.549  10.109  0.5099 -0.0034 -0.1600
    3TMC1    O5   51   1.543   1.166  10.302  0.1392 -0.3423  0.2795
    3TMC1    H5   52   1.587   1.248  10.333  0.0445  0.9027 -2.8317
    4MPD2     C   53   0.925   1.727  10.857 -0.1491 -0.0355 -0.3330
    4MPD2    C1   54   0.966   1.830  10.771  0.4040 -0.2410 -0.0970
    4MPD2    C2   55   1.043   1.795  10.661  0.0658  0.4728  0.4656
    4MPD2    C3   56   1.078   1.662  10.632 -0.2436  0.7683 -0.0138
    4MPD2    C4   57   1.032   1.565  10.721  0.6550  0.0648  0.2363
    4MPD2    C5   58   0.965   1.602  10.833 -0.0417  0.6690 -0.1089
    4MPD2     H   59   1.069   1.870  10.586  0.4356 -1.1042 -0.9949
    4MPD2    H1   60   1.050   1.459  10.705 -0.1388  0.2644 -1.9491
    4MPD2    H2   61   0.856   1.740  10.939  0.3621  0.4330  0.0211
    4MPD2    H3   62   0.909   1.522  10.880  0.1592  0.6871  0.1623
    4MPD2     N   63   1.135   1.627  10.512 -0.0396  0.0786 -0.0479
    4MPD2    H5   64   1.187   1.701  10.465 -1.0390  0.5572 -0.3946
    4MPD2    N1   65   0.912   1.956  10.778  0.5532  0.0010 -0.3421
    4MPD2    H7   66   0.928   2.009  10.693  0.6853 -0.0422 -0.3441
    5TCq1    O1   67   0.089   3.456  11.028 -0.4014 -0.3832 -0.2891
    5TCq1    C1   68   0.082   3.464  10.888  0.1806 -0.3123 -0.4483
    5TCq1    O2   69   4.730   3.418  10.828  0.1590 -0.4523  0.5647
    5TCq1    C2   70   0.154   3.578  10.843 -0.4233 -0.2093  0.2663
    5TCq1    C3   71   0.085   3.681  10.790 -0.1789  0.9166  0.5927
    5TCq1    C4   72   0.144   3.805  10.791 -0.3622 -0.1087 -1.1745
    5TCq1    C5   73   0.272   3.821  10.842  0.6113  0.9852  0.5604
    5TCq1    C6   74   0.338   3.710  10.892 -0.1814 -0.4381 -0.0702
    5TCq1    C7   75   0.281   3.585  10.887  0.0797 -0.1358  0.4230
    5TCq1    C8   76   0.483   3.719  10.900 -0.4009  1.5544  0.0110
    5TCq1    O4   77   0.537   3.609  10.907  0.0527  0.0959 -0.1544
    5TCq1    C9   78   0.074   3.924  10.745  0.4885 -0.1421  0.2254
    5TCq1    O5   79   0.139   4.028  10.716 -0.6128 -0.4479  0.1616
    5TCq1    O6   80   4.697   3.919  10.713 -0.2520  0.1925 -0.2066
    5TCq1    H1   81   0.167   3.505  11.062 -1.7455  1.4014  0.2003
    5TCq1    H2   82   4.721   3.670  10.766 -0.5238  0.2360  2.3880
    5TCq1    H3   83   0.312   3.921  10.857  0.2539  1.3297 -0.8253
    5TCq1    H4   84   0.339   3.497  10.912 -0.0739 -0.4122 -0.1757
    6MPD2     C   85   0.690   4.009  10.840 -0.0391  0.2393  0.7463
    6MPD2    C1   86   0.665   3.875  10.837 -1.0281 -0.0867  0.1964
    6MPD2    C2   87   0.772   3.794  10.808  0.4683  0.2239  0.4783
    6MPD2    C3   88   0.899   3.845  10.810 -0.7797 -0.1980  0.7646
    6MPD2    C4   89   0.927   3.975  10.824 -0.4023 -0.5503 -0.5750
    6MPD2    C5   90   0.819   4.063  10.839 -0.0974  0.5131  0.6267
    6MPD2     H   91   0.755   3.687  10.817 -0.9867  0.6447  2.8720
    6MPD2    H1   92   1.024   4.022  10.814  0.0186 -1.3092 -0.1207
    6MPD2    H2   93   0.608   4.079  10.845 -0.0403  0.1395  1.9639
    6MPD2    H3   94   0.833   4.170  10.830 -0.8035  0.4782 -0.9396
    6MPD2     N   95   1.000   3.747  10.799  0.2875  0.2292 -0.1820
    6MPD2    H5   96   0.971   3.650  10.785  0.7844  0.1241 -0.4940
    6MPD2    N1   97   0.537   3.841  10.877 -0.1581  0.5095 -0.0119
    6MPD2    H7   98   0.473   3.917  10.893  1.9360  2.1428  0.6043
    7TCq1    O1   99   3.333   2.930  13.225  0.3299 -0.3696 -0.0141
    7TCq1    C1  100   3.308   3.066  13.255  0.1788  0.1016 -0.1825
    7TCq1    O2  101   3.306   3.148  13.167 -0.0393 -0.2358 -0.6042
    7TCq1    C2  102   3.394   3.074  13.373  0.2101  0.2012  0.0739
    7TCq1    C3  103   3.469   3.192  13.369 -0.3288  0.0147 -0.2839
    7TCq1    C4  104   3.549   3.224  13.481 -0.1559  0.5384 -0.3555
    7TCq1    C5  105   3.549   3.148  13.591  0.0916 -0.3670 -0.2025
    7TCq1    C6  106   3.463   3.041  13.594  0.2497 -0.5078  0.2514
    7TCq1    C7  107   3.382   2.999  13.484  0.6879  0.0301 -0.2911
    7TCq1    C8  108   3.473   2.947  13.701 -0.5624 -0.4675 -0.4077
    7TCq1    O4  109   3.437   2.838  13.666  0.5809 -0.4979  0.4451
    7TCq1    C9  110   3.639   3.334  13.474 -0.1746 -0.7639  0.9563
    7TCq1    O5  111   3.729   3.311  13.555 -0.3667  0.2478 -0.2013
    7TCq1    O6  112   3.612   3.437  13.405  0.2358 -0.6141  0.0768
    7TCq1    H1  113   3.302   2.868  13.294 -0.1454  0.1002  0.1962
    7TCq1    H2  114   3.467   3.265  13.289 -2.1108 -1.0330 -1.2227
    7TCq1    H3  115   3.620   3.171  13.670  1.3743  1.3567 -1.8503
    7TCq1    H4  116   3.317   2.912  13.478  1.4720 -0.6006  0.4867
    8MPD2     C  117   3.627   2.766  14.155  0.6723 -0.1211  0.2299
    8MPD2    C1  118   3.556   2.703  14.058  0.8848 -0.4327 -0.3982
    8MPD2    C2  119   3.528   2.778  13.941 -0.0995 -0.1050 -0.3641
    8MPD2    C3  120   3.571   2.907  13.922 -0.0422 -0.0600  0.0345
    8MPD2    C4  121   3.644   2.965  14.026  0.1184 -0.0302 -0.3952
    8MPD2    C5  122   3.675   2.893  14.136  0.3239 -0.4829  0.0783
    8MPD2     H  123   3.461   2.729  13.871  0.8953 -0.8205 -0.8151
    8MPD2    H1  124   3.673   3.069  14.022  1.1960 -0.2940  0.5980
    8MPD2    H2  125   3.659   2.709  14.242 -0.2427 -0.6161  0.2417
    8MPD2    H3  126   3.742   2.938  14.208 -0.4173  1.0231 -0.1662
    8MPD2     N  127   3.540   2.988  13.813 -0.8811  0.0264  0.3890
    8MPD2    H5  128   3.560   3.087  13.823  0.5956 -0.4060  1.5718
    8MPD2    N1  129   3.547   2.559  14.057  0.2942 -0.3658  0.6975
    8MPD2    H7  130   3.590   2.506  14.132  0.4627 -0.1477  0.7543
    9TMC1    C1  131   0.404   2.733  11.381 -0.1528  0.4027  0.5878
    9TMC1    C2  132   0.307   2.644  11.415 -0.8536 -0.4807 -0.0972
    9TMC1    C3  133   0.179   2.646  11.357 -0.2830  0.5459 -0.2602
    9TMC1    C4  134   0.371   2.823  11.283 -0.3409 -0.0916  1.0072
    9TMC1    C5  135   0.240   2.837  11.236 -0.7571  0.2599  0.0676
    9TMC1    C6  136   0.144   2.747  11.268 -0.2567  0.1833 -0.5389
    9TMC1     C  137   0.546   2.699  11.388 -0.4833  0.6357 -0.4791
    9TMC1     O  138   0.626   2.773  11.336 -0.3878  0.7147  0.1695
    9TMC1     H  139   0.327   2.582  11.502 -1.9480 -0.4543  0.1766
    9TMC1    H1  140   0.448   2.889  11.245  1.0340 -1.2124  1.8759
    9TMC1    H2  141   0.049   2.751  11.216  0.2862  0.0388 -1.5247
    9TMC1    C7  142   0.217   2.910  11.112  0.0708  0.2454  0.2402
    9TMC1    C8  143   0.077   2.578  11.439  0.1107 -0.2465 -0.9454
    9TMC1    O1  144   0.219   3.032  11.112  0.2953  0.4949 -0.0616
    9TMC1    O2  145   0.080   2.603  11.560  0.3728 -0.4975 -0.2150
    9TMC1    O3  146   0.291   2.839  11.026  0.2598 -0.3129 -0.6973
    9TMC1    H3  147   0.276   2.742  11.029 -0.3149 -0.1754  1.1856
    9TMC1    O5  148   4.714   2.589  11.358  0.4257  0.2482 -0.1760
    9TMC1    H5  149   4.732   2.553  11.268 -1.6652  0.4993 -0.6745
   10MPD2     C  150   0.809   2.617  11.489  0.0463  0.4759 -0.5235
   10MPD2    C1  151   0.694   2.536  11.494 -0.3538 -0.1752 -0.2584
   10MPD2    C2  152   0.701   2.402  11.518  0.2964 -0.0116  0.1946
   10MPD2    C3  153   0.827   2.349  11.544  0.2699 -0.1068  0.0975
   10MPD2    C4  154   0.945   2.430  11.546  0.3712 -0.2551  0.0795
   10MPD2    C5  155   0.927   2.563  11.518 -0.7946  0.5083  0.7751
   10MPD2     H  156   0.607   2.349  11.519  1.6697 -2.5022 -1.9486
   10MPD2    H1  157   1.047   2.395  11.559  0.4981  1.2335  3.2605
   10MPD2    H2  158   0.799   2.725  11.490 -0.4790  0.4179  0.1470
   10MPD2    H3  159   1.010   2.631  11.532 -0.9974  1.2748 -1.6572
   10MPD2     N  160   0.851   2.209  11.566 -0.3801 -0.1808 -0.3033
   10MPD2    H5  161   0.946   2.173  11.565 -0.4305 -0.3617  1.3238
   10MPD2    N1  162   0.567   2.583  11.460  0.0548 -0.0969 -0.1826
   10MPD2    H7  163   0.488   2.520  11.471 -0.9812  1.5686  1.8336
   11TCq1    O1  164   2.187   1.765  14.259 -0.1189  0.0182 -0.5426
   11TCq1    C1  165   2.179   1.633  14.260  0.9429 -0.2395 -0.2156
   11TCq1    O2  166   2.242   1.564  14.183 -0.5875 -0.2413 -0.2321
   11TCq1    C2  167   2.038   1.598  14.294 -0.0040 -0.1422  0.4520
   11TCq1    C3  168   1.991   1.650  14.413 -0.0167 -1.1026  0.6255
   11TCq1    C4  169   1.879   1.590  14.459 -0.2518  0.9049  1.1331
   11TCq1    C5  170   1.804   1.500  14.387  0.9735 -0.2944 -0.3130
   11TCq1    C6  171   1.862   1.448  14.273  0.2378 -0.7205 -0.4817
   11TCq1    C7  172   1.984   1.493  14.230  0.2428 -0.7338 -0.0999
   11TCq1    C8  173   1.822   1.319  14.225  0.5884  0.1372 -0.2945
   11TCq1    O4  174   1.906   1.232  14.202  0.4974  0.1581  0.0469
   11TCq1    C9  175   1.838   1.629  14.590  1.2805 -0.7381  0.6099
   11TCq1    O5  176   1.721   1.587  14.620  0.2218 -0.1595 -0.2461
   11TCq1    O6  177   1.936   1.656  14.666  0.3939 -0.0302 -0.0540
   11TCq1    H1  178   2.098   1.806  14.266 -0.7898 -1.3652 -0.8489
   11TCq1    H2  179   2.052   1.719  14.469 -0.8608 -0.0659  0.2662
   11TCq1    H3  180   1.723   1.452  14.441 -1.0430  0.2007 -2.9574
   11TCq1    H4  181   2.037   1.430  14.160  0.8386  1.3246 -1.5009
   12MPD2     C  182   1.483   1.208  14.159 -0.4442  0.4119  0.3993
   12MPD2    C1  183   1.622   1.205  14.142 -0.7805  0.0572 -0.2091
   12MPD2    C2  184   1.676   1.108  14.066 -0.4472 -0.1246  0.3156
   12MPD2    C3  185   1.599   1.004  14.025  0.0436 -0.1684 -0.2739
   12MPD2    C4  186   1.467   1.004  14.047  0.2435  0.4578  0.1916
   12MPD2    C5  187   1.408   1.112  14.100 -0.2283  0.0124  0.1998
   12MPD2     H  188   1.783   1.099  14.050 -0.8406  0.0251 -2.4444
   12MPD2    H1  189   1.404   0.918  14.030  2.9074 -1.9076  2.4208
   12MPD2    H2  190   1.421   1.280  14.212 -1.6035 -1.8008  2.0529
   12MPD2    H3  191   1.304   1.101  14.130 -0.1751  0.6173  0.5962
   12MPD2     N  192   1.646   0.892  13.957 -0.2342  0.1860 -0.0208
   12MPD2    H5  193   1.575   0.823  13.934 -0.8672  0.2867  1.6692
   12MPD2    N1  194   1.690   1.317  14.192  0.0184  0.4576  0.3296
   12MPD2    H7  195   1.638   1.399  14.220  1.7442  1.4432  0.6275
   13TCq1    O1  196   1.359   2.191  11.739  0.0865 -0.2095  0.0371
   13TCq1    C1  197   1.492   2.172  11.706 -0.1765 -0.3163  0.6362
   13TCq1    O2  198   1.585   2.237  11.749 -0.2397  0.6191 -0.9000
   13TCq1    C2  199   1.496   2.028  11.672 -0.2732  0.3083 -0.3419
   13TCq1    C3  200   1.619   1.983  11.671 -0.5362 -0.4387  0.4471
   13TCq1    C4  201   1.641   1.863  11.612  0.6537 -0.0186  0.5287
   13TCq1    C5  202   1.545   1.798  11.535 -0.4601  0.2367  0.3616
   13TCq1    C6  203   1.423   1.859  11.534 -0.2766 -0.0901  0.2490
   13TCq1    C7  204   1.397   1.972  11.602 -0.1182  0.0026 -0.0814
   13TCq1    C8  205   1.313   1.797  11.459 -0.8065  0.8277 -0.1716
   13TCq1    O4  206   1.218   1.872  11.429 -0.5355  0.1622  0.3123
   13TCq1    C9  207   1.767   1.799  11.612  0.1646 -0.2460 -0.3821
   13TCq1    O5  208   1.860   1.869  11.669 -0.1668  0.1572  0.1474
   13TCq1    O6  209   1.778   1.688  11.553 -0.5379 -0.2974 -0.8826
   13TCq1    H1  210   1.311   2.108  11.720 -1.0198  1.1672 -3.2475
   13TCq1    H2  211   1.705   2.039  11.706 -0.2863 -1.0109  0.7678
   13TCq1    H3  212   1.565   1.712  11.472 -0.9684  1.9158 -2.0744
   13TCq1    H4  213   1.300   2.017  11.589 -0.6042 -0.5255  1.7667
   14MPD2     C  214   1.212   1.439  11.458  0.4608 -0.6273 -0.2259
   14MPD2    C1  215   1.205   1.570  11.419 -0.5951 -0.1533 -0.5403
   14MPD2    C2  216   1.086   1.608  11.360  0.4347  0.0649  0.2490
   14MPD2    C3  217   0.987   1.515  11.323 -0.3172  0.3592 -0.2120
   14MPD2    C4  218   1.015   1.380  11.350  0.1743 -0.4599 -0.6743
   14MPD2    C5  219   1.126   1.345  11.423 -0.2338  0.1752 -0.3495
   14MPD2     H  220   1.064   1.711  11.338 -0.3164  0.2236  1.7619
   14MPD2    H1  221   0.946   1.302  11.320  2.5673 -3.3515  1.2536
   14MPD2    H2  222   1.307   1.402  11.496  1.9893  1.5282 -1.9892
   14MPD2    H3  223   1.145   1.240  11.444  3.0090  0.5215 -1.6292
   14MPD2     N  224   0.871   1.559  11.251 -0.1090 -0.5249 -0.0953
   14MPD2    H5  225   0.868   1.660  11.241  0.7725 -0.7425 -2.7623
   14MPD2    N1  226   1.311   1.657  11.458 -0.1967  0.2990 -0.7972
   14MPD2    H7  227   1.390   1.611  11.501 -1.2297 -1.4876 -0.7908
   15TCq1    O1  228   2.907   0.502   1.887  0.3440 -0.1583  0.6289
   15TCq1    C1  229   3.002   0.595   1.883 -0.3116  0.6445 -0.1693
   15TCq1    O2  230   3.006   0.698   1.954 -0.3393  0.2041  0.2607
   15TCq1    C2  231   3.121   0.514   1.850  0.0028 -0.3139  0.0647
   15TCq1    C3  232   3.195   0.472   1.959  0.1366 -0.4846  0.7586
   15TCq1    C4  233   3.273   0.359   1.949  1.0236 -0.5544 -0.2002
   15TCq1    C5  234   3.272   0.288   1.829 -0.0651  0.6572  0.3418
   15TCq1    C6  235   3.197   0.329   1.724 -0.4601 -0.6409  0.9134
   15TCq1    C7  236   3.104   0.431   1.742 -0.3656  0.2135 -0.1363
   15TCq1    C8  237   3.220   0.260   1.601  0.9814  0.5972  0.1712
   15TCq1    O4  238   3.277   0.151   1.594  0.3538  0.9908  0.0505
   15TCq1    C9  239   3.333   0.302   2.072  0.0857  0.2467 -0.6020
   15TCq1    O5  240   3.384   0.185   2.068 -0.1630  0.7150 -0.7192
   15TCq1    O6  241   3.319   0.366   2.180 -0.0280  0.4116 -0.4652
   15TCq1    H1  242   2.929   0.410   1.863 -0.4380 -0.2977  0.4340
   15TCq1    H2  243   3.201   0.531   2.050 -1.6969  0.0542  0.5229
   15TCq1    H3  244   3.346   0.208   1.820  0.7268  1.6214 -1.6304
   15TCq1    H4  245   3.032   0.455   1.665 -0.3927 -0.8487 -0.4446
   16MPD2     C  246   3.155   0.415   1.269 -0.1424 -0.0614 -0.0169
   16MPD2    C1  247   3.200   0.322   1.354 -0.0081  0.1006 -0.6364
   16MPD2    C2  248   3.256   0.205   1.317 -0.1917  1.0188  0.2504
   16MPD2    C3  249   3.254   0.166   1.183  0.1018  0.7083 -0.4680
   16MPD2    C4  250   3.198   0.250   1.094 -1.1576  0.2804  0.0999
   16MPD2    C5  251   3.161   0.383   1.135  0.3723  0.0307 -0.2925
   16MPD2     H  252   3.303   0.128   1.377 -0.0078 -0.0394 -1.2415
   16MPD2    H1  253   3.177   0.211   0.994  0.7395 -2.6363  0.8333
   16MPD2    H2  254   3.112   0.513   1.289  1.1813 -0.0630  2.7975
   16MPD2    H3  255   3.114   0.447   1.061  1.4728 -1.5066 -2.3348
   16MPD2     N  256   3.317   0.046   1.140 -0.7321 -0.3315  0.2255
   16MPD2    H5  257   3.374   4.738   1.210 -2.2092 -2.4879 -0.0694
   16MPD2    N1  258   3.184   0.342   1.495  0.3758 -0.0682  0.0850
   16MPD2    H7  259   3.133   0.426   1.519 -0.5798 -0.4213 -0.6705
   17TMC1    C1  260   0.950   0.808  10.943 -0.1230 -0.0504 -0.4143
   17TMC1    C2  261   0.825   0.770  10.992 -0.1429  0.6005  0.2590
   17TMC1    C3  262   0.810   0.636  10.992 -0.1324 -0.1706 -0.9735
   17TMC1    C4  263   1.046   0.726  10.891  0.1875  0.6585 -0.0925
   17TMC1    C5  264   1.027   0.596  10.921  0.4718  0.5157 -0.7612
   17TMC1    C6  265   0.912   0.548  10.968 -0.0262  0.6889  0.0573
   17TMC1     C  266   0.969   0.948  10.964 -0.1585 -0.1944 -0.4575
   17TMC1     O  267   0.872   1.014  11.002 -0.1698 -0.2417 -0.1626
   17TMC1     H  268   0.742   0.834  11.020 -0.5322 -0.1787  0.9005
   17TMC1    H1  269   1.142   0.759  10.853 -0.0805  1.7720  0.1786
   17TMC1    H2  270   0.901   0.441  10.979  0.0158  0.7062  0.2742
   17TMC1    C7  271   1.104   0.493  10.836 -0.3578 -0.2260 -0.0160
   17TMC1    C8  272   0.679   0.576  10.978  0.3758 -0.5701  0.0846
   17TMC1    O1  273   1.053   0.423  10.748 -0.3438 -0.3901  0.8406
   17TMC1    O2  274   0.672   0.467  10.923  0.4617  0.6281 -0.2826
   17TMC1    O3  275   1.238   0.514  10.848 -0.2059  0.0689  0.4017
   17TMC1    H3  276   1.266   0.553  10.934  0.7460 -0.2884  0.2555
   17TMC1    O5  277   0.577   0.646  11.039  0.2145  0.1301  0.6314
   17TMC1    H5  278   0.604   0.714  11.104 -3.2534  0.8493  1.3383
   18MPD2     C  279   1.054   1.233  10.987  0.2591  1.1033  0.3651
   18MPD2    C1  280   1.141   1.125  10.970 -0.3611  0.5021  0.4675
   18MPD2    C2  281   1.277   1.146  10.977  0.1057 -0.0971 -0.4006
   18MPD2    C3  282   1.330   1.266  11.023 -0.3041 -1.1125 -0.1942
   18MPD2    C4  283   1.248   1.369  11.056 -0.1301  0.1078  0.2544
   18MPD2    C5  284   1.112   1.351  11.026 -0.6528  0.2879 -0.1760
   18MPD2     H  285   1.352   1.073  10.945  0.4676  0.4884 -0.8793
   18MPD2    H1  286   1.280   1.464  11.096 -0.2648  0.7294 -1.1185
   18MPD2    H2  287   0.948   1.210  10.988  0.9883 -2.2861  3.4531
   18MPD2    H3  288   1.050   1.432  11.063  0.3861  0.6955  0.6849
   18MPD2     N  289   1.467   1.292  11.027  0.4637 -0.2421 -0.3833
   18MPD2    H5  290   1.484   1.389  11.051 -2.0618 -0.4478  2.2158
   18MPD2    N1  291   1.098   0.992  10.941  0.0271 -0.5432  0.3610
   18MPD2    H7  292   1.166   0.923  10.910  0.6507 -0.7682  2.2468
   19TMC2    C1  293   3.055   1.450  14.220  0.2329  0.0233  0.0751
   19TMC2    C2  294   2.970   1.538  14.165  0.4783 -0.6196 -0.2940
   19TMC2    C3  295   2.844   1.497  14.121 -0.0910  0.4607 -0.1128
   19TMC2    C4  296   3.021   1.324  14.227  0.0247 -0.2146  0.0377
   19TMC2    C5  297   2.905   1.286  14.175  0.6103  0.4495  0.1811
   19TMC2    C6  298   2.811   1.367  14.123 -0.1435  0.6321 -0.0061
   19TMC2     C  299   3.184   1.500  14.254  0.1809 -0.1900  0.0722
   19TMC2     O  300   3.196   1.621  14.262  0.0290 -0.4863 -0.2227
   19TMC2     H  301   2.999   1.642  14.152  0.4570 -0.2385  2.6715
   19TMC2    H1  302   3.074   1.256  14.294 -0.7820 -0.3160  0.5787
   19TMC2    H2  303   2.726   1.330  14.066 -1.0501 -1.1338  2.5164
   19TMC2    C7  304   2.860   1.151  14.204  0.1902 -0.2755  0.7287
   19TMC2    C8  305   2.793   1.583  14.017 -0.1023  0.1615  0.1196
   19TMC2    O1  306   2.935   1.074  14.252  1.1728 -0.3659 -0.5244
   19TMC2    O2  307   2.856   1.665  13.954  0.0478  0.1664  0.2222
   19TMC2    O5  308   2.662   1.547  13.994  0.4627 -0.0914 -0.2750
   19TMC2    H5  309   2.615   1.496  14.064  0.4750 -0.0729 -0.2530
   20MPD2     C  310   3.434   1.542  14.404  0.6782 -0.3405 -0.3876
   20MPD2    C1  311   3.386   1.413  14.370  0.4910  0.1876  0.7661
   20MPD2    C2  312   3.470   1.311  14.400  0.2428 -0.3580 -0.4712
   20MPD2    C3  313   3.579   1.330  14.479 -0.0362 -0.5920  0.2601
   20MPD2    C4  314   3.624   1.454  14.520  0.2466  0.3864  0.7333
   20MPD2    C5  315   3.550   1.558  14.469 -0.1822 -0.3784 -0.2037
   20MPD2     H  316   3.442   1.214  14.360  0.5041  0.3345 -2.3562
   20MPD2    H1  317   3.712   1.465  14.583  0.9870 -1.1547 -0.0356
   20MPD2    H2  318   3.385   1.635  14.377 -0.1968 -0.6671  0.0791
   20MPD2    H3  319   3.576   1.663  14.475  2.4799 -1.2905  4.1777
   20MPD2     N  320   3.660   1.222  14.524  0.1581  0.3296 -0.0826
   20MPD2    H5  321   3.745   1.239  14.576  1.1440  1.7424 -2.1517
   20MPD2    N1  322   3.263   1.395  14.292 -0.0133 -0.1183  0.2706
   20MPD2    H7  323   3.243   1.296  14.278  2.8030 -0.0748 -3.9127
   21TMC2    C1  324   0.281   1.673  13.819  0.0376 -0.0313 -0.2883
   21TMC2    C2  325   0.225   1.562  13.877 -0.3181 -0.0721 -0.2806
   21TMC2    C3  326   0.154   1.577  13.996  0.9534 -0.0276  0.7512
   21TMC2    C4  327   0.250   1.796  13.872 -0.8501  0.3968  0.1112
   21TMC2    C5  328   0.182   1.812  13.991 -0.8131 -0.0691 -0.3979
   21TMC2    C6  329   0.135   1.698  14.060  0.1804 -0.0957  0.0834
   21TMC2     C  330   0.426   1.646  13.815 -0.6367  0.2571 -0.0292
   21TMC2     O  331   0.471   1.541  13.860 -0.6825 -0.3870 -0.1922
   21TMC2     H  332   0.239   1.460  13.845  0.6598  0.0202 -0.1350
   21TMC2    H1  333   0.286   1.890  13.832 -1.6502  0.7526  0.2256
   21TMC2    H2  334   0.072   1.718  14.146 -0.1588  3.5133 -1.0015
   21TMC2    C7  335   0.246   1.916  14.074  0.7791 -0.1856 -0.9488
   21TMC2    C8  336   0.124   1.462  14.070 -0.3307  0.6309 -0.8246
   21TMC2    O1  337   0.367   1.938  14.053 -1.1554  0.2311 -0.6789
   21TMC2    O2  338   0.117   1.350  14.018 -0.4889  0.5540 -0.4977
   21TMC2    O5  339   0.174   1.483  14.198  0.1838  0.2397 -0.1526
   21TMC2    H5  340   0.207   1.575  14.210  5.0869 -1.3242 -1.5135
   22MPD2     C  341   0.845   1.896  13.960  0.2877  0.0237  0.4629
   22MPD2    C1  342   0.796   1.767  13.992 -0.5867 -0.5158 -0.7035
   22MPD2    C2  343   0.680   1.729  13.927  0.4888  0.1683  0.2722
   22MPD2    C3  344   0.612   1.805  13.833 -0.5324  0.0209 -0.2631
   22MPD2    C4  345   0.658   1.928  13.803 -0.2674  0.5889  0.1213
   22MPD2    C5  346   0.773   1.970  13.864  0.3043 -0.2751  0.6101
   22MPD2     H  347   0.639   1.638  13.969 -0.8875 -0.0822 -1.6438
   22MPD2    H1  348   0.597   1.996  13.745  0.0388  0.9672  0.2470
   22MPD2    H2  349   0.940   1.941  13.990  0.9308 -2.4189  2.0859
   22MPD2    H3  350   0.803   2.072  13.847 -1.7089  0.1924 -0.2191
   22MPD2     N  351   0.490   1.760  13.779 -0.1698 -0.3384  0.1567
   22MPD2    H5  352   0.438   1.822  13.717 -1.3516 -0.6774  0.8139
   22MPD2    N1  353   0.853   1.680  14.090 -0.3943  0.2644 -0.4701
   22MPD2    H7  354   0.793   1.598  14.097 -0.1441  0.1145 -0.0432
   23TMC2    C1  355   1.855   2.730  14.328 -0.4925 -0.7427 -0.4363
   23TMC2    C2  356   1.847   2.830  14.237 -0.4757 -0.4907  0.7322
   23TMC2    C3  357   1.723   2.858  14.177 -0.1328 -0.1785  0.0642
   23TMC2    C4  358   1.743   2.663  14.362  0.1503 -0.4973  0.3245
   23TMC2    C5  359   1.621   2.699  14.311  0.0038  0.4487 -0.0063
   23TMC2    C6  360   1.605   2.801  14.226 -0.3821  0.4127  1.0228
   23TMC2     C  361   1.977   2.686  14.388  0.2311 -0.5546  0.3662
   23TMC2     O  362   1.965   2.618  14.491  0.2392 -0.0390 -0.4110
   23TMC2     H  363   1.929   2.901  14.230 -0.3484 -0.4620  2.6078
   23TMC2    H1  364   1.741   2.576  14.427  0.5736 -0.1045  0.8643
   23TMC2    H2  365   1.512   2.849  14.196 -0.7570 -0.3676  0.9516
   23TMC2    C7  366   1.503   2.625  14.358 -0.0421  0.4752  0.6052
   23TMC2    C8  367   1.720   2.973  14.095 -0.2337  0.2584  0.3011
   23TMC2    O1  368   1.523   2.539  14.441 -0.1778 -0.2178 -0.8939
   23TMC2    O2  369   1.621   3.036  14.074 -0.0220  0.1793 -0.1392
   23TMC2    O5  370   1.831   2.984  14.019 -0.1358  0.0694  0.5348
   23TMC2    H5  371   1.897   2.913  14.035 -0.3153  0.0071  0.9836
   24MPD2     C  372   2.452   2.520  14.357  0.5990  0.0717 -1.3298
   24MPD2    C1  373   2.368   2.526  14.463  1.5709 -0.2078 -0.4642
   24MPD2    C2  374   2.245   2.586  14.446  0.7664 -0.9365  0.1130
   24MPD2    C3  375   2.211   2.634  14.324 -0.2277 -0.0575 -0.5325
   24MPD2    C4  376   2.301   2.636  14.222 -0.0914  0.2533  0.3891
   24MPD2    C5  377   2.421   2.580  14.243 -0.0982 -0.1473  0.0288
   24MPD2     H  378   2.175   2.578  14.529 -0.7900 -1.3697 -1.2392
   24MPD2    H1  379   2.289   2.695  14.132 -0.9019 -0.8610 -0.2284
   24MPD2    H2  380   2.551   2.475  14.361  0.4896  0.0614  1.0464
   24MPD2    H3  381   2.496   2.596  14.166 -1.7767  0.1294 -1.5538
   24MPD2     N  382   2.085   2.695  14.302  0.0989 -0.1305  0.7539
   24MPD2    H5  383   2.075   2.738  14.211  2.3096 -0.5250  0.3267
   24MPD2    N1  384   2.399   2.479  14.590  0.3941  0.0970 -0.3005
   24MPD2    H7  385   2.348   2.499  14.676  0.3145  1.5547 -0.6872
   25TMC2    C1  386   0.103   0.663  11.550  0.5172 -0.1464  0.1390
   25TMC2    C2  387   0.049   0.790  11.536  0.4505 -0.4201 -0.1019
   25TMC2    C3  388   4.714   0.841  11.643  0.2125  0.0464  0.4834
   25TMC2    C4  389   0.097   0.587  11.666 -0.2145 -0.2126 -0.3120
   25TMC2    C5  390   0.023   0.642  11.767  0.0881  0.4419  0.0230
   25TMC2    C6  391   4.690   0.756  11.747  0.2839 -0.2667  0.0905
   25TMC2     C  392   0.155   0.605  11.428 -0.2969 -0.3521 -0.1089
   25TMC2     O  393   0.154   0.676  11.328 -0.0742  0.0322 -0.0291
   25TMC2     H  394   0.059   0.854  11.449  0.2570  1.0319  0.9405
   25TMC2    H1  395   0.150   0.495  11.684 -0.9504 -0.1800  1.9722
   25TMC2    H2  396   4.623   0.791  11.824 -1.2515  0.5604 -1.6094
   25TMC2    C7  397   0.014   0.569  11.890 -1.7993  0.1549 -0.3504
   25TMC2    C8  398   4.611   0.937  11.616 -0.2642  0.2474  0.5369
   25TMC2    O1  399   0.107   0.495  11.911  0.1883 -0.3881  0.3558
   25TMC2    O2  400   4.505   0.939  11.676  0.5324 -0.2218  0.7353
   25TMC2    O5  401   4.688   1.046  11.589  0.1464 -0.5211 -0.7723
   25TMC2    H5  402   0.039   1.029  11.558  0.7309  1.0283  0.0922
   26MPD2     C  403   0.358   0.233  11.142 -0.0608  0.1188 -0.8292
   26MPD2    C1  404   0.315   0.175  11.261 -0.4528 -0.3786 -0.7950
   26MPD2    C2  405   0.248   0.259  11.351  0.2720  0.1077 -0.3500
   26MPD2    C3  406   0.227   0.396  11.323 -0.1855 -0.4873  1.0245
   26MPD2    C4  407   0.277   0.447  11.208 -0.2570  0.2503 -0.1883
   26MPD2    C5  408   0.354   0.368  11.129 -0.4360 -0.4546 -0.3452
   26MPD2     H  409   0.222   0.221  11.449 -0.8290 -2.5149 -1.6384
   26MPD2    H1  410   0.282   0.555  11.200  1.7474  0.3601  2.7612
   26MPD2    H2  411   0.415   0.183  11.063  1.2125  1.4926 -0.7774
   26MPD2    H3  412   0.390   0.403  11.033 -2.5409 -0.5939 -1.1856
   26MPD2     N  413   0.178   0.469  11.432 -0.0602  0.0044 -0.4773
   26MPD2    H5  414   0.162   0.421  11.520  0.0228 -0.1902 -0.5699
   26MPD2    N1  415   0.329   0.044  11.277  0.1569 -0.2316  0.0147
   26MPD2    H7  416   0.360   0.001  11.191 -1.9249 -3.1034  0.6964
   27TMC2    C1  417   4.463   2.054  12.140  0.3636 -0.0610 -0.5587
   27TMC2    C2  418   4.397   2.061  12.025  0.3490 -0.5397  0.2882
   27TMC2    C3  419   4.437   2.161  11.944  0.1413  0.0449  1.1437
   27TMC2    C4  420   4.540   2.150  12.197 -0.1528  0.5794 -1.0141
   27TMC2    C5  421   4.553   2.266  12.124  0.4420 -0.3474 -0.3572
   27TMC2    C6  422   4.507   2.268  11.992  0.1742  0.0050  0.3343
   27TMC2     C  423   4.409   1.962  12.240 -0.1377 -0.3217  0.4082
   27TMC2     O  424   4.495   1.894  12.294  1.1038 -0.1454 -0.0112
   27TMC2     H  425   4.331   1.983  11.989 -1.9092  2.4402 -1.9832
   27TMC2    H1  426   4.574   2.125  12.297  0.2894 -2.2020 -1.8801
   27TMC2    H2  427   4.509   2.359  11.932 -0.0912  0.8934  1.6719
   27TMC2    C7  428   4.517   2.369  12.214  0.4520 -0.3055  0.1465
   27TMC2    C8  429   4.349   2.202  11.837 -1.0174  0.1309 -0.0107
   27TMC2    O1  430   4.550   2.355  12.334 -0.0259 -0.2908  0.1675
   27TMC2    O2  431   4.264   2.283  11.874  0.1983  0.0966  0.0397
   27TMC2    O5  432   4.322   2.084  11.785 -0.2024  1.1065 -0.5673
   27TMC2    H5  433   4.387   2.018  11.753 -0.0643  1.1347 -0.3419
   28MPD2     C  434   4.047   1.903  12.599 -0.4858 -0.1661 -0.0794
   28MPD2    C1  435   4.010   2.006  12.520  0.3974 -0.9587  0.3479
   28MPD2    C2  436   4.081   2.034  12.404 -1.1460  0.2853  0.0085
   28MPD2    C3  437   4.204   1.972  12.381 -0.5730 -0.3540 -0.4665
   28MPD2    C4  438   4.249   1.876  12.467  0.9012  0.3905  0.2005
   28MPD2    C5  439   4.171   1.843  12.575 -0.7697 -1.0256  0.0704
   28MPD2     H  440   4.040   2.100  12.329  0.6520 -0.1952 -1.4140
   28MPD2    H1  441   4.345   1.827  12.455  1.0403  0.9052 -0.7502
   28MPD2    H2  442   4.002   1.877  12.694  1.1265  1.5139  1.1551
   28MPD2    H3  443   4.210   1.760  12.633  2.0364  0.3979  0.2304
   28MPD2     N  444   4.283   2.007  12.274 -0.0037  0.8646  0.0428
   28MPD2    H5  445   4.242   2.075  12.211 -2.4243 -1.0615 -0.4259
   28MPD2    N1  446   3.896   2.084  12.553 -0.4710 -0.1512  0.6612
   28MPD2    H7  447   3.845   2.062  12.639  0.1090 -0.9394  0.8003
   29TMC2    C1  448   4.098   0.045  14.550  0.0296  0.5151  0.6153
   29TMC2    C2  449   4.192   0.078  14.641 -0.4430 -0.3009  0.4499
   29TMC2    C3  450   4.178   0.208  14.690  0.0468 -0.2202 -0.5218
   29TMC2    C4  451   4.012   0.132  14.496  0.0797 -0.0922 -0.2736
   29TMC2    C5  452   4.007   0.255  14.550 -0.3863  0.2451  0.9629
   29TMC2    C6  453   4.082   0.295  14.653 -0.2728 -0.6259 -0.3120
   29TMC2     C  454   4.084   4.645  14.529 -0.2607 -1.1734  0.4910
   29TMC2     O  455   4.148   4.570  14.602  0.3517  0.3372 -0.0516
   29TMC2     H  456   4.271   0.016  14.682  0.0898 -1.0421 -1.6911
   29TMC2    H1  457   3.943   0.108  14.415 -0.4834 -0.5293  0.3405
   29TMC2    H2  458   4.058   0.379  14.716 -0.4637 -0.5047 -0.5445
   29TMC2    C7  459   3.938   0.361  14.480 -0.5364 -0.1157 -0.8270
   29TMC2    C8  460   4.241   0.228  14.818 -0.0037  0.7363 -0.2041
   29TMC2    O1  461   3.824   0.338  14.436 -0.3103  0.3378 -0.2407
   29TMC2    O2  462   4.277   0.129  14.886  0.4683 -0.7423 -0.0904
   29TMC2    O5  463   4.290   0.356  14.833  0.2583  0.0789  0.1152
   29TMC2    H5  464   4.275   0.419  14.759  0.2450  0.0531  0.0961
   30MPD2     C  465   3.958   4.242  14.238  0.1414 -0.2717  0.0809
   30MPD2    C1  466   4.036   4.251  14.350 -0.3052 -0.5278  0.3473
   30MPD2    C2  467   4.047   4.375  14.416  1.2264  0.3106 -0.1788
   30MPD2    C3  468   3.989   4.487  14.364 -0.1193  0.6356  0.1734
   30MPD2    C4  469   3.898   4.472  14.257 -0.3327 -0.6887 -0.3040
   30MPD2    C5  470   3.884   4.350  14.199 -0.7552  0.6601  0.7073
   30MPD2     H  471   4.105   4.383  14.507 -1.2526 -3.1122  1.6615
   30MPD2    H1  472   3.841   4.549  14.206 -1.0359 -1.9008 -1.3500
   30MPD2    H2  473   3.942   4.158  14.171 -3.4020  0.0444  0.5211
   30MPD2    H3  474   3.821   4.344  14.112  1.6011  0.5876 -0.9916
   30MPD2     N  475   4.007   4.618  14.416  0.0066 -0.2521 -0.2498
   30MPD2    H5  476   3.951   4.691  14.373 -0.0679  0.1508  0.5286
   30MPD2    N1  477   4.112   4.139  14.397 -0.1113  0.2031 -0.0398
   30MPD2    H7  478   4.161   4.150  14.485 -2.0178  0.7994  0.9417
   31TMC2    C1  479   1.830   3.250  15.294  0.7129 -0.0245  0.1822
   31TMC2    C2  480   1.718   3.297  15.360 -0.7217  0.1141 -0.4785
   31TMC2    C3  481   1.656   3.206  15.444 -0.2828 -0.0592  0.6827
   31TMC2    C4  482   1.884   3.128  15.316 -0.9643 -1.0851  0.0678
   31TMC2    C5  483   1.824   3.052  15.406  0.2672 -0.2570  0.3776
   31TMC2    C6  484   1.710   3.087  15.474  0.2734 -0.1407  0.8554
   31TMC2     C  485   1.913   3.349  15.226 -0.5502  0.5929 -0.5094
   31TMC2     O  486   1.850   3.436  15.166 -0.1763  0.2177  0.2755
   31TMC2     H  487   1.681   3.396  15.335 -0.2617  1.7891  5.6380
   31TMC2    H1  488   1.968   3.094  15.256 -0.2613  1.8179 -0.6131
   31TMC2    H2  489   1.659   3.026  15.548 -0.6495 -0.5090 -0.0799
   31TMC2    C7  490   1.869   2.910  15.415  0.8043 -0.1780  0.5807
   31TMC2    C8  491   1.541   3.248  15.522  0.0683  0.0581  0.8566
   31TMC2    O1  492   1.910   2.877  15.522  0.8532  0.0255 -0.7885
   31TMC2    O2  493   1.511   3.194  15.626 -0.1567 -0.3587 -0.0880
   31TMC2    O5  494   1.460   3.336  15.453  0.2557 -0.0802  0.1040
   31TMC2    H5  495   1.490   3.356  15.362  2.6326 -0.2718  0.8421
   32MPD2     C  496   2.363   3.509  15.043  0.5124 -0.3775 -0.0150
   32MPD2    C1  497   2.239   3.554  15.014 -0.0052 -0.2765 -0.0259
   32MPD2    C2  498   2.131   3.485  15.072 -0.4137 -0.2232  0.0445
   32MPD2    C3  499   2.148   3.374  15.162  0.1818 -0.2411 -0.8700
   32MPD2    C4  500   2.276   3.340  15.198  0.1662  0.1528 -0.2083
   32MPD2    C5  501   2.381   3.407  15.131  0.0664 -0.5812 -0.0318
   32MPD2     H  502   2.038   3.540  15.069 -0.9823 -1.2389 -0.9914
   32MPD2    H1  503   2.308   3.271  15.276 -1.0627 -0.1806 -0.0088
   32MPD2    H2  504   2.449   3.563  15.004 -0.3128  1.8651  1.2083
   32MPD2    H3  505   2.483   3.378  15.155 -0.4968 -1.3184  1.5142
   32MPD2     N  506   2.047   3.322  15.240  0.1105 -0.7463 -0.4244
   32MPD2    H5  507   2.071   3.258  15.314 -0.6060 -0.9382 -0.3585
   32MPD2    N1  508   2.235   3.667  14.932 -0.4040  0.4767  0.3143
   32MPD2    H7  509   2.323   3.707  14.899  1.1720 -1.9098  1.5926
   33TMC2    C1  510   1.748   2.206  10.614  0.0619  0.5072  0.3423
   33TMC2    C2  511   1.617   2.235  10.629  0.1979  0.4824 -0.2778
   33TMC2    C3  512   1.575   2.364  10.619 -0.4258  0.1015 -0.4544
   33TMC2    C4  513   1.838   2.308  10.587  0.3736  0.1590  0.1315
   33TMC2    C5  514   1.788   2.436  10.571  0.5565 -0.6276  0.3635
   33TMC2    C6  515   1.658   2.469  10.594 -0.1601 -0.1891 -0.0004
   33TMC2     C  516   1.793   2.077  10.646  0.4478  0.7512 -0.1674
   33TMC2     O  517   1.701   1.996  10.662  0.3749 -0.2139 -0.0558
   33TMC2     H  518   1.548   2.157  10.660 -1.6663  1.5875 -1.6120
   33TMC2    H1  519   1.941   2.289  10.557  0.7956  2.9394 -0.2168
   33TMC2    H2  520   1.632   2.573  10.579  1.3671  0.1679 -0.1917
   33TMC2    C7  521   1.883   2.527  10.520  0.3345 -0.1347 -0.7923
   33TMC2    C8  522   1.439   2.378  10.647  1.0857 -0.3411  0.4714
   33TMC2    O1  523   2.005   2.510  10.540 -0.4442 -0.2562 -0.0030
   33TMC2    O2  524   1.361   2.287  10.656  0.9453  0.3523  0.0319
   33TMC2    O5  525   1.411   2.507  10.682 -0.0802  0.6945 -0.2660
   33TMC2    H5  526   1.492   2.552  10.714  1.0719 -0.0555 -2.1243
   34MPD2     C  527   2.119   1.686  10.686  0.4119  0.0973  0.7904
   34MPD2    C1  528   1.995   1.710  10.747  0.1858  0.6223  0.2816
   34MPD2    C2  529   1.928   1.828  10.716  0.2438 -0.5628  0.0083
   34MPD2    C3  530   1.985   1.919  10.629 -0.1024  0.2002 -0.0214
   34MPD2    C4  531   2.105   1.893  10.574  0.3069  0.4593  0.3973
   34MPD2    C5  532   2.171   1.779  10.601 -0.1658  0.0225  0.5418
   34MPD2     H  533   1.835   1.848  10.769  0.0611 -0.0261 -0.5175
   34MPD2    H1  534   2.158   1.962  10.509  0.7907  0.2053  0.5303
   34MPD2    H2  535   2.178   1.596  10.686  1.0010  0.4894  1.3844
   34MPD2    H3  536   2.259   1.756  10.543 -0.7616  0.8148 -0.6839
   34MPD2     N  537   1.931   2.052  10.628 -0.0371 -0.4098 -0.0541
   34MPD2    H5  538   1.994   2.126  10.599 -0.7691  0.7660  1.3555
   34MPD2    N1  539   1.957   1.595  10.824  0.1543 -0.4462  0.3532
   34MPD2    H7  540   2.028   1.523  10.822 -0.0053 -0.5492 -2.2986
   35TMC2    C1  541   3.000   2.829  11.348 -0.7286 -0.3756 -0.4196
   35TMC2    C2  542   2.938   2.834  11.229  0.1042  0.0020  0.2477
   35TMC2    C3  543   2.795   2.825  11.239  0.3890 -0.7802  0.0830
   35TMC2    C4  544   2.942   2.825  11.467 -0.3028  0.0145 -0.2212
   35TMC2    C5  545   2.810   2.815  11.478 -0.1474  0.1496  0.5784
   35TMC2    C6  546   2.730   2.820  11.365 -0.4011 -0.0253 -0.0061
   35TMC2     C  547   3.144   2.800  11.346 -0.7257 -0.8536 -0.6619
   35TMC2     O  548   3.200   2.834  11.242 -0.5608  0.1502  0.4869
   35TMC2     H  549   2.989   2.826  11.133  1.8212 -0.7603  1.2296
   35TMC2    H1  550   2.993   2.846  11.560  1.9910 -0.2349 -1.4463
   35TMC2    H2  551   2.622   2.813  11.368 -0.3409 -1.3857 -1.2741
   35TMC2    C7  552   2.763   2.764  11.601  0.0004  0.2613  0.3023
   35TMC2    C8  553   2.716   2.816  11.116  0.3185 -1.0082  0.2394
   35TMC2    O1  554   2.851   2.707  11.667  0.4918 -0.7149  0.2570
   35TMC2    O2  555   2.623   2.736  11.124 -0.5477  0.2840  0.0288
   35TMC2    O5  556   2.790   2.843  11.004 -0.0163 -0.1344  0.3279
   35TMC2    H5  557   2.866   2.906  11.009  0.0375 -0.3444  2.4216
   36MPD2     C  558   3.562   2.597  11.557  0.5300 -0.0966  0.8443
   36MPD2    C1  559   3.463   2.587  11.647 -0.7329  0.2434  0.1100
   36MPD2    C2  560   3.340   2.635  11.605  0.3578 -0.1197 -0.6586
   36MPD2    C3  561   3.314   2.688  11.486 -0.6265 -0.3182  0.5893
   36MPD2    C4  562   3.417   2.703  11.398 -0.0477 -0.5213 -0.3609
   36MPD2    C5  563   3.541   2.658  11.439  0.4457 -0.1508  1.2466
   36MPD2     H  564   3.256   2.617  11.671  2.2918  0.1816  1.8883
   36MPD2    H1  565   3.407   2.745  11.299 -0.8343 -0.4073 -0.2336
   36MPD2    H2  566   3.663   2.572  11.586  0.6047 -0.9735 -0.1933
   36MPD2    H3  567   3.623   2.674  11.369 -1.3342  0.4691 -0.6776
   36MPD2     N  568   3.183   2.735  11.457  0.2621 -0.0422 -0.4164
   36MPD2    H5  569   3.115   2.726  11.532 -0.4004  2.1480 -0.7614
   36MPD2    N1  570   3.468   2.543  11.780  0.1566 -0.3553  0.1066
   36MPD2    H7  571   3.380   2.548  11.831 -0.7398 -1.4458 -1.3156
   37TMC2    C1  572   4.594   2.949  11.789  0.2127  0.2720  0.1658
   37TMC2    C2  573   4.524   3.053  11.738 -0.0017  0.3376 -0.0876
   37TMC2    C3  574   4.582   3.121  11.634 -0.1900 -0.0990 -0.1385
   37TMC2    C4  575   4.716   2.915  11.742  0.8796 -0.5784 -0.3567
   37TMC2    C5  576   0.032   2.994  11.641 -0.3311 -0.2492 -0.2791
   37TMC2    C6  577   4.703   3.093  11.579  0.7076  0.2364  0.0760
   37TMC2     C  578   4.544   2.889  11.912 -0.0405  0.6678  0.1117
   37TMC2     O  579   4.427   2.855  11.929  0.1111  0.4457  0.1228
   37TMC2     H  580   4.424   3.081  11.770 -0.3181 -1.6867  0.7136
   37TMC2    H1  581   0.030   2.829  11.778 -0.2304 -1.4716 -0.8074
   37TMC2    H2  582   0.006   3.166  11.511  0.3621 -0.9913 -1.4409
   37TMC2    C7  583   0.178   2.996  11.636  0.0117  1.3776  0.3598
   37TMC2    C8  584   4.510   3.235  11.590  0.1810  0.3730 -0.5284
   37TMC2    O1  585   0.231   2.954  11.740  0.3186  0.0033 -0.1682
   37TMC2    O2  586   4.426   3.294  11.658  0.0558 -0.2332  0.1652
   37TMC2    O5  587   4.517   3.237  11.453  0.6076  0.2350  0.6369
   37TMC2    H5  588   4.576   3.179  11.400  0.3886  1.5897 -1.0987
   38MPD2     C  589   4.660   2.767  12.399 -0.1368 -0.0517 -0.1014
   38MPD2    C1  590   0.032   2.814  12.338  0.5258 -0.4345 -0.7269
   38MPD2    C2  591   0.034   2.845  12.200  0.4938  1.0311  0.1307
   38MPD2    C3  592   4.651   2.844  12.132 -0.1307 -0.5031 -0.1556
   38MPD2    C4  593   4.541   2.784  12.191  0.8201  0.3954  0.3649
   38MPD2    C5  594   4.545   2.753  12.324  0.0721 -0.0450  0.1719
   38MPD2     H  595   0.126   2.866  12.147 -0.3811  0.3958 -1.5956
   38MPD2    H1  596   4.447   2.767  12.138  0.9109  1.0897 -0.0198
   38MPD2    H2  597   4.658   2.739  12.504  1.1459  1.0729  0.2229
   38MPD2    H3  598   4.450   2.717  12.364  0.9744  0.6335  2.9231
   38MPD2     N  599   4.651   2.893  11.999 -0.3949 -0.0282  0.0768
   38MPD2    H5  600   4.733   2.939  11.962 -2.0370  0.1072 -3.4020
   38MPD2    N1  601   0.151   2.839  12.405 -0.3025 -0.0358 -0.5086
   38MPD2    H7  602   0.218   2.896  12.354  0.7157 -0.4538  0.3584
   39TMC2    C1  603   4.101   4.154   1.435 -0.0728  0.4584  0.1175
   39TMC2    C2  604   4.043   4.110   1.555 -0.2734 -1.0132  0.3183
   39TMC2    C3  605   4.130   4.062   1.649 -0.1632 -0.1825  0.3650
   39TMC2    C4  606   4.238   4.155   1.415 -0.3434 -0.0844  0.2292
   39TMC2    C5  607   4.308   4.097   1.514 -0.4476  0.0589  0.1729
   39TMC2    C6  608   4.263   4.047   1.632 -0.3251 -0.2340  0.0426
   39TMC2     C  609   4.008   4.172   1.326  0.2443 -0.4178  0.2351
   39TMC2     O  610   3.889   4.149   1.344 -0.0244 -0.0604 -0.4676
   39TMC2     H  611   3.936   4.116   1.565 -0.1900 -1.3663  1.3697
   39TMC2    H1  612   4.300   4.191   1.334 -2.4676  1.1402 -0.8491
   39TMC2    H2  613   4.318   4.036   1.725 -1.5260 -0.9074  0.6849
   39TMC2    C7  614   4.455   4.089   1.493  0.1513  0.1763  0.8644
   39TMC2    C8  615   4.074   4.021   1.781 -0.3281 -0.4453  0.7870
   39TMC2    O1  616   4.501   4.157   1.404  0.2904 -0.1011  0.4845
   39TMC2    O2  617   4.130   3.945   1.855 -0.2635 -0.0936 -0.4731
   39TMC2    O5  618   3.989   4.122   1.816 -0.5753 -0.0163  0.2451
   39TMC2    H5  619   3.979   4.189   1.746  0.2666 -0.8538 -0.6821
   40MPD2     C  620   4.086   4.194   0.961  0.1245 -0.1764  0.2025
   40MPD2    C1  621   4.007   4.192   1.078  0.3966  0.4403  0.1823
   40MPD2    C2  622   3.869   4.192   1.059 -0.5159 -0.4778  0.3055
   40MPD2    C3  623   3.803   4.208   0.935  0.4449  0.0298 -1.2586
   40MPD2    C4  624   3.881   4.208   0.824 -0.0541  0.0063 -0.3392
   40MPD2    C5  625   4.017   4.189   0.842  0.2113 -0.5651 -0.6702
   40MPD2     H  626   3.804   4.205   1.144  0.1545  0.4910  0.6655
   40MPD2    H1  627   3.831   4.195   0.729  0.7757  3.2471 -1.1997
   40MPD2    H2  628   4.193   4.174   0.964  0.7060  2.4393 -2.6992
   40MPD2    H3  629   4.074   4.172   0.751  0.3510 -1.4723 -0.4150
   40MPD2     N  630   3.658   4.211   0.923  0.8870 -0.1339  0.5741
   40MPD2    H5  631   3.616   4.208   0.831  1.3000 -0.7187  0.4068
   40MPD2    N1  632   4.070   4.194   1.206  0.3067 -0.2637 -0.2779
   40MPD2    H7  633   4.171   4.189   1.215  0.0242 -0.7641  2.5503
   41TMC2    C1  634   2.895   2.242  13.485 -0.2775 -0.6397  0.4178
   41TMC2    C2  635   3.016   2.258  13.535  0.2566 -0.6444  0.0154
   41TMC2    C3  636   3.105   2.328  13.453 -0.3379  0.2564 -0.0628
   41TMC2    C4  637   2.862   2.282  13.357  0.0082  0.4567 -0.0276
   41TMC2    C5  638   2.947   2.361  13.282 -0.0281  0.2971 -0.9180
   41TMC2    C6  639   3.070   2.389  13.336 -0.1037  0.4670  0.2792
   41TMC2     C  640   2.788   2.187  13.562 -0.3588 -0.9720  0.5242
   41TMC2     O  641   2.716   2.104  13.509  0.3327 -0.5905 -0.4095
   41TMC2     H  642   3.043   2.208  13.627  1.6397 -0.8392 -0.5006
   41TMC2    H1  643   2.761   2.263  13.324  0.5910  0.8204 -2.0065
   41TMC2    H2  644   3.127   2.468  13.288 -0.1171  0.2630 -0.0755
   41TMC2    C7  645   2.934   2.351  13.138 -1.2209 -0.1895  0.9925
   41TMC2    C8  646   3.224   2.388  13.510 -0.3653 -0.0460 -0.2663
   41TMC2    O1  647   3.037   2.341  13.074 -0.5848 -0.0886 -0.0195
   41TMC2    O2  648   3.299   2.454  13.437  0.1776 -0.2260 -0.5160
   41TMC2    O5  649   3.262   2.320  13.619 -0.2659 -0.3638  0.1999
   41TMC2    H5  650   3.189   2.316  13.685 -2.1157  0.1081 -1.8109
   42MPD2     C  651   2.713   2.022  13.805  0.7167 -0.2766  0.2150
   42MPD2    C1  652   2.757   2.154  13.801  0.1571  0.1688 -0.7327
   42MPD2    C2  653   2.771   2.218  13.923 -0.0707 -0.8975  0.2360
   42MPD2    C3  654   2.741   2.161  14.041  0.1432  0.2689  0.2710
   42MPD2    C4  655   2.686   2.036  14.044  0.5651  0.2817  1.1765
   42MPD2    C5  656   2.676   1.972  13.924 -0.4330  0.0669 -0.1134
   42MPD2     H  657   2.811   2.318  13.928 -1.2306 -0.3172 -1.8220
   42MPD2    H1  658   2.661   1.983  14.136 -3.7436 -0.0113 -0.1665
   42MPD2    H2  659   2.707   1.970  13.710 -0.4040 -0.0285  0.1544
   42MPD2    H3  660   2.644   1.869  13.923 -0.7022  0.1328  1.3593
   42MPD2     N  661   2.748   2.231  14.165  0.5383  1.0393  0.2083
   42MPD2    H5  662   2.736   2.187  14.255 -1.2407  1.1706  0.0421
   42MPD2    N1  663   2.809   2.220  13.689 -0.4011  0.0881 -0.1009
   42MPD2    H7  664   2.860   2.306  13.708 -0.1846 -0.4171  1.7008
   43TMC2    C1  665   4.227   0.575   1.037 -0.1614 -0.1376 -0.0849
   43TMC2    C2  666   4.106   0.591   1.094 -0.2065  1.0455 -0.4439
   43TMC2    C3  667   4.101   0.623   1.228 -0.1508  0.0791 -0.1170
   43TMC2    C4  668   4.337   0.610   1.105  0.0028 -0.0125 -0.3564
   43TMC2    C5  669   4.322   0.662   1.234  0.6862  0.4166  0.0434
   43TMC2    C6  670   4.208   0.671   1.302 -0.2177 -0.6285  0.1311
   43TMC2     C  671   4.236   0.568   0.895  0.5417 -0.1063 -0.2350
   43TMC2     O  672   4.293   0.468   0.853  0.0989 -0.0612 -0.1408
   43TMC2     H  673   4.023   0.565   1.029 -0.1580  0.0976 -0.1260
   43TMC2    H1  674   4.434   0.596   1.060 -0.2056 -0.0940 -0.7844
   43TMC2    H2  675   4.207   0.709   1.403  0.5847 -0.7308  0.1769
   43TMC2    C7  676   4.443   0.718   1.298  0.3011  0.4827  0.3828
   43TMC2    C8  677   3.973   0.616   1.292 -0.2904  0.0026 -0.4767
   43TMC2    O1  678   4.546   0.657   1.277 -0.3058  0.1164 -0.0756
   43TMC2    O2  679   3.868   0.605   1.232 -0.0109  0.0562 -0.9945
   43TMC2    O5  680   3.997   0.552   1.412  0.1837 -0.3004 -0.0027
   43TMC2    H5  681   4.091   0.538   1.435 -0.0706  0.1681  1.3664
   44MPD2     C  682   4.270   0.784   0.436  0.6367  0.8110  0.6216
   44MPD2    C1  683   4.340   0.671   0.485  0.5890 -0.1673 -0.4096
   44MPD2    C2  684   4.328   0.642   0.622  0.1784 -0.0895 -0.4285
   44MPD2    C3  685   4.229   0.709   0.692 -0.4716  0.0676  0.8955
   44MPD2    C4  686   4.161   0.810   0.642  0.2140 -0.2363  0.2412
   44MPD2    C5  687   4.190   0.851   0.515  0.1576  0.4625  0.0478
   44MPD2     H  688   4.381   0.559   0.666  1.1660 -1.0744 -3.4954
   44MPD2    H1  689   4.089   0.861   0.704  1.1513  0.3695  0.8184
   44MPD2    H2  690   4.283   0.804   0.330 -1.0600 -1.6136 -0.0350
   44MPD2    H3  691   4.141   0.944   0.486 -0.8475 -0.4491 -1.2207
   44MPD2     N  692   4.194   0.682   0.826 -0.4474 -0.9673  0.5960
   44MPD2    H5  693   4.119   0.739   0.864  0.1151 -0.6261  1.1825
   44MPD2    N1  694   4.428   0.595   0.402 -0.1230 -0.3619  0.1102
   44MPD2    H7  695   4.455   0.506   0.443 -1.2853 -0.5012  0.5513
   45TMC2    C1  696   4.624   3.286   9.319  0.2865 -0.3052 -0.2938
   45TMC2    C2  697   4.518   3.337   9.245 -0.6171  0.2293  0.8789
   45TMC2    C3  698   4.485   3.472   9.270  0.2153 -0.8069  0.1460
   45TMC2    C4  699   4.698   3.348   9.420 -0.4016  0.9406  0.6618
   45TMC2    C5  700   4.657   3.479   9.436  0.7551  0.4798 -0.5013
   45TMC2    C6  701   4.558   3.539   9.360  0.3200  0.4633  0.0543
   45TMC2     C  702   4.635   3.142   9.331 -0.3412  0.3334  0.0263
   45TMC2     O  703   0.002   3.099   9.351  0.4804  0.2036  0.1021
   45TMC2     H  704   4.467   3.291   9.161  1.4766 -1.4719  0.5582
   45TMC2    H1  705   0.038   3.294   9.469  0.0994  0.2062 -0.9612
   45TMC2    H2  706   4.510   3.631   9.391  0.7539  0.2015  1.5016
   45TMC2    C7  707   4.723   3.558   9.539 -0.4380  0.5707  0.7039
   45TMC2    C8  708   4.370   3.524   9.200 -0.6422 -0.1258 -0.3355
   45TMC2    O1  709   0.047   3.502   9.628  0.4318  0.3206  0.2299
   45TMC2    O2  710   4.286   3.449   9.154 -0.1532  0.3288 -0.4275
   45TMC2    O5  711   4.403   3.647   9.162  0.5678 -0.7303  0.0332
   45TMC2    H5  712   4.481   3.683   9.210  1.6302  1.9413 -3.7084
   46MPD2     C  713   4.584   2.861   9.291 -0.1429 -0.7282  0.1602
   46MPD2    C1  714   4.488   2.948   9.325 -0.4750 -0.1958  0.6736
   46MPD2    C2  715   4.356   2.905   9.357  0.0588 -0.1041  0.1222
   46MPD2    C3  716   4.333   2.768   9.354  0.2857 -0.0842 -0.4539
   46MPD2    C4  717   4.435   2.682   9.326 -0.6764 -0.0127 -0.4796
   46MPD2    C5  718   4.556   2.726   9.288 -0.3989 -0.1125  0.5509
   46MPD2     H  719   4.282   2.979   9.384 -0.5401 -0.0887 -1.5333
   46MPD2    H1  720   4.423   2.574   9.319  0.9467 -0.0026 -3.3687
   46MPD2    H2  721   4.689   2.886   9.286 -0.2426 -0.6193 -1.5409
   46MPD2    H3  722   4.631   2.658   9.249  0.9576  0.4267  2.1759
   46MPD2     N  723   4.204   2.718   9.383 -0.0191  0.1814 -0.1458
   46MPD2    H5  724   4.136   2.791   9.403  1.9816  2.5702 -2.1407
   46MPD2    N1  725   4.511   3.086   9.317  0.2439  0.5878 -0.1320
   46MPD2    H7  726   4.430   3.147   9.328 -0.3250 -0.2774  0.4583
   47TMC2    C1  727   2.671   4.740   9.898  0.8382 -0.4480 -0.5575
   47TMC2    C2  728   2.777   0.015   9.984 -1.1128 -0.3643  0.4307
   47TMC2    C3  729   2.855   0.123   9.972  0.1581 -0.0242  0.5651
   47TMC2    C4  730   2.644   0.107   9.806 -0.1461 -1.5299  0.0664
   47TMC2    C5  731   2.731   0.210   9.796  0.3435 -0.4148  0.4693
   47TMC2    C6  732   2.834   0.229   9.887  0.3643  0.4571  0.0658
   47TMC2     C  733   2.594   4.626   9.886 -0.0754 -0.5529 -0.3068
   47TMC2     O  734   2.479   4.640   9.854  0.7989  0.0352  0.3256
   47TMC2     H  735   2.809   4.674  10.048  0.5084 -1.7880 -2.2148
   47TMC2    H1  736   2.567   0.087   9.732  0.0989 -0.8985 -0.3598
   47TMC2    H2  737   2.913   0.302   9.873 -0.7449  1.8012  0.8597
   47TMC2    C7  738   2.726   0.298   9.681  0.0123 -0.7607 -0.4268
   47TMC2    C8  739   2.974   0.127  10.050  0.1060  0.6785  0.6712
   47TMC2    O1  740   2.811   0.384   9.662  0.2321 -0.1058  0.5670
   47TMC2    O2  741   3.027   0.024  10.084  0.0408  1.0320  0.6846
   47TMC2    O5  742   2.974   0.237  10.131 -0.5413  0.5253  0.0332
   47TMC2    H5  743   2.936   0.316  10.087  1.3088 -0.2295 -2.9356
   48MPD2     C  744   2.501   4.351   9.877 -0.0399  0.3693  0.1961
   48MPD2    C1  745   2.631   4.378   9.910 -0.1106  0.2839 -0.1427
   48MPD2    C2  746   2.716   4.277   9.952  0.1522 -0.1801 -0.2008
   48MPD2    C3  747   2.672   4.146   9.945  0.4383 -0.0411  0.0719
   48MPD2    C4  748   2.544   4.113   9.902  0.1121 -0.3677  0.6203
   48MPD2    C5  749   2.459   4.219   9.888  0.0464  0.3308 -0.4518
   48MPD2     H  750   2.814   4.306   9.988  0.2716  0.0081 -0.6801
   48MPD2    H1  751   2.500   4.013   9.905  0.4201 -0.4832  1.3894
   48MPD2    H2  752   2.427   4.423   9.843  1.6831  2.4274  0.8163
   48MPD2    H3  753   2.354   4.203   9.865  0.3365 -0.6781 -1.0938
   48MPD2     N  754   2.762   4.039   9.984 -0.3743 -0.7194  0.7970
   48MPD2    H5  755   2.848   4.070  10.028 -0.8126 -0.8559  1.7447
   48MPD2    N1  756   2.674   4.514   9.909  0.9747  0.1793 -0.8631
   48MPD2    H7  757   2.771   4.532   9.934  0.8425 -1.6453  0.9570
   49TMC2    C1  758   1.235   0.480  10.402 -0.1996  0.2220  0.4521
   49TMC2    C2  759   1.324   0.439  10.308 -0.8404 -0.2206  0.6837
   49TMC2    C3  760   1.315   0.310  10.257 -0.2558 -0.2102  0.7787
   49TMC2    C4  761   1.145   0.393  10.452 -0.1731  0.1563  0.0048
   49TMC2    C5  762   1.153   0.262  10.416 -0.2982  0.5530  0.2832
   49TMC2    C6  763   1.234   0.216  10.319 -0.4446  0.6219 -0.4181
   49TMC2     C  764   1.227   0.627  10.425  0.6233  0.5467  0.2004
   49TMC2     O  765   1.325   0.696  10.386  0.0742  0.7000 -0.5472
   49TMC2     H  766   1.388   0.513  10.261 -0.1942 -0.8336  0.5953
   49TMC2    H1  767   1.066   0.420  10.521 -0.4641  0.0525 -0.2885
   49TMC2    H2  768   1.234   0.118  10.273 -1.0280  0.8799 -0.9730
   49TMC2    C7  769   1.052   0.169  10.460  0.5063 -0.7454 -0.1632
   49TMC2    C8  770   1.422   0.255  10.183  0.3705 -0.9820  0.3869
   49TMC2    O1  771   1.031   0.073  10.383  0.0118 -0.0671 -0.3112
   49TMC2    O2  772   1.402   0.165  10.103 -0.2347 -0.6034  0.0728
   49TMC2    O5  773   1.534   0.267  10.265  0.2106  0.6832 -0.0599
   49TMC2    H5  774   1.508   0.336  10.330 -2.7225 -0.9624  0.4929
   50MPD2     C  775   1.155   0.911  10.488  0.1068  0.1726 -0.7450
   50MPD2    C1  776   1.071   0.802  10.502  0.1715  0.1421  1.2846
   50MPD2    C2  777   0.949   0.830  10.560  0.1086  0.1597  0.3728
   50MPD2    C3  778   0.911   0.957  10.596  0.3791  0.2348 -0.2222
   50MPD2    C4  779   1.000   1.062  10.567  0.2994 -0.2027 -0.6474
   50MPD2    C5  780   1.121   1.043  10.520  0.3371 -0.2558  0.3385
   50MPD2     H  781   0.882   0.745  10.573  0.1320  0.6555  3.7599
   50MPD2    H1  782   0.986   1.158  10.614 -0.4781 -1.5483  1.8799
   50MPD2    H2  783   1.258   0.914  10.454 -0.0111  1.0166 -1.0073
   50MPD2    H3  784   1.185   1.129  10.507  0.6394 -0.4183  0.7574
   50MPD2     N  785   0.795   0.986  10.664 -0.1658  0.2075 -0.6922
   50MPD2    H5  786   0.782   1.083  10.687 -3.1017 -0.4497  0.3315
   50MPD2    N1  787   1.102   0.673  10.470 -0.0239 -0.3393 -0.7108
   50MPD2    H7  788   1.032   0.601  10.488 -0.7767  0.6136  0.1289
   51TMC2    C1  789   1.336   4.221   1.255 -0.2470  0.1195  0.6522
   51TMC2    C2  790   1.410   4.230   1.371 -0.5201 -0.1863  0.6597
   51TMC2    C3  791   1.491   4.340   1.371  0.5074  0.4400  0.2873
   51TMC2    C4  792   1.326   4.319   1.157  0.1687  0.1533  0.9276
   51TMC2    C5  793   1.391   4.439   1.188 -1.1846 -0.6678 -0.7834
   51TMC2    C6  794   1.485   4.443   1.280  0.0908  0.5039  0.1872
   51TMC2     C  795   1.314   4.085   1.199 -0.1828 -0.1204  0.0436
   51TMC2     O  796   1.333   4.081   1.080 -0.3182 -0.7609 -0.2878
   51TMC2     H  797   1.409   4.148   1.442  0.0211  1.2436  2.3185
   51TMC2    H1  798   1.251   4.307   1.079  1.0444  0.5696  0.0284
   51TMC2    H2  799   1.553   4.527   1.291 -1.2911  1.2710  2.9957
   51TMC2    C7  800   1.385   4.549   1.095 -0.2261  0.0629 -0.6552
   51TMC2    C8  801   1.593   4.349   1.473  0.1940  0.0202  0.4003
   51TMC2    O1  802   1.480   4.629   1.096 -0.3837  0.4459  0.8449
   51TMC2    O2  803   1.660   4.453   1.481  0.3687 -0.1687  0.1806
   51TMC2    O5  804   1.632   4.223   1.512 -1.0013  0.5342  0.6368
   51TMC2    H5  805   1.622   4.149   1.449 -0.4052  1.2443 -0.2887
   52MPD2     C  806   1.289   3.577   1.217  0.2145  0.2437  0.4892
   52MPD2    C1  807   1.370   3.667   1.141  0.7142 -0.2556 -0.3248
   52MPD2    C2  808   1.374   3.799   1.169  0.0986 -0.2135 -0.1807
   52MPD2    C3  809   1.282   3.849   1.262 -0.3311 -0.6139 -0.7768
   52MPD2    C4  810   1.214   3.768   1.347 -0.8543 -0.1321  0.2232
   52MPD2    C5  811   1.216   3.629   1.320  0.8672  0.3129  0.0288
   52MPD2     H  812   1.431   3.870   1.111  0.8521 -0.5078  0.2040
   52MPD2    H1  813   1.175   3.808   1.439 -2.3796 -1.3524  0.1116
   52MPD2    H2  814   1.290   3.470   1.204  0.0394  0.0244  2.2573
   52MPD2    H3  815   1.161   3.555   1.377 -0.6173  2.2017  1.0484
   52MPD2     N  816   1.276   3.988   1.291 -0.3942 -0.5888 -0.4608
   52MPD2    H5  817   1.237   4.012   1.382  1.5143  3.1820 -0.6348
   52MPD2    N1  818   1.454   3.621   1.046  1.0266  0.5155 -0.5696
   52MPD2    H7  819   1.500   3.691   0.990  0.3553  1.0463 -0.4594
   53TMC2    C1  820   0.849   3.153  11.852  0.6420 -0.1616 -0.1276
   53TMC2    C2  821   0.983   3.157  11.869 -0.6831  0.1038 -0.6574
   53TMC2    C3  822   1.029   3.185  12.001 -0.2129  0.5390  0.0337
   53TMC2    C4  823   0.771   3.192  11.956  0.2710  0.0974 -0.2954
   53TMC2    C5  824   0.812   3.200  12.080  0.3610  0.1242  0.1862
   53TMC2    C6  825   0.943   3.194  12.114  0.2072  0.6751 -0.2729
   53TMC2     C  826   0.794   3.149  11.720  0.1816  0.4416  0.6044
   53TMC2     O  827   0.870   3.154  11.624  0.3813  0.7115  0.9046
   53TMC2     H  828   1.054   3.124  11.794  0.4708 -2.5282  1.6003
   53TMC2    H1  829   0.668   3.215  11.930  0.5827  1.9622  0.0988
   53TMC2    H2  830   0.983   3.200  12.214  1.2938 -0.6965 -0.6205
   53TMC2    C7  831   0.711   3.217  12.187 -0.6545  0.3923  0.3489
   53TMC2    C8  832   1.171   3.184  12.020 -0.1540  0.4432 -0.1510
   53TMC2    O1  833   0.596   3.204  12.151 -0.0736  0.1868  0.4879
   53TMC2    O2  834   1.239   3.148  11.924 -0.2505 -0.7253  0.2686
   53TMC2    O5  835   1.197   3.305  12.082  0.0439 -0.1013  0.0234
   53TMC2    H5  836   1.123   3.334  12.140  1.4069  2.0733  0.6664
   54MPD2     C  837   0.613   3.163  11.476 -0.1056  0.0758  0.0408
   54MPD2    C1  838   0.577   3.129  11.601  0.3746 -0.5559 -0.3079
   54MPD2    C2  839   0.447   3.085  11.622 -0.5998 -1.2497  0.1828
   54MPD2    C3  840   0.359   3.088  11.512  0.6238  0.2174  0.2978
   54MPD2    C4  841   0.401   3.126  11.386 -0.7619 -0.0957  0.6655
   54MPD2    C5  842   0.524   3.174  11.372  0.7874 -0.1154 -0.3231
   54MPD2     H  843   0.426   3.045  11.720 -0.5944  0.7438  0.9936
   54MPD2    H1  844   0.329   3.119  11.306  0.2874  0.1607 -0.3050
   54MPD2    H2  845   0.713   3.203  11.462 -0.0120 -0.0690  0.2942
   54MPD2    H3  846   0.548   3.215  11.275  0.4722 -2.2793 -1.3167
   54MPD2     N  847   0.226   3.059  11.527  0.0926  0.3150 -0.2044
   54MPD2    H5  848   0.168   3.093  11.451  0.2665 -1.4156 -1.1175
   54MPD2    N1  849   0.659   3.130  11.715  0.8716  0.0836  0.2333
   54MPD2    H7  850   0.623   3.091  11.802 -1.0379  2.7076  0.6215
   55TMC2    C1  851   2.386   1.988   0.377 -0.4417  0.0251  0.1350
   55TMC2    C2  852   2.492   2.077   0.399  0.5607  0.3838 -0.0427
   55TMC2    C3  853   2.611   2.031   0.445 -0.0213  0.8131  0.1906
   55TMC2    C4  854   2.401   1.852   0.386 -0.8207  0.4636 -0.4026
   55TMC2    C5  855   2.532   1.814   0.413  0.1311 -0.1633 -0.7784
   55TMC2    C6  856   2.639   1.894   0.442  0.2607 -0.2812  0.2964
   55TMC2     C  857   2.269   2.043   0.311 -0.2566  0.2891 -0.1594
   55TMC2     O  858   2.281   2.165   0.278 -0.8168 -0.2853  0.2601
   55TMC2     H  859   2.474   2.184   0.393  0.2835  0.4028  1.1219
   55TMC2    H1  860   2.324   1.782   0.358 -0.7311 -0.0072  0.5426
   55TMC2    H2  861   2.734   1.848   0.467 -0.1384 -1.3153 -0.0634
   55TMC2    C7  862   2.573   1.678   0.385 -0.6377 -0.3915  0.3793
   55TMC2    C8  863   2.716   2.124   0.463 -0.2197 -0.4690  0.0444
   55TMC2    O1  864   2.689   1.669   0.348 -0.0306 -0.0544 -0.4485
   55TMC2    O2  865   2.690   2.241   0.490  0.1133 -0.1822  0.1062
   55TMC2    O5  866   2.810   2.087   0.379 -0.1856 -0.3103 -0.2938
   55TMC2    H5  867   2.811   1.992   0.355 -0.6204 -0.5222  0.5254
   56MPD2     C  868   1.989   2.131   0.277 -0.1351 -0.4830  0.0374
   56MPD2    C1  869   2.020   1.997   0.286 -0.3184  0.2651 -0.1425
   56MPD2    C2  870   1.917   1.903   0.286 -0.3079 -0.4793 -0.3048
   56MPD2    C3  871   1.785   1.935   0.261  0.6000 -0.3953 -0.9392
   56MPD2    C4  872   1.756   2.072   0.240 -0.1300 -0.3709 -0.1761
   56MPD2    C5  873   1.857   2.168   0.255  0.2417 -0.5997  0.6752
   56MPD2     H  874   1.951   1.801   0.288 -0.4342 -0.4439  2.8078
   56MPD2    H1  875   1.658   2.113   0.216  0.4347  0.5058 -0.9763
   56MPD2    H2  876   2.055   2.215   0.296  0.4632 -1.3817  1.9692
   56MPD2    H3  877   1.829   2.273   0.254 -0.5559 -0.8066  2.6988
   56MPD2     N  878   1.691   1.836   0.232  0.4678  0.4580  0.5505
   56MPD2    H5  879   1.720   1.742   0.258  1.7442  0.8986  0.7493
   56MPD2    N1  880   2.158   1.961   0.314  0.8471 -0.6156 -0.8149
   56MPD2    H7  881   2.169   1.861   0.324  1.3687 -0.4864 -0.0829
   57TMC2    C1  882   1.407   1.504  13.827 -0.5161  0.3144  0.6660
   57TMC2    C2  883   1.317   1.406  13.812 -0.4228 -0.5420  0.3882
   57TMC2    C3  884   1.356   1.274  13.798 -0.1231  0.4359 -0.5080
   57TMC2    C4  885   1.539   1.480  13.813  0.1792  0.1571 -0.0801
   57TMC2    C5  886   1.582   1.349  13.789  0.2683  0.3681 -0.1137
   57TMC2    C6  887   1.488   1.246  13.791  0.0493 -0.1373  0.3925
   57TMC2     C  888   1.357   1.640  13.824 -0.1438  0.5015 -0.3287
   57TMC2     O  889   1.248   1.657  13.779  0.1729 -0.5217  0.0886
   57TMC2     H  890   1.214   1.439  13.826  0.1054  0.6710  1.4227
   57TMC2    H1  891   1.616   1.554  13.793  2.3350 -1.5723  1.8451
   57TMC2    H2  892   1.519   1.142  13.789  1.3928  0.2272  2.4437
   57TMC2    C7  893   1.721   1.329  13.751 -0.4688  0.3621 -0.6212
   57TMC2    C8  894   1.258   1.169  13.788 -0.5024 -0.3715  0.5152
   57TMC2    O1  895   1.803   1.419  13.776 -0.0561  0.3002 -0.0227
   57TMC2    O2  896   1.143   1.179  13.828  0.6326 -0.2737 -0.1577
   57TMC2    O5  897   1.297   1.095  13.682  0.2553 -0.6295  0.3291
   57TMC2    H5  898   1.389   1.109  13.651 -0.9077  1.1083 -2.3216
   58MPD2     C  899   1.435   2.136  13.916  0.0439 -0.4072 -0.5489
   58MPD2    C1  900   1.322   2.082  13.860  0.3676  0.3659 -0.0913
   58MPD2    C2  901   1.319   1.943  13.849 -0.1832  0.1654 -0.8043
   58MPD2    C3  902   1.428   1.864  13.893  0.0447  0.7065  0.4750
   58MPD2    C4  903   1.535   1.929  13.954  0.8425  0.9698  0.0379
   58MPD2    C5  904   1.540   2.065  13.963  0.2518 -0.3798 -0.0885
   58MPD2     H  905   1.226   1.898  13.816 -0.4983 -0.4155  0.8407
   58MPD2    H1  906   1.622   1.874  13.988 -2.1148 -4.0106 -0.3080
   58MPD2    H2  907   1.453   2.242  13.927 -0.0196 -0.6129  1.4029
   58MPD2    H3  908   1.627   2.115  14.004 -0.0441  1.5333 -1.7826
   58MPD2     N  909   1.442   1.726  13.891  0.1867  0.2791 -0.2233
   58MPD2    H5  910   1.519   1.684  13.943  0.2255 -0.5693 -0.9710
   58MPD2    N1  911   1.214   2.155  13.815 -0.7425 -0.1255 -0.2286
   58MPD2    H7  912   1.157   2.106  13.748 -1.5625 -0.0838  0.4450
   59TMC2    C1  913   3.288   1.735  12.871 -0.6231  0.0663  0.0307
   59TMC2    C2  914   3.298   1.618  12.941  0.0027 -0.2502  0.1546
   59TMC2    C3  915   3.368   1.514  12.878 -0.3575 -0.1452 -0.4764
   59TMC2    C4  916   3.352   1.753  12.751  0.1378 -0.2838  0.5107
   59TMC2    C5  917   3.418   1.647  12.690  0.0044 -0.1975  0.7600
   59TMC2    C6  918   3.434   1.524  12.758 -0.5026  0.7689 -0.4365
   59TMC2     C  919   3.279   1.851  12.960 -0.1052 -0.4459  0.4503
   59TMC2     O  920   3.180   1.917  12.958  0.5560 -0.5251 -0.1323
   59TMC2     H  921   3.241   1.600  13.031  0.2112 -1.7160  0.0003
   59TMC2    H1  922   3.355   1.853  12.710 -1.1545 -0.2534  0.5131
   59TMC2    H2  923   3.479   1.437  12.711 -4.6730  0.4170 -3.7403
   59TMC2    C7  924   3.502   1.665  12.573 -0.1162 -0.1992  0.0512
   59TMC2    C8  925   3.348   1.377  12.926  0.2295  0.8204 -0.2515
   59TMC2    O1  926   3.581   1.573  12.554 -0.0357 -0.6463  0.0875
   59TMC2    O2  927   3.331   1.281  12.858  0.1323  0.3458 -0.0889
   59TMC2    O5  928   3.409   1.372  13.046  0.1238 -0.0899  0.7445
   59TMC2    H5  929   3.425   1.463  13.078  0.0775  0.5241 -0.9760
   60MPD2     C  930   3.349   2.092  13.108 -0.6851 -0.1250  0.5027
   60MPD2    C1  931   3.426   1.977  13.108  0.0492 -0.0056 -0.8392
   60MPD2    C2  932   3.518   1.959  13.206  0.4655 -0.1309 -0.1306
   60MPD2    C3  933   3.551   2.058  13.291  0.0358 -0.5886 -1.1435
   60MPD2    C4  934   3.487   2.181  13.285 -0.2776 -0.0619  0.7763
   60MPD2    C5  935   3.380   2.196  13.193 -0.5589  0.6496 -0.2458
   60MPD2     H  936   3.571   1.865  13.200 -1.6234 -1.3310  0.3420
   60MPD2    H1  937   3.513   2.255  13.359  1.0203  0.3512 -0.0880
   60MPD2    H2  938   3.260   2.101  13.046 -0.9113  4.0381  1.4325
   60MPD2    H3  939   3.310   2.279  13.188 -2.5499 -0.8464  2.8448
   60MPD2     N  940   3.638   2.039  13.397  0.3347 -0.1795  0.6400
   60MPD2    H5  941   3.657   2.118  13.458  1.4428  0.7483 -0.8964
   60MPD2    N1  942   3.388   1.868  13.031 -0.5714  1.0971 -0.2223
   60MPD2    H7  943   3.452   1.789  13.035 -1.6343  0.2553  0.1036
   61TMC2    C1  944   2.815   3.088  15.522  0.2045 -0.0419 -0.0087
   61TMC2    C2  945   2.734   3.034  15.617  0.1126 -0.9659  0.2264
   61TMC2    C3  946   2.691   3.106  15.723  0.1463 -0.0284  0.4378
   61TMC2    C4  947   2.869   3.206  15.542 -0.7518  0.3398 -0.0143
   61TMC2    C5  948   2.843   3.276  15.656  0.7734 -0.1970  0.0194
   61TMC2    C6  949   2.751   3.226  15.750 -0.9372  1.0582  0.2263
   61TMC2     C  950   2.836   3.014  15.398  0.0567  0.5451 -0.2469
   61TMC2     O  951   2.799   2.899  15.389 -0.4461 -0.1340 -0.3466
   61TMC2     H  952   2.679   2.944  15.593 -0.6603 -0.3066 -0.4470
   61TMC2    H1  953   2.940   3.251  15.474 -0.6102  2.2833  1.4170
   61TMC2    H2  954   2.740   3.277  15.845  2.9833 -0.5367  1.5188
   61TMC2    C7  955   2.910   3.402  15.678 -0.7004  0.1092  0.1373
   61TMC2    C8  956   2.611   3.050  15.834  0.1690  0.2272 -0.7946
   61TMC2    O1  957   2.942   3.462  15.577 -0.6092  0.8820 -0.5756
   61TMC2    O2  958   2.635   3.078  15.947  0.3858  0.2593 -1.0209
   61TMC2    O5  959   2.520   2.964  15.793 -0.1500 -0.0257 -0.2758
   61TMC2    H5  960   2.513   2.963  15.695 -4.4221  1.0400  0.0393
   62MPD2     C  961   2.983   2.897  15.154 -0.2410 -0.9524 -0.4017
   62MPD2    C1  962   2.971   3.031  15.187 -0.0486  0.3566  0.4224
   62MPD2    C2  963   3.025   3.119  15.093  1.2842  0.0602 -0.4439
   62MPD2    C3  964   3.079   3.074  14.974 -0.8851  0.4554  0.1879
   62MPD2    C4  965   3.086   2.941  14.949 -0.0061  0.3219  0.5668
   62MPD2    C5  966   3.044   2.852  15.046 -0.3658  0.4357 -0.3086
   62MPD2     H  967   3.013   3.225  15.113 -0.7527 -0.9379  3.6631
   62MPD2    H1  968   3.110   2.898  14.853  0.4167  0.7926  0.4579
   62MPD2    H2  969   2.944   2.816  15.215 -1.7994  1.5696  1.9748
   62MPD2    H3  970   3.034   2.745  15.029 -1.9562  0.9283 -2.5282
   62MPD2     N  971   3.133   3.169  14.880 -0.4278  0.5242 -0.6833
   62MPD2    H5  972   3.148   3.131  14.787  0.1869  2.7151 -1.4617
   62MPD2    N1  973   2.906   3.086  15.303 -0.3495 -0.2351 -0.0039
   62MPD2    H7  974   2.926   3.183  15.327  0.3609  0.2793 -2.7662
   63TMC2    C1  975   2.363   3.605  10.391  0.2715 -0.1081  0.3081
   63TMC2    C2  976   2.460   3.690  10.421  0.0815 -0.0571  0.0826
   63TMC2    C3  977   2.507   3.771  10.318 -0.1427 -0.0810 -0.7675
   63TMC2    C4  978   2.308   3.601  10.266 -0.3350 -0.9797  0.0510
   63TMC2    C5  979   2.361   3.682  10.168 -0.1001 -0.3009  0.2369
   63TMC2    C6  980   2.448   3.784  10.198  0.5061 -0.4100 -0.3118
   63TMC2     C  981   2.298   3.523  10.496 -0.5269 -0.2031 -0.3791
   63TMC2     O  982   2.358   3.496  10.602 -0.4204 -0.2402  1.2236
   63TMC2     H  983   2.510   3.688  10.517  0.3892 -1.8157 -0.1105
   63TMC2    H1  984   2.234   3.527  10.239  0.0551 -0.6569 -1.9369
   63TMC2    H2  985   2.483   3.861  10.130  0.1254  0.6940  0.7553
   63TMC2    C7  986   2.287   3.692  10.042 -0.3109 -0.8160  0.2779
   63TMC2    C8  987   2.631   3.849  10.342 -0.0199  0.1359  0.7497
   63TMC2    O1  988   2.178   3.634  10.047 -0.0175 -0.3778  0.2634
   63TMC2    O2  989   2.674   3.920  10.255  0.3920  0.1878 -0.3804
   63TMC2    O5  990   2.650   3.881  10.474 -0.4210  0.2084  0.3266
   63TMC2    H5  991   2.661   3.798  10.525 -2.7564 -1.5107 -1.9525
   64MPD2     C  992   1.944   3.157  10.532  0.5387  0.7604  0.5110
   64MPD2    C1  993   2.070   3.173  10.580  0.3860  0.1661 -0.2049
   64MPD2    C2  994   2.135   3.295  10.565  0.5194  0.6385  0.0759
   64MPD2    C3  995   2.083   3.400  10.499 -0.0117 -0.1690 -0.0374
   64MPD2    C4  996   1.958   3.385  10.444  0.6063 -0.3898 -0.1389
   64MPD2    C5  997   1.891   3.263  10.464 -0.5270  0.0841 -0.0176
   64MPD2     H  998   2.233   3.299  10.611  0.3428  1.2961  0.4011
   64MPD2    H1  999   1.914   3.465  10.385 -1.0051 -0.2294  1.2683
   64MPD2    H2 1000   1.888   3.064  10.539 -0.4410  1.0262 -3.7368
   64MPD2    H3 1001   1.798   3.240  10.413  0.4014 -3.2824 -0.1687
   64MPD2     N 1002   2.165   3.518  10.470 -0.0452 -0.8457 -0.0319
   64MPD2    H5 1003   2.133   3.574  10.392  0.5180  0.9420  1.0339
   64MPD2    N1 1004   2.143   3.067  10.647 -0.0658  0.6084 -0.9454
   64MPD2    H7 1005   2.233   3.086  10.689  0.5491 -1.2933 -1.4169
   65TMC2    C1 1006   3.184   2.852  15.477  0.1247 -0.4986  0.0540
   65TMC2    C2 1007   3.109   2.803  15.583 -0.3513  0.1763  0.0975
   65TMC2    C3 1008   3.068   2.893  15.681 -0.0244  0.4733 -0.5999
   65TMC2    C4 1009   3.219   2.988  15.466 -0.1836 -0.0393 -0.4979
   65TMC2    C5 1010   3.193   3.064  15.577 -0.0097 -0.1288 -0.4150
   65TMC2    C6 1011   3.111   3.022  15.684  0.3723  0.0866  0.0531
   65TMC2     C 1012   3.272   2.763  15.400 -0.3382 -0.3295  0.0042
   65TMC2     O 1013   3.342   2.815  15.320 -0.1343 -0.2624  0.2204
   65TMC2     H 1014   3.092   2.698  15.600 -0.0172  0.4191  1.9760
   65TMC2    H1 1015   3.282   3.027  15.387 -0.6139  0.4611 -0.5882
   65TMC2    H2 1016   3.087   3.081  15.772 -1.2586  0.3457 -0.5473
   65TMC2    C7 1017   3.263   3.191  15.584  0.0277 -0.3081  0.4730
   65TMC2    C8 1018   2.976   2.843  15.787  0.0103  0.7984 -0.0246
   65TMC2    O1 1019   3.291   3.241  15.477  0.0796 -0.2084 -0.2646
   65TMC2    O2 1020   2.963   2.898  15.896 -0.1371  0.1147 -0.0632
   65TMC2    O5 1021   2.888   2.749  15.732 -0.6834 -0.4295  0.4806
   65TMC2    H5 1022   2.883   2.723  15.637  0.2208 -1.4106  0.7011
   66MPD2     C 1023   3.467   2.546  15.313 -0.6608 -0.1601  0.8553
   66MPD2    C1 1024   3.389   2.536  15.430 -0.0204  0.6183 -0.4443
   66MPD2    C2 1025   3.406   2.426  15.519 -0.3599 -0.3113  0.0684
   66MPD2    C3 1026   3.499   2.335  15.494  0.0630  0.7581 -0.6463
   66MPD2    C4 1027   3.570   2.342  15.375 -0.0442  0.5839  0.4466
   66MPD2    C5 1028   3.550   2.442  15.282 -0.5390 -0.6432  0.1492
   66MPD2     H 1029   3.339   2.418  15.605 -0.7165 -0.0608 -0.1871
   66MPD2    H1 1030   3.635   2.259  15.348  1.7633  1.4830  2.0081
   66MPD2    H2 1031   3.461   2.615  15.230 -3.3285 -0.9962  0.3442
   66MPD2    H3 1032   3.593   2.427  15.184  0.1835  1.0873  0.1939
   66MPD2     N 1033   3.504   2.214  15.561  0.6339 -0.2050  0.4193
   66MPD2    H5 1034   3.578   2.152  15.527  0.0918 -0.6984  0.1429
   66MPD2    N1 1035   3.291   2.636  15.464  0.3359 -0.1315  0.3209
   66MPD2    H7 1036   3.245   2.616  15.552  0.5507  0.0532  0.4750
   67TMC2    C1 1037   3.973   2.063  14.648  0.3862 -1.0180 -0.2155
   67TMC2    C2 1038   3.859   2.109  14.699 -0.2614  0.2271 -0.2218
   67TMC2    C3 1039   3.866   2.207  14.790  0.0304  0.0625 -0.0387
   67TMC2    C4 1040   4.095   2.097  14.694 -0.3119 -0.1590  0.7421
   67TMC2    C5 1041   4.096   2.191  14.797 -0.8508 -0.9807  0.3674
   67TMC2    C6 1042   3.986   2.247  14.840 -1.1992  0.6004 -0.4239
   67TMC2     C 1043   3.967   1.950  14.559  0.3834  0.8012  0.4353
   67TMC2     O 1044   4.067   1.874  14.553  0.0044  0.4936 -0.8447
   67TMC2     H 1045   3.763   2.070  14.666  0.9515 -0.2338 -3.1864
   67TMC2    H1 1046   4.187   2.064  14.650 -1.2299  0.4291 -1.6083
   67TMC2    H2 1047   3.992   2.320  14.920 -1.4927 -1.1913  1.2126
   67TMC2    C7 1048   4.226   2.249  14.835 -0.7122  0.3505  0.6218
   67TMC2    C8 1049   3.744   2.216  14.869  0.0451 -0.2186  0.2012
   67TMC2    O1 1050   4.319   2.239  14.752 -0.0402  0.5624 -0.2702
   67TMC2    O2 1051   3.673   2.121  14.891 -0.0991 -0.2460  0.1689
   67TMC2    O5 1052   3.731   2.337  14.926  0.0664 -0.0017 -0.6725
   67TMC2    H5 1053   3.802   2.401  14.905  0.8287 -0.1482  1.4756
   68MPD2     C 1054   3.893   1.741  14.362 -0.1597 -0.5400 -0.3178
   68MPD2    C1 1055   3.815   1.854  14.386  0.7631 -0.8893  0.0848
   68MPD2    C2 1056   3.697   1.874  14.325 -0.8894 -0.1367  0.6705
   68MPD2    C3 1057   3.659   1.784  14.229 -0.2876  0.2349 -0.1492
   68MPD2    C4 1058   3.739   1.675  14.206 -0.0757 -0.7381 -0.2422
   68MPD2    C5 1059   3.846   1.648  14.276 -0.5088  0.3433  0.5707
   68MPD2     H 1060   3.649   1.969  14.346  0.8365  0.9658 -0.4017
   68MPD2    H1 1061   3.724   1.609  14.121  0.5497 -1.0419 -0.1155
   68MPD2    H2 1062   3.993   1.727  14.403 -0.3160 -1.8912 -0.3997
   68MPD2    H3 1063   3.906   1.557  14.270  0.6081  1.2257 -1.8336
   68MPD2     N 1064   3.545   1.794  14.151 -0.1049  0.0608  0.3326
   68MPD2    H5 1065   3.541   1.715  14.087  0.5050  0.4536 -0.1866
   68MPD2    N1 1066   3.853   1.955  14.476 -0.6294 -0.1693  0.4585
   68MPD2    H7 1067   3.793   2.037  14.483 -2.2945 -1.0614 -3.3262
   69TMC2    C1 1068   0.499   3.561  12.520 -0.2148  0.0424 -0.3695
   69TMC2    C2 1069   0.364   3.541  12.509  0.1350  0.6484  0.2610
   69TMC2    C3 1070   0.312   3.548  12.381  0.2974 -0.2308 -0.0500
   69TMC2    C4 1071   0.583   3.599  12.421 -0.1401 -0.6919 -0.6175
   69TMC2    C5 1072   0.534   3.581  12.301  0.7810 -1.1273  0.0659
   69TMC2    C6 1073   0.396   3.564  12.276 -0.5099 -0.3273 -0.3001
   69TMC2     C 1074   0.546   3.558  12.662  0.2770 -0.8327 -0.3906
   69TMC2     O 1075   0.467   3.502  12.740  0.4595 -0.3066 -0.1040
   69TMC2     H 1076   0.299   3.503  12.587 -0.1368 -0.6061 -0.5720
   69TMC2    H1 1077   0.689   3.609  12.440 -0.3037 -0.5588  0.2269
   69TMC2    H2 1078   0.361   3.558  12.173 -2.7264  0.3928  0.4187
   69TMC2    C7 1079   0.632   3.583  12.203 -0.0002  0.2052 -0.1160
   69TMC2    C8 1080   0.174   3.510  12.354  0.6567 -0.1610 -0.2892
   69TMC2    O1 1081   0.752   3.596  12.235  0.0421 -0.0168  0.0844
   69TMC2    O2 1082   0.112   3.481  12.458 -0.4085  0.4975  0.0073
   69TMC2    O5 1083   0.131   3.596  12.257 -0.0431 -0.3841 -0.5506
   69TMC2    H5 1084   0.172   3.608  12.169  1.6023 -1.5027  0.0731
   70MPD2     C 1085   0.841   3.715  12.826  0.1367 -0.0336  0.0269
   70MPD2    C1 1086   0.741   3.622  12.810 -0.4648 -0.2457 -0.2240
   70MPD2    C2 1087   0.732   3.520  12.894  0.1861 -0.5897  0.0763
   70MPD2    C3 1088   0.820   3.502  13.003 -0.7730 -0.2223 -0.3945
   70MPD2    C4 1089   0.923   3.596  13.022  0.0350  0.0130 -0.1188
   70MPD2    C5 1090   0.937   3.697  12.929 -0.0243 -0.4736  0.2415
   70MPD2     H 1091   0.660   3.440  12.880  0.8151 -0.9386 -1.2093
   70MPD2    H1 1092   1.001   3.585  13.096  0.9848 -0.6268 -1.2161
   70MPD2    H2 1093   0.858   3.791  12.752 -1.7497 -0.5188 -0.9147
   70MPD2    H3 1094   1.016   3.770  12.940  0.2540 -1.0312  1.9785
   70MPD2     N 1095   0.813   3.391  13.087 -0.5089 -0.6511 -0.2134
   70MPD2    H5 1096   0.883   3.382  13.160 -2.0807 -0.5801  1.2962
   70MPD2    N1 1097   0.664   3.629  12.689 -0.4151  0.1725 -0.0059
   70MPD2    H7 1098   0.692   3.702  12.625  0.2591 -0.0421  0.0450
   71TMC2    C1 1099   3.210   3.845   1.161 -0.4533  0.6146 -0.3458
   71TMC2    C2 1100   3.283   3.942   1.225  0.1069 -0.6148 -0.1809
   71TMC2    C3 1101   3.236   3.984   1.353 -0.4840  0.0882 -0.0693
   71TMC2    C4 1102   3.104   3.782   1.226 -0.1767  0.9414  0.2052
   71TMC2    C5 1103   3.079   3.828   1.355  0.0857  0.0363  0.2722
   71TMC2    C6 1104   3.138   3.926   1.424  0.0715 -0.1509  0.2567
   71TMC2     C 1105   3.250   3.809   1.025 -0.3757 -0.2809  0.2164
   71TMC2     O 1106   3.367   3.837   0.993 -0.0485  0.0900  0.0675
   71TMC2     H 1107   3.344   4.008   1.166 -1.8697  2.7891  1.5949
   71TMC2    H1 1108   3.047   3.699   1.186 -0.7953  2.0655 -1.2733
   71TMC2    H2 1109   3.113   3.956   1.525 -0.7580 -0.5043  0.1638
   71TMC2    C7 1110   2.963   3.767   1.420  0.4678 -0.2612  0.6469
   71TMC2    C8 1111   3.271   4.115   1.398 -0.0491  0.0945 -0.3569
   71TMC2    O1 1112   2.938   3.806   1.535  0.1583  0.3087 -0.2427
   71TMC2    O2 1113   3.385   4.150   1.431  0.2399 -0.2847 -0.6194
   71TMC2    O5 1114   3.179   4.184   1.327 -0.3433  0.2044 -0.1877
   71TMC2    H5 1115   3.094   4.144   1.300  0.6488 -2.6957  1.0091
   72MPD2     C 1116   3.216   3.565   0.577 -0.0855 -0.2193  0.0741
   72MPD2    C1 1117   3.308   3.664   0.621 -0.6921 -0.0474 -0.1906
   72MPD2    C2 1118   3.282   3.724   0.742  0.5964  0.5647  0.0971
   72MPD2    C3 1119   3.187   3.677   0.828 -0.1084  0.4174  0.5677
   72MPD2    C4 1120   3.096   3.578   0.781 -0.7742 -0.0927 -0.2261
   72MPD2    C5 1121   3.116   3.533   0.657 -0.2424 -0.3809  1.1655
   72MPD2     H 1122   3.356   3.797   0.771  0.3752  1.0363 -0.5177
   72MPD2    H1 1123   3.019   3.536   0.846 -2.1770  1.9941 -0.5449
   72MPD2    H2 1124   3.221   3.510   0.484  1.5851  1.1716 -0.6741
   72MPD2    H3 1125   3.046   3.460   0.619 -1.3209  0.7792  0.9523
   72MPD2     N 1126   3.166   3.724   0.958 -0.2417  0.5635 -0.8335
   72MPD2    H5 1127   3.078   3.696   1.000  0.7689 -0.2432  0.7473
   72MPD2    N1 1128   3.416   3.706   0.544 -0.9011  0.0471 -0.1930
   72MPD2    H7 1129   3.456   3.790   0.583  1.5800 -0.7165 -1.0708
   73TMC2    C1 1130   3.580   0.644  14.039  0.2716 -0.3147 -0.2323
   73TMC2    C2 1131   3.540   0.598  14.161  0.1212  0.6073  0.0220
   73TMC2    C3 1132   3.605   0.490  14.209  0.3780  0.3260 -0.2951
   73TMC2    C4 1133   3.691   0.589  13.976  0.2420  0.2338  0.4162
   73TMC2    C5 1134   3.765   0.497  14.037 -0.1813  0.0886 -0.1931
   73TMC2    C6 1135   3.726   0.444  14.159  0.3665 -0.0508 -0.3234
   73TMC2     C 1136   3.589   0.788  14.038 -0.1317 -0.3354 -0.0710
   73TMC2     O 1137   3.689   0.837  13.990  0.2432  0.2889 -0.5348
   73TMC2     H 1138   3.447   0.632  14.206 -0.9979 -2.4032  0.0024
   73TMC2    H1 1139   3.728   0.643  13.889  0.8335 -0.0780  0.4698
   73TMC2    H2 1140   3.789   0.376  14.216 -1.5353 -1.6761 -0.1656
   73TMC2    C7 1141   3.913   0.520  14.025  0.5031 -0.3418 -0.0914
   73TMC2    C8 1142   3.536   0.413  14.311  0.3468  0.1791  0.4965
   73TMC2    O1 1143   3.989   0.428  14.038 -0.1488 -0.3745  0.3784
   73TMC2    O2 1144   3.418   0.445  14.326 -0.3040  0.1375 -0.4027
   73TMC2    O5 1145   3.585   0.288  14.300  0.3057  0.3781 -0.0323
   73TMC2    H5 1146   3.682   0.284  14.310  0.1097  1.0830  2.2931
   74MPD2     C 1147   3.412   1.255  13.982  0.1775 -0.1375  0.0670
   74MPD2    C1 1148   3.544   1.215  13.999  0.3109 -0.2331 -0.1284
   74MPD2    C2 1149   3.565   1.078  14.038 -0.5703 -0.7953 -0.4477
   74MPD2    C3 1150   3.454   0.993  14.055  0.5691 -0.0328 -1.0237
   74MPD2    C4 1151   3.326   1.040  14.046 -0.6877 -0.5556 -0.2161
   74MPD2    C5 1152   3.304   1.169  14.005  0.0280  0.7614  0.3639
   74MPD2     H 1153   3.661   1.035  14.062 -0.3573 -0.2824 -0.3868
   74MPD2    H1 1154   3.246   0.966  14.049 -1.1643  0.0084  0.7657
   74MPD2    H2 1155   3.401   1.359  13.953  4.6304  0.1209 -0.6004
   74MPD2    H3 1156   3.203   1.200  13.979 -0.3330 -0.4915  0.2631
   74MPD2     N 1157   3.473   0.849  14.071 -0.1685 -0.1545  0.2421
   74MPD2    H5 1158   3.394   0.788  14.092  1.4545 -1.6815  1.8885
   74MPD2    N1 1159   3.655   1.295  13.957 -0.3524 -0.5699  0.0282
   74MPD2    H7 1160   3.638   1.383  13.909  1.2248 -0.9914 -1.3042
   75TMC2    C1 1161   3.333   1.885  14.067 -0.2594  0.3851 -0.3034
   75TMC2    C2 1162   3.251   1.993  14.051 -0.1330  0.1287  0.1417
   75TMC2    C3 1163   3.142   1.975  13.970 -0.3696 -0.2097 -0.4520
   75TMC2    C4 1164   3.304   1.760  14.019  1.0202  0.3299  0.2791
   75TMC2    C5 1165   3.192   1.751  13.939 -0.6213 -0.1172 -0.1729
   75TMC2    C6 1166   3.106   1.854  13.916 -0.4025 -0.1520 -0.0970
   75TMC2     C 1167   3.454   1.900  14.150  0.1134  0.0625 -0.1767
   75TMC2     O 1168   3.457   2.014  14.205 -0.2553  0.2798 -0.4414
   75TMC2     H 1169   3.273   2.095  14.082  0.7149 -0.7867  2.5884
   75TMC2    H1 1170   3.371   1.676  14.032  1.8785  1.2285  1.6641
   75TMC2    H2 1171   3.005   1.839  13.878 -0.4389 -1.5635  0.5861
   75TMC2    C7 1172   3.188   1.634  13.849  0.3920  0.7735  0.0978
   75TMC2    C8 1173   3.070   2.087  13.934  0.1624  0.5104 -0.4916
   75TMC2    O1 1174   3.261   1.540  13.868  0.3510 -0.1679 -0.2666
   75TMC2    O2 1175   3.075   2.186  13.997  0.4008  0.2099  0.3725
   75TMC2    O5 1176   3.094   2.076  13.803 -0.8095  0.0820 -0.0727
   75TMC2    H5 1177   3.080   1.985  13.769  1.6016 -0.3277  0.0493
   76TMC2    C1 1178   1.272   3.036  12.606  0.2175  0.1548  0.0970
   76TMC2    C2 1179   1.145   3.067  12.652  0.3986  0.4359  0.5192
   76TMC2    C3 1180   1.077   2.965  12.712  0.5939  0.1593  0.0285
   76TMC2    C4 1181   1.337   2.914  12.626 -0.1641 -0.1426 -0.0949
   76TMC2    C5 1182   1.261   2.826  12.696  0.0452 -0.8966 -0.3226
   76TMC2    C6 1183   1.139   2.844  12.730  0.1508 -0.2482 -0.4263
   76TMC2     C 1184   1.319   3.130  12.506 -1.1221  0.0728  0.4687
   76TMC2     O 1185   1.230   3.190  12.439  0.2819 -0.0316 -0.6723
   76TMC2     H 1186   1.096   3.157  12.617 -1.1394 -0.4963  0.2213
   76TMC2    H1 1187   1.426   2.884  12.573  0.4640 -0.4085  1.1060
   76TMC2    H2 1188   1.079   2.773  12.785 -1.1617  1.9548  1.0077
   76TMC2    C7 1189   1.305   2.687  12.709 -0.6749  0.5467  0.4613
   76TMC2    C8 1190   0.933   2.961  12.717 -0.4042 -0.0240  0.0842
   76TMC2    O1 1191   1.219   2.600  12.730  0.3555  0.4392 -0.3379
   76TMC2    O2 1192   0.879   2.880  12.794 -0.1696 -0.2889 -0.2812
   76TMC2    O5 1193   0.907   2.967  12.582 -0.2178 -1.1737 -0.1170
   76TMC2    H5 1194   0.984   2.988  12.525  0.5557 -0.6846  1.1081
   77MPD2     C 1195   1.690   3.373  12.222  0.7229 -0.4205 -0.1854
   77MPD2    C1 1196   1.549   3.355  12.196  0.0846  0.0349  0.3694
   77MPD2    C2 1197   1.479   3.280  12.295 -0.0701  0.3650 -0.3798
   77MPD2    C3 1198   1.539   3.210  12.399 -0.8335  0.3021 -0.0815
   77MPD2    C4 1199   1.673   3.230  12.420 -0.2672  0.1954 -0.0631
   77MPD2    C5 1200   1.746   3.312  12.332 -0.2338 -0.4337 -0.4395
   77MPD2     H 1201   1.374   3.263  12.277  0.1519 -1.2879 -0.0587
   77MPD2    H1 1202   1.731   3.182  12.498 -1.8475 -2.4414 -0.4852
   77MPD2    H2 1203   1.750   3.436  12.158 -1.8714  1.4907 -0.7252
   77MPD2    H3 1204   1.847   3.340  12.360 -0.4972  0.5513 -0.4865
   77MPD2     N 1205   1.461   3.133  12.500 -0.2605 -0.0858  0.2606
   77MPD2    H5 1206   1.509   3.078  12.570 -0.5073 -0.5280  0.0838
   77MPD2    N1 1207   1.483   3.412  12.085 -0.3053 -0.2771  0.0848
   77MPD2    H7 1208   1.383   3.407  12.071 -0.6904  0.0289  2.7521
   78TMC2    C1 1209   3.672   3.705   1.181 -0.3528  0.3613  0.3006
   78TMC2    C2 1210   3.647   3.751   1.054 -0.0069 -0.2305 -0.1297
   78TMC2    C3 1211   3.740   3.836   0.996  0.1844  0.2816  0.0459
   78TMC2    C4 1212   3.796   3.731   1.244 -0.0475 -0.0622  0.4114
   78TMC2    C5 1213   3.885   3.816   1.184 -0.7564 -0.0136 -0.5210
   78TMC2    C6 1214   3.857   3.869   1.061 -0.2870  0.7132  0.7186
   78TMC2     C 1215   3.566   3.621   1.239 -0.6077 -0.3092 -0.3749
   78TMC2     O 1216   3.585   3.605   1.359 -0.5057  0.0413 -0.3563
   78TMC2     H 1217   3.558   3.724   0.998 -0.0582  2.3134 -1.3029
   78TMC2    H1 1218   3.798   3.675   1.336 -0.0183 -0.7155  0.0128
   78TMC2    H2 1219   3.927   3.930   1.005 -0.1468 -0.6901 -0.6091
   78TMC2    C7 1220   4.022   3.836   1.231 -0.6178  0.4547  0.0587
   78TMC2    C8 1221   3.744   3.840   0.849  0.0972  0.6362 -0.7713
   78TMC2    O1 1222   4.101   3.889   1.153  0.4420  0.5253 -0.0357
   78TMC2    O2 1223   3.857   3.850   0.798 -0.4304 -0.6107  0.2428
   78TMC2    O5 1224   3.617   3.871   0.809 -0.9440 -0.4412  0.0396
   78TMC2    H5 1225   3.553   3.847   0.879 -0.7225 -1.5102 -0.1173
   79MPD1     C 1226   3.117   3.389   1.295  0.0645 -0.3097 -0.1166
   79MPD1    C1 1227   3.197   3.456   1.380  0.4437 -0.2413  0.1302
   79MPD1    C2 1228   3.313   3.516   1.336 -0.1793 -0.2903  0.1725
   79MPD1    C3 1229   3.345   3.518   1.199  0.3050  0.1080 -0.3192
   79MPD1    C4 1230   3.266   3.463   1.111  0.5516 -0.4740 -0.2877
   79MPD1    C5 1231   3.142   3.408   1.162  0.5390  0.1223  0.2037
   79MPD1     H 1232   3.379   3.549   1.415  0.8087  0.5421 -1.0044
   79MPD1    H1 1233   3.293   3.468   1.006 -0.2503  0.3892 -0.4486
   79MPD1    H2 1234   3.034   3.326   1.326 -0.8154 -0.1172 -2.0980
   79MPD1    H3 1235   3.075   3.360   1.091  2.4102  0.6743 -1.9520
   79MPD1     N 1236   3.469   3.579   1.154 -0.4355  0.2139  0.2050
   79MPD1    H5 1237   3.474   3.593   1.054  0.5500 -1.3908  0.0331
   79MPD1    N1 1238   3.178   3.447   1.522  0.5136  0.4135  0.3301
   79MPD1    H6 1239   3.084   3.417   1.546  0.7389 -0.8447 -0.3866
   79MPD1    H7 1240   3.192   3.535   1.572  1.4265  0.4853 -0.0411
   80TMC2    C1 1241   0.685   2.290  11.917  0.4730 -0.5172 -0.1638
   80TMC2    C2 1242   0.584   2.380  11.877  0.3923  0.4328  0.7555
   80TMC2    C3 1243   0.479   2.327  11.810 -0.1183  0.5000 -0.1983
   80TMC2    C4 1244   0.662   2.156  11.910  0.6647  0.0582  0.2987
   80TMC2    C5 1245   0.537   2.112  11.855 -0.6662  0.6172  0.4640
   80TMC2    C6 1246   0.446   2.193  11.809  0.4443  0.7175  0.1260
   80TMC2     C 1247   0.787   2.339  12.001  0.5494 -0.5005 -0.2367
   80TMC2     O 1248   0.890   2.275  11.999  0.0210  0.0015 -0.3378
   80TMC2     H 1249   0.589   2.488  11.874 -0.2994  0.5110  2.4533
   80TMC2    H1 1250   0.748   2.092  11.924  2.4220  2.0488 -1.2618
   80TMC2    H2 1251   0.345   2.163  11.783  1.5313 -3.3327  0.5869
   80TMC2    C7 1252   0.490   1.981  11.900 -0.2950  0.0353 -0.1027
   80TMC2    C8 1253   0.395   2.415  11.734  0.4168 -0.0118  0.2024
   80TMC2    O1 1254   0.427   1.905  11.824 -0.7478 -0.3863  0.1807
   80TMC2    O2 1255   0.408   2.538  11.738  0.1260  0.3260  0.7423
   80TMC2    O5 1256   0.363   2.343  11.622 -0.6297 -0.2466 -0.6968
   80TMC2    H5 1257   0.382   2.247  11.612 -0.3682 -0.1600 -1.0251
   81MPD2     C 1258   0.953   2.467  12.213  0.1308  0.2865  0.1271
   81MPD2    C1 1259   0.840   2.521  12.155 -0.3160  0.0571  0.1402
   81MPD2    C2 1260   0.781   2.633  12.215  0.2656 -0.2795  0.0416
   81MPD2    C3 1261   0.829   2.679  12.337  0.2226  1.0016  0.4640
   81MPD2    C4 1262   0.938   2.622  12.398  0.7555  0.4600  0.1810
   81MPD2    C5 1263   1.006   2.518  12.334 -0.2499  0.2019 -0.3983
   81MPD2     H 1264   0.677   2.649  12.188  0.5295  1.2958 -0.0459
   81MPD2    H1 1265   0.973   2.638  12.499  0.3384 -2.3133  0.7583
   81MPD2    H2 1266   1.001   2.380  12.171 -0.8778  0.3226 -1.1087
   81MPD2    H3 1267   1.098   2.480  12.375 -0.4674 -1.1353 -1.1413
   81MPD2     N 1268   0.756   2.771  12.412 -0.2418 -0.3188 -0.7352
   81MPD2    H5 1269   0.797   2.792  12.503  1.0610 -0.4949 -1.2770
   81MPD2    N1 1270   0.764   2.457  12.063  0.7030  0.6526  0.1182
   81MPD2    H7 1271   0.676   2.501  12.039  1.5367 -0.0895 -4.2772
   82TMC2    C1 1272   4.339   1.735  11.373  0.5010  0.0912 -0.5446
   82TMC2    C2 1273   4.407   1.725  11.252 -1.0587  0.0118 -0.0908
   82TMC2    C3 1274   4.400   1.606  11.180  0.7778 -0.2730  0.2225
   82TMC2    C4 1275   4.293   1.617  11.431 -0.5824 -0.0413 -0.6584
   82TMC2    C5 1276   4.305   1.498  11.365  0.3891 -0.1249 -0.5600
   82TMC2    C6 1277   4.356   1.485  11.238  0.0294 -0.0212  0.3102
   82TMC2     C 1278   4.291   1.860  11.415  0.0112 -0.5662  0.4804
   82TMC2     O 1279   4.352   1.958  11.368 -0.3459  0.1800 -0.0767
   82TMC2     H 1280   4.454   1.813  11.209  1.9893 -0.5327  2.1527
   82TMC2    H1 1281   4.256   1.619  11.533 -1.6433  0.3278 -1.0613
   82TMC2    H2 1282   4.350   1.402  11.170 -2.6736 -0.6310  1.2641
   82TMC2    C7 1283   4.220   1.385  11.403  0.3057  0.2785 -0.1918
   82TMC2    C8 1284   4.448   1.603  11.043 -0.4175  0.2252  0.1774
   82TMC2    O1 1285   4.205   1.381  11.524 -0.1312  0.2786  0.0485
   82TMC2    O2 1286   4.521   1.513  11.007  0.4401 -1.0023 -0.0361
   82TMC2    O5 1287   4.450   1.730  10.995 -0.7624  0.0153  0.8155
   82TMC2    H5 1288   4.373   1.783  11.026 -0.2219  1.5839 -0.4961
   83MPD2     C 1289   3.915   2.185  11.497  0.0139 -0.0124 -0.0199
   83MPD2    C1 1290   3.868   2.054  11.512  0.5097 -0.1176 -0.0880
   83MPD2    C2 1291   3.952   1.945  11.502 -0.4006  0.0379  0.5721
   83MPD2    C3 1292   4.081   1.967  11.483 -0.2886  0.0632 -0.3115
   83MPD2    C4 1293   4.129   2.097  11.477  0.3110  0.3790 -0.4906
   83MPD2    C5 1294   4.048   2.210  11.491  0.2468 -0.4738  0.4022
   83MPD2     H 1295   3.913   1.844  11.504 -0.5616  0.0448 -1.6459
   83MPD2    H1 1296   4.234   2.117  11.463  0.7846 -1.6980  0.1686
   83MPD2    H2 1297   3.842   2.265  11.498 -0.6997 -0.6842  2.4506
   83MPD2    H3 1298   4.085   2.310  11.470 -2.2338  0.3352 -0.1344
   83MPD2     N 1299   4.164   1.854  11.468  0.7149  0.2838  0.7325
   83MPD2    H5 1300   4.131   1.760  11.487  0.3736 -0.1293 -1.8135
   83MPD2    N1 1301   3.730   2.049  11.505 -0.5345  0.2614  0.2627
   83MPD2    H7 1302   3.684   2.138  11.489  0.9668  0.9521 -0.2664
   84TMC2    C1 1303   0.485   1.091  10.930 -0.1301  0.3387 -0.6728
   84TMC2    C2 1304   0.378   1.003  10.948 -0.5693 -0.5447  0.5913
   84TMC2    C3 1305   0.369   0.887  10.874 -1.0421 -0.2774  0.3357
   84TMC2    C4 1306   0.589   1.052  10.848 -0.3677 -0.0989 -0.0903
   84TMC2    C5 1307   0.581   0.931  10.783 -0.0555 -0.6677 -0.2858
   84TMC2    C6 1308   0.470   0.853  10.787  0.1969 -0.2711  0.3971
   84TMC2     C 1309   0.438   1.231  10.924  0.3804  0.0396 -0.0130
   84TMC2     O 1310   0.345   1.258  11.000 -0.5771  0.1746 -0.1312
   84TMC2     H 1311   0.286   1.041  10.992 -0.8487  0.2025 -0.6422
   84TMC2    H1 1312   0.672   1.120  10.837 -0.8413  0.3148 -1.1740
   84TMC2    H2 1313   0.450   0.766  10.726  1.6678 -0.8887  0.7984
   84TMC2    C7 1314   0.702   0.889  10.710  0.0775 -0.2880  0.4734
   84TMC2    C8 1315   0.250   0.802  10.864 -0.0118  0.6855  0.2236
   84TMC2    O1 1316   0.689   0.767  10.698 -0.4383 -0.4176  0.3315
   84TMC2    O2 1317   0.224   0.716  10.778  0.4902 -0.4682 -0.1424
   84TMC2    O5 1318   0.179   0.817  10.977 -0.3888 -0.1441 -0.3678
   84TMC2    H5 1319   0.238   0.857  11.045  1.6908  0.7070 -2.6569
   85TMC2    C1 1320   1.612   3.971  15.975  0.3344  0.5556  0.1912
   85TMC2    C2 1321   1.696   3.883  16.035 -0.6908  0.8193 -0.1163
   85TMC2    C3 1322   1.830   3.904  16.021 -0.3431 -0.0338 -0.0867
   85TMC2    C4 1323   1.661   4.083  15.909  0.6723  0.2295 -0.2313
   85TMC2    C5 1324   1.797   4.095  15.894  0.6644  0.2919  0.3206
   85TMC2    C6 1325   1.880   4.015  15.959 -1.0427 -0.3601  0.3862
   85TMC2     C 1326   1.468   3.970  16.012  1.0103 -0.0239 -1.2029
   85TMC2     O 1327   1.399   4.065  15.983 -0.1608 -0.0981 -0.0355
   85TMC2     H 1328   1.671   3.807  16.108 -2.4310  1.6433  0.1542
   85TMC2    H1 1329   1.592   4.140  15.848 -3.0471 -1.8909  1.9529
   85TMC2    H2 1330   1.988   4.022  15.952 -1.3520  2.7924 -1.3031
   85TMC2    C7 1331   1.848   4.216  15.832 -0.4569  0.2755 -0.2830
   85TMC2    C8 1332   1.917   3.848  16.125 -0.3593 -0.4808  0.8516
   85TMC2    O1 1333   1.969   4.209  15.821 -0.2418  0.1280  0.4024
   85TMC2    O2 1334   1.902   3.735  16.175  0.0579  0.4016 -0.0004
   85TMC2    O5 1335   1.968   3.952  16.193 -0.5249 -0.7086  0.3054
   85TMC2    H5 1336   1.939   4.039  16.158  1.8219  0.1882  0.5622
   86MPD2     C 1337   1.083   3.741  16.246 -0.2002  0.3877 -0.3826
   86MPD2    C1 1338   1.152   3.649  16.170 -0.2241  0.6391  0.4140
   86MPD2    C2 1339   1.267   3.681  16.100 -0.4097 -0.2656  0.0057
   86MPD2    C3 1340   1.308   3.813  16.104 -0.2329 -0.4152  0.2982
   86MPD2    C4 1341   1.243   3.909  16.181  0.6558  0.0832  0.1486
   86MPD2    C5 1342   1.129   3.874  16.251 -0.4281  0.3358  0.5346
   86MPD2     H 1343   1.307   3.613  16.025  2.1748  0.0533  1.1097
   86MPD2    H1 1344   1.278   4.010  16.190 -1.6433  0.6605  2.7245
   86MPD2    H2 1345   0.997   3.715  16.307 -0.4863  2.8470  0.2238
   86MPD2    H3 1346   1.083   3.950  16.313  2.0195  2.9938 -0.9391
   86MPD2     N 1347   1.424   3.843  16.039  0.3676 -1.0520  0.0778
   86MPD2    H5 1348   1.482   3.769  15.999  3.0616  1.4229 -0.6370
   86MPD2    N1 1349   1.116   3.516  16.159 -0.5103 -0.1556 -0.0743
   86MPD2    H7 1350   1.165   3.446  16.104  0.5796  0.8665 -0.3940
   87TMC2    C1 1351   4.177   2.172   1.294 -0.6781  0.2197 -0.1628
   87TMC2    C2 1352   4.223   2.120   1.411 -0.2220  0.7655  0.2014
   87TMC2    C3 1353   4.173   2.167   1.531  0.1838 -0.5537  0.3611
   87TMC2    C4 1354   4.081   2.272   1.299 -0.3706 -0.1957  0.0781
   87TMC2    C5 1355   4.041   2.323   1.419  0.3177 -0.5339 -0.1824
   87TMC2    C6 1356   4.094   2.279   1.534 -0.6129  0.6181 -1.0859
   87TMC2     C 1357   4.223   2.121   1.168  0.0709  0.0394 -0.8395
   87TMC2     O 1358   4.297   2.026   1.185  0.4320 -1.0186 -0.3321
   87TMC2     H 1359   4.284   2.031   1.417  0.6180  1.4413  1.6918
   87TMC2    H1 1360   4.038   2.324   1.214 -0.2787 -2.6081 -1.4353
   87TMC2    H2 1361   4.066   2.323   1.629  2.3149 -0.6425  0.3721
   87TMC2    C7 1362   3.961   2.447   1.419  0.6926 -1.0030  0.2885
   87TMC2    C8 1363   4.242   2.116   1.647 -0.6053 -0.0453  0.2755
   87TMC2    O1 1364   3.891   2.458   1.318  0.6814  0.1000  0.0964
   87TMC2    O2 1365   4.358   2.077   1.645 -0.3893  0.0132 -0.1313
   87TMC2    O5 1366   4.158   2.120   1.754  0.1204  0.3219 -0.0416
   87TMC2    H5 1367   4.063   2.134   1.731  0.1090  1.7146  0.8450
   88MPD2     C 1368   3.999   2.727   1.652 -0.3739  0.2297 -0.7734
   88MPD2    C1 1369   3.945   2.653   1.550 -0.3768 -0.0376  0.3664
   88MPD2    C2 1370   3.837   2.706   1.482  0.5187 -0.2705  0.6901
   88MPD2    C3 1371   3.782   2.823   1.530 -0.5682 -0.2589 -0.0681
   88MPD2    C4 1372   3.838   2.897   1.638 -0.2043  0.3145 -0.2694
   88MPD2    C5 1373   3.946   2.845   1.699 -0.0204 -0.2989 -0.3947
   88MPD2     H 1374   3.793   2.660   1.394  2.1732 -0.6739  0.0866
   88MPD2    H1 1375   3.795   2.989   1.676  1.8740  0.8413  0.7921
   88MPD2    H2 1376   4.093   2.701   1.699 -1.2126  1.0699  1.3617
   88MPD2    H3 1377   3.988   2.889   1.789 -0.1329  0.1082 -0.5405
   88MPD2     N 1378   3.676   2.878   1.455 -0.3119  0.0407 -0.2228
   88MPD2    H5 1379   3.667   2.979   1.465  0.7077  0.0561  0.6099
   88MPD2    N1 1380   4.005   2.533   1.519 -0.3710  0.0947  0.0325
   88MPD2    H7 1381   4.085   2.499   1.570 -0.3597 -1.2978 -0.9142
   89TMC2    C1 1382   0.396   4.284   1.453 -0.0762 -0.0857 -0.0501
   89TMC2    C2 1383   0.530   4.312   1.430  0.1866 -0.9168  1.1648
   89TMC2    C3 1384   0.565   4.413   1.343 -0.5161 -0.6334  0.2173
   89TMC2    C4 1385   0.303   4.350   1.375  0.1169  0.5436  0.2905
   89TMC2    C5 1386   0.335   4.441   1.286 -0.1123 -0.7234 -0.0595
   89TMC2    C6 1387   0.471   4.480   1.268 -0.2102  0.8190  0.0657
   89TMC2     C 1388   0.357   4.156   1.518 -0.0089 -0.3178  0.2780
   89TMC2     O 1389   0.444   4.081   1.551  0.2099 -0.6192  0.2200
   89TMC2     H 1390   0.605   4.262   1.489  0.8234 -1.2793  0.0579
   89TMC2    H1 1391   0.201   4.320   1.353 -0.2876  0.0900  2.8410
   89TMC2    H2 1392   0.494   4.563   1.202 -0.4621 -0.1672 -1.2448
   89TMC2    C7 1393   0.232   4.526   1.240 -0.9739 -0.3213 -0.1450
   89TMC2    C8 1394   0.701   4.426   1.305  0.1443  0.1837  0.1212
   89TMC2    O1 1395   0.128   4.542   1.304  0.8219 -0.5394 -0.1505
   89TMC2    O2 1396   0.783   4.335   1.312  0.2674  0.1948  0.0416
   89TMC2    O5 1397   0.718   4.545   1.250 -0.0875  0.3867 -0.2672
   89TMC2    H5 1398   0.656   4.613   1.283 -0.0128  0.8967 -1.1814
   90MPD2     C 1399   4.698   3.844   1.606 -0.0913 -0.0505  0.0898
   90MPD2    C1 1400   4.654   3.965   1.569 -0.0029 -0.4654 -0.4073
   90MPD2    C2 1401   0.006   4.061   1.528 -0.2501 -0.1934 -0.3396
   90MPD2    C3 1402   0.140   4.038   1.548  0.1000  0.5408  0.5056
   90MPD2    C4 1403   0.183   3.910   1.588 -0.2670 -0.2571  0.6520
   90MPD2    C5 1404   0.091   3.813   1.612 -0.1202 -0.6806 -0.6555
   90MPD2     H 1405   4.715   4.157   1.489  0.6172 -1.1056 -3.3032
   90MPD2    H1 1406   0.285   3.879   1.607 -0.3599 -1.5373 -0.9852
   90MPD2    H2 1407   4.624   3.772   1.638 -1.8416  1.7907  0.1312
   90MPD2    H3 1408   0.118   3.715   1.650  0.9605 -0.1331  0.0009
   90MPD2     N 1409   0.223   4.150   1.522 -0.2748 -0.6172 -0.1740
   90MPD2    H5 1410   0.166   4.233   1.513  0.9449  0.4533  1.8712
   90MPD2    N1 1411   4.516   3.993   1.568  0.4536  0.4195 -0.0493
   90MPD2    H7 1412   4.459   3.923   1.615 -0.1787  1.0453  0.1080
   91TMC2    C1 1413   1.324   0.265  16.461 -0.3604 -0.3930 -0.4092
   91TMC2    C2 1414   1.356   0.340  16.345  0.4003 -1.1904 -0.4614
   91TMC2    C3 1415   1.254   0.353  16.253 -0.5235  0.2474 -0.1779
   91TMC2    C4 1416   1.203   0.206  16.481 -0.0825  0.0061 -0.3383
   91TMC2    C5 1417   1.109   0.232  16.393 -0.2629 -0.3317 -0.0936
   91TMC2    C6 1418   1.128   0.311  16.282 -0.0656 -0.8192  0.1113
   91TMC2     C 1419   1.401   0.276  16.582  0.1194  0.2348  0.1718
   91TMC2     O 1420   1.353   0.227  16.681 -0.2909  0.1684  0.8280
   91TMC2     H 1421   1.455   0.386  16.348 -0.1683  0.0289 -0.1940
   91TMC2    H1 1422   1.175   0.144  16.565  0.4723  0.7103  0.3777
   91TMC2    H2 1423   1.045   0.341  16.220 -0.5993  1.4078  1.9182
   91TMC2    C7 1424   0.996   0.147  16.391 -0.1859 -0.4787 -0.3199
   91TMC2    C8 1425   1.286   0.339  16.114 -0.0433  0.2570 -0.4124
   91TMC2    O1 1426   0.960   0.097  16.498 -0.2557 -0.2102 -0.4567
   91TMC2    O2 1427   1.201   0.332  16.028  0.0485  0.5344 -0.2248
   91TMC2    O5 1428   1.415   0.381  16.094  0.5580 -0.0999  0.4018
   91TMC2    H5 1429   1.473   0.379  16.173  0.8261 -0.1531  0.2040
   92MPD2     C 1430   1.615   0.285  16.797 -0.4336 -0.6505  1.0364
   92MPD2    C1 1431   1.637   0.304  16.660 -0.0812  0.1604  0.5119
   92MPD2    C2 1432   1.767   0.326  16.614 -0.2718 -0.0893 -0.6760
   92MPD2    C3 1433   1.877   0.324  16.695  0.6935  0.2455 -0.0605
   92MPD2    C4 1434   1.854   0.312  16.826 -0.0549  0.7481  0.5601
   92MPD2    C5 1435   1.727   0.296  16.873 -0.2316 -0.3360 -0.1605
   92MPD2     H 1436   1.783   0.337  16.507  2.1675 -1.4610 -0.4393
   92MPD2    H1 1437   1.928   0.314  16.905  0.5806  0.0198 -0.0163
   92MPD2    H2 1438   1.523   0.246  16.841 -0.0114 -1.7978  0.8927
   92MPD2    H3 1439   1.715   0.273  16.978  0.7301  1.4938  0.3461
   92MPD2     N 1440   2.005   0.333  16.639  0.4219  0.1639  0.1553
   92MPD2    H5 1441   2.010   0.354  16.540 -0.4516  0.1583  0.1090
   92MPD2    N1 1442   1.536   0.302  16.559 -0.2588  0.4524 -0.3677
   92MPD2    H7 1443   1.561   0.324  16.463 -0.5694 -0.1726 -0.5878
   93TMC2    C1 1444   3.193   0.216  13.989 -0.4874  0.0887  0.4117
   93TMC2    C2 1445   3.140   0.091  13.997  0.1270 -0.9523 -0.6670
   93TMC2    C3 1446   3.226   4.729  13.987 -0.4642 -0.0278 -0.2143
   93TMC2    C4 1447   3.323   0.242  13.974  0.2417 -0.3315  0.5384
   93TMC2    C5 1448   3.405   0.132  13.953 -0.2232  0.4690 -0.0046
   93TMC2    C6 1449   3.360   0.003  13.963  0.3003  0.5752  0.2092
   93TMC2     C 1450   3.098   0.328  13.995 -0.2825  0.0800  0.4887
   93TMC2     O 1451   3.141   0.427  14.049 -0.1032 -0.3683 -1.1133
   93TMC2     H 1452   3.033   0.075  14.006 -0.2177  0.8081 -1.6686
   93TMC2    H1 1453   3.357   0.345  13.985  0.4556 -0.2857 -0.5261
   93TMC2    H2 1454   3.423   4.660  13.937  0.7747  0.2599  2.3463
   93TMC2    C7 1455   3.542   0.161  13.900  0.4566  0.7352  0.9910
   93TMC2    C8 1456   3.166   4.596  14.005 -0.0057  1.0370 -0.4527
   93TMC2    O1 1457   3.639   0.096  13.939  0.1148 -0.1695  0.3245
   93TMC2    O2 1458   3.046   4.568  14.023 -0.9625 -0.7291  0.0692
   93TMC2    O5 1459   3.260   4.509  14.048 -0.0766 -0.3755  0.5793
   93TMC2    H5 1460   3.342   4.562  14.064 -0.9215  0.7700  1.1335
   94MPD2     C 1461   2.892   0.541  13.946 -0.0941  0.7791 -0.0896
   94MPD2    C1 1462   2.885   0.402  13.908 -0.1628  0.0301  0.6267
   94MPD2    C2 1463   2.773   0.365  13.833 -0.4522 -0.8883 -0.0139
   94MPD2    C3 1464   2.664   0.459  13.823  0.3594 -0.1969 -0.2597
   94MPD2    C4 1465   2.670   0.586  13.880  0.8272 -0.5942 -0.5306
   94MPD2    C5 1466   2.788   0.629  13.938 -0.5523  1.0945  0.8678
   94MPD2     H 1467   2.760   0.268  13.786 -1.7537 -0.1215 -1.2394
   94MPD2    H1 1468   2.591   0.658  13.858  0.3021 -0.9539  0.2079
   94MPD2    H2 1469   2.987   0.581  13.979  0.1035 -0.4764  0.8577
   94MPD2    H3 1470   2.796   0.732  13.973 -2.4494  1.4676  0.1908
   94MPD2     N 1471   2.532   0.436  13.770 -0.4370 -0.3006 -0.9067
   94MPD2    H5 1472   2.459   0.506  13.780 -2.0832 -2.1605  0.1173
   94MPD2    N1 1473   2.993   0.316  13.916 -0.1716 -0.0969 -0.1802
   94MPD2    H7 1474   2.992   0.232  13.859 -1.0459 -0.4735  0.3948
   95TMC2    C1 1475   3.401   1.880  16.693 -0.5836 -0.2894 -0.2906
   95TMC2    C2 1476   3.457   1.782  16.778  0.4605 -0.0575  0.2573
   95TMC2    C3 1477   3.500   1.830  16.896  0.0206 -0.2039  0.5387
   95TMC2    C4 1478   3.393   2.012  16.725  0.0212 -0.7023 -0.6296
   95TMC2    C5 1479   3.434   2.049  16.852  0.1925 -0.2317 -0.6796
   95TMC2    C6 1480   3.488   1.956  16.941  0.6707  0.1288 -0.0793
   95TMC2     C 1481   3.380   1.847  16.555 -1.0466 -0.9331 -0.2324
   95TMC2     O 1482   3.340   1.938  16.482 -0.2694  0.3480  0.1422
   95TMC2     H 1483   3.471   1.680  16.747  3.0330 -0.2315  1.9269
   95TMC2    H1 1484   3.373   2.089  16.652  0.7825  0.8350  0.8035
   95TMC2    H2 1485   3.537   1.992  17.030  0.4168 -1.5163  0.7315
   95TMC2    C7 1486   3.407   2.185  16.900 -0.2345 -0.6823 -0.5851
   95TMC2    C8 1487   3.507   1.731  16.997 -0.9297  0.0007  0.1797
   95TMC2    O1 1488   3.445   2.218  17.013 -0.4187  0.5500  0.0767
   95TMC2    O2 1489   3.542   1.618  16.972 -0.0395  0.2020 -0.4306
   95TMC2    O5 1490   3.405   1.755  17.078  0.3840  0.2453 -0.3775
   95TMC2    H5 1491   3.380   1.848  17.098  0.3130  0.2479 -0.4782
   96MPD2     C 1492   3.362   1.516  16.168 -0.2273 -0.7603  0.1960
   96MPD2    C1 1493   3.394   1.646  16.163  0.0921 -0.8066 -0.1344
   96MPD2    C2 1494   3.398   1.714  16.280  0.6011 -0.7803 -0.0479
   96MPD2    C3 1495   3.381   1.651  16.406 -0.4834 -0.1342 -0.0894
   96MPD2    C4 1496   3.352   1.512  16.406 -0.3532 -0.7754 -0.3496
   96MPD2    C5 1497   3.342   1.444  16.287 -0.3357 -0.6634 -0.5772
   96MPD2     H 1498   3.416   1.821  16.275 -0.2150 -0.8109 -3.5512
   96MPD2    H1 1499   3.343   1.449  16.493  1.5942  0.7714  0.9666
   96MPD2    H2 1500   3.372   1.451  16.082 -1.1881  1.0003 -1.2361
   96MPD2    H3 1501   3.322   1.337  16.293  2.9950 -1.3410 -1.5990
   96MPD2     N 1502   3.385   1.712  16.535  0.0703  0.1346 -0.8849
   96MPD2    H5 1503   3.397   1.647  16.612  2.2655  0.6258 -0.8054
   96MPD2    N1 1504   3.431   1.695  16.033  0.0372 -0.4041  0.0974
   96MPD2    H7 1505   3.412   1.633  15.955 -2.4790  1.3467 -0.7070
   97TMC2    C1 1506   1.032   4.484   0.016 -0.8033  0.0328  0.5005
   97TMC2    C2 1507   0.962   4.392  17.704  0.7121  0.4699 -0.0674
   97TMC2    C3 1508   0.942   4.427  17.572 -0.2525  1.0114  0.2096
   97TMC2    C4 1509   1.066   4.612  17.733  0.3727 -0.3678 -0.0532
   97TMC2    C5 1510   1.029   4.647  17.602 -0.3279 -0.2017 -0.3474
   97TMC2    C6 1511   0.962   4.553  17.524  0.9898  0.1275 -0.1683
   97TMC2     C 1512   1.072   4.444   0.151 -0.1007 -0.6130  0.4731
   97TMC2     O 1513   1.011   4.356   0.205  0.5576  0.4674 -0.6477
   97TMC2     H 1514   0.958   4.289  17.740 -2.6518  0.4380 -0.4822
   97TMC2    H1 1515   1.120   4.679   0.038  0.3465 -1.2754  0.8844
   97TMC2    H2 1516   0.908   4.574  17.432  2.0707  0.0652 -0.8205
   97TMC2    C7 1517   1.050   0.038  17.555 -0.8241 -0.0700 -0.7762
   97TMC2    C8 1518   0.871   4.331  17.499  0.0768 -0.1463  0.4065
   97TMC2    O1 1519   1.125   0.107  17.622 -0.1545  0.2197  0.1375
   97TMC2    O2 1520   0.810   4.247  17.562  0.7641 -0.0823  0.6038
   97TMC2    O5 1521   0.932   4.318  17.374  0.2813 -0.1951 -0.0311
   97TMC2    H5 1522   1.008   4.378  17.354 -1.3319  0.8094 -3.0917
   98MPD2     C 1523   1.401   4.407   0.541  0.0748 -0.4845  0.1802
   98MPD2    C1 1524   1.271   4.361   0.531  0.2230  0.2165  0.2642
   98MPD2    C2 1525   1.203   4.381   0.414 -0.0526  0.3271  0.4551
   98MPD2    C3 1526   1.261   4.451   0.307 -0.1790 -0.2425  0.9317
   98MPD2    C4 1527   1.395   4.490   0.319  0.0161  0.3393  0.3393
   98MPD2    C5 1528   1.465   4.472   0.434 -0.1293  0.0522 -0.2372
   98MPD2     H 1529   1.106   4.334   0.412  0.0532  0.1192 -0.0017
   98MPD2    H1 1530   1.448   4.526   0.231 -0.4696  1.8884  0.6854
   98MPD2    H2 1531   1.454   4.400   0.635  0.2788  1.7077  0.2412
   98MPD2    H3 1532   1.571   4.493   0.439  0.0351 -0.6060 -1.0003
   98MPD2     N 1533   1.198   4.482   0.183 -0.0200  0.1695  0.8136
   98MPD2    H5 1534   1.249   4.543   0.120  0.9718 -0.2088  1.2503
   98MPD2    N1 1535   1.216   4.293   0.641  0.1577 -0.3831 -0.6138
   98MPD2    H7 1536   1.273   4.275   0.723 -0.1777 -1.6347 -0.6586
   99TMC2    C1 1537   4.352   1.440   1.617 -0.4640 -0.2977 -0.2800
   99TMC2    C2 1538   4.440   1.528   1.562  0.3048 -0.1039  1.0568
   99TMC2    C3 1539   4.422   1.662   1.580  0.5314  0.0836  0.1489
   99TMC2    C4 1540   4.242   1.485   1.680  0.3454  0.5334 -0.5994
   99TMC2    C5 1541   4.213   1.617   1.688 -0.4006 -0.2437  0.2987
   99TMC2    C6 1542   4.305   1.712   1.631 -0.0579  0.5610  0.5752
   99TMC2     C 1543   4.369   1.296   1.584  0.1671 -0.5106 -0.3265
   99TMC2     O 1544   4.268   1.229   1.582  0.8306  0.0648  0.2462
   99TMC2     H 1545   4.521   1.486   1.504 -0.1989  1.5184 -0.8243
   99TMC2    H1 1546   4.174   1.417   1.731  0.3161  0.3986 -0.8211
   99TMC2    H2 1547   4.278   1.815   1.613  0.2273  0.3678 -1.0045
   99TMC2    C7 1548   4.076   1.667   1.697  0.3407  0.2688  0.2112
   99TMC2    C8 1549   4.489   1.741   1.477  0.2740  1.1576  0.3122
   99TMC2    O1 1550   4.067   1.790   1.711 -0.1071  0.4007  0.1056
   99TMC2    O2 1551   4.427   1.831   1.419 -0.3775  0.4377  0.0206
   99TMC2    O5 1552   4.621   1.727   1.493  0.4764  0.5014  0.1111
   99TMC2    H5 1553   4.640   1.653   1.555 -2.9334 -0.6059 -0.1650
  100MPD2     C 1554   4.670   1.090   1.573  0.2774  0.1937  0.1127
  100MPD2    C1 1555   4.542   1.133   1.531  0.2026  0.3454  0.6474
  100MPD2    C2 1556   4.461   1.044   1.472  0.1665  0.1169  0.2591
  100MPD2    C3 1557   4.501   0.918   1.434 -0.2224 -0.0167  0.2666
  100MPD2    C4 1558   4.623   0.878   1.475  0.4012 -0.1058 -0.3344
  100MPD2    C5 1559   4.707   0.964   1.539 -0.3221  1.3337  0.5232
  100MPD2     H 1560   4.366   1.085   1.440 -0.3438  0.6197  2.4219
  100MPD2    H1 1561   4.662   0.778   1.458  0.0624  0.0395 -1.9169
  100MPD2    H2 1562   4.736   1.150   1.633 -2.4937  1.8430  1.4875
  100MPD2    H3 1563   0.068   0.933   1.563  0.0259  2.8541  0.9872
  100MPD2     N 1564   4.414   0.838   1.359 -1.2135  0.3668 -0.5268
  100MPD2    H5 1565   4.325   0.880   1.335 -1.2326  0.4613 -0.2898
  100MPD2    N1 1566   4.500   1.260   1.572 -0.1816  0.6036 -0.5310
  100MPD2    H7 1567   4.569   1.326   1.605  0.2442  0.2890 -0.7941
  101TMC2    C1 1568   4.617   2.377  13.533 -1.0452  0.1719 -0.2364
  101TMC2    C2 1569   4.653   2.456  13.639  0.7110 -0.5337 -0.6772
  101TMC2    C3 1570   4.676   2.585  13.616 -0.1255  0.6864 -0.2869
  101TMC2    C4 1571   4.591   2.429  13.412 -0.6663 -0.5829  0.4075
  101TMC2    C5 1572   4.584   2.568  13.407  0.4102  0.1429 -0.2175
  101TMC2    C6 1573   4.636   2.649  13.507  0.3116  0.6959 -0.1316
  101TMC2     C 1574   4.566   2.252  13.563 -0.0714 -0.1100  0.4602
  101TMC2     O 1575   4.533   2.224  13.680 -0.1011 -0.3790 -0.8007
  101TMC2     H 1576   4.680   2.411  13.734 -1.7900 -0.8550 -0.1099
  101TMC2    H1 1577   4.567   2.373  13.323 -0.0591 -1.3013  0.6976
  101TMC2    H2 1578   4.646   2.756  13.496 -0.1122  0.8075  0.5574
  101TMC2    C7 1579   4.553   2.646  13.290  0.1953  1.0113  0.2312
  101TMC2    C8 1580   0.022   2.661  13.702  0.2201 -0.0642  0.3628
  101TMC2    O1 1581   4.603   2.756  13.272 -0.3969 -0.2670 -0.5606
  101TMC2    O2 1582   0.119   2.727  13.665 -0.2431 -0.2576 -0.2953
  101TMC2    O5 1583   4.672   2.705  13.790  0.1689 -0.2183  0.9575
  101TMC2    H5 1584   4.587   2.656  13.782 -0.3873  0.7216  1.0897
  102MPD2     C 1585   4.545   1.955  13.342 -0.0531  0.2726 -0.2679
  102MPD2    C1 1586   4.509   2.035  13.447 -0.2583  0.5213 -0.5805
  102MPD2    C2 1587   4.415   1.991  13.540 -0.1816  0.3239 -0.7114
  102MPD2    C3 1588   4.345   1.875  13.523  0.6619 -0.0688 -0.7902
  102MPD2    C4 1589   4.378   1.798  13.414 -0.2937 -0.2498  0.5254
  102MPD2    C5 1590   4.481   1.835  13.338  0.1373  0.0577  0.5700
  102MPD2     H 1591   4.406   2.060  13.623  0.8182  1.0328 -1.1868
  102MPD2    H1 1592   4.329   1.702  13.401 -1.1703  0.1045  1.2148
  102MPD2    H2 1593   4.626   1.980  13.274  0.7373 -3.2309 -0.6103
  102MPD2    H3 1594   4.519   1.779  13.253  1.5526  1.6747  0.1333
  102MPD2     N 1595   4.235   1.860  13.607  0.1073 -0.1145 -0.1702
  102MPD2    H5 1596   4.234   1.918  13.691  2.3031 -0.5224  0.1331
  102MPD2    N1 1597   4.568   2.164  13.454  0.5743 -0.1746  0.8762
  102MPD2    H7 1598   4.609   2.199  13.368 -4.0774  0.4079 -1.0953
  103TMC2    C1 1599   2.074   2.528  12.585 -0.1264  0.1241 -0.1854
  103TMC2    C2 1600   2.112   2.538  12.459 -0.0496  0.6159  0.0422
  103TMC2    C3 1601   2.225   2.467  12.427 -0.2849 -0.1266  0.5526
  103TMC2    C4 1602   2.144   2.454  12.682  0.1861  0.2482  0.4421
  103TMC2    C5 1603   2.260   2.387  12.639  0.1991 -0.4440  0.4636
  103TMC2    C6 1604   2.302   2.396  12.508  0.2717  0.4652 -0.6412
  103TMC2     C 1605   1.943   2.572  12.615  0.6230 -0.2714  0.2134
  103TMC2     O 1606   1.899   2.664  12.542  0.1171  0.7039 -0.3454
  103TMC2     H 1607   2.064   2.604  12.387 -0.3088  0.5947  0.1949
  103TMC2    H1 1608   2.118   2.453  12.787 -1.0802 -0.4041  0.1156
  103TMC2    H2 1609   2.390   2.340  12.476 -1.2094 -1.9869 -0.3979
  103TMC2    C7 1610   2.366   2.370  12.747  0.2230  0.6030  0.1381
  103TMC2    C8 1611   2.294   2.507  12.306 -0.7519 -0.6542 -0.0507
  103TMC2    O1 1612   2.340   2.394  12.863 -0.1840  0.5586 -0.3173
  103TMC2    O2 1613   2.414   2.484  12.289 -0.2249  0.4785  0.1478
  103TMC2    O5 1614   2.204   2.530  12.202 -0.4027 -0.3773 -0.1989
  103TMC2    H5 1615   2.117   2.486  12.210  1.2401 -3.3808  1.2021
  104MPD2     C 1616   1.692   2.340  12.739  0.2924 -0.7997 -0.2117
  104MPD2    C1 1617   1.738   2.461  12.699 -0.0003 -0.0675  0.2235
  104MPD2    C2 1618   1.657   2.571  12.687  0.6871 -0.6002  0.6463
  104MPD2    C3 1619   1.519   2.557  12.715  0.2378  0.5004 -0.1071
  104MPD2    C4 1620   1.470   2.439  12.746 -0.3110  0.3419  0.6367
  104MPD2    C5 1621   1.556   2.334  12.766  0.2867  0.1836 -0.0098
  104MPD2     H 1622   1.697   2.667  12.656  0.0396 -0.2221  0.9923
  104MPD2    H1 1623   1.372   2.424  12.791 -0.3130  2.8153  1.4686
  104MPD2    H2 1624   1.757   2.254  12.753  1.2573  0.2712  1.9713
  104MPD2    H3 1625   1.517   2.246  12.815  0.8085 -0.1097 -0.1160
  104MPD2     N 1626   1.441   2.675  12.696 -0.7121 -0.3776  0.3338
  104MPD2    H5 1627   1.492   2.757  12.663 -0.7896  0.0393  1.2293
  104MPD2    N1 1628   1.876   2.469  12.672  0.2374  0.0440 -0.4969
  104MPD2    H7 1629   1.933   2.387  12.691 -0.2484 -0.4137 -1.0025
  105TMC2    C1 1630   0.043   1.764   0.489 -0.0179  0.5688  0.3267
  105TMC2    C2 1631   0.049   1.671   0.593 -0.4339  0.5077  0.2026
  105TMC2    C3 1632   4.701   1.675   0.698 -0.0263  0.3597 -0.9056
  105TMC2    C4 1633   4.688   1.860   0.482 -0.1221 -0.1922  0.1681
  105TMC2    C5 1634   4.595   1.865   0.585  0.3750  0.3902  0.0703
  105TMC2    C6 1635   4.598   1.766   0.689 -0.8463 -0.2759 -0.3546
  105TMC2     C 1636   0.131   1.744   0.372 -0.0454 -0.3149 -0.0331
  105TMC2     O 1637   0.228   1.675   0.393  0.3373  0.2009 -0.1644
  105TMC2     H 1638   0.111   1.582   0.583  0.0155  0.9209 -0.7386
  105TMC2    H1 1639   4.688   1.941   0.409  0.9797 -2.0610 -1.9290
  105TMC2    H2 1640   4.528   1.762   0.770 -0.5535  1.5121 -0.0010
  105TMC2    C7 1641   4.513   1.979   0.596 -0.6144 -0.4737 -0.7656
  105TMC2    C8 1642   4.672   1.543   0.748 -0.1474 -0.1824 -0.9621
  105TMC2    O1 1643   4.501   2.046   0.495 -0.1580  0.6213  0.0709
  105TMC2    O2 1644   4.568   1.483   0.721 -0.1786  0.7678 -0.0616
  105TMC2    O5 1645   0.037   1.489   0.802 -0.3989  0.4614  0.0654
  105TMC2    H5 1646   0.108   1.555   0.813 -2.6717  2.7410  0.9259
  106MPD2     C 1647   0.209   1.742  17.633  0.1454  0.3751 -0.1819
  106MPD2    C1 1648   0.119   1.844  17.655  0.2601 -0.1221 -0.2369
  106MPD2    C2 1649   0.090   1.864   0.030 -0.2845 -0.1720 -0.6006
  106MPD2    C3 1650   0.142   1.788   0.139  0.6084 -0.2538 -0.6089
  106MPD2    C4 1651   0.228   1.683   0.106 -0.9900 -0.2468  0.2405
  106MPD2    C5 1652   0.249   1.653  17.733  0.3427  0.6122  0.5783
  106MPD2     H 1653   0.027   1.948   0.056 -0.5583 -0.8322  0.8729
  106MPD2    H1 1654   0.265   1.615   0.183  2.6097  2.1123  0.5968
  106MPD2    H2 1655   0.240   1.715  17.533  0.0766 -1.5821  0.3418
  106MPD2    H3 1656   0.318   1.572  17.712  0.6466  1.1635 -0.5696
  106MPD2     N 1657   0.096   1.817   0.261 -0.3022 -0.6994 -0.2714
  106MPD2    H5 1658   0.024   1.888   0.271  0.3428  0.1098 -1.3398
  106MPD2    N1 1659   0.069   1.932  17.553  0.3548 -0.1167 -0.0305
  106MPD2    H7 1660   0.013   2.008  17.591  0.2580 -0.5683  0.7266
  107TMC2    C1 1661   0.109   1.864  11.271 -0.1455 -0.2008  0.3824
  107TMC2    C2 1662   0.116   1.992  11.314  0.5824 -0.5043 -0.3804
  107TMC2    C3 1663   0.165   2.085  11.223 -0.0532  0.4226 -0.4062
  107TMC2    C4 1664   0.137   1.821  11.147  0.0914  0.8031 -0.5061
  107TMC2    C5 1665   0.182   1.915  11.059 -0.6991  0.3119 -1.3535
  107TMC2    C6 1666   0.186   2.047  11.096 -0.5565  0.2239 -0.6102
  107TMC2     C 1667   0.068   1.768  11.371 -0.2122 -0.7308  0.1865
  107TMC2     O 1668   0.091   1.801  11.485 -0.0334  0.6030  0.1431
  107TMC2     H 1669   0.115   2.004  11.421  0.6876 -0.8743 -0.3382
  107TMC2    H1 1670   0.131   1.717  11.117 -0.1536  0.8407 -0.5915
  107TMC2    H2 1671   0.238   2.116  11.030 -2.1667  0.8938 -1.1762
  107TMC2    C7 1672   0.275   1.874  10.954 -0.3991  0.4696  0.1678
  107TMC2    C8 1673   0.165   2.225  11.256  0.1154  0.5699 -0.3663
  107TMC2    O1 1674   0.346   1.966  10.900 -0.0549  0.3629 -0.8942
  107TMC2    O2 1675   0.168   2.312  11.166 -0.8009 -0.4174 -0.3144
  107TMC2    O5 1676   0.182   2.238  11.387  0.2217 -0.2778  0.4398
  107TMC2    H5 1677   0.169   2.147  11.421  0.7068 -0.8324 -0.8437
  108MPD2     C 1678   4.657   1.437  11.345 -0.7381  0.6210  0.5439
  108MPD2    C1 1679   4.677   1.560  11.401  0.4498  0.3239 -1.5025
  108MPD2    C2 1680   4.640   1.582  11.537 -0.4036  0.1204  0.5117
  108MPD2    C3 1681   4.587   1.475  11.608  0.2524 -0.0352  0.4112
  108MPD2    C4 1682   4.580   1.348  11.551 -0.7211  1.0195 -0.2797
  108MPD2    C5 1683   4.613   1.335  11.420  0.2692  0.2141  0.7466
  108MPD2     H 1684   4.648   1.685  11.571 -2.4692  0.2178  0.7171
  108MPD2    H1 1685   4.551   1.259  11.605  1.7180  0.0383 -0.6030
  108MPD2    H2 1686   4.684   1.422  11.242 -1.0332 -0.9823  0.7095
  108MPD2    H3 1687   4.599   1.239  11.371 -0.6782  0.5986  0.2620
  108MPD2     N 1688   4.546   1.485  11.744  0.5957 -0.1596 -0.8493
  108MPD2    H5 1689   4.531   1.401  11.798 -0.9000  0.2833 -0.5966
  108MPD2    N1 1690   0.006   1.649  11.319  0.1790 -0.1169  0.2278
  108MPD2    H7 1691   0.006   1.629  11.220  0.0735  0.4982  0.1042
  109TMC2    C1 1692   0.449   4.118   0.294  0.1657  0.3772  0.1891
  109TMC2    C2 1693   0.483   4.213   0.197 -0.0954 -0.4168  0.1409
  109TMC2    C3 1694   0.610   4.236   0.168  0.0603 -0.6532 -0.3869
  109TMC2    C4 1695   0.548   4.049   0.357 -0.4197  0.1391  0.2331
  109TMC2    C5 1696   0.678   4.077   0.325  0.0642  0.0979  0.1718
  109TMC2    C6 1697   0.713   4.168   0.226  0.5283  0.0724 -0.3237
  109TMC2     C 1698   0.309   4.114   0.334 -0.1041 -0.6089  0.1574
  109TMC2     O 1699   0.220   4.165   0.270 -0.0011 -0.2334  0.1997
  109TMC2     H 1700   0.408   4.282   0.161 -0.6167 -0.3175  1.4283
  109TMC2    H1 1701   0.529   3.984   0.441  2.9327 -1.2310 -0.0760
  109TMC2    H2 1702   0.814   4.205   0.209  0.7913 -0.2906  0.4667
  109TMC2    C7 1703   0.788   4.012   0.415  0.0388 -0.4246 -0.9770
  109TMC2    C8 1704   0.629   4.351   0.076 -0.4785  0.6298  0.3059
  109TMC2    O1 1705   0.745   3.937   0.507  0.3202  0.2867  0.1973
  109TMC2    O2 1706   0.555   4.383  17.744  0.6434 -0.2297 -0.0345
  109TMC2    O5 1707   0.710   4.436   0.144 -0.1787 -0.2560 -0.4009
  109TMC2    H5 1708   0.746   4.417   0.233 -1.5305 -0.4247  0.1114
  110MPD2     C 1709   4.692   3.944   0.655 -0.6968  0.5205 -0.4586
  110MPD2    C1 1710   0.077   3.947   0.723 -0.2176 -0.5669  0.0544
  110MPD2    C2 1711   0.196   3.985   0.656  0.2061 -0.9808 -0.0445
  110MPD2    C3 1712   0.185   4.039   0.531 -0.2906 -0.0403 -0.3458
  110MPD2    C4 1713   0.062   4.042   0.475  0.2281  0.6836  0.0802
  110MPD2    C5 1714   4.692   4.008   0.533 -0.1848  0.3123 -0.4656
  110MPD2     H 1715   0.290   4.001   0.707 -1.7300  1.4415  2.7327
  110MPD2    H1 1716   0.051   4.068   0.371 -0.4003 -0.3264 -0.1036
  110MPD2    H2 1717   4.599   3.923   0.707  0.3901 -0.3514  1.1459
  110MPD2    H3 1718   4.598   4.021   0.481  0.1278 -0.6392 -1.2576
  110MPD2     N 1719   0.304   4.065   0.461 -0.8476  0.1852 -0.2670
  110MPD2    H5 1720   0.392   4.073   0.510 -0.5641  3.2270 -1.2825
  110MPD2    N1 1721   0.068   3.908   0.859 -0.1196 -0.2472 -0.6737
  110MPD2    H7 1722   4.715   3.887   0.891  0.5282 -1.8402  0.1299
  111TMC2    C1 1723   4.051   3.149  11.679  0.5325 -0.9700 -0.2808
  111TMC2    C2 1724   3.949   3.067  11.724  0.3497  0.5468  0.1021
  111TMC2    C3 1725   3.921   3.064  11.861  0.4046  0.4396 -0.4147
  111TMC2    C4 1726   4.127   3.206  11.777  0.4416 -0.1564 -0.0814
  111TMC2    C5 1727   4.104   3.201  11.910 -0.4640 -0.0219  0.9087
  111TMC2    C6 1728   4.002   3.119  11.957 -0.0106 -0.0943  0.6893
  111TMC2     C 1729   4.117   3.110  11.560  0.3139  0.1089 -0.8307
  111TMC2     O 1730   4.134   3.200  11.482 -0.1649 -0.3122  0.1086
  111TMC2     H 1731   3.886   3.014  11.653  1.3722  1.5867 -1.6069
  111TMC2    H1 1732   4.212   3.264  11.741  0.7084  0.0295  0.8519
  111TMC2    H2 1733   3.983   3.106  12.063  1.2618  2.8480  1.2892
  111TMC2    C7 1734   4.213   3.229  12.011  0.4735 -0.2621 -0.4592
  111TMC2    C8 1735   3.839   2.945  11.903 -0.0798  0.0490  0.0635
  111TMC2    O1 1736   4.191   3.194  12.128  0.0285  0.3481 -0.3749
  111TMC2    O2 1737   3.739   2.898  11.847 -0.2396  0.2424  0.1754
  111TMC2    O5 1738   3.902   2.885  12.000  0.4959 -0.0297 -0.5590
  111TMC2    H5 1739   3.989   2.928  12.012 -0.9508  2.4311  1.3480
  112MPD2     C 1740   4.470   2.831  11.318 -0.1690  0.2868  0.1979
  112MPD2    C1 1741   4.400   2.942  11.281 -0.3338 -0.0194 -0.3846
  112MPD2    C2 1742   4.304   2.999  11.364  0.1980  0.2032 -0.3302
  112MPD2    C3 1743   4.276   2.934  11.475  0.3000  0.2744 -1.0597
  112MPD2    C4 1744   4.355   2.830  11.525 -0.4317 -0.8201 -0.1192
  112MPD2    C5 1745   4.458   2.789  11.448 -0.5334 -0.2034  0.3178
  112MPD2     H 1746   4.246   3.080  11.322 -1.4517 -0.6225  0.3515
  112MPD2    H1 1747   4.343   2.787  11.624  1.4868 -0.5725  0.2174
  112MPD2    H2 1748   4.552   2.796  11.256  0.6950  1.7628  0.5007
  112MPD2    H3 1749   4.512   2.703  11.485 -0.8758  0.3390  2.0535
  112MPD2     N 1750   4.183   2.989  11.570 -0.0180 -0.8002  0.0046
  112MPD2    H5 1751   4.162   2.935  11.653 -2.2906  2.7767  1.7386
  112MPD2    N1 1752   4.438   2.996  11.154 -0.1118 -0.3449  0.3859
  112MPD2    H7 1753   4.388   3.083  11.135  0.5476  0.1119  0.7224
  113TMC2    C1 1754   3.067   1.419   0.915 -0.1256  0.8279  0.6914
  113TMC2    C2 1755   3.038   1.546   0.881  0.0124 -0.6115  0.4142
  113TMC2    C3 1756   2.953   1.573   0.779 -1.1133 -0.1641  0.3812
  113TMC2    C4 1757   3.000   1.316   0.851 -0.0684 -0.1940  0.3610
  113TMC2    C5 1758   2.909   1.337   0.755  0.7472  0.2883  0.3585
  113TMC2    C6 1759   2.886   1.471   0.721  0.2995 -0.2227  0.4762
  113TMC2     C 1760   3.204   1.395   0.973  0.2857 -0.0758 -0.4261
  113TMC2     O 1761   3.280   1.489   0.954  0.2218 -0.1074 -0.1218
  113TMC2     H 1762   3.087   1.631   0.927 -1.7275  1.8797 -2.2552
  113TMC2    H1 1763   3.036   1.217   0.876  3.8688  0.7675 -1.5466
  113TMC2    H2 1764   2.807   1.498   0.652  1.0202  1.2684  0.2427
  113TMC2    C7 1765   2.877   1.244   0.654 -0.0624 -0.5948 -0.0657
  113TMC2    C8 1766   2.941   1.715   0.741  0.1407 -0.1349 -0.0161
  113TMC2    O1 1767   2.855   1.294   0.544  0.2224 -0.2768  0.2617
  113TMC2    O2 1768   2.956   1.805   0.823 -0.0890 -0.1843  0.0704
  113TMC2    O5 1769   2.967   1.722   0.611 -0.2248 -0.1866 -0.3550
  113TMC2    H5 1770   2.968   1.634   0.568 -2.1809 -0.1149 -0.5807
  114MPD2     C 1771   3.565   1.147   1.242 -0.0057 -0.4909 -0.4795
  114MPD2    C1 1772   3.563   1.275   1.192 -0.4877 -0.5126 -0.3597
  114MPD2    C2 1773   3.447   1.324   1.131 -0.3810 -0.3403  0.4773
  114MPD2    C3 1774   3.348   1.230   1.103  0.4143  0.3990 -0.6609
  114MPD2    C4 1775   3.350   1.107   1.150 -0.2770 -0.3670  0.1074
  114MPD2    C5 1776   3.453   1.064   1.228  0.3306 -0.3030 -0.6382
  114MPD2     H 1777   3.443   1.427   1.097  0.1499  0.0121  1.4997
  114MPD2    H1 1778   3.268   1.038   1.133 -0.0504 -0.4374 -0.6862
  114MPD2    H2 1779   3.650   1.111   1.297 -0.6611 -0.1089  0.7754
  114MPD2    H3 1780   3.458   0.968   1.278 -1.4724  0.4322  0.9593
  114MPD2     N 1781   3.226   1.269   1.031 -0.2365  0.5896 -0.0812
  114MPD2    H5 1782   3.150   1.201   1.029  0.5368 -0.2308 -1.6622
  114MPD2    N1 1783   3.674   1.362   1.198 -0.2006  0.2226 -0.4939
  114MPD2    H7 1784   3.663   1.460   1.172 -1.7003  0.7538  2.0834
  115TMC2    C1 1785   4.209   3.571  17.737  0.3660  0.1646  0.2343
  115TMC2    C2 1786   4.333   3.518  17.716 -0.2479 -0.5371  0.1255
  115TMC2    C3 1787   4.438   3.605  17.739  0.4374  0.1339 -0.7224
  115TMC2    C4 1788   4.191   3.703   0.006 -0.2433  0.4703 -0.3208
  115TMC2    C5 1789   4.301   3.785   0.019  0.0430  0.0757  0.8598
  115TMC2    C6 1790   4.420   3.736   0.011 -0.7019  0.1988 -0.5745
  115TMC2     C 1791   4.101   3.477  17.728  1.0278 -0.3401 -0.3362
  115TMC2     O 1792   4.124   3.389  17.647  0.7596  0.3816  0.8840
  115TMC2     H 1793   4.349   3.414  17.688  1.2288 -0.2913  0.0296
  115TMC2    H1 1794   4.093   3.749   0.014  0.1541  1.6145 -2.1523
  115TMC2    H2 1795   4.506   3.792   0.045 -1.1484  0.3069  0.3861
  115TMC2    C7 1796   4.278   3.925   0.040 -0.9925  0.1004  0.0045
  115TMC2    C8 1797   4.571   3.560  17.710  0.4322  0.6139 -0.2295
  115TMC2    O1 1798   4.182   3.950   0.106 -0.3618 -0.3561  0.4773
  115TMC2    O2 1799   4.651   3.643  17.669  0.2972 -0.1355 -0.2325
  115TMC2    O5 1800   4.591   3.439  17.752  0.4055 -0.6084 -0.0286
  115TMC2    H5 1801   4.511   3.389   0.016 -0.5367  1.0439  0.2128
  116MPD2     C 1802   3.622   3.299   0.060  0.1591  0.5731 -0.1443
  116MPD2    C1 1803   3.719   3.254  17.733 -0.7625  0.6295 -0.6022
  116MPD2    C2 1804   3.835   3.318  17.729  0.7249  0.5710  0.1752
  116MPD2    C3 1805   3.865   3.428   0.052 -0.1172 -0.7093  0.1365
  116MPD2    C4 1806   3.770   3.466   0.146  0.0625 -0.0016 -0.1492
  116MPD2    C5 1807   3.644   3.405   0.148  0.9851 -0.3363  0.1937
  116MPD2     H 1808   3.898   3.279  17.650  1.0097  0.9767  0.1982
  116MPD2    H1 1809   3.790   3.556   0.203  0.5794 -0.2653  0.0832
  116MPD2    H2 1810   3.521   3.259   0.061 -0.9187  3.2752  2.8035
  116MPD2    H3 1811   3.568   3.437   0.218 -1.0749 -1.2526 -1.6193
  116MPD2     N 1812   3.986   3.509   0.038 -0.0887  0.1366 -0.1989
  116MPD2    H5 1813   3.987   3.591   0.099 -1.2636 -1.1817  1.5947
  116MPD2    N1 1814   3.685   3.160  17.638 -0.4231 -0.6060 -0.0224
  116MPD2    H7 1815   3.586   3.141  17.638 -0.6883  0.7877  1.3721
  117TMC2    C1 1816   2.691   0.267  14.183  0.4425 -0.0745  0.9415
  117TMC2    C2 1817   2.797   0.199  14.231 -0.2591  0.4808  0.6056
  117TMC2    C3 1818   2.877   0.262  14.313  0.0403  0.2230 -0.1198
  117TMC2    C4 1819   2.671   0.403  14.204 -0.2793  0.1186  0.4669
  117TMC2    C5 1820   2.769   0.465  14.290  0.1256 -0.0757 -0.4155
  117TMC2    C6 1821   2.871   0.397  14.340 -1.0729 -0.5628  0.1454
  117TMC2     C 1822   2.589   0.196  14.113  0.5316  0.3429 -0.3863
  117TMC2     O 1823   2.632   0.084  14.089 -0.6548 -0.1726 -0.4057
  117TMC2     H 1824   2.796   0.091  14.226 -0.1209  0.5718 -1.4879
  117TMC2    H1 1825   2.603   0.460  14.141 -0.3679 -1.7567 -1.1176
  117TMC2    H2 1826   2.916   0.448  14.424 -1.5160  1.0739 -0.6010
  117TMC2    C7 1827   2.768   0.610  14.286 -0.3984  0.3981 -0.1690
  117TMC2    C8 1828   3.005   0.201  14.344  0.5059 -0.2587 -0.0476
  117TMC2    O1 1829   2.873   0.673  14.296  0.4766 -0.1513  0.5037
  117TMC2    O2 1830   3.022   0.079  14.328 -0.1898  0.3118 -0.2858
  117TMC2    O5 1831   3.101   0.290  14.327 -0.1785  0.1975 -0.1231
  117TMC2    H5 1832   3.083   0.386  14.329 -1.4323 -0.0303 -0.7111
  118MPD2     C 1833   2.476   0.809  14.209 -0.0841 -0.2943 -0.5212
  118MPD2    C1 1834   2.608   0.796  14.231 -0.6017  0.2754 -0.1975
  118MPD2    C2 1835   2.694   0.906  14.242  0.1389 -0.2262 -0.0293
  118MPD2    C3 1836   2.639   1.029  14.210  0.2750 -0.5329 -0.3366
  118MPD2    C4 1837   2.505   1.040  14.184 -0.4890  0.0352  0.3113
  118MPD2    C5 1838   2.429   0.935  14.190  0.2485  0.6606 -0.4592
  118MPD2     H 1839   2.801   0.895  14.252  0.3838  3.5500  1.1757
  118MPD2    H1 1840   2.456   1.136  14.172 -0.2062  0.2921  1.2074
  118MPD2    H2 1841   2.404   0.729  14.198 -0.7000  0.2875 -0.7383
  118MPD2    H3 1842   2.322   0.932  14.173  0.2448 -1.8870 -0.0151
  118MPD2     N 1843   2.723   1.147  14.202 -0.0126 -0.6073 -0.1876
  118MPD2    H5 1844   2.674   1.233  14.180  0.0893 -0.4079  0.3530
  118MPD2    N1 1845   2.645   0.658  14.261  0.7104  0.4050 -0.1088
  118MPD2    H7 1846   2.574   0.586  14.256  2.4065 -1.3467  1.1410
  119TMC2    C1 1847   1.010   2.069  13.289  0.8984  0.1820 -0.3834
  119TMC2    C2 1848   1.072   1.986  13.376 -0.4597 -0.2762  0.4816
  119TMC2    C3 1849   1.001   1.900  13.450 -1.1340  0.5253  0.2567
  119TMC2    C4 1850   0.873   2.064  13.271  0.4316 -0.3624  0.1077
  119TMC2    C5 1851   0.817   1.949  13.317 -0.1895  0.9765 -0.0073
  119TMC2    C6 1852   0.869   1.878  13.420  0.2323 -0.3523 -0.6021
  119TMC2     C 1853   1.070   2.198  13.265  0.3997 -0.2077 -0.1363
  119TMC2     O 1854   0.991   2.292  13.261  0.0606 -0.2292  0.3689
  119TMC2     H 1855   1.174   1.999  13.410 -0.2324 -0.2309 -0.2264
  119TMC2    H1 1856   0.816   2.123  13.200  1.0220 -1.2923 -1.1337
  119TMC2    H2 1857   0.812   1.802  13.471  0.5832  0.9899  1.7903
  119TMC2    C7 1858   0.685   1.907  13.263 -0.5498  0.4026 -0.0174
  119TMC2    C8 1859   1.050   1.903  13.581  0.0215  0.2360 -0.0830
  119TMC2    O1 1860   0.666   1.933  13.146 -0.4634  0.0704  0.8630
  119TMC2    O2 1861   1.077   2.019  13.621  0.1291 -0.6010  0.6538
  119TMC2    O5 1862   0.973   1.814  13.643  0.8931 -0.3363  0.3547
  119TMC2    H5 1863   0.970   1.721  13.614  0.7499 -0.2736  0.1725
  120MPD2     C 1864   1.420   2.512  13.461 -0.0234  0.2322 -0.4525
  120MPD2    C1 1865   1.281   2.519  13.458 -0.5817 -0.2961 -0.0112
  120MPD2    C2 1866   1.213   2.428  13.383  0.3883 -0.0757  0.2711
  120MPD2    C3 1867   1.273   2.313  13.339  0.7574 -0.2151  0.4686
  120MPD2    C4 1868   1.406   2.296  13.352 -0.6587 -0.0962  0.0559
  120MPD2    C5 1869   1.474   2.403  13.412 -0.6515  0.4772 -0.7204
  120MPD2     H 1870   1.105   2.439  13.373  0.6486  0.1294 -2.2390
  120MPD2    H1 1871   1.452   2.199  13.333 -1.2092  0.2500 -3.1182
  120MPD2    H2 1872   1.488   2.587  13.498  2.0294 -3.0962  2.4311
  120MPD2    H3 1873   1.582   2.389  13.413 -0.9448 -1.7969 -0.6656
  120MPD2     N 1874   1.198   2.198  13.302  0.1581 -0.1049 -0.8483
  120MPD2    H5 1875   1.259   2.117  13.296 -0.3779 -0.7369  2.4217
  120MPD2    N1 1876   1.223   2.645  13.499  0.6348 -0.0263 -0.3002
  120MPD2    H7 1877   1.277   2.729  13.517 -1.7300  0.5894  4.0521
  121TMC2    C1 1878   2.502   3.768  14.355 -0.0800 -0.0846  0.3998
  121TMC2    C2 1879   2.551   3.761  14.484  0.0813  0.1132  0.2680
  121TMC2    C3 1880   2.564   3.636  14.550 -0.3865 -0.7762  0.5541
  121TMC2    C4 1881   2.451   3.653  14.300 -0.8026 -0.6894  0.0603
  121TMC2    C5 1882   2.455   3.532  14.374 -0.6731 -0.5171 -0.1132
  121TMC2    C6 1883   2.521   3.516  14.489  0.2743 -0.1819  0.3111
  121TMC2     C 1884   2.468   3.895  14.297 -0.2688  0.9785  0.1696
  121TMC2     O 1885   2.491   3.990  14.371 -0.3046 -0.1448 -0.1543
  121TMC2     H 1886   2.575   3.851  14.539  0.0929 -1.2859  2.5474
  121TMC2    H1 1887   2.426   3.654  14.194  0.8168 -1.5528 -0.3300
  121TMC2    H2 1888   2.509   3.423  14.544 -0.2436 -0.3574 -0.0898
  121TMC2    C7 1889   2.364   3.427  14.339  0.0771  0.4167 -0.2139
  121TMC2    C8 1890   2.559   3.647  14.693 -0.2193 -0.6340  0.2492
  121TMC2    O1 1891   2.376   3.315  14.381  0.0091  0.6115  0.3353
  121TMC2    O2 1892   2.477   3.724  14.745  0.1234 -0.1109  0.0396
  121TMC2    O5 1893   2.589   3.531  14.737 -0.1365 -0.4019  0.2413
  121TMC2    H5 1894   2.659   3.488  14.684 -0.0490 -0.0921  0.1072
  122MPD2     C 1895   2.403   4.130  14.134 -0.0123 -0.1969 -0.6638
  122MPD2    C1 1896   2.424   4.003  14.080 -0.3807  0.3466  0.6026
  122MPD2    C2 1897   2.436   3.982  13.944  0.2484 -0.4024  0.1502
  122MPD2    C3 1898   2.417   4.088  13.854  0.3152  0.0133  0.0654
  122MPD2    C4 1899   2.368   4.208  13.909  0.4360  0.7682 -0.2128
  122MPD2    C5 1900   2.369   4.230  14.046 -0.0341 -0.1360  0.7162
  122MPD2     H 1901   2.455   3.882  13.907 -1.8757 -0.5774 -0.4815
  122MPD2    H1 1902   2.368   4.300  13.852 -0.7375  1.6971  1.2904
  122MPD2    H2 1903   2.410   4.153  14.239 -1.9462  2.6319 -1.1623
  122MPD2    H3 1904   2.355   4.328  14.089  0.2970  0.9877 -1.7533
  122MPD2     N 1905   2.432   4.088  13.715 -0.0884 -0.4951 -0.4411
  122MPD2    H5 1906   2.402   4.169  13.662 -0.9349 -0.0362  0.7356
  122MPD2    N1 1907   2.452   3.887  14.159 -0.0958 -0.3398 -0.3194
  122MPD2    H7 1908   2.465   3.795  14.119  2.4161 -0.2633  0.3174
  123TMC2    C1 1909   1.406   2.000   9.986 -0.6805 -0.0153 -0.0621
  123TMC2    C2 1910   1.517   2.061   9.946  0.4895 -0.0287  0.6271
  123TMC2    C3 1911   1.517   2.191   9.908 -0.3038 -0.0929 -0.3200
  123TMC2    C4 1912   1.292   2.070   9.989  0.5971  0.5782  0.1898
  123TMC2    C5 1913   1.300   2.203   9.963 -0.0375  0.2431 -0.1945
  123TMC2    C6 1914   1.407   2.269   9.913 -0.0092  0.9325 -0.8681
  123TMC2     C 1915   1.395   1.852   9.992  0.5982  0.2332 -0.2283
  123TMC2     O 1916   1.492   1.797   9.951  0.4970 -0.0271  0.3555
  123TMC2     H 1917   1.610   2.005   9.948  1.2007  1.1938  1.1297
  123TMC2    H1 1918   1.195   2.026  10.004  0.0183  2.2304  1.3388
  123TMC2    H2 1919   1.420   2.371   9.877  1.8661  0.5645 -1.2487
  123TMC2    C7 1920   1.172   2.271   9.954 -0.1309  0.0047  0.2475
  123TMC2    C8 1921   1.637   2.242   9.855  0.0040 -0.2406 -0.3209
  123TMC2    O1 1922   1.069   2.204   9.967 -0.5401 -0.1509 -0.5846
  123TMC2    O2 1923   1.746   2.193   9.879  0.8278 -0.5038 -0.4905
  123TMC2    O5 1924   1.597   2.275   9.725  0.0544  0.4721 -0.3493
  123TMC2    H5 1925   1.509   2.316   9.717  0.2223  1.5162  3.0848
  124MPD2     C 1926   1.100   1.434  10.025  0.1330 -0.0933 -1.0196
  124MPD2    C1 1927   1.025   1.535  10.087 -0.2576  0.4573 -0.0439
  124MPD2    C2 1928   1.101   1.655  10.103  0.3904  0.1184  0.3619
  124MPD2    C3 1929   1.225   1.680  10.046 -0.4122  0.8018 -0.3067
  124MPD2    C4 1930   1.289   1.576   9.990 -0.1453  0.0937  1.4732
  124MPD2    C5 1931   1.227   1.456   9.980  0.7788 -0.4879  0.4225
  124MPD2     H 1932   1.054   1.742  10.146  0.0490  0.0877  0.0560
  124MPD2    H1 1933   1.391   1.585   9.956 -0.3005 -0.3914  0.8884
  124MPD2    H2 1934   1.055   1.336  10.012  1.6812 -0.9835  0.2744
  124MPD2    H3 1935   1.275   1.375   9.926  0.9229  0.3688 -0.7561
  124MPD2     N 1936   1.280   1.812  10.054 -0.1144  0.6122  0.0034
  124MPD2    H5 1937   1.216   1.884  10.086 -0.7068  1.7533 -3.7344
  124MPD2    N1 1938   0.896   1.512  10.135  0.4702  0.2147  0.4569
  124MPD2    H7 1939   0.852   1.431  10.091 -1.6652 -0.2523  3.4707
  125TMC2    C1 1940   2.979   0.891   9.163  0.1265  0.2707  0.0876
  125TMC2    C2 1941   2.929   0.987   9.083 -0.4501 -0.2163  0.4495
  125TMC2    C3 1942   2.829   0.952   9.004 -0.7090 -0.3881  0.4496
  125TMC2    C4 1943   2.922   0.768   9.177 -0.3147  0.0706 -0.4824
  125TMC2    C5 1944   2.820   0.737   9.091  0.5951 -0.1575  0.4187
  125TMC2    C6 1945   2.767   0.826   9.004  0.1204 -0.1825 -0.0839
  125TMC2     C 1946   3.116   0.908   9.201 -0.6825 -0.5168  0.0558
  125TMC2     O 1947   3.174   1.007   9.149 -0.1705 -0.5352 -0.4981
  125TMC2     H 1948   2.971   1.087   9.086  1.3229 -0.9504  0.0289
  125TMC2    H1 1949   2.965   0.692   9.242  2.1183  3.8213  2.2589
  125TMC2    H2 1950   2.680   0.810   8.941  0.6099  0.3272 -0.8914
  125TMC2    C7 1951   2.753   0.609   9.102 -0.4118 -0.0495  0.3297
  125TMC2    C8 1952   2.787   1.051   8.902  1.0750  0.5193 -0.0302
  125TMC2    O1 1953   2.669   0.590   9.015  0.1870 -0.6838 -0.6717
  125TMC2    O2 1954   2.676   1.051   8.849 -0.3653 -0.7935 -0.0293
  125TMC2    O5 1955   2.902   1.080   8.835  0.0718  0.0479 -0.3625
  125TMC2    H5 1956   2.979   1.060   8.891 -1.0802  0.6039  1.4146
  126MPD1     C 1957   3.552   0.833   9.460 -0.2004 -0.1609  0.5039
  126MPD1    C1 1958   3.459   0.745   9.506 -0.6748  0.0836  0.3172
  126MPD1    C2 1959   3.330   0.754   9.460 -0.0084 -0.6041  0.0232
  126MPD1    C3 1960   3.297   0.829   9.350  0.0594  0.2081 -0.0092
  126MPD1    C4 1961   3.399   0.903   9.294  0.5248  0.6782  0.3543
  126MPD1    C5 1962   3.519   0.916   9.355 -0.1864 -0.3109  0.1697
  126MPD1     H 1963   3.254   0.700   9.516  0.0177  0.7885  1.3857
  126MPD1    H1 1964   3.392   0.963   9.204  0.9852  1.2582  0.7032
  126MPD1    H2 1965   3.653   0.824   9.499  0.0917  0.4899 -0.1177
  126MPD1    H3 1966   3.587   0.981   9.300 -0.5896 -0.3811 -0.4104
  126MPD1     N 1967   3.160   0.831   9.301  0.6546 -0.2192 -0.7235
  126MPD1    H5 1968   3.100   0.759   9.341 -1.6014  1.1292 -1.7194
  126MPD1    N1 1969   3.479   0.684   9.632 -0.0455  0.6455 -0.3365
  126MPD1    H6 1970   3.407   0.615   9.655  0.5857  0.0825 -0.0407
  126MPD1    H7 1971   3.573   0.646   9.637 -0.3779 -0.5167 -2.9514
  127TMC2    C1 1972   2.656   2.923  10.138 -0.0813  0.7798 -0.0786
  127TMC2    C2 1973   2.696   2.806  10.193 -0.5023  0.4060  0.1243
  127TMC2    C3 1974   2.613   2.755  10.296 -0.2641 -0.0726 -0.8820
  127TMC2    C4 1975   2.543   2.981  10.188 -0.2738  0.1321 -0.7734
  127TMC2    C5 1976   2.462   2.913  10.267  0.4677  0.9480 -0.2113
  127TMC2    C6 1977   2.495   2.807  10.340 -0.0970 -0.2360 -0.6776
  127TMC2     C 1978   2.768   3.013  10.118 -0.9403  0.1224  0.1741
  127TMC2     O 1979   2.769   3.112  10.192 -0.2226  0.0320  0.4272
  127TMC2     H 1980   2.781   2.752  10.152 -1.5767  0.1333 -1.7185
  127TMC2    H1 1981   2.521   3.077  10.142  1.0629  0.2677 -1.1210
  127TMC2    H2 1982   2.439   2.759  10.420 -1.7912 -0.0355 -1.7527
  127TMC2    C7 1983   2.317   2.953  10.269 -0.1821 -0.6192  0.3054
  127TMC2    C8 1984   2.669   2.640  10.366 -0.1310 -0.2396  0.5177
  127TMC2    O1 1985   2.284   3.042  10.193  0.0855  0.1737  0.3298
  127TMC2    O2 1986   2.596   2.580  10.442  0.1959  0.2745  0.9320
  127TMC2    O5 1987   2.801   2.625  10.350 -0.2756  1.1382  0.1491
  127TMC2    H5 1988   2.850   2.690  10.296  0.8233 -0.1151 -0.3789
  128MPD2     C 1989   2.923   3.039   9.790 -0.5194  0.4688 -0.0963
  128MPD2    C1 1990   2.904   3.080   9.918 -0.2746  0.6409 -0.3034
  128MPD2    C2 1991   2.932   3.217   9.948  0.3019 -0.5104 -0.7827
  128MPD2    C3 1992   2.969   3.307   9.845  0.4485  0.0244  0.2907
  128MPD2    C4 1993   2.963   3.266   9.713  0.1038 -0.2415 -0.4435
  128MPD2    C5 1994   2.945   3.133   9.690  0.2477  0.0912  0.1534
  128MPD2     H 1995   2.932   3.250  10.051 -0.6087 -0.0841 -0.9188
  128MPD2    H1 1996   2.974   3.341   9.636  2.5301  0.4338  0.5473
  128MPD2    H2 1997   2.903   2.938   9.756  0.8180  0.1278  0.1313
  128MPD2    H3 1998   2.939   3.102   9.586 -2.6987 -1.9218  0.9128
  128MPD2     N 1999   2.993   3.440   9.879 -0.2596 -0.2781  0.0275
  128MPD2    H5 2000   3.008   3.464   9.976 -0.6582  0.2353 -0.0385
  128MPD2    N1 2001   2.830   2.986   9.995 -0.4948 -0.5098 -0.1605
  128MPD2    H7 2002   2.793   2.904   9.948 -0.4046  0.8736 -2.6443
  129TMC2    C1 2003   1.932   2.609   1.351 -0.7781 -0.0340  1.1119
  129TMC2    C2 2004   1.925   2.703   1.446 -0.4540 -0.6773 -0.2961
  129TMC2    C3 2005   1.904   2.663   1.577 -0.1621 -0.3188 -0.3884
  129TMC2    C4 2006   1.928   2.477   1.385 -0.1286  0.1350 -0.0650
  129TMC2    C5 2007   1.899   2.447   1.518 -0.0739 -0.2108  0.1923
  129TMC2    C6 2008   1.889   2.536   1.617  0.2720 -0.1534 -0.4621
  129TMC2     C 2009   1.953   2.650   1.213  0.5395  0.5995  0.5274
  129TMC2     O 2010   1.992   2.566   1.132 -1.0773  0.8351 -0.8454
  129TMC2     H 2011   1.923   2.811   1.434 -0.9820 -0.5938  0.4798
  129TMC2    H1 2012   1.934   2.404   1.306 -1.9786 -0.2058  0.1270
  129TMC2    H2 2013   1.867   2.511   1.720 -1.2012  2.7150 -0.0848
  129TMC2    C7 2014   1.836   2.324   1.548  0.5401 -0.3233  1.2592
  129TMC2    C8 2015   1.845   2.768   1.654 -0.1776  0.2838  0.7227
  129TMC2    O1 2016   1.752   2.327   1.636  0.2346  0.5832  0.3316
  129TMC2    O2 2017   1.901   2.880   1.659  0.1334  0.1926  0.1115
  129TMC2    O5 2018   1.714   2.731   1.667 -0.6322  0.2380  0.6923
  129TMC2    H5 2019   1.702   2.641   1.631 -0.1514  0.8666 -1.0326
  130MPD2     C 2020   2.059   2.818   0.989 -0.4366  0.2110  0.4065
  130MPD2    C1 2021   1.954   2.858   1.074 -0.4831  0.0627  0.2780
  130MPD2    C2 2022   1.891   2.983   1.058 -0.1529  0.1078 -0.1925
  130MPD2    C3 2023   1.914   3.055   0.941 -0.8368 -0.3225  0.5862
  130MPD2    C4 2024   2.020   3.015   0.857 -0.3198  0.1101  0.0660
  130MPD2    C5 2025   2.093   2.902   0.885 -0.0545 -0.2914 -0.0639
  130MPD2     H 2026   1.806   3.008   1.120 -1.7583 -1.5971 -1.7145
  130MPD2    H1 2027   2.051   3.064   0.766 -1.1305  0.8032  0.1597
  130MPD2    H2 2028   2.114   2.727   1.010 -0.4248  0.1424  0.0796
  130MPD2    H3 2029   2.168   2.868   0.815  0.2890 -0.5156  0.4089
  130MPD2     N 2030   1.835   3.169   0.914  0.2428  0.0304  0.5951
  130MPD2    H5 2031   1.768   3.199   0.985 -0.0660  0.6266  0.0563
  130MPD2    N1 2032   1.911   2.780   1.188 -0.2499 -0.0630  0.2802
  130MPD2    H7 2033   1.837   2.820   1.245 -0.1884  1.2032 -0.5335
  131TMC2    C1 2034   0.393   2.505  10.048  0.2906  0.8335 -0.6370
  131TMC2    C2 2035   0.473   2.577  10.121 -0.1827 -0.8013  0.4612
  131TMC2    C3 2036   0.528   2.698  10.066 -0.2187  0.6496  0.1693
  131TMC2    C4 2037   0.355   2.538   9.919  0.2375 -0.5583  0.1185
  131TMC2    C5 2038   0.399   2.664   9.878 -0.4012  0.1289  0.4139
  131TMC2    C6 2039   0.477   2.750   9.954 -0.0288 -0.4060  0.1420
  131TMC2     C 2040   0.376   2.364  10.088  0.4578  0.2122 -0.1489
  131TMC2     O 2041   0.466   2.317  10.157  0.1012  0.0013  0.3364
  131TMC2     H 2042   0.500   2.544  10.220 -1.0248 -2.8632  0.0129
  131TMC2    H1 2043   0.287   2.481   9.856 -1.6777 -0.6868  2.2973
  131TMC2    H2 2044   0.517   2.838   9.907 -0.4348 -1.0420 -1.4052
  131TMC2    C7 2045   0.338   2.709   9.757 -0.0800 -0.0770  0.8721
  131TMC2    C8 2046   0.604   2.764  10.162  0.7511  0.2394 -0.2319
  131TMC2    O1 2047   0.302   2.619   9.681 -0.1013  0.1728  0.0756
  131TMC2    O2 2048   0.656   2.707  10.253  0.2309  0.0514  0.5344
  131TMC2    O5 2049   0.576   2.895  10.153 -0.5395 -0.0166  0.0685
  131TMC2    H5 2050   0.521   2.919  10.076  1.5609  0.3628 -1.3020
  132MPD2     C 2051   0.146   2.132   9.925  0.9122  0.7195 -0.4248
  132MPD2    C1 2052   0.252   2.170  10.002  0.6509 -0.0158  0.1220
  132MPD2    C2 2053   0.323   2.075  10.066  0.0185  0.2287  0.0953
  132MPD2    C3 2054   0.302   1.939  10.037 -0.1377  0.0718  0.1675
  132MPD2    C4 2055   0.207   1.911   9.942  0.8780  0.3024 -0.3857
  132MPD2    C5 2056   0.124   2.003   9.891  0.7820  0.6017 -0.1427
  132MPD2     H 2057   0.392   2.105  10.144  0.6583  0.0020 -0.3857
  132MPD2    H1 2058   0.181   1.809   9.915  1.4525  0.3444 -1.0718
  132MPD2    H2 2059   0.088   2.207   9.871 -0.7385  2.2795  3.5192
  132MPD2    H3 2060   0.058   1.972   9.810  0.2478  0.8412  0.2001
  132MPD2     N 2061   0.388   1.845  10.090 -0.1152  0.6004 -0.9595
  132MPD2    H5 2062   0.466   1.874  10.148  0.1419 -0.4389 -0.7795
  132MPD2    N1 2063   0.268   2.310  10.024  0.4942  0.1513  0.0627
  132MPD2    H7 2064   0.195   2.373   9.993 -0.9502 -2.4068 -1.7165
  133TMC2    C1 2065   3.394   2.025  10.034  0.0072 -0.1606  0.1379
  133TMC2    C2 2066   3.260   2.037   9.983  0.0048  0.0395 -0.4910
  133TMC2    C3 2067   3.168   1.945  10.033  0.1775 -0.8333  0.4770
  133TMC2    C4 2068   3.428   1.923  10.123 -0.2377  0.2731  0.2629
  133TMC2    C5 2069   3.329   1.838  10.157 -0.5067  0.2152  0.9763
  133TMC2    C6 2070   3.196   1.843  10.124 -0.1311 -0.0667  0.6159
  133TMC2     C 2071   3.505   2.095   9.964  0.2035  0.3071 -0.2454
  133TMC2     O 2072   3.481   2.170   9.869 -0.6969 -0.1604 -0.1114
  133TMC2     H 2073   3.244   2.094   9.892 -1.1207  0.6737  0.1099
  133TMC2    H1 2074   3.523   1.920  10.175  0.1071  1.6096 -0.3016
  133TMC2    H2 2075   3.124   1.766  10.149  1.2307 -1.3926  0.4573
  133TMC2    C7 2076   3.378   1.722  10.227 -0.0373  0.6112  0.6149
  133TMC2    C8 2077   3.035   1.969   9.987  0.2024  0.9828 -0.1436
  133TMC2    O1 2078   3.476   1.728  10.298  0.1391  0.0530  0.0962
  133TMC2    O2 2079   3.008   2.028   9.882 -0.1137 -0.2299 -0.1043
  133TMC2    O5 2080   2.948   1.901  10.063 -0.4516 -0.1190  0.0774
  133TMC2    H5 2081   2.980   1.887  10.155  1.6241 -1.0610 -0.7882
  134MPD2     C 2082   3.868   2.077  10.031 -0.0226 -0.4810  0.5192
  134MPD2    C1 2083   3.749   2.125   9.977 -0.0605 -0.3040 -0.0706
  134MPD2    C2 2084   3.756   2.228   9.877 -0.4406 -0.3117 -0.4276
  134MPD2    C3 2085   3.878   2.270   9.825 -0.3971 -0.1716  0.1121
  134MPD2    C4 2086   3.989   2.217   9.881 -0.6996 -0.0560 -0.1158
  134MPD2    C5 2087   3.986   2.130   9.989 -0.3439  0.3037 -1.1536
  134MPD2     H 2088   3.670   2.279   9.834 -0.6965  0.6887  1.2412
  134MPD2    H1 2089   4.089   2.249   9.854 -0.9507  1.1951  0.4518
  134MPD2    H2 2090   3.873   1.994  10.100  1.9176 -1.6159 -0.9775
  134MPD2    H3 2091   4.080   2.096  10.030 -2.4288  0.1635  3.5295
  134MPD2     N 2092   3.899   2.352   9.718 -0.3019  0.0712  0.0351
  134MPD2    H5 2093   3.990   2.398   9.711 -0.8912  0.8693 -2.4392
  134MPD2    N1 2094   3.630   2.060  10.011 -0.5269 -0.0751 -0.5884
  134MPD2    H7 2095   3.633   1.992  10.087  1.8842  1.9428  1.1441
  135TMC2    C1 2096   1.590   4.702  10.902 -0.2541 -0.9045 -0.3770
  135TMC2    C2 2097   1.501   4.715  11.008  0.8836  0.3236  0.9685
  135TMC2    C3 2098   1.400   4.621  11.015  0.3768 -0.1018  0.3747
  135TMC2    C4 2099   1.603   4.586  10.828 -0.4233 -0.4152 -0.0029
  135TMC2    C5 2100   1.497   4.499  10.835 -0.0053  0.0374  0.6497
  135TMC2    C6 2101   1.395   4.511  10.928 -0.1153 -0.2864 -0.3956
  135TMC2     C 2102   1.684   0.068  10.867 -0.2309  0.5272  0.4665
  135TMC2     O 2103   1.705   0.158  10.944 -0.0240  0.4533 -0.2354
  135TMC2     H 2104   1.510   0.069  11.059 -2.7735  1.2118 -0.0767
  135TMC2    H1 2105   1.673   4.566  10.748  0.6077 -0.0775  0.8137
  135TMC2    H2 2106   1.315   4.439  10.934  0.7957 -1.1569  1.1660
  135TMC2    C7 2107   1.515   4.383  10.754  0.1717  0.1120 -0.2239
  135TMC2    C8 2108   1.284   4.650  11.102 -0.4058  0.6750 -0.4463
  135TMC2    O1 2109   1.630   4.351  10.717  0.5510 -0.8944 -0.1795
  135TMC2    O2 2110   1.171   4.624  11.071 -0.0750 -0.3064  0.8191
  135TMC2    O5 2111   1.312   4.715  11.214  0.4622 -0.2173 -0.0377
  135TMC2    H5 2112   1.407   4.709  11.238 -0.0010 -0.5933  1.7207
  136MPD2     C 2113   1.872   0.230  10.721  0.1148  0.7760  0.0414
  136MPD2    C1 2114   1.798   0.134  10.665  0.5731  0.5666  0.7421
  136MPD2    C2 2115   1.805   0.118  10.526 -0.0163  0.4620  0.1829
  136MPD2    C3 2116   1.871   0.204  10.445  0.2035 -0.5148 -0.0864
  136MPD2    C4 2117   1.947   0.302  10.505  0.4597 -0.3002 -0.0828
  136MPD2    C5 2118   1.930   0.326  10.639  0.1048  0.2132 -0.3652
  136MPD2     H 2119   1.750   0.034  10.483 -0.8309  0.5759  1.0053
  136MPD2    H1 2120   2.010   0.369  10.448 -1.3284  0.6313 -0.9737
  136MPD2    H2 2121   1.873   0.257  10.826 -1.8567 -0.5119  0.3867
  136MPD2    H3 2122   1.983   0.409  10.684  0.0174  1.0059 -1.6952
  136MPD2     N 2123   1.889   0.184  10.304 -0.3722  0.0795  0.2841
  136MPD2    H5 2124   1.937   0.262  10.262 -2.2525 -0.5680 -3.1189
  136MPD2    N1 2125   1.715   0.052  10.735  0.1517 -0.2324 -0.0715
  136MPD2    H7 2126   1.665   4.723  10.681  1.2961 -0.7786 -0.4176
  137TMC2    C1 2127   1.260   2.918   9.278  0.8067  0.3022 -0.1134
  137TMC2    C2 2128   1.269   2.815   9.192 -0.0588  0.3782  0.0684
  137TMC2    C3 2129   1.240   2.831   9.058  0.4247 -0.0570  0.7612
  137TMC2    C4 2130   1.216   3.043   9.229 -0.2976 -0.0760 -0.5826
  137TMC2    C5 2131   1.182   3.052   9.097  0.0987  0.1069  0.4610
  137TMC2    C6 2132   1.204   2.955   9.010 -0.6847  0.7582 -0.2286
  137TMC2     C 2133   1.305   2.914   9.415 -0.2115  0.3549 -0.4770
  137TMC2     O 2134   1.266   3.006   9.485  0.4131 -0.3171 -0.4226
  137TMC2     H 2135   1.314   2.719   9.216  0.1672  0.9228  1.7834
  137TMC2    H1 2136   1.224   3.134   9.286  0.8487 -0.7046  0.2726
  137TMC2    H2 2137   1.191   2.963   8.902  0.9541  3.0035 -0.2700
  137TMC2    C7 2138   1.128   3.184   9.051 -0.8581 -0.1120  0.1585
  137TMC2    C8 2139   1.291   2.746   8.961  0.0074  0.3430  1.0878
  137TMC2    O1 2140   1.146   3.200   8.933 -0.4142 -0.1769 -0.5743
  137TMC2    O2 2141   1.345   2.785   8.856 -0.3002  0.4413 -0.2791
  137TMC2    O5 2142   1.286   2.614   9.001  0.2235  0.1776 -0.2038
  137TMC2    H5 2143   1.219   2.594   9.070 -0.2340  1.2693 -0.3305
  138MPD2     C 2144   1.536   2.675   9.574 -0.1728  0.1654 -0.1445
  138MPD2    C1 2145   1.447   2.783   9.566  0.8640 -0.2936  0.4871
  138MPD2    C2 2146   1.396   2.840   9.682  0.3883 -0.4642 -0.9510
  138MPD2    C3 2147   1.443   2.809   9.808 -0.1981 -0.4167  0.1829
  138MPD2    C4 2148   1.548   2.719   9.809  0.5570 -0.1105  0.4155
  138MPD2    C5 2149   1.593   2.654   9.695  0.3316 -0.2118  0.8554
  138MPD2     H 2150   1.312   2.908   9.683 -1.0254 -2.2082 -0.7085
  138MPD2    H1 2151   1.608   2.702   9.898  1.5755 -2.2075 -0.6786
  138MPD2    H2 2152   1.565   2.623   9.483 -1.0405  0.0071 -0.3356
  138MPD2    H3 2153   1.681   2.592   9.709  0.0535 -0.9021 -0.4807
  138MPD2     N 2154   1.390   2.878   9.922 -0.4090 -0.0029 -0.8811
  138MPD2    H5 2155   1.312   2.941   9.911 -1.4308 -0.8584  1.3692
  138MPD2    N1 2156   1.396   2.812   9.439 -0.0107  0.0508 -0.4293
  138MPD2    H7 2157   1.432   2.746   9.371  0.6582  0.5663 -0.5733
  139TMC2    C1 2158   2.101   1.414  13.468 -1.0930  0.1382  0.1710
  139TMC2    C2 2159   2.012   1.333  13.410  0.0563  0.6437  0.3172
  139TMC2    C3 2160   1.890   1.382  13.374 -0.2935  0.4051 -0.1221
  139TMC2    C4 2161   2.051   1.530  13.522  0.0689 -0.9811 -0.2787
  139TMC2    C5 2162   1.926   1.578  13.490 -0.5146 -0.1812 -0.5640
  139TMC2    C6 2163   1.847   1.500  13.412  0.8311 -0.3327 -0.0185
  139TMC2     C 2164   2.240   1.375  13.460  0.0743  0.4396  1.0482
  139TMC2     O 2165   2.255   1.293  13.371 -0.1292  0.2463 -0.0152
  139TMC2     H 2166   2.040   1.229  13.396 -0.8792 -0.1986  4.5186
  139TMC2    H1 2167   2.118   1.609  13.554 -1.5028  0.0243  0.5023
  139TMC2    H2 2168   1.743   1.527  13.395  0.2089 -2.0932  0.9448
  139TMC2    C7 2169   1.877   1.714  13.532 -0.9704 -0.2358  0.5973
  139TMC2    C8 2170   1.784   1.295  13.315 -0.3626  0.3978 -0.1757
  139TMC2    O1 2171   1.966   1.789  13.569  0.5403 -0.3407 -0.2858
  139TMC2    O2 2172   1.668   1.332  13.294 -0.0915  0.5680 -0.2379
  139TMC2    O5 2173   1.837   1.181  13.254 -1.0607  0.1101 -0.1891
  139TMC2    H5 2174   1.934   1.189  13.242 -1.4292  4.2234 -0.2724
  140MPD2     C 2175   2.538   1.426  13.671  0.9114 -0.6792 -0.2985
  140MPD2    C1 2176   2.471   1.396  13.550 -0.2032  0.6109 -0.2605
  140MPD2    C2 2177   2.540   1.340  13.446 -0.5697 -0.3343 -0.6965
  140MPD2    C3 2178   2.671   1.311  13.455  0.3219  0.1131 -0.3251
  140MPD2    C4 2179   2.733   1.336  13.577 -0.3470 -0.0237  0.6950
  140MPD2    C5 2180   2.661   1.380  13.689  0.0431 -0.7883  0.2326
  140MPD2     H 2181   2.489   1.319  13.353 -0.5754 -2.1379 -0.2902
  140MPD2    H1 2182   2.840   1.318  13.585  0.4678  3.2146 -2.8528
  140MPD2    H2 2183   2.490   1.475  13.755 -1.0984 -0.4770 -1.5552
  140MPD2    H3 2184   2.705   1.396  13.787  2.1781 -0.7128 -0.7490
  140MPD2     N 2185   2.743   1.259  13.344 -0.0341  0.2840  0.3637
  140MPD2    H5 2186   2.696   1.245  13.255  1.4195 -1.0546 -0.1811
  140MPD2    N1 2187   2.330   1.424  13.549 -0.2494  0.2070 -0.0193
  140MPD2    H7 2188   2.283   1.470  13.626 -0.5878 -1.0457  0.5275
  141TMC2    C1 2189   2.833   2.421  14.276  0.0997 -0.3356  0.1810
  141TMC2    C2 2190   2.881   2.338  14.373 -0.5393 -0.6628 -0.1677
  141TMC2    C3 2191   2.954   2.395  14.478  0.5673 -0.7981 -0.6219
  141TMC2    C4 2192   2.850   2.558  14.282 -0.6557 -0.7360 -0.0544
  141TMC2    C5 2193   2.929   2.607  14.384 -0.2633  0.1684 -0.2649
  141TMC2    C6 2194   2.973   2.533  14.487  0.6033  0.5828  0.0586
  141TMC2     C 2195   2.753   2.370  14.170  0.1506 -0.1117 -0.0071
  141TMC2     O 2196   2.699   2.454  14.095 -0.5454 -0.4737 -0.6374
  141TMC2     H 2197   2.839   2.241  14.399  1.4884 -1.4400  0.1907
  141TMC2    H1 2198   2.815   2.618  14.199  2.8598 -0.5036 -1.3670
  141TMC2    H2 2199   3.018   2.585  14.571  0.8617  0.6934 -0.1491
  141TMC2    C7 2200   2.927   2.752  14.404 -0.2660  0.4345  0.6107
  141TMC2    C8 2201   2.950   2.308  14.602  0.0966 -0.2252 -0.0628
  141TMC2    O1 2202   2.982   2.789  14.508  0.1224 -0.3555 -0.1283
  141TMC2    O2 2203   2.948   2.185  14.594 -0.2055 -0.4615 -0.4538
  141TMC2    O5 2204   2.905   2.379  14.704  0.7374  0.3383  0.2407
  141TMC2    H5 2205   2.890   2.473  14.679 -0.7571  0.1821  0.5724
  142TMC2    C1 2206   0.420   2.163   9.633  0.4889  0.1318  0.0527
  142TMC2    C2 2207   0.401   2.239   9.519  0.5093  0.2931 -0.1344
  142TMC2    C3 2208   0.460   2.361   9.516  0.1510  0.0937 -0.5074
  142TMC2    C4 2209   0.495   2.202   9.740 -0.5401 -0.5165  0.3146
  142TMC2    C5 2210   0.559   2.324   9.722  0.1070 -0.2118 -0.5796
  142TMC2    C6 2211   0.544   2.407   9.617 -0.0146  0.0411  0.6857
  142TMC2     C 2212   0.374   2.025   9.612 -0.1245 -0.0538 -0.3829
  142TMC2     O 2213   0.291   1.990   9.527  0.1262  0.2877  0.4788
  142TMC2     H 2214   0.341   2.200   9.438  0.8704  0.5688 -0.5426
  142TMC2    H1 2215   0.511   2.147   9.832  0.9918 -1.8433 -0.7486
  142TMC2    H2 2216   0.628   2.467   9.584 -1.0631 -0.2112 -2.5404
  142TMC2    C7 2217   0.672   2.355   9.804  0.1256  0.1574 -0.2522
  142TMC2    C8 2218   0.467   2.435   9.389 -0.0643 -0.4734  0.2536
  142TMC2    O1 2219   0.709   2.269   9.878  0.0179  0.2265  0.8547
  142TMC2    O2 2220   0.424   2.381   9.286  0.1409 -0.8929  0.9686
  142TMC2    O5 2221   0.466   2.569   9.416 -0.6945 -0.0013 -0.0209
  142TMC2    H5 2222   0.482   2.600   9.508  1.3872  0.8227 -0.6560
  143MPD2     C 2223   0.438   1.544   9.756  0.1020 -0.1980 -0.0761
  143MPD2    C1 2224   0.326   1.599   9.695 -0.5434 -0.2338 -0.2730
  143MPD2    C2 2225   0.329   1.738   9.658  0.5180 -0.4504 -0.0359
  143MPD2    C3 2226   0.450   1.804   9.692 -0.0625  0.8113 -0.6969
  143MPD2    C4 2227   0.561   1.743   9.744  0.2517 -0.0400 -0.8243
  143MPD2    C5 2228   0.552   1.613   9.779  0.3697  0.1963 -0.3291
  143MPD2     H 2229   0.238   1.783   9.620  0.5353 -0.0979  0.3322
  143MPD2    H1 2230   0.644   1.806   9.775  1.7469 -0.9678 -2.9000
  143MPD2    H2 2231   0.427   1.440   9.786  0.1750 -0.3059 -0.4226
  143MPD2    H3 2232   0.629   1.563   9.838  0.3967  0.3020 -0.2759
  143MPD2     N 2233   0.463   1.949   9.680 -0.2113 -0.3797 -0.2167
  143MPD2    H5 2234   0.546   1.986   9.725 -0.6709  0.5604 -0.1408
  143MPD2    N1 2235   0.225   1.504   9.675 -0.2220  0.2600  0.0887
  143MPD2    H7 2236   0.236   1.416   9.725 -0.8884 -0.7891 -1.6023
  144TMC2    C1 2237   3.599   0.292   0.950 -0.3443 -0.5943 -0.3594
  144TMC2    C2 2238   3.730   0.251   0.923  0.3505  0.8009  0.5080
  144TMC2    C3 2239   3.818   0.246   1.028  0.4501  0.2035  0.1190
  144TMC2    C4 2240   3.558   0.318   1.082 -0.0913 -0.3852 -0.0421
  144TMC2    C5 2241   3.650   0.319   1.176  0.6551 -0.5847  0.3656
  144TMC2    C6 2242   3.782   0.283   1.154  0.2212 -0.3171 -0.9368
  144TMC2     C 2243   3.504   0.286   0.844 -0.0094 -0.2388 -0.2672
  144TMC2     O 2244   3.531   0.211   0.751  0.5996  0.2151 -0.2135
  144TMC2     H 2245   3.768   0.217   0.828  1.7242  1.2156  0.9076
  144TMC2    H1 2246   3.460   0.355   1.111 -0.2177  0.3021 -1.3281
  144TMC2    H2 2247   3.854   0.285   1.235 -1.0906  2.5630  0.1370
  144TMC2    C7 2248   3.617   0.355   1.312  0.1447  0.1632 -0.6368
  144TMC2    C8 2249   3.965   0.222   1.006  0.2129  0.4656 -0.0446
  144TMC2    O1 2250   3.683   0.294   1.398  0.3752  0.2751  0.2717
  144TMC2    O2 2251   4.038   0.195   1.097  0.3895  0.1314  0.5229
  144TMC2    O5 2252   3.985   0.328   0.929 -0.4885 -0.0162  0.1192
  144TMC2    H5 2253   3.904   0.361   0.883  0.3290  0.3592 -1.0575
  145MPD2     C 2254   3.095   0.466   0.577 -1.1161  0.1955  0.1715
  145MPD2    C1 2255   3.180   0.352   0.551 -0.9492  0.0814 -0.6919
  145MPD2    C2 2256   3.271   0.315   0.652 -0.2337 -0.2527 -0.2148
  145MPD2    C3 2257   3.291   0.396   0.764  0.3547 -0.4215 -0.4320
  145MPD2    C4 2258   3.218   0.513   0.778  0.2077  0.5866  0.0618
  145MPD2    C5 2259   3.117   0.547   0.688 -0.3958  0.1634  0.7880
  145MPD2     H 2260   3.333   0.228   0.637 -1.0394 -0.7246 -0.8257
  145MPD2    H1 2261   3.240   0.582   0.859  2.4181 -0.3036  0.2322
  145MPD2    H2 2262   3.021   0.487   0.500 -0.6227  0.6971 -0.1678
  145MPD2    H3 2263   3.061   0.640   0.700  0.5264  0.6810  1.0768
  145MPD2     N 2264   3.399   0.372   0.857  0.4686 -0.2522 -0.2446
  145MPD2    H5 2265   3.409   0.438   0.934  1.3134  0.0799 -0.6422
  145MPD2    N1 2266   3.177   0.266   0.430  0.4328  0.1992  0.3286
  145MPD2    H7 2267   3.228   0.180   0.417  1.0428  0.2247  2.6206
  146TMC2    C1 2268   4.450   3.733  12.463 -0.6413 -0.2887  0.1766
  146TMC2    C2 2269   4.423   3.737  12.325  0.2419  0.2890 -0.7369
  146TMC2    C3 2270   4.375   3.628  12.267  0.1704 -0.2724  0.0864
  146TMC2    C4 2271   4.431   3.618  12.532  0.3602  0.5843  0.0481
  146TMC2    C5 2272   4.391   3.506  12.459  0.7443  0.1737  0.5479
  146TMC2    C6 2273   4.354   3.512  12.329 -0.3287 -0.3788 -0.7068
  146TMC2     C 2274   4.503   3.847  12.535 -0.5395  0.1835  0.2651
  146TMC2     O 2275   4.515   3.955  12.478  0.1244  0.2334  0.0043
  146TMC2     H 2276   4.425   3.827  12.264  0.1931 -0.0682 -1.2627
  146TMC2    H1 2277   4.438   3.613  12.640  0.8856  1.0969  0.0374
  146TMC2    H2 2278   4.335   3.419  12.276 -0.7824 -0.6482 -0.0797
  146TMC2    C7 2279   4.332   3.389  12.528  0.3056 -0.2056 -0.4602
  146TMC2    C8 2280   4.326   3.628  12.140 -0.2490 -0.5409 -0.1377
  146TMC2    O1 2281   4.244   3.326  12.465  0.3602 -0.4713 -0.5292
  146TMC2    O2 2282   4.371   3.700  12.055  0.0602 -0.2628 -0.2749
  146TMC2    O5 2283   4.208   3.558  12.139 -0.4474 -0.2346  0.1415
  146TMC2    H5 2284   4.180   3.530  12.228 -1.2020  3.5104  1.0777
  147MPD2     C 2285   4.321   3.072  12.931  0.8657 -0.5492 -0.4523
  147MPD2    C1 2286   4.432   3.153  12.947  0.3524 -0.1551 -0.6231
  147MPD2    C2 2287   4.449   3.249  12.851 -0.6607  0.1594 -0.9383
  147MPD2    C3 2288   4.372   3.269  12.738 -0.5715 -0.6369 -0.4484
  147MPD2    C4 2289   4.258   3.188  12.735  0.4502  0.2603  0.4849
  147MPD2    C5 2290   4.234   3.093  12.831 -0.2906 -0.4486 -0.7137
  147MPD2     H 2291   4.529   3.321  12.865 -0.1916 -0.5174 -0.1061
  147MPD2    H1 2292   4.182   3.195  12.658  0.5120  1.1991  0.5065
  147MPD2    H2 2293   4.300   2.985  12.992  1.5761  1.0726  2.1182
  147MPD2    H3 2294   4.145   3.032  12.824  0.4025 -1.6478  1.1780
  147MPD2     N 2295   4.401   3.370  12.642  0.1760  0.2511  0.4795
  147MPD2    H5 2296   4.485   3.427  12.652 -1.2991  2.5842 -0.6477
  147MPD2    N1 2297   4.523   3.123  13.047 -0.7293  0.3331 -1.0541
  147MPD2    H7 2298   4.486   3.053  13.110  3.7711 -1.1690 -0.1307
  148TMC2    C1 2299   0.025   2.544  10.426 -0.5567  0.2289  0.0806
  148TMC2    C2 2300   0.129   2.613  10.486 -0.4463  0.4352 -0.0885
  148TMC2    C3 2301   0.244   2.547  10.494 -0.4389  0.1185  0.3786
  148TMC2    C4 2302   0.042   2.417  10.375 -0.5788 -0.2983  0.5374
  148TMC2    C5 2303   0.159   2.351  10.391  0.1606 -0.4496 -0.3686
  148TMC2    C6 2304   0.263   2.418  10.448 -0.1835 -0.1872 -0.1690
  148TMC2     C 2305   4.674   2.633  10.351 -0.5684 -0.3788  0.3800
  148TMC2     O 2306   4.685   2.749  10.384  0.3249  0.3944 -0.0594
  148TMC2     H 2307   0.122   2.718  10.511 -0.7315  0.9617 -2.4194
  148TMC2    H1 2308   4.702   2.356  10.335 -1.1548  1.1357 -0.4971
  148TMC2    H2 2309   0.348   2.359  10.481 -0.7337 -0.8423  0.0638
  148TMC2    C7 2310   0.155   2.194  10.377  0.2126 -0.0473  0.5274
  148TMC2    C8 2311   0.363   2.618  10.542  0.0820 -0.7071 -0.1760
  148TMC2    O1 2312   0.045   2.149  10.346 -0.5360  0.4705  0.5502
  148TMC2    O2 2313   0.475   2.607  10.497  0.0208 -0.4797 -0.0169
  148TMC2    O5 2314   0.321   2.675  10.660  0.2169  1.0906  0.5346
  148TMC2    H5 2315   0.227   2.652  10.676  0.3909 -0.6216 -0.8863
  149MPD2     C 2316   4.503   2.791  10.164  0.4409  0.2022  1.0754
  149MPD2    C1 2317   4.473   2.665  10.211 -0.2255  0.0212 -0.5213
  149MPD2    C2 2318   4.348   2.610  10.180 -0.0713  0.3061 -0.6443
  149MPD2    C3 2319   4.255   2.679  10.101  0.6254  0.1198 -0.4377
  149MPD2    C4 2320   4.286   2.800  10.052  0.1197  0.9006 -0.4564
  149MPD2    C5 2321   4.405   2.856  10.085  0.1709  0.2473 -0.5631
  149MPD2     H 2322   4.320   2.516  10.227 -0.7804  1.0196  0.3437
  149MPD2    H1 2323   4.213   2.854   9.993  0.1712  1.7684  0.2708
  149MPD2    H2 2324   4.592   2.848  10.186  1.6228 -0.8928 -0.8964
  149MPD2    H3 2325   4.423   2.952  10.037  0.3662  1.1338  1.2674
  149MPD2     N 2326   4.130   2.634  10.060 -0.2179 -0.1834  0.0476
  149MPD2    H5 2327   4.069   2.697  10.009  0.7060  0.6843  0.0239
  149MPD2    N1 2328   4.566   2.583  10.285  0.2611  0.2206 -0.2282
  149MPD2    H7 2329   4.549   2.485  10.305 -0.3466  0.3906  0.0852
  150TMC2    C1 2330   1.638   1.911  12.300 -0.9596  0.4210  1.0693
  150TMC2    C2 2331   1.546   2.010  12.323  0.2046  0.7099 -0.0211
  150TMC2    C3 2332   1.589   2.126  12.379 -0.3104  0.2021 -0.1921
  150TMC2    C4 2333   1.758   1.912  12.370  0.3449 -0.0863 -0.1099
  150TMC2    C5 2334   1.793   2.026  12.439 -0.1331 -0.0392  0.3184
  150TMC2    C6 2335   1.709   2.134  12.447 -0.2225 -0.5792  0.3500
  150TMC2     C 2336   1.607   1.805  12.218 -0.0158 -0.1652  0.2653
  150TMC2     O 2337   1.681   1.708  12.214  0.3261  0.1152  0.0765
  150TMC2     H 2338   1.448   2.021  12.278  0.0908 -0.2488 -0.0142
  150TMC2    H1 2339   1.833   1.839  12.342  1.5913  1.3347 -0.4745
  150TMC2    H2 2340   1.741   2.224  12.499 -2.2311 -0.7426  1.8458
  150TMC2    C7 2341   1.925   2.036  12.498  0.1738  0.2085 -0.4496
  150TMC2    C8 2342   1.488   2.218  12.424  0.4232 -0.0993 -0.4548
  150TMC2    O1 2343   1.961   2.146  12.536  1.0713 -0.0269  0.2526
  150TMC2    O2 2344   1.368   2.184  12.430 -0.6052 -0.8046  0.1271
  150TMC2    O5 2345   1.525   2.342  12.379 -0.2727 -0.1222  0.1124
  150TMC2    H5 2346   1.620   2.365  12.369 -0.5576  1.3901  0.9056
  151MPD2     C 2347   1.328   1.589  11.850 -0.1850  0.1249 -0.3008
  151MPD2    C1 2348   1.284   1.719  11.865  0.6421  0.0866 -0.2672
  151MPD2    C2 2349   1.350   1.805  11.949  0.3422  0.3528 -0.0430
  151MPD2    C3 2350   1.450   1.753  12.032  0.7441  0.8650 -0.1606
  151MPD2    C4 2351   1.496   1.622  12.012  0.4543  0.6018  0.7105
  151MPD2    C5 2352   1.436   1.541  11.924  0.2691 -0.2156 -0.0429
  151MPD2     H 2353   1.313   1.906  11.963 -1.8979 -0.0775 -2.8412
  151MPD2    H1 2354   1.579   1.579  12.066 -0.6376 -0.6177  1.4354
  151MPD2    H2 2355   1.271   1.524  11.785  1.2015 -0.3516 -1.0496
  151MPD2    H3 2356   1.465   1.437  11.913 -0.9509 -0.4174 -1.3829
  151MPD2     N 2357   1.508   1.838  12.131 -0.3526  0.4845  0.2259
  151MPD2    H5 2358   1.476   1.934  12.130 -2.0724 -0.0867  0.1284
  151MPD2    N1 2359   1.163   1.750  11.799 -0.9845  0.2107  0.7775
  151MPD2    H7 2360   1.101   1.670  11.794 -0.7699  0.0338  0.9231
  152TMC2    C1 2361   1.555   1.588  12.935 -0.3536  0.4744  0.0180
  152TMC2    C2 2362   1.609   1.467  12.927  0.1143  0.2767  0.2352
  152TMC2    C3 2363   1.746   1.455  12.908 -0.3421  0.2059 -0.3031
  152TMC2    C4 2364   1.624   1.702  12.912 -0.2957  0.0142  0.2456
  152TMC2    C5 2365   1.762   1.689  12.898  0.3007  0.3765 -0.5979
  152TMC2    C6 2366   1.826   1.572  12.899 -0.3723  0.5702 -0.8475
  152TMC2     C 2367   1.417   1.603  12.931 -0.0630 -0.2569 -0.7232
  152TMC2     O 2368   1.375   1.712  12.886  0.2287  0.3388 -0.2501
  152TMC2     H 2369   1.554   1.376  12.946 -0.5598  0.3834 -1.2770
  152TMC2    H1 2370   1.574   1.797  12.929  0.0491  0.0941  0.7895
  152TMC2    H2 2371   1.933   1.555  12.892 -0.0665  1.2177  2.1741
  152TMC2    C7 2372   1.836   1.813  12.895 -0.4496 -0.1166  0.3375
  152TMC2    C8 2373   1.809   1.329  12.930  0.1031 -0.4425 -0.6008
  152TMC2    O1 2374   1.775   1.917  12.889 -0.1514  0.4110 -0.3508
  152TMC2    O2 2375   1.922   1.332  12.972  0.5827 -0.0936  0.0191
  152TMC2    O5 2376   1.729   1.225  12.896  0.2894  0.2800  0.3534
  152TMC2    H5 2377   1.635   1.247  12.882  0.3418  0.2006 -0.1227
  153MPD2     C 2378   1.160   1.350  13.023  0.7875  0.2291 -0.8253
  153MPD2    C1 2379   1.211   1.463  12.961 -0.0936 -0.6746 -0.5128
  153MPD2    C2 2380   1.121   1.543  12.897  0.3351 -0.1779 -0.3453
  153MPD2    C3 2381   0.988   1.518  12.892 -0.0365 -0.2959 -0.1846
  153MPD2    C4 2382   0.939   1.399  12.951  0.0988  0.4401  0.1341
  153MPD2    C5 2383   1.034   1.317  13.011 -0.8258  0.4997 -0.1847
  153MPD2     H 2384   1.165   1.635  12.860  1.5721  0.2776  2.2149
  153MPD2    H1 2385   0.835   1.378  12.971 -0.2751  1.1173 -1.1003
  153MPD2    H2 2386   1.219   1.283  13.083 -0.7154 -1.0444 -0.7602
  153MPD2    H3 2387   0.997   1.227  13.059  0.9173 -0.2638 -0.2795
  153MPD2     N 2388   0.907   1.615  12.844  0.3636 -0.2666  0.4248
  153MPD2    H5 2389   0.958   1.703  12.835 -2.7528  1.3337 -1.3412
  153MPD2    N1 2390   1.348   1.489  12.975  0.7289 -0.5372 -0.0540
  153MPD2    H7 2391   1.395   1.417  13.030 -1.9814 -1.7368  0.7034
  154TMC2    C1 2392   3.591   1.209   0.425 -0.5237  0.0881 -0.3640
  154TMC2    C2 2393   3.638   1.163   0.543 -0.5606 -0.2733  0.3288
  154TMC2    C3 2394   3.696   1.042   0.547 -0.6819  0.3057 -1.0057
  154TMC2    C4 2395   3.593   1.134   0.311 -0.7733  0.1529  0.7976
  154TMC2    C5 2396   3.661   1.014   0.319 -0.0656 -0.3661 -0.3891
  154TMC2    C6 2397   3.715   0.969   0.432 -0.6812 -0.4201  0.5003
  154TMC2     C 2398   3.495   1.323   0.431  0.6403 -0.4659 -0.7491
  154TMC2     O 2399   3.466   1.357   0.548  0.2511 -0.0425  0.0231
  154TMC2     H 2400   3.651   1.232   0.626  0.0676 -0.7823  0.6531
  154TMC2    H1 2401   3.532   1.160   0.225 -1.2828 -1.3433  0.7204
  154TMC2    H2 2402   3.767   0.874   0.435 -0.0519 -0.0529  1.1380
  154TMC2    C7 2403   3.603   0.910   0.227  0.1479 -0.3017  0.7037
  154TMC2    C8 2404   3.740   0.982   0.671  0.5884  0.2474 -0.0518
  154TMC2    O1 2405   3.500   0.951   0.170 -0.0317  0.0400  0.2120
  154TMC2    O2 2406   3.799   0.880   0.679 -0.2157  0.2767  0.0224
  154TMC2    O5 2407   3.653   1.038   0.764 -0.4290 -0.5149  0.3440
  154TMC2    H5 2408   3.615   1.125   0.743 -0.9280 -0.6912  0.5238
  155MPD2     C 2409   3.344   1.520   0.160  0.1933 -0.1785  0.0564
  155MPD2    C1 2410   3.385   1.492   0.289  0.1717  0.3092  0.0539
  155MPD2    C2 2411   3.346   1.578   0.388 -0.0950 -0.1088  0.1427
  155MPD2    C3 2412   3.273   1.688   0.362 -0.5323  0.3897 -0.1663
  155MPD2    C4 2413   3.244   1.720   0.238 -0.2265 -0.0649 -0.7679
  155MPD2    C5 2414   3.263   1.628   0.135 -0.5210 -0.1015 -0.4554
  155MPD2     H 2415   3.389   1.574   0.487 -0.1671  0.6924  0.2079
  155MPD2    H1 2416   3.171   1.797   0.216 -0.1742  0.5412  1.2325
  155MPD2    H2 2417   3.365   1.447   0.083 -2.0299 -2.2235  1.3905
  155MPD2    H3 2418   3.228   1.648   0.034  1.0988 -0.3563 -1.0625
  155MPD2     N 2419   3.238   1.774   0.467  0.5977 -0.4420  0.6402
  155MPD2    H5 2420   3.259   1.736   0.559  1.3185 -2.7521 -0.4747
  155MPD2    N1 2421   3.459   1.372   0.308 -0.3125 -0.1246 -0.5250
  155MPD2    H7 2422   3.500   1.337   0.222  1.5295  0.4670  0.1090
  156TMC2    C1 2423   1.863   4.058  11.640  0.7433  0.1567  0.4955
  156TMC2    C2 2424   1.962   4.029  11.553 -0.2078 -0.4953 -0.2798
  156TMC2    C3 2425   2.008   4.133  11.464 -0.2328 -0.0094 -0.5502
  156TMC2    C4 2426   1.813   4.186  11.657  0.0639  0.2074  0.6034
  156TMC2    C5 2427   1.857   4.281  11.573  0.1985  0.1274 -0.1196
  156TMC2    C6 2428   1.952   4.259  11.473  0.8007 -0.2261 -0.3027
  156TMC2     C 2429   1.870   3.974  11.763 -0.1569  0.1460  0.5778
  156TMC2     O 2430   1.973   3.919  11.795  0.0224 -0.3062  0.1583
  156TMC2     H 2431   2.011   3.933  11.556  1.3305  0.3165  0.6102
  156TMC2    H1 2432   1.768   4.218  11.750 -0.2611  2.0964 -0.1915
  156TMC2    H2 2433   1.984   4.342  11.412 -1.1415 -0.5879 -1.8480
  156TMC2    C7 2434   1.834   4.428  11.600 -0.8218 -0.6286  0.9849
  156TMC2    C8 2435   2.141   4.129  11.409  0.7042 -0.3247  0.6521
  156TMC2    O1 2436   1.929   4.502  11.579  0.6907  0.6023  0.1498
  156TMC2    O2 2437   2.174   4.233  11.356 -0.4414 -0.1017  0.0734
  156TMC2    O5 2438   2.214   4.077  11.513 -0.5377  0.0839  0.0125
  156TMC2    H5 2439   2.183   3.985  11.528 -1.4214  0.5026  0.7688
  157MPD2     C 2440   1.556   3.901  11.950 -0.4247 -0.2005  0.4628
  157MPD2    C1 2441   1.694   3.901  11.925 -0.6518  0.4634  0.2340
  157MPD2    C2 2442   1.776   3.835  12.016  0.6636 -0.3797  0.8946
  157MPD2    C3 2443   1.727   3.780  12.135  0.0685 -0.2545 -0.2886
  157MPD2    C4 2444   1.594   3.793  12.163  0.2700 -0.4463  0.5025
  157MPD2    C5 2445   1.507   3.841  12.063 -0.1843  0.2574  0.4238
  157MPD2     H 2446   1.882   3.826  11.999  0.0632 -4.1075 -0.9883
  157MPD2    H1 2447   1.540   3.740  12.241  0.0009 -0.6888  0.1560
  157MPD2    H2 2448   1.490   3.927  11.868 -1.4205  0.4851  1.4910
  157MPD2    H3 2449   1.401   3.820  12.070  0.0897 -1.7546 -1.4730
  157MPD2     N 2450   1.819   3.720  12.224  0.0168 -0.0877 -0.1091
  157MPD2    H5 2451   1.909   3.694  12.185  0.3677 -0.9231  1.2349
  157MPD2    N1 2452   1.742   3.972  11.811 -0.0819 -0.0781 -0.0112
  157MPD2    H7 2453   1.675   4.031  11.764 -0.7536 -0.6171  0.2676
  158TMC2    C1 2454   2.789   2.709  13.195  0.3685 -0.1943  0.5440
  158TMC2    C2 2455   2.854   2.682  13.081  0.1883 -0.5608 -0.5106
  158TMC2    C3 2456   2.795   2.709  12.963 -1.2324  0.6222 -0.8518
  158TMC2    C4 2457   2.661   2.759  13.194  0.1492  0.1085 -0.3673
  158TMC2    C5 2458   2.608   2.793  13.071 -1.2666 -0.2488  0.3790
  158TMC2    C6 2459   2.680   2.778  12.958  0.2709  0.4453 -0.0903
  158TMC2     C 2460   2.852   2.669  13.321 -0.0491 -0.2444  0.2028
  158TMC2     O 2461   2.974   2.697  13.335  0.3362  0.8699 -0.3033
  158TMC2     H 2462   2.937   2.617  13.103  0.1237 -0.7408 -0.7975
  158TMC2    H1 2463   2.601   2.767  13.283  0.3028 -0.1802 -0.2356
  158TMC2    H2 2464   2.634   2.809  12.864 -0.1712  0.5702  0.1679
  158TMC2    C7 2465   2.477   2.848  13.070 -0.1992  0.9130  0.1933
  158TMC2    C8 2466   2.874   2.694  12.840  0.3438  0.1026  0.6198
  158TMC2    O1 2467   2.461   2.930  12.984 -0.4866  0.1757  0.4350
  158TMC2    O2 2468   2.832   2.715  12.724 -0.4466 -0.5799  0.0751
  158TMC2    O5 2469   3.006   2.668  12.881 -0.2557  0.0042 -0.4943
  158TMC2    H5 2470   3.028   2.648  12.975  2.5857 -1.0877 -1.3881
  159MPD2     C 2471   2.789   2.564  13.809 -0.5333 -0.3193  0.3692
  159MPD2    C1 2472   2.669   2.527  13.748  0.3437  0.8445  0.7421
  159MPD2    C2 2473   2.658   2.535  13.612  0.6692 -0.5715 -0.0855
  159MPD2    C3 2474   2.763   2.590  13.538 -0.1992  0.6605  0.1381
  159MPD2    C4 2475   2.884   2.611  13.602 -0.3112 -0.4181  0.5907
  159MPD2    C5 2476   2.895   2.607  13.739 -0.3982 -0.9205 -0.3769
  159MPD2     H 2477   2.569   2.493  13.567  0.3002 -0.4793  0.5521
  159MPD2    H1 2478   2.972   2.637  13.544 -1.2119 -1.3243 -1.1599
  159MPD2    H2 2479   2.799   2.568  13.917 -0.1015 -4.8204  0.5199
  159MPD2    H3 2480   2.989   2.633  13.785 -0.5185  0.0786 -0.6926
  159MPD2     N 2481   2.754   2.618  13.399  0.5880  0.3818 -0.4622
  159MPD2    H5 2482   2.663   2.595  13.359  0.3658  0.2327  0.1324
  159MPD2    N1 2483   2.568   2.472  13.837  0.1288 -0.4114 -0.0745
  159MPD2    H7 2484   2.595   2.478  13.935  1.2991  3.5172 -0.6558
  160TMC2    C1 2485   1.949   0.426   0.869  0.0059  0.0141  0.5149
  160TMC2    C2 2486   1.976   0.296   0.908  0.3067 -0.6674  0.3296
  160TMC2    C3 2487   2.108   0.261   0.921  0.8423  0.5181  0.0469
  160TMC2    C4 2488   2.044   0.519   0.836  0.1970  0.2090 -0.6672
  160TMC2    C5 2489   2.171   0.479   0.860 -0.0306 -0.3429  0.0781
  160TMC2    C6 2490   2.211   0.359   0.906 -0.4218  0.2287 -0.2446
  160TMC2     C 2491   1.817   0.468   0.906  0.0972 -0.1473 -0.0981
  160TMC2     O 2492   1.726   0.384   0.909  0.3985 -0.0703 -0.3138
  160TMC2     H 2493   1.902   0.227   0.947 -0.1237 -0.8228 -0.7487
  160TMC2    H1 2494   2.017   0.610   0.783  2.0765 -0.0179 -2.0209
  160TMC2    H2 2495   2.312   0.336   0.937  0.2118 -0.6973 -2.9518
  160TMC2    C7 2496   2.274   0.557   0.785  0.1780  0.0589  0.3904
  160TMC2    C8 2497   2.139   0.163   1.017 -0.0958  0.6815  0.2883
  160TMC2    O1 2498   2.372   0.496   0.749 -0.1277 -0.4254 -0.0500
  160TMC2    O2 2499   2.194   0.205   1.118  0.0864  0.8270  0.4246
  160TMC2    O5 2500   2.065   0.052   1.001 -0.6695  0.1773  0.3557
  160TMC2    H5 2501   2.021   0.052   0.913  0.4981  2.4935 -0.2390
  161MPD2     C 2502   1.618   0.600   1.078 -0.5657  0.3805  0.1546
  161MPD2    C1 2503   1.715   0.667   1.006 -0.3417  0.0081  0.1693
  161MPD2    C2 2504   1.718   0.807   1.024 -0.3901  0.3472 -0.4805
  161MPD2    C3 2505   1.610   0.877   1.081  0.7295  0.2200  0.4781
  161MPD2    C4 2506   1.515   0.808   1.145 -0.0414  0.0499 -0.6542
  161MPD2    C5 2507   1.520   0.666   1.141  0.3225 -1.1115 -0.0117
  161MPD2     H 2508   1.797   0.862   0.973  0.3763  2.3959  2.9335
  161MPD2    H1 2509   1.441   0.853   1.210  0.4818  1.1534 -0.8037
  161MPD2    H2 2510   1.606   0.493   1.064 -0.1735 -0.0553  3.1990
  161MPD2    H3 2511   1.436   0.623   1.195 -0.4449 -2.4510 -2.3148
  161MPD2     N 2512   1.591   1.018   1.068  0.2280  0.2103 -0.3828
  161MPD2    H5 2513   1.499   1.048   1.099 -1.0049 -2.8104 -1.1388
  161MPD2    N1 2514   1.821   0.601   0.940  0.4037 -0.8636 -0.2268
  161MPD2    H7 2515   1.907   0.653   0.932 -0.5664  0.8123  0.2829
  162TMC2    C1 2516   0.791   2.920   1.350 -0.1470  0.6017 -0.8954
  162TMC2    C2 2517   0.771   3.013   1.453  0.3565 -0.0067  0.0015
  162TMC2    C3 2518   0.774   2.965   1.580  0.3741 -0.5365  0.1498
  162TMC2    C4 2519   0.826   2.785   1.377  0.4474 -0.4570  0.1034
  162TMC2    C5 2520   0.837   2.747   1.509  0.4907 -0.1024  0.2984
  162TMC2    C6 2521   0.804   2.831   1.610 -0.6045  0.0804 -0.1814
  162TMC2     C 2522   0.776   2.965   1.211 -0.5131  0.0393  0.3439
  162TMC2     O 2523   0.856   2.920   1.130 -0.2100 -0.2093  0.2991
  162TMC2     H 2524   0.761   3.119   1.431 -2.9554  0.3455  3.1767
  162TMC2    H1 2525   0.839   2.713   1.296 -0.5715  2.0458 -2.3026
  162TMC2    H2 2526   0.837   2.798   1.708 -1.9606 -1.0240 -0.1005
  162TMC2    C7 2527   0.869   2.607   1.533  0.2220  0.5059  0.4521
  162TMC2    C8 2528   0.791   3.057   1.692 -0.4146  0.0202  0.2391
  162TMC2    O1 2529   0.937   2.549   1.448 -0.0789  0.0960  0.0980
  162TMC2    O2 2530   0.902   3.095   1.707  0.5337  0.2714 -0.5707
  162TMC2    O5 2531   0.712   2.985   1.775 -0.2130  0.2178  0.6456
  162TMC2    H5 2532   0.622   2.987   1.736 -0.4924  0.0013  1.2700
  163MPD2     C 2533   0.557   3.283   0.866  0.6840  0.3995 -0.3276
  163MPD2    C1 2534   0.658   3.195   0.846  0.4194  1.0191 -0.4457
  163MPD2    C2 2535   0.709   3.122   0.960 -0.0384  0.4844 -0.0342
  163MPD2    C3 2536   0.650   3.132   1.080  0.7780  0.1970  0.6512
  163MPD2    C4 2537   0.546   3.216   1.093 -0.3264  0.1327  0.1950
  163MPD2    C5 2538   0.500   3.293   0.988  0.0442  0.8431  0.3879
  163MPD2     H 2539   0.796   3.058   0.952 -2.6637 -3.0995 -0.0776
  163MPD2    H1 2540   0.501   3.233   1.190  1.7089 -0.1192  1.1822
  163MPD2    H2 2541   0.514   3.332   0.780  1.3337  0.7110 -0.4736
  163MPD2    H3 2542   0.425   3.368   1.010  0.2347 -0.1046  4.4102
  163MPD2     N 2543   0.677   3.055   1.198  0.1360  0.0131  0.2050
  163MPD2    H5 2544   0.619   3.070   1.280  0.2109 -0.1871  0.2934
  163MPD2    N1 2545   0.700   3.174   0.713  0.0415  0.1355 -0.5117
  163MPD2    H7 2546   0.634   3.213   0.646 -0.9124  1.2997  1.0838
  164TMC2    C1 2547   0.765   2.125  10.827 -0.0509 -0.7009  0.0189
  164TMC2    C2 2548   0.850   2.213  10.774  0.7119  1.0928 -0.1697
  164TMC2    C3 2549   0.808   2.341  10.769  0.1830 -0.7134  0.5305
  164TMC2    C4 2550   0.631   2.150  10.852  0.0714 -0.0653 -0.9958
  164TMC2    C5 2551   0.595   2.281  10.847  0.4238 -0.1132  1.0864
  164TMC2    C6 2552   0.682   2.386  10.803 -0.5997 -0.0317 -0.4409
  164TMC2     C 2553   0.815   2.001  10.859 -0.7073 -0.0916  0.7758
  164TMC2     O 2554   0.751   1.940  10.945 -0.0077  0.2242 -0.1143
  164TMC2     H 2555   0.953   2.193  10.747 -0.1909 -3.0866 -0.6250
  164TMC2    H1 2556   0.567   2.073  10.892 -0.1956  0.5559 -0.2294
  164TMC2    H2 2557   0.634   2.481  10.786 -0.7382  0.2532  1.5716
  164TMC2    C7 2558   0.454   2.323  10.841  0.2918 -0.6767  0.3116
  164TMC2    C8 2559   0.918   2.430  10.752 -0.0110 -0.6322  0.2364
  164TMC2    O1 2560   0.438   2.445  10.868 -0.2265  0.1494  0.1774
  164TMC2    O2 2561   1.036   2.404  10.730 -0.3854  0.5684 -0.1685
  164TMC2    O5 2562   0.870   2.557  10.778  0.3315 -0.4590 -0.2069
  164TMC2    H5 2563   0.773   2.569  10.767  0.2701 -0.6762  0.0906
  165TMC2    C1 2564   1.649   0.218   0.624  0.0514  0.1872  0.2991
  165TMC2    C2 2565   1.577   0.339   0.621 -0.2586  0.1193 -0.3715
  165TMC2    C3 2566   1.635   0.449   0.563  0.4772  0.5260 -0.4596
  165TMC2    C4 2567   1.782   0.217   0.585  0.6475  0.1642 -0.1629
  165TMC2    C5 2568   1.835   0.325   0.515  0.2730  0.5809  0.0798
  165TMC2    C6 2569   1.761   0.442   0.506  0.0571  0.4796 -0.8429
  165TMC2     C 2570   1.591   0.106   0.684 -0.4105  0.1920  0.3207
  165TMC2     O 2571   1.655   0.043   0.766 -0.2921  0.6326 -0.2192
  165TMC2     H 2572   1.482   0.341   0.673 -0.5492  2.6221 -1.0102
  165TMC2    H1 2573   1.836   0.124   0.598 -3.0444 -1.9157  0.2247
  165TMC2    H2 2574   1.802   0.521   0.443 -0.2669  1.4204  0.1148
  165TMC2    C7 2575   1.972   0.328   0.500  0.5432 -0.4623  0.1952
  165TMC2    C8 2576   1.546   0.524   0.484 -0.3842  0.8399  0.6143
  165TMC2    O1 2577   2.028   0.425   0.543  0.7909  0.5463  0.2106
  165TMC2    O2 2578   1.450   0.466   0.438 -0.4136  0.2080 -0.0788
  165TMC2    O5 2579   1.542   0.645   0.540  0.4421 -0.5319  0.1821
  165TMC2    H5 2580   1.620   0.681   0.588 -0.5101  0.7600  0.7565
  166MPD2     C 2581   1.166   4.597   0.813 -0.3941 -0.1631  0.4692
  166MPD2    C1 2582   1.284   4.612   0.878  0.5228 -0.3682  0.5662
  166MPD2    C2 2583   1.381   4.689   0.830  0.0454  0.6752 -0.8359
  166MPD2    C3 2584   1.365   0.004   0.704 -0.8108 -0.7595  0.5489
  166MPD2    C4 2585   1.237   4.736   0.640 -0.6337 -0.3311  0.1625
  166MPD2    C5 2586   1.141   4.661   0.692  0.0582  0.1217 -0.3342
  166MPD2     H 2587   1.476   4.701   0.880 -0.8990  1.1142  0.8375
  166MPD2    H1 2588   1.220   0.050   0.548  1.6269  0.7237  0.3692
  166MPD2    H2 2589   1.098   4.524   0.855 -0.4010  0.0593  0.8364
  166MPD2    H3 2590   1.051   4.639   0.635 -1.3353  0.9780  1.5508
  166MPD2     N 2591   1.459   0.090   0.640  0.0039  0.4807  0.8351
  166MPD2    H5 2592   1.425   0.141   0.559  0.8056 -1.4504 -0.7337
  166MPD2    N1 2593   1.283   4.541   1.007 -0.2250  0.0165 -0.2412
  166MPD2    H7 2594   1.203   4.486   1.033  0.1796 -0.8890 -0.9107
  167TMC2    C1 2595   4.026   2.351  12.758 -0.5412  0.4806 -0.0736
  167TMC2    C2 2596   3.961   2.395  12.866  0.4300  0.0359  0.0443
  167TMC2    C3 2597   3.975   2.327  12.986 -0.0078  0.7787  0.1170
  167TMC2    C4 2598   4.109   2.245  12.758 -0.4548 -0.3764 -0.9010
  167TMC2    C5 2599   4.120   2.179  12.880  0.7848 -0.6771 -0.0681
  167TMC2    C6 2600   4.048   2.209  12.988 -0.0988 -0.4598  0.2655
  167TMC2     C 2601   4.024   2.441  12.646  0.7199 -0.2734  0.0871
  167TMC2     O 2602   3.957   2.539  12.651 -0.1467 -0.1034 -0.3578
  167TMC2     H 2603   3.890   2.477  12.857 -1.5341 -1.6735 -0.1096
  167TMC2    H1 2604   4.150   2.204  12.666  2.3135  1.9696 -0.7389
  167TMC2    H2 2605   4.065   2.155  13.080  2.1849  0.7299  0.5304
  167TMC2    C7 2606   4.188   2.049  12.883  0.0904 -0.3743 -0.5029
  167TMC2    C8 2607   3.944   2.401  13.105 -0.0254  0.4834 -0.6461
  167TMC2    O1 2608   4.155   1.959  12.959 -0.0139 -0.2424  0.3061
  167TMC2    O2 2609   3.966   2.521  13.127  0.2349 -0.0136 -1.4206
  167TMC2    O5 2610   3.929   2.306  13.202  0.2845  0.3345  0.2372
  167TMC2    H5 2611   3.877   2.230  13.170  0.5395 -1.0941  3.1704
  168MPD2     C 2612   4.063   2.554  12.374 -0.2977 -0.4220  0.1663
  168MPD2    C1 2613   4.157   2.474  12.439  0.1359  0.7141  0.3526
  168MPD2    C2 2614   4.268   2.434  12.374 -1.1589 -0.1408 -0.4443
  168MPD2    C3 2615   4.296   2.476  12.246 -0.2106 -0.5499 -0.2920
  168MPD2    C4 2616   4.205   2.560  12.183 -0.4938 -0.5670 -0.4317
  168MPD2    C5 2617   4.089   2.601  12.243  0.3490  1.0088 -0.0987
  168MPD2     H 2618   4.339   2.367  12.422 -1.0582  1.4997  1.6895
  168MPD2    H1 2619   4.219   2.581  12.077 -0.8756 -0.9417 -0.5558
  168MPD2    H2 2620   3.968   2.582  12.419 -1.4994  0.7101 -3.0234
  168MPD2    H3 2621   4.006   2.649  12.193 -3.3631 -2.3514  2.8749
  168MPD2     N 2622   4.405   2.435  12.170  0.4850 -0.3002 -0.2890
  168MPD2    H5 2623   4.405   2.464  12.072 -3.1447 -0.3144 -0.3088
  168MPD2    N1 2624   4.139   2.422  12.569  0.5233 -0.2840  0.4508
  168MPD2    H7 2625   4.219   2.375  12.611  1.5468  1.2485  0.1991
  169MPD1     C 2626   1.728   3.264   9.671  0.4028  0.2226  0.7168
  169MPD1    C1 2627   1.657   3.143   9.658  0.2259 -0.2588 -0.0510
  169MPD1    C2 2628   1.708   3.035   9.732 -0.5284  0.9902 -0.2407
  169MPD1    C3 2629   1.825   3.043   9.805  0.4238 -0.0872  0.6734
  169MPD1    C4 2630   1.894   3.164   9.817  0.2240  0.3140  0.3958
  169MPD1    C5 2631   1.841   3.269   9.748 -0.2485  0.4984 -0.3027
  169MPD1     H 2632   1.653   2.942   9.732  0.4930  0.3893  0.9642
  169MPD1    H1 2633   1.985   3.177   9.875  1.4177  2.2615 -1.9322
  169MPD1    H2 2634   1.700   3.353   9.615  0.0072 -1.1493 -1.2858
  169MPD1    H3 2635   1.892   3.365   9.751  0.8657 -0.1018  0.2787
  169MPD1     N 2636   1.873   2.926   9.868 -0.0800  0.0778  0.5856
  169MPD1    H5 2637   1.821   2.839   9.869 -0.2232  0.1599 -0.1262
  169MPD1    N1 2638   1.533   3.128   9.592  0.1852 -0.5226 -0.1046
  169MPD1    H6 2639   1.508   3.199   9.523  0.1054 -1.1952 -0.7596
  169MPD1    H7 2640   1.499   3.037   9.565  1.9045 -1.2335  0.1186
  170MPD1     C 2641   1.052   4.615  12.738  0.1547  0.4580  0.0862
  170MPD1    C1 2642   0.976   4.731  12.736  0.3386  0.3621  0.4382
  170MPD1    C2 2643   0.940   0.041  12.854 -0.1498 -0.8478  0.4341
  170MPD1    C3 2644   0.977   4.720  12.977 -0.0622  0.0895 -0.2115
  170MPD1    C4 2645   1.046   4.608  12.979  0.2334 -0.1102 -0.3364
  170MPD1    C5 2646   1.087   4.559  12.860 -0.4248  0.1937 -0.3393
  170MPD1     H 2647   0.880   0.131  12.857  0.5013 -0.2181 -4.7765
  170MPD1    H1 2648   1.074   4.553  13.068 -0.6369  2.4225  1.4957
  170MPD1    H2 2649   1.078   4.551  12.655  1.4546 -0.4595  1.1906
  170MPD1    H3 2650   1.155   4.474  12.864  0.3626  0.9396  2.1680
  170MPD1     N 2651   0.928   0.033  13.099  0.3742  0.5221  0.2825
  170MPD1    H5 2652   0.845   0.091  13.090  1.5648  2.1239 -0.5105
  170MPD1    N1 2653   0.953   0.068  12.621 -0.4084 -0.0413 -0.3112
  170MPD1    H6 2654   0.936   0.012  12.537  1.6021  1.8679 -1.9705
  170MPD1    H7 2655   0.881   0.137  12.641  0.1731  0.2343  0.8240
  171MPD1     C 2656   3.761   1.447  15.837 -0.0222  0.3625 -0.0165
  171MPD1    C1 2657   3.708   1.326  15.875  0.1323 -0.2745  0.1557
  171MPD1    C2 2658   3.795   1.246  15.948  0.4266  0.0116  0.0652
  171MPD1    C3 2659   3.936   1.280  15.952 -0.2629 -0.4799 -0.5613
  171MPD1    C4 2660   3.980   1.394  15.893 -0.3719  0.0841  0.1679
  171MPD1    C5 2661   3.892   1.476  15.838 -0.5012  1.1711  0.1089
  171MPD1     H 2662   3.764   1.152  15.993  1.0394 -0.6724 -0.9235
  171MPD1    H1 2663   4.086   1.418  15.882 -0.6364  1.6751  1.0574
  171MPD1    H2 2664   3.697   1.523  15.795  0.2366  1.0391  0.8302
  171MPD1    H3 2665   3.927   1.572  15.800  1.1463  0.7607  0.6003
  171MPD1     N 2666   4.039   1.197  16.002 -0.0832 -0.5065 -0.1552
  171MPD1    H5 2667   4.136   1.228  15.993 -0.2867  0.2325  0.2337
  171MPD1    N1 2668   3.568   1.305  15.890  0.4171 -0.2386  0.1594
  171MPD1    H6 2669   3.530   1.212  15.874  0.6809 -0.2553 -0.3695
  171MPD1    H7 2670   3.520   1.366  15.824  0.1272 -0.1928  0.4127
  172MPD1     C 2671   3.265   4.546   0.431 -0.9094 -0.4869  0.3920
  172MPD1    C1 2672   3.331   4.601   0.321  0.2919 -0.9403  0.2931
  172MPD1    C2 2673   3.427   4.698   0.345  0.8830  0.1139 -0.0987
  172MPD1    C3 2674   3.438   0.019   0.471 -0.3874 -0.7020  0.0849
  172MPD1    C4 2675   3.368   4.703   0.575  0.7471 -0.3667  0.1927
  172MPD1    C5 2676   3.276   4.593   0.555  0.4169 -0.0744  0.0370
  172MPD1     H 2677   3.486   0.003   0.267 -1.3394 -0.7435 -2.3209
  172MPD1    H1 2678   3.388   4.736   0.676  0.9602  0.2346 -0.0495
  172MPD1    H2 2679   3.208   4.456   0.411  1.3553 -1.5286 -1.3714
  172MPD1    H3 2680   3.230   4.555   0.646  0.5878 -2.9718 -1.1041
  172MPD1     N 2681   3.531   0.127   0.493  0.0373  0.3096 -0.5839
  172MPD1    H5 2682   3.543   0.156   0.590  0.3163 -0.0416 -0.5149
  172MPD1    N1 2683   3.316   4.540   0.191 -0.2755  0.1247  0.1737
  172MPD1    H6 2684   3.222   4.509   0.170 -0.6088  0.5441  1.0505
  172MPD1    H7 2685   3.342   4.613   0.124 -1.7408 -0.6217 -1.2087
  173MPD1     C 2686   4.296   0.250  14.162 -0.1726 -0.1739 -0.4360
  173MPD1    C1 2687   4.423   0.304  14.152  0.8745  0.9074  0.1450
  173MPD1    C2 2688   4.522   0.259  14.240  0.1043  0.2175 -0.1475
  173MPD1    C3 2689   4.505   0.164  14.329 -0.4867 -0.4309  0.5777
  173MPD1    C4 2690   4.384   0.103  14.323 -0.0145  0.8481  0.3103
  173MPD1    C5 2691   4.279   0.149  14.248 -0.5352 -0.7945  0.4591
  173MPD1     H 2692   4.612   0.318  14.255 -0.3003  1.2392 -1.8238
  173MPD1    H1 2693   4.365   0.008  14.371  0.4718  0.0192 -1.1451
  173MPD1    H2 2694   4.218   0.276  14.092 -0.3367 -1.4581 -0.7288
  173MPD1    H3 2695   4.188   0.090  14.249 -0.6553 -0.6136  0.1347
  173MPD1     N 2696   4.608   0.127  14.419  0.4533  0.2297  0.0741
  173MPD1    H5 2697   4.694   0.181  14.413 -0.2051  1.3983  1.0784
  173MPD1    N1 2698   4.438   0.407  14.058  0.1598 -0.0767  0.2537
  173MPD1    H6 2699   4.530   0.424  14.019 -0.1692  0.3344 -0.3576
  173MPD1    H7 2700   4.371   0.404  13.980  0.8492  0.1522 -0.3451
  174MPD1     C 2701   0.623   4.710  14.098  0.4548 -0.9332 -0.2359
  174MPD1    C1 2702   0.665   4.714  14.230  0.6881  0.0322  0.1036
  174MPD1    C2 2703   0.566   4.724  14.331 -0.1785 -0.4776 -0.3465
  174MPD1    C3 2704   0.432   4.739  14.295 -0.0044  0.4350 -0.2723
  174MPD1    C4 2705   0.396   0.000  14.158 -0.0125  0.7320  0.8075
  174MPD1    C5 2706   0.491   4.728  14.065  0.0530  0.0859  0.2941
  174MPD1     H 2707   0.602   4.733  14.433  1.2909  2.8059 -1.1326
  174MPD1    H1 2708   0.298   0.025  14.120  0.4171  0.4026 -0.5356
  174MPD1    H2 2709   0.689   4.691  14.014  0.7963 -3.3792  0.5679
  174MPD1    H3 2710   0.463   4.736  13.961 -1.9764 -1.9739  0.6699
  174MPD1     N 2711   0.327   0.010  14.391  0.8418 -0.5805  0.2711
  174MPD1    H5 2712   0.236   4.730  14.350  0.1083  1.7831  0.6951
  174MPD1    N1 2713   0.797   4.680  14.250  0.0403 -0.1688 -0.5348
  174MPD1    H6 2714   0.814   4.584  14.222  1.2480 -0.6221  1.7973
  174MPD1    H7 2715   0.830   4.697  14.345 -1.2774 -0.0259 -0.1091
  175MPD1     C 2716   3.584   0.999  15.667 -0.1714  0.1127 -0.1342
  175MPD1    C1 2717   3.455   0.972  15.704  0.7774 -0.0516 -0.1052
  175MPD1    C2 2718   3.414   0.947  15.836  0.1271  0.3004  0.3926
  175MPD1    C3 2719   3.514   0.929  15.929 -0.0694 -0.3973  0.0532
  175MPD1    C4 2720   3.645   0.940  15.891 -0.7068  0.3502 -0.1787
  175MPD1    C5 2721   3.679   0.973  15.766  0.4267  0.5398  0.0914
  175MPD1     H 2722   3.309   0.947  15.866 -0.3632  1.0511 -1.3433
  175MPD1    H1 2723   3.727   0.926  15.960 -0.7174 -2.9722 -0.8372
  175MPD1    H2 2724   3.618   1.012  15.565  1.3095  0.8030  0.4428
  175MPD1    H3 2725   3.785   0.981  15.744  0.7150  0.0506  1.3344
  175MPD1     N 2726   3.485   0.902  16.068  0.4048 -0.5012 -0.3544
  175MPD1    H5 2727   3.570   0.902  16.124 -0.0831 -0.1077  0.3824
  175MPD1    N1 2728   3.363   1.006  15.600  0.6447  0.0366 -0.8591
  175MPD1    H6 2729   3.281   0.946  15.603  0.7165 -0.0160 -0.0886
  175MPD1    H7 2730   3.404   0.995  15.507  0.0674  0.0687 -1.1207
  176MPD1     C 2731   0.627   2.908  16.941 -0.0813  0.3418  0.9263
  176MPD1    C1 2732   0.660   3.039  16.916 -0.1880  0.5029 -0.1099
  176MPD1    C2 2733   0.620   3.135  17.010 -0.3948  0.2375  0.4656
  176MPD1    C3 2734   0.566   3.094  17.133  0.9801 -0.1639 -0.7561
  176MPD1    C4 2735   0.564   2.955  17.161 -0.6607  0.2166  0.8137
  176MPD1    C5 2736   0.582   2.871  17.060 -0.7395  0.6730 -0.7800
  176MPD1     H 2737   0.642   3.241  17.006 -2.9120  0.7809  1.0854
  176MPD1    H1 2738   0.531   2.905  17.252 -1.2840  0.3279  0.6432
  176MPD1    H2 2739   0.644   2.829  16.869  1.4222  0.8288  0.7554
  176MPD1    H3 2740   0.551   2.769  17.080  5.1696 -0.6472  1.5160
  176MPD1     N 2741   0.523   3.186  17.229  0.5739 -0.9103 -0.0848
  176MPD1    H5 2742   0.529   3.282  17.198  0.5830 -1.0732 -0.5829
  176MPD1    N1 2743   0.699   3.079  16.787 -0.7687 -0.3052  0.1299
  176MPD1    H6 2744   0.759   3.005  16.751 -1.1912 -1.3782  1.6467
  176MPD1    H7 2745   0.752   3.164  16.800 -0.9071 -0.3498  1.0241
  177MPD1     C 2746   3.318   4.022  10.587  0.4908 -0.6621 -0.2138
  177MPD1    C1 2747   3.260   4.117  10.503 -0.3158 -0.4095 -0.9330
  177MPD1    C2 2748   3.216   4.076  10.380 -0.0398  0.1881 -0.7777
  177MPD1    C3 2749   3.220   3.945  10.341 -0.2296 -0.4165  0.1707
  177MPD1    C4 2750   3.285   3.853  10.416  0.9917 -0.2308  0.2690
  177MPD1    C5 2751   3.336   3.895  10.535 -0.8659  0.1355 -0.3093
  177MPD1     H 2752   3.172   4.156  10.322  1.7534  0.8043 -1.2857
  177MPD1    H1 2753   3.292   3.750  10.380  0.6016 -0.0050 -0.4440
  177MPD1    H2 2754   3.378   4.046  10.674  0.1868  0.2018 -0.2390
  177MPD1    H3 2755   3.389   3.818  10.589 -0.6894 -0.5010 -1.4020
  177MPD1     N 2756   3.162   3.917  10.214 -0.0580  0.9063 -0.0470
  177MPD1    H5 2757   3.102   3.985  10.168 -1.0031  0.4823  0.5577
  177MPD1    N1 2758   3.264   4.254  10.544  1.0563 -0.1340  0.1920
  177MPD1    H6 2759   3.173   4.296  10.526 -0.3408 -1.5971  3.7973
  177MPD1    H7 2760   3.283   4.272  10.642  1.8904 -0.7602  0.1449
  178MPD1     C 2761   0.914   3.808   0.052 -0.2401 -0.4238  0.0888
  178MPD1    C1 2762   0.940   3.920  17.738  0.7369  0.0949  0.7630
  178MPD1    C2 2763   1.072   3.953  17.696  0.5295 -0.1782 -0.6406
  178MPD1    C3 2764   1.180   3.875  17.736 -0.1302 -0.3857  0.4746
  178MPD1    C4 2765   1.157   3.760   0.037  0.0210 -0.0369  0.0739
  178MPD1    C5 2766   1.026   3.729   0.083  0.1776 -0.3739 -0.4762
  178MPD1     H 2767   1.079   4.039  17.631 -0.7328 -0.6715 -1.4357
  178MPD1    H1 2768   1.240   3.692   0.051 -0.0341 -0.1723 -0.2492
  178MPD1    H2 2769   0.812   3.779   0.073 -0.4983  0.1096 -0.4317
  178MPD1    H3 2770   1.010   3.634   0.134 -0.9185 -1.2627 -2.4715
  178MPD1     N 2771   1.320   3.903  17.705  0.2378 -0.1954  0.2267
  178MPD1    H5 2772   1.381   3.831  17.744 -0.2378 -0.5882  0.2530
  178MPD1    N1 2773   0.823   3.990  17.693 -0.0712  0.1255  0.5248
  178MPD1    H6 2774   0.827   4.075  17.636  0.7866  0.9299  1.7888
  178MPD1    H7 2775   0.737   3.961  17.740  0.5882 -3.8918 -0.7986
  179MPD1     C 2776   0.282   2.951  15.577 -0.4926  0.5489  0.8956
  179MPD1    C1 2777   0.293   2.890  15.458 -0.7738  0.6091  0.8304
  179MPD1    C2 2778   0.310   2.749  15.457 -0.5181 -0.4079 -0.5108
  179MPD1    C3 2779   0.327   2.674  15.572 -0.1893  0.2430 -0.6545
  179MPD1    C4 2780   0.328   2.743  15.693 -0.3906 -0.2218  0.1674
  179MPD1    C5 2781   0.311   2.879  15.690  0.0128 -1.0866 -0.1303
  179MPD1     H 2782   0.319   2.701  15.360  0.6756 -1.3633  0.0795
  179MPD1    H1 2783   0.348   2.693  15.786  0.1711  0.2047  0.2758
  179MPD1    H2 2784   0.264   3.056  15.598  0.8942  0.8330  0.6453
  179MPD1    H3 2785   0.327   2.936  15.782 -0.7358 -2.6857  0.9888
  179MPD1     N 2786   0.346   2.533  15.563 -0.8107 -0.0159 -0.2307
  179MPD1    H5 2787   0.365   2.490  15.653 -0.0285 -0.4786 -0.6153
  179MPD1    N1 2788   0.265   2.963  15.340 -0.1291  0.4224 -0.1115
  179MPD1    H6 2789   0.288   3.063  15.342 -2.7697  1.0164  0.4479
  179MPD1    H7 2790   0.316   2.933  15.257  0.9772 -0.8558  1.0419
  180MPD1     C 2791   0.933   3.768  15.411 -0.8093 -0.9398  0.4909
  180MPD1    C1 2792   0.966   3.760  15.280  0.3929  0.2221  0.2142
  180MPD1    C2 2793   0.861   3.748  15.191  0.2016  0.0677 -0.5200
  180MPD1    C3 2794   0.732   3.723  15.240  0.2231 -0.6790  0.7201
  180MPD1    C4 2795   0.707   3.727  15.377  0.6236 -0.4848 -0.0506
  180MPD1    C5 2796   0.807   3.750  15.464 -0.1526  0.8509  0.4526
  180MPD1     H 2797   0.879   3.743  15.084  3.1093  0.0856 -0.0457
  180MPD1    H1 2798   0.611   3.701  15.419 -1.0500  0.5675 -3.2094
  180MPD1    H2 2799   1.003   3.809  15.483 -0.2992  0.1573 -0.6434
  180MPD1    H3 2800   0.788   3.754  15.570 -0.5787 -0.5015  0.4307
  180MPD1     N 2801   0.636   3.700  15.140  0.2739 -0.9089  0.1014
  180MPD1    H5 2802   0.673   3.701  15.046 -0.8545 -3.8490 -0.3737
  180MPD1    N1 2803   1.095   3.810  15.246  0.0547 -0.2800  0.6832
  180MPD1    H6 2804   1.126   3.774  15.156 -0.3842  1.9518 -0.3440
  180MPD1    H7 2805   1.171   3.792  15.311  1.1864  0.7429 -0.3613
  181MPD1     C 2806   1.688   0.681  10.341  0.3579 -0.1338  0.0805
  181MPD1    C1 2807   1.676   0.819  10.327  0.2558  0.1875  0.5166
  181MPD1    C2 2808   1.787   0.897  10.338 -0.5591 -0.5307 -0.2567
  181MPD1    C3 2809   1.904   0.837  10.388 -0.3912  0.2628  0.3535
  181MPD1    C4 2810   1.910   0.701  10.411 -0.6306  0.0690  0.2804
  181MPD1    C5 2811   1.804   0.626  10.378  0.0341 -0.1353  0.4443
  181MPD1     H 2812   1.785   1.004  10.321 -0.9172 -0.5291 -0.2109
  181MPD1    H1 2813   1.999   0.661  10.459  0.0942 -0.1198 -1.2251
  181MPD1    H2 2814   1.609   0.609  10.326  0.3654  0.0520 -0.8247
  181MPD1    H3 2815   1.812   0.520  10.401 -1.3564 -0.6428 -1.4362
  181MPD1     N 2816   2.011   0.914  10.430  0.5196 -0.4324  0.2890
  181MPD1    H5 2817   2.096   0.866  10.458  0.5738 -1.4340 -1.5299
  181MPD1    N1 2818   1.551   0.872  10.295 -0.3423  0.3198  0.3889
  181MPD1    H6 2819   1.473   0.834  10.347 -0.4018  1.2281  0.9631
  181MPD1    H7 2820   1.552   0.972  10.317  0.0751  0.4183 -0.0830
  182MPD1     C 2821   2.017   3.636   1.818  0.1669  0.3242  0.3708
  182MPD1    C1 2822   1.912   3.680   1.737 -0.1239  0.2934 -0.3107
  182MPD1    C2 2823   1.936   3.710   1.608  0.3444 -0.4394  0.0143
  182MPD1    C3 2824   2.065   3.706   1.557 -0.4513 -0.2529  0.3338
  182MPD1    C4 2825   2.167   3.670   1.637 -0.0539 -0.1471  0.2546
  182MPD1    C5 2826   2.140   3.638   1.771 -1.1129  0.8928 -0.0613
  182MPD1     H 2827   1.851   3.753   1.557  1.0576 -0.0577 -0.8726
  182MPD1    H1 2828   2.270   3.680   1.604  0.5408 -1.6901  1.6427
  182MPD1    H2 2829   2.005   3.603   1.920  1.5566 -2.0341 -0.2450
  182MPD1    H3 2830   2.225   3.624   1.837 -0.5518 -0.7943 -1.1107
  182MPD1     N 2831   2.099   3.776   1.440 -0.3438 -0.2061 -0.1952
  182MPD1    H5 2832   2.194   3.782   1.404 -0.4178 -1.7891 -0.6632
  182MPD1    N1 2833   1.783   3.672   1.787  0.4751  0.1353 -0.5315
  182MPD1    H6 2834   1.714   3.733   1.744 -1.3781 -0.6186  1.4173
  182MPD1    H7 2835   1.788   3.688   1.887 -0.0642  0.7399 -0.6067
  183MPD1     C 2836   4.217   0.015  10.542 -0.3430  0.0962 -0.0947
  183MPD1    C1 2837   4.083   0.027  10.520  0.2958 -0.3761  1.3722
  183MPD1    C2 2838   4.027   0.094  10.415 -0.3336 -0.4257  0.4013
  183MPD1    C3 2839   4.110   0.147  10.324  0.1106  0.3924  0.5679
  183MPD1    C4 2840   4.246   0.134  10.339  0.0090 -0.0271 -0.2485
  183MPD1    C5 2841   4.299   0.067  10.447 -0.0865 -0.1655 -0.6298
  183MPD1     H 2842   3.919   0.085  10.421 -0.2425 -0.9597  1.2962
  183MPD1    H1 2843   4.317   0.165  10.263  0.4547 -0.4575 -0.0043
  183MPD1    H2 2844   4.271   4.699  10.617 -4.6111  1.2799  3.8345
  183MPD1    H3 2845   4.404   0.043  10.454 -0.5418 -1.3891  1.6880
  183MPD1     N 2846   4.049   0.216  10.213 -0.5832  0.0477 -0.4945
  183MPD1    H5 2847   3.948   0.223  10.212 -0.5913 -0.1884 -1.8705
  183MPD1    N1 2848   3.996   4.731  10.626 -0.6836 -0.0109 -0.7702
  183MPD1    H6 2849   3.899   4.712  10.600 -0.7391 -0.0475 -0.5408
  183MPD1    H7 2850   4.032   4.661  10.690 -3.5535 -0.0109  0.8183
  184MPD1     C 2851   2.046   2.358   9.730  0.3221 -0.3670  0.1233
  184MPD1    C1 2852   2.172   2.419   9.764 -0.5493  0.2134  0.4473
  184MPD1    C2 2853   2.182   2.545   9.722 -0.3956 -0.5932 -0.0086
  184MPD1    C3 2854   2.078   2.620   9.667 -0.3503 -0.2293  0.1521
  184MPD1    C4 2855   1.956   2.559   9.639 -0.0976 -0.1131 -0.5409
  184MPD1    C5 2856   1.941   2.430   9.669  0.1469 -0.6800 -0.4958
  184MPD1     H 2857   2.273   2.603   9.729 -0.5785 -0.2083 -0.7499
  184MPD1    H1 2858   1.871   2.610   9.595 -0.6062 -0.1974  0.3513
  184MPD1    H2 2859   2.023   2.254   9.747 -1.5797 -0.3382 -2.2688
  184MPD1    H3 2860   1.858   2.364   9.650 -0.2182  0.1164 -1.6249
  184MPD1     N 2861   2.091   2.750   9.610  0.0600 -0.3065  0.2662
  184MPD1    H5 2862   2.014   2.790   9.557  0.8922 -1.0832 -1.5353
  184MPD1    N1 2863   2.277   2.350   9.807  0.1939 -0.1415  0.0777
  184MPD1    H6 2864   2.346   2.418   9.842  0.0777  0.4171 -0.7864
  184MPD1    H7 2865   2.244   2.280   9.873  2.9896 -0.3798  1.2554
  185MPD1     C 2866   1.541   3.075   9.019 -0.0685  0.1182 -0.3075
  185MPD1    C1 2867   1.564   3.186   9.101  0.2120 -0.3652 -0.6117
  185MPD1    C2 2868   1.658   3.179   9.201 -0.1294  0.0114  0.8364
  185MPD1    C3 2869   1.733   3.064   9.233 -0.1220  0.2388  0.4170
  185MPD1    C4 2870   1.701   2.950   9.153 -0.0504  0.0776  0.7627
  185MPD1    C5 2871   1.611   2.960   9.049  0.0848  0.3072 -0.1689
  185MPD1     H 2872   1.672   3.271   9.257  0.5961  1.5096 -1.8243
  185MPD1    H1 2873   1.745   2.856   9.183 -0.6289 -0.7823 -1.1059
  185MPD1    H2 2874   1.463   3.078   8.945  0.0041  2.4086 -0.2790
  185MPD1    H3 2875   1.586   2.877   8.984 -0.3980  1.1851 -1.1071
  185MPD1     N 2876   1.840   3.043   9.325 -0.6608 -0.0035 -0.0027
  185MPD1    H5 2877   1.882   2.950   9.326  0.0684  0.2947 -1.9734
  185MPD1    N1 2878   1.490   3.300   9.085 -0.2278  0.0853  0.0138
  185MPD1    H6 2879   1.475   3.318   8.986 -0.9140  1.1217  0.3045
  185MPD1    H7 2880   1.524   3.385   9.130  0.7221  0.4018 -1.2949
  186MPD1     C 2881   0.716   3.114  15.999  0.4077 -0.3573 -0.5026
  186MPD1    C1 2882   0.715   3.098  16.137 -0.0289  0.2429 -0.6289
  186MPD1    C2 2883   0.733   2.974  16.185  0.2629  0.6472 -0.2156
  186MPD1    C3 2884   0.780   2.864  16.110  0.5705  0.0546 -0.4549
  186MPD1    C4 2885   0.785   2.888  15.969  0.3899  0.2486 -0.3792
  186MPD1    C5 2886   0.757   3.011  15.921 -0.7159 -0.0655 -0.4944
  186MPD1     H 2887   0.698   2.951  16.286  0.5310  0.6002 -0.1319
  186MPD1    H1 2888   0.825   2.812  15.902 -1.5019  0.3153 -1.5876
  186MPD1    H2 2889   0.677   3.197  15.941  0.5669  1.5443  2.1059
  186MPD1    H3 2890   0.763   3.024  15.813 -2.0844  0.1864 -0.5387
  186MPD1     N 2891   0.838   2.737  16.158  0.1387 -0.3830 -0.4355
  186MPD1    H5 2892   0.880   2.672  16.092 -1.1746  0.7240 -2.3616
  186MPD1    N1 2893   0.641   3.197  16.213  0.4047 -1.3349  0.0168
  186MPD1    H6 2894   0.684   3.214  16.304  0.2555  1.6460 -0.4626
  186MPD1    H7 2895   0.631   3.286  16.164 -2.0032 -0.9483  1.2115
  187MPD1     C 2896   0.509   3.503  16.784  0.3782  0.0168  0.2159
  187MPD1    C1 2897   0.593   3.596  16.825  0.3616 -0.2403 -0.1653
  187MPD1    C2 2898   0.553   3.696  16.910 -0.4206 -0.1000 -0.2801
  187MPD1    C3 2899   0.421   3.724  16.927  0.2343  0.3488 -0.7306
  187MPD1    C4 2900   0.326   3.637  16.873 -0.9901 -0.1089 -0.3200
  187MPD1    C5 2901   0.373   3.532  16.793  0.0082  0.3081 -0.0879
  187MPD1     H 2902   0.620   3.763  16.963  0.0118 -1.4051  0.8361
  187MPD1    H1 2903   0.218   3.649  16.884 -0.7615  0.5500  1.1988
  187MPD1    H2 2904   0.528   3.410  16.732 -1.2325 -0.3065  0.1969
  187MPD1    H3 2905   0.305   3.457  16.756 -2.1205  1.4463  1.4780
  187MPD1     N 2906   0.373   3.834  16.992  0.4126  1.1184  0.1824
  187MPD1    H5 2907   0.272   3.839  16.998  0.2309 -2.7758  0.2934
  187MPD1    N1 2908   0.730   3.562  16.820 -0.1207  0.2924 -0.0482
  187MPD1    H6 2909   0.761   3.510  16.738 -1.4881  0.3636 -0.6154
  187MPD1    H7 2910   0.796   3.640  16.821 -0.7785  0.8412  0.5473
  188MPD1     C 2911   4.406   4.023  10.120  0.2503  0.0132 -0.7279
  188MPD1    C1 2912   4.537   3.975  10.151 -0.2933  0.2441  0.0440
  188MPD1    C2 2913   4.581   3.847  10.107 -0.1185 -0.3538 -1.3043
  188MPD1    C3 2914   4.488   3.761  10.050  0.6390 -0.2611 -0.0592
  188MPD1    C4 2915   4.353   3.799  10.043 -0.0727  0.3408 -0.2141
  188MPD1    C5 2916   4.320   3.930  10.071  0.4684  0.1885  0.5198
  188MPD1     H 2917   4.686   3.823  10.103 -0.0207  0.0746 -1.3239
  188MPD1    H1 2918   4.274   3.735  10.005 -0.3164  0.0848  0.7385
  188MPD1    H2 2919   4.372   4.121  10.150  1.8444 -0.2203  1.8581
  188MPD1    H3 2920   4.219   3.961  10.052  0.2255 -0.5217  0.6455
  188MPD1     N 2921   4.522   3.640   9.993 -0.5380 -0.2890 -0.1705
  188MPD1    H5 2922   4.437   3.587   9.976 -1.2961  0.3998  1.5369
  188MPD1    N1 2923   4.633   4.071  10.202  0.0259  0.0080  0.1725
  188MPD1    H6 2924   4.593   4.136  10.269  0.0061 -0.0597  0.2267
  188MPD1    H7 2925   4.714   4.033  10.251  0.5409  2.2251  1.0488
  189MPD1     C 2926   2.092   0.588  17.599 -0.2936  0.0016 -0.0821
  189MPD1    C1 2927   2.002   0.489  17.592  0.0793  0.6747 -0.2241
  189MPD1    C2 2928   1.874   0.517  17.552 -0.0937  0.0036  0.1789
  189MPD1    C3 2929   1.840   0.646  17.518  0.1281 -0.0517 -0.0133
  189MPD1    C4 2930   1.933   0.751  17.534  0.0493  0.2367  0.4367
  189MPD1    C5 2931   2.057   0.720  17.586 -0.4511  0.1357  0.7238
  189MPD1     H 2932   1.801   0.439  17.535 -0.0537 -0.1229  0.6005
  189MPD1    H1 2933   1.911   0.855  17.512  1.0902  0.4616  0.4624
  189MPD1    H2 2934   2.197   0.569  17.619 -0.0272  0.7027 -0.8024
  189MPD1    H3 2935   2.122   0.803  17.609 -0.1613  0.0377  0.2548
  189MPD1     N 2936   1.701   0.671  17.481  0.2996  0.0023 -0.3295
  189MPD1    H5 2937   1.646   0.587  17.469 -1.5060  1.3219 -1.4407
  189MPD1    N1 2938   2.050   0.353  17.591 -0.6176  0.2941 -0.0437
  189MPD1    H6 2939   1.978   0.292  17.629 -0.7201  1.4923  1.7076
  189MPD1    H7 2940   2.135   0.335  17.645  0.7924  0.3689 -2.2401
  190MPD1     C 2941   0.254   3.263  14.940 -0.1482 -0.1548 -0.0363
  190MPD1    C1 2942   0.360   3.318  14.870  0.5569 -0.5321  0.3574
  190MPD1    C2 2943   0.478   3.346  14.941 -0.3036 -0.0894 -0.0689
  190MPD1    C3 2944   0.487   3.331  15.077 -0.6000 -0.3022  0.3221
  190MPD1    C4 2945   0.373   3.293  15.149  0.3927  0.2285 -0.4344
  190MPD1    C5 2946   0.262   3.260  15.075  0.0230  0.5073  0.8037
  190MPD1     H 2947   0.567   3.380  14.889  0.5261 -0.8822  0.8404
  190MPD1    H1 2948   0.371   3.279  15.257 -1.5280  0.6715 -0.4240
  190MPD1    H2 2949   0.173   3.218  14.885  0.4989  0.1512 -1.2362
  190MPD1    H3 2950   0.179   3.209  15.122 -0.4876 -1.2494 -1.9834
  190MPD1     N 2951   0.615   3.358  15.136 -0.5049 -0.4122 -0.4187
  190MPD1    H5 2952   0.693   3.389  15.080 -0.8764 -0.3113 -0.8754
  190MPD1    N1 2953   0.356   3.316  14.726  0.0941 -0.3479 -0.0342
  190MPD1    H6 2954   0.263   3.347  14.698 -0.0946 -0.8955 -0.0175
  190MPD1    H7 2955   0.422   3.386  14.693 -1.2186  0.5972 -0.6675
  191MPD1     C 2956   3.935   0.837  13.660  0.0569 -1.0226  0.1518
  191MPD1    C1 2957   3.852   0.932  13.610  0.0725  0.2458  0.3059
  191MPD1    C2 2958   3.855   0.968  13.475  0.1643 -0.0186 -0.3310
  191MPD1    C3 2959   3.936   0.900  13.383 -0.4921 -0.2493 -0.2717
  191MPD1    C4 2960   4.011   0.793  13.438 -0.1314  0.9738 -0.4273
  191MPD1    C5 2961   4.019   0.771  13.574 -0.6964 -0.8593  0.5172
  191MPD1     H 2962   3.776   1.030  13.435 -0.3772 -1.2037 -1.1014
  191MPD1    H1 2963   4.078   0.736  13.375  0.0981 -0.2354  0.9141
  191MPD1    H2 2964   3.948   0.795  13.759  0.4953  2.4498  1.5639
  191MPD1    H3 2965   4.083   0.691  13.611  0.9383  1.8556  3.6049
  191MPD1     N 2966   3.908   0.907  13.241 -0.3180  0.1213  0.1477
  191MPD1    H5 2967   3.833   0.970  13.215 -0.5732 -0.1289  0.2771
  191MPD1    N1 2968   3.747   0.967  13.692  0.7637  0.2771  0.3424
  191MPD1    H6 2969   3.698   1.053  13.666 -1.8201 -1.0978  0.6802
  191MPD1    H7 2970   3.756   0.964  13.794  0.9267  1.5012  0.3710
  192MPD1     C 2971   3.197   0.643  12.591  0.5245 -0.2674  0.7431
  192MPD1    C1 2972   3.199   0.702  12.716 -0.0122 -0.3441 -0.2519
  192MPD1    C2 2973   3.319   0.733  12.771  0.2742  0.2985  0.2869
  192MPD1    C3 2974   3.435   0.709  12.702  0.0139  0.7814  0.0431
  192MPD1    C4 2975   3.434   0.635  12.580  0.1712  0.0837 -0.2145
  192MPD1    C5 2976   3.312   0.610  12.528  0.8198  0.3435 -0.0680
  192MPD1     H 2977   3.320   0.789  12.863 -0.8163  1.5901 -0.4825
  192MPD1    H1 2978   3.528   0.615  12.529 -0.3451 -0.4133 -0.9755
  192MPD1    H2 2979   3.105   0.624  12.536  0.3687  1.6429  0.3615
  192MPD1    H3 2980   3.302   0.571  12.427 -0.2242  0.1959  0.0909
  192MPD1     N 2981   3.566   0.744  12.748 -0.1953  0.3112  0.2304
  192MPD1    H5 2982   3.644   0.710  12.692 -1.3233  2.5431 -2.7346
  192MPD1    N1 2983   3.077   0.745  12.771 -0.6350  0.5630 -0.5174
  192MPD1    H6 2984   3.102   0.772  12.866 -0.2158  2.1757 -1.1000
  192MPD1    H7 2985   3.019   0.662  12.785 -0.0851  0.2352 -0.1867
  193MPD1     C 2986   4.227   0.641  16.277 -0.5329  0.8816  0.0234
  193MPD1    C1 2987   4.176   0.763  16.326  0.3283  0.6804  0.2198
  193MPD1    C2 2988   4.265   0.860  16.368 -0.0197 -0.4247  0.3608
  193MPD1    C3 2989   4.406   0.848  16.342  0.1851  0.4757  0.9711
  193MPD1    C4 2990   4.451   0.724  16.298  0.8549 -0.0525 -0.3213
  193MPD1    C5 2991   4.363   0.626  16.271 -0.0945  0.0930 -0.1403
  193MPD1     H 2992   4.227   0.953  16.409  0.9335  0.3506 -0.4948
  193MPD1    H1 2993   4.557   0.705  16.288  0.7784 -1.1612  1.0019
  193MPD1    H2 2994   4.170   0.552  16.254  0.8748 -0.0303  0.0311
  193MPD1    H3 2995   4.407   0.530  16.244  0.1323  0.4199 -0.9368
  193MPD1     N 2996   4.497   0.960  16.353  0.1741 -0.7406 -0.0418
  193MPD1    H5 2997   4.597   0.939  16.357  0.7962  2.3737  1.0123
  193MPD1    N1 2998   4.037   0.774  16.354  0.7362  0.4652  0.4221
  193MPD1    H6 2999   3.977   0.729  16.286  4.5339 -3.9508 -0.0007
  193MPD1    H7 3000   4.012   0.870  16.375  0.2469  0.0257  1.9006
  194MPD1     C 3001   2.178   3.158  17.083  0.2228 -0.8901 -0.0693
  194MPD1    C1 3002   2.270   3.214  17.170 -0.1975 -0.1375  0.0260
  194MPD1    C2 3003   2.389   3.146  17.199  0.3337  0.0163 -0.5062
  194MPD1    C3 3004   2.404   3.017  17.160  0.2376 -0.0501  0.4662
  194MPD1    C4 3005   2.308   2.956  17.081 -0.1380 -0.5563 -0.2926
  194MPD1    C5 3006   2.207   3.035  17.035  0.2181 -0.0157  0.0181
  194MPD1     H 3007   2.461   3.188  17.269  0.3917  1.8886 -1.6836
  194MPD1    H1 3008   2.326   2.855  17.047  0.5813 -1.3018  2.2625
  194MPD1    H2 3009   2.100   3.213  17.031 -1.2663 -2.2411  0.7342
  194MPD1    H3 3010   2.137   2.986  16.970  0.4461 -1.0731  0.5709
  194MPD1     N 3011   2.504   2.929  17.203 -0.0620  0.5230 -0.4990
  194MPD1    H5 3012   2.485   2.835  17.172 -0.9582  0.5927 -0.1696
  194MPD1    N1 3013   2.259   3.356  17.194  0.5217 -0.5602  0.2523
  194MPD1    H6 3014   2.301   3.382  17.284  0.3529  0.6846 -0.0230
  194MPD1    H7 3015   2.162   3.384  17.205  1.1417  2.0318 -0.6462
  195MPD1     C 3016   4.530   0.287  17.413  1.2488  0.8120  0.0314
  195MPD1    C1 3017   4.444   0.226  17.502 -0.1693 -0.0596  0.1111
  195MPD1    C2 3018   4.474   0.100  17.543  0.6002 -0.3916  0.1346
  195MPD1    C3 3019   4.609   0.050  17.537  0.5645 -0.3575  0.6538
  195MPD1    C4 3020   4.698   0.120  17.459  0.6693  0.8008  0.0784
  195MPD1    C5 3021   4.656   0.238  17.401 -0.4792  0.0392  0.6117
  195MPD1     H 3022   4.395   0.033  17.573  0.0082 -0.1234 -0.8267
  195MPD1    H1 3023   0.059   0.085  17.447 -0.4032 -1.4020 -2.4487
  195MPD1    H2 3024   4.514   0.383  17.366 -1.0520  0.3261 -0.1686
  195MPD1    H3 3025   4.722   0.300  17.342 -1.2639  0.8289  0.5581
  195MPD1     N 3026   4.649   4.667  17.590 -0.1157  0.3450 -0.4930
  195MPD1    H5 3027   4.737   4.629  17.557  0.1186 -0.3936  0.9730
  195MPD1    N1 3028   4.310   0.269  17.502 -0.3388  0.0142  0.4469
  195MPD1    H6 3029   4.261   0.249  17.589 -1.5083  0.0126 -0.2059
  195MPD1    H7 3030   4.305   0.370  17.487  1.8803  0.2052  0.9268
  196MPD1     C 3031   3.509   3.646  17.306  0.4551 -0.8997  0.8855
  196MPD1    C1 3032   3.480   3.769  17.352  0.3411 -0.6226  0.9385
  196MPD1    C2 3033   3.504   3.803  17.488  0.4038  0.4810  0.5387
  196MPD1    C3 3034   3.548   3.700  17.577 -0.2481  0.4523 -0.0045
  196MPD1    C4 3035   3.559   3.573  17.529  0.7599  0.2201  0.0851
  196MPD1    C5 3036   3.553   3.550  17.392  0.7642  0.4451  0.2426
  196MPD1     H 3037   3.479   3.902  17.523 -0.1937  0.1140  1.1638
  196MPD1    H1 3038   3.569   3.481  17.586 -0.1933  0.1622  0.1505
  196MPD1    H2 3039   3.494   3.623  17.201  1.3728 -0.0375  0.5646
  196MPD1    H3 3040   3.559   3.448  17.357 -1.1284  0.7265 -0.8824
  196MPD1     N 3041   3.564   3.728  17.716  0.4758  0.4220  0.2283
  196MPD1    H5 3042   3.576   3.642   0.007 -2.2544  0.5689  1.0803
  196MPD1    N1 3043   3.462   3.867  17.258  0.7007 -0.0954  0.6068
  196MPD1    H6 3044   3.400   3.937  17.298  1.7875  1.2995 -0.1751
  196MPD1    H7 3045   3.417   3.831  17.175  0.9178  0.6844  0.1541
  197MPD1     C 3046   3.185   0.797  17.624  0.3540  0.5055  0.4624
  197MPD1    C1 3047   3.248   0.885  17.711  1.0531 -1.0459 -0.4558
  197MPD1    C2 3048   3.295   0.999  17.654  0.1268  0.0844 -0.0319
  197MPD1    C3 3049   3.275   1.035  17.520  0.5167 -0.4554  0.2680
  197MPD1    C4 3050   3.209   0.943  17.436  0.4074 -0.0811 -0.0098
  197MPD1    C5 3051   3.167   0.831  17.493  0.2344  0.1034 -0.1335
  197MPD1     H 3052   3.332   1.080  17.716 -2.5427  0.0973  1.5363
  197MPD1    H1 3053   3.196   0.960  17.330  1.4116  0.2424 -0.0785
  197MPD1    H2 3054   3.153   0.701  17.663 -2.3348  0.7512 -1.1295
  197MPD1    H3 3055   3.120   0.762  17.423 -0.3701 -2.2607  2.6116
  197MPD1     N 3056   3.338   1.135  17.448  0.0448  0.8538  0.4144
  197MPD1    H5 3057   3.327   1.132  17.347  0.5967 -2.9923  0.4609
  197MPD1    N1 3058   3.247   0.862   0.088  0.2195 -0.1518 -0.3304
  197MPD1    H6 3059   3.342   0.891   0.110 -0.0763 -0.2668  1.1069
  197MPD1    H7 3060   3.233   0.767   0.122 -0.4233 -0.2632 -0.9118
  198MPD1     C 3061   0.005   0.663  15.889 -0.0477  0.2580  0.3762
  198MPD1    C1 3062   0.076   0.598  15.990  0.0831  0.7388  0.1575
  198MPD1    C2 3063   0.152   0.483  15.953 -0.0398 -0.6389 -0.2382
  198MPD1    C3 3064   0.148   0.428  15.827  0.0204 -0.0776  1.1769
  198MPD1    C4 3065   0.066   0.496  15.741  0.1205 -0.4534  0.6831
  198MPD1    C5 3066   0.002   0.613  15.769 -0.2358  0.2524  0.2877
  198MPD1     H 3067   0.219   0.432  16.021 -2.7893  0.1473  3.0378
  198MPD1    H1 3068   0.045   0.457  15.642 -0.4344  0.7698  0.3101
  198MPD1    H2 3069   4.688   0.753  15.906 -2.6452 -1.4527  0.6073
  198MPD1    H3 3070   4.694   0.660  15.684 -1.5644 -3.1442 -0.8494
  198MPD1     N 3071   0.227   0.315  15.784 -0.7341  0.4637  0.7207
  198MPD1    H5 3072   0.290   0.274  15.852 -1.5467 -2.4000 -0.2565
  198MPD1    N1 3073   0.049   0.632  16.122 -0.0583 -0.1858 -0.3732
  198MPD1    H6 3074   0.132   0.619  16.180 -0.8896 -1.9070  0.4513
  198MPD1    H7 3075   0.033   0.731  16.141 -0.4963 -0.5263  1.0823
  199MPD1     C 3076   2.419   1.296   9.899  0.5145  0.0618  0.9337
  199MPD1    C1 3077   2.390   1.237  10.018 -0.0521  0.2684 -0.2257
  199MPD1    C2 3078   2.298   1.292  10.104  0.1834  0.0356  0.4967
  199MPD1    C3 3079   2.257   1.419  10.075  0.4284  0.3268 -0.0763
  199MPD1    C4 3080   2.292   1.489   9.957  0.0194 -0.0332 -0.5531
  199MPD1    C5 3081   2.365   1.418   9.872 -0.7325  0.3796 -0.1386
  199MPD1     H 3082   2.258   1.238  10.189 -2.3057 -0.6100 -1.0823
  199MPD1    H1 3083   2.257   1.590   9.940  0.8027  0.3189 -0.0908
  199MPD1    H2 3084   2.486   1.253   9.825 -0.3907  3.7520 -2.0101
  199MPD1    H3 3085   2.398   1.459   9.777 -2.9180  0.8607 -0.6770
  199MPD1     N 3086   2.167   1.490  10.164 -0.6661 -0.0365 -0.2573
  199MPD1    H5 3087   2.117   1.569  10.125 -0.0298  0.9164  0.8795
  199MPD1    N1 3088   2.442   1.105  10.030  0.0563 -0.2711 -0.4469
  199MPD1    H6 3089   2.450   1.081  10.128 -1.2668 -0.4740 -0.3911
  199MPD1    H7 3090   2.537   1.088   9.996  0.7145  1.5700  0.4390
  200MPD1     C 3091   0.938   0.380  15.314 -0.4531 -0.5572  0.0547
  200MPD1    C1 3092   0.834   0.348  15.224  0.0409 -0.8134  0.3707
  200MPD1    C2 3093   0.853   0.386  15.091 -0.3471 -0.0766 -0.0160
  200MPD1    C3 3094   0.963   0.463  15.051  0.2142 -0.1462 -0.7979
  200MPD1    C4 3095   1.060   0.498  15.146  0.2036  0.4345 -0.2799
  200MPD1    C5 3096   1.045   0.458  15.276 -0.2823  0.3866  0.5898
  200MPD1     H 3097   0.777   0.366  15.017  1.3599 -3.5997 -0.8051
  200MPD1    H1 3098   1.149   0.549  15.112  1.9036 -1.5620  1.2368
  200MPD1    H2 3099   0.924   0.359  15.420  0.9820 -2.7648 -0.1795
  200MPD1    H3 3100   1.128   0.480  15.342  0.3744 -0.1641 -0.0574
  200MPD1     N 3101   0.967   0.499  14.916 -0.4723  0.0717  0.8033
  200MPD1    H5 3102   0.904   0.467  14.843  0.3221  0.0201  0.1432
  200MPD1    N1 3103   0.716   0.281  15.261 -0.3276 -0.5011  0.3642
  200MPD1    H6 3104   0.724   0.230  15.349  1.5670 -0.9390 -0.0642
  200MPD1    H7 3105   0.670   0.223  15.191 -1.4301 -2.4800  2.7445
  201MPD1     C 3106   3.177   3.720  14.076  0.2866  0.2108  0.0528
  201MPD1    C1 3107   3.305   3.708  14.118 -0.0356  0.0277  0.1261
  201MPD1    C2 3108   3.397   3.760  14.029  0.0934 -0.0274 -0.1862
  201MPD1    C3 3109   3.378   3.811  13.905  0.7255 -0.5593  0.3853
  201MPD1    C4 3110   3.246   3.803  13.858  0.5613  0.4384  0.2944
  201MPD1    C5 3111   3.150   3.762  13.947  0.2119  0.4599  0.2650
  201MPD1     H 3112   3.502   3.762  14.055 -0.3460 -0.0897  1.5741
  201MPD1    H1 3113   3.221   3.837  13.759  1.7471 -1.1812 -0.5628
  201MPD1    H2 3114   3.105   3.669  14.139 -1.2781 -0.3969 -2.2333
  201MPD1    H3 3115   3.053   3.742  13.902  2.0866  0.3327 -3.7570
  201MPD1     N 3116   3.484   3.866  13.830  0.2190  1.1081 -0.3819
  201MPD1    H5 3117   3.574   3.863  13.878 -0.1073 -3.2983  0.0194
  201MPD1    N1 3118   3.330   3.690  14.249 -0.2772  0.6758 -1.3234
  201MPD1    H6 3119   3.270   3.612  14.276  0.8679 -0.0098 -0.7744
  201MPD1    H7 3120   3.425   3.660  14.269  0.3601  3.9560  0.6209
  202MPD1     C 3121   3.375   3.872   9.007 -0.0400  0.6287 -0.1160
  202MPD1    C1 3122   3.273   3.897   9.090 -0.0503  0.7248 -0.3642
  202MPD1    C2 3123   3.306   3.966   9.203  1.0683  0.5012 -0.4051
  202MPD1    C3 3124   3.433   3.976   9.250 -0.6704 -0.4458 -0.0395
  202MPD1    C4 3125   3.537   3.926   9.173  0.7075 -0.0861  0.0739
  202MPD1    C5 3126   3.507   3.890   9.046  0.0733  0.1470  0.3235
  202MPD1     H 3127   3.223   3.996   9.266  1.4216  1.9532 -0.6418
  202MPD1    H1 3128   3.639   3.933   9.208  0.5126  0.6220  0.4802
  202MPD1    H2 3129   3.363   3.835   8.906  3.3270 -0.8232  0.0506
  202MPD1    H3 3130   3.583   3.869   8.973  0.6017 -2.4134  1.6208
  202MPD1     N 3131   3.463   4.043   9.375  0.0799  0.0779  0.2418
  202MPD1    H5 3132   3.555   4.028   9.413 -0.2066 -1.2749  0.4088
  202MPD1    N1 3133   3.148   3.915   9.025 -0.4286 -0.2533  0.0106
  202MPD1    H6 3134   3.146   3.836   8.960  1.3794  0.7830 -1.2973
  202MPD1    H7 3135   3.066   3.910   9.086  1.8662  0.1878  3.1158
  203MPD1     C 3136   1.642   0.330  12.210  0.0304 -0.2742 -0.6131
  203MPD1    C1 3137   1.611   0.201  12.248  0.4564 -0.6139  0.4493
  203MPD1    C2 3138   1.704   0.124  12.316 -1.0908  0.1522  0.2833
  203MPD1    C3 3139   1.820   0.187  12.364 -0.3880  0.3514 -0.1148
  203MPD1    C4 3140   1.850   0.314  12.335  0.7254 -0.1077  0.2239
  203MPD1    C5 3141   1.759   0.379  12.255  0.1397  0.3671 -0.7713
  203MPD1     H 3142   1.679   0.021  12.336 -2.0062 -0.0161 -1.6931
  203MPD1    H1 3143   1.937   0.367  12.372  1.1868 -1.1302  0.5912
  203MPD1    H2 3144   1.582   0.398  12.151  3.0299  3.3504  0.5579
  203MPD1    H3 3145   1.782   0.484  12.242 -0.3244  0.3550 -1.6827
  203MPD1     N 3146   1.900   0.099  12.439  0.3440  0.5268 -0.0731
  203MPD1    H5 3147   1.861   0.008  12.462 -0.6824  0.0558 -3.6556
  203MPD1    N1 3148   1.482   0.152  12.214 -0.3989  0.3940  0.4269
  203MPD1    H6 3149   1.443   0.196  12.131 -1.5126 -0.7605  0.3382
  203MPD1    H7 3150   1.478   0.054  12.189  2.8259  0.9940 -2.4195
  204MPD1     C 3151   2.682   2.270  17.759 -0.6310 -0.4784  0.2698
  204MPD1    C1 3152   2.725   2.226  17.634  0.1284 -0.1058 -0.1057
  204MPD1    C2 3153   2.705   2.091  17.605  0.4986  0.6825 -0.2438
  204MPD1    C3 3154   2.669   1.999  17.701 -0.3705 -0.7470 -0.3972
  204MPD1    C4 3155   2.638   2.051   0.064  1.0055  0.2623  0.6249
  204MPD1    C5 3156   2.637   2.186   0.096 -0.5586 -0.7542  0.3678
  204MPD1     H 3157   2.734   2.047  17.510  3.5696  2.3425 -0.0761
  204MPD1    H1 3158   2.606   1.991   0.148  3.0006 -1.5184  0.0827
  204MPD1    H2 3159   2.693   2.374   0.028 -2.7499  0.3264 -1.6991
  204MPD1    H3 3160   2.604   2.227   0.191 -0.9457  0.9417 -0.4875
  204MPD1     N 3161   2.652   1.865  17.668  0.6931 -0.3220 -0.1782
  204MPD1    H5 3162   2.670   1.840  17.571  3.3323 -0.9338  0.4744
  204MPD1    N1 3163   2.768   2.312  17.534 -0.0093  0.1971  0.2873
  204MPD1    H6 3164   2.835   2.279  17.466  0.8366  1.8844  0.2864
  204MPD1    H7 3165   2.811   2.401  17.559 -0.2845 -0.0136  1.5022
  205MPD1     C 3166   2.261   4.529  17.577 -0.3576 -0.4664  0.1631
  205MPD1    C1 3167   2.180   4.641  17.588 -0.7613 -0.2688  1.2272
  205MPD1    C2 3168   2.222   0.006  17.671 -0.0987  0.4466 -0.0290
  205MPD1    C3 3169   2.335   4.733  17.747 -0.7055  0.0683 -0.4980
  205MPD1    C4 3170   2.407   4.617  17.743 -0.1591  0.1565 -0.3110
  205MPD1    C5 3171   2.371   4.505  17.663  0.9594  0.0313  0.2343
  205MPD1     H 3172   2.161   0.096  17.671  1.0955  1.2650  1.5300
  205MPD1    H1 3173   2.484   4.609   0.056 -1.8590 -2.9965  1.1270
  205MPD1    H2 3174   2.239   4.449  17.507 -0.9405  1.0546 -1.3808
  205MPD1    H3 3175   2.434   4.417  17.661 -0.0060 -0.6487 -0.0409
  205MPD1     N 3176   2.388   0.101   0.062 -0.7020 -0.1325  0.0475
  205MPD1    H5 3177   2.475   0.079   0.111  0.4103 -1.8300 -2.6529
  205MPD1    N1 3178   2.084   4.661  17.487 -0.1835 -0.6306 -0.7648
  205MPD1    H6 3179   2.007   4.719  17.521  0.9067  1.0671 -1.2219
  205MPD1    H7 3180   2.034   4.580  17.451 -2.4408 -0.8801  2.8166
  206MPD1     C 3181   1.960   2.496  16.253  0.1340 -0.4998  0.7367
  206MPD1    C1 3182   2.095   2.451  16.262  0.1469 -0.5714 -0.5351
  206MPD1    C2 3183   2.150   2.397  16.151 -0.2572  0.3986 -0.2591
  206MPD1    C3 3184   2.087   2.411  16.022 -0.0190 -0.5100  0.6089
  206MPD1    C4 3185   1.957   2.460  16.017  0.1818  0.4106  1.0189
  206MPD1    C5 3186   1.892   2.504  16.130 -0.0378  0.3333 -0.0442
  206MPD1     H 3187   2.247   2.349  16.164 -1.7732 -3.6573 -3.6726
  206MPD1    H1 3188   1.904   2.470  15.923  0.0663  0.2355  1.0659
  206MPD1    H2 3189   1.914   2.517  16.349 -2.0440  0.3451 -0.4988
  206MPD1    H3 3190   1.794   2.548  16.116 -0.9223 -0.7007  2.9520
  206MPD1     N 3191   2.153   2.382  15.902  0.2943  0.2486 -0.5360
  206MPD1    H5 3192   2.110   2.411  15.815 -2.0897 -0.4945  0.4122
  206MPD1    N1 3193   2.150   2.429  16.393 -0.1044  0.1132  0.3157
  206MPD1    H6 3194   2.252   2.431  16.389 -0.1283  1.8007  0.6327
  206MPD1    H7 3195   2.119   2.496  16.463 -1.1593 -1.0690  0.9797
  207MPD1     C 3196   3.934   1.241   9.365 -0.4226  0.0404  0.2717
  207MPD1    C1 3197   3.993   1.363   9.391  0.0304  0.2320 -0.5042
  207MPD1    C2 3198   4.126   1.379   9.433 -0.5761  0.3864 -0.3480
  207MPD1    C3 3199   4.194   1.263   9.445  0.5721 -0.0370 -0.7094
  207MPD1    C4 3200   4.137   1.140   9.406 -0.2193  0.1506  0.3140
  207MPD1    C5 3201   4.009   1.124   9.371 -0.1621 -0.2551 -0.4869
  207MPD1     H 3202   4.166   1.472   9.471  0.0260 -0.0204  0.0132
  207MPD1    H1 3203   4.189   1.045   9.411  1.2765  1.0099  1.1334
  207MPD1    H2 3204   3.829   1.235   9.336 -0.1724  2.1145 -1.0335
  207MPD1    H3 3205   3.974   1.026   9.342  0.7331 -0.6457 -0.2200
  207MPD1     N 3206   4.328   1.255   9.483 -0.1397  0.4277  0.0664
  207MPD1    H5 3207   4.379   1.168   9.476 -1.7242 -0.5080  0.2057
  207MPD1    N1 3208   3.921   1.484   9.351 -0.4576  0.1088  0.1221
  207MPD1    H6 3209   3.824   1.473   9.379 -1.0262 -0.7310 -2.2246
  207MPD1    H7 3210   3.949   1.571   9.396 -2.3253  1.2986 -1.0174
  208MPD1     C 3211   2.575   4.074  17.453  0.0546  0.2634 -0.7757
  208MPD1    C1 3212   2.579   3.961  17.536 -0.3435  0.0350 -0.4067
  208MPD1    C2 3213   2.632   3.973  17.666  0.7981 -0.1397  0.1578
  208MPD1    C3 3214   2.675   4.092  17.711 -0.4650  0.0031  0.0470
  208MPD1    C4 3215   2.675   4.203  17.625  0.1524 -0.3087  0.0423
  208MPD1    C5 3216   2.637   4.188  17.500  0.0307 -0.0576  0.5490
  208MPD1     H 3217   2.622   3.888  17.733  2.0135 -0.0954  0.4030
  208MPD1    H1 3218   2.722   4.298  17.649 -0.1440  0.2638 -1.6378
  208MPD1    H2 3219   2.545   4.072  17.349 -1.6455  0.8872 -0.2934
  208MPD1    H3 3220   2.644   4.270  17.430  2.0799 -0.1946  0.5812
  208MPD1     N 3221   2.744   4.096   0.076  0.1533 -0.1907  0.2306
  208MPD1    H5 3222   2.720   4.022   0.141  1.7945  0.0481  1.0865
  208MPD1    N1 3223   2.528   3.844  17.490 -0.7483 -0.1937 -0.5040
  208MPD1    H6 3224   2.542   3.830  17.390 -1.4034  2.5955 -0.9921
  208MPD1    H7 3225   2.553   3.757  17.536 -0.2883  0.1367 -0.1360
  209MPD1     C 3226   3.627   0.648  10.239 -0.3596 -0.1137 -0.5587
  209MPD1    C1 3227   3.698   0.747  10.185 -0.3590  0.3526 -0.6400
  209MPD1    C2 3228   3.835   0.748  10.208  0.8039 -0.1841 -0.2678
  209MPD1    C3 3229   3.896   0.647  10.270 -0.0741 -0.3789  0.3837
  209MPD1    C4 3230   3.824   0.540  10.318  0.1729  0.0637 -0.1558
  209MPD1    C5 3231   3.687   0.544  10.302  0.7473 -0.5002 -0.1965
  209MPD1     H 3232   3.897   0.831  10.178  0.7416  0.2594  0.8206
  209MPD1    H1 3233   3.877   0.456  10.361 -1.0821  0.1661  1.6239
  209MPD1    H2 3234   3.518   0.649  10.241 -0.3739 -1.1229 -0.9041
  209MPD1    H3 3235   3.619   0.472  10.345  0.6493  0.5363  1.3707
  209MPD1     N 3236   4.040   0.657  10.273  0.0166  0.1801  0.5395
  209MPD1    H5 3237   4.072   0.743  10.230 -0.0336  1.1275  2.3616
  209MPD1    N1 3238   3.633   0.862  10.139 -0.0040  0.2846  0.1006
  209MPD1    H6 3239   3.537   0.848  10.108  0.0026  0.8959 -0.1962
  209MPD1    H7 3240   3.688   0.911  10.069 -2.6347  2.0474 -0.7476
  210MPD1     C 3241   4.601   0.448  11.119  0.3396 -0.3637  0.3951
  210MPD1    C1 3242   4.659   0.549  11.049 -0.1517  0.2289 -0.3333
  210MPD1    C2 3243   4.607   0.577  10.923 -0.0813 -0.7072 -0.3899
  210MPD1    C3 3244   4.511   0.499  10.861 -0.2085 -0.1191  0.4356
  210MPD1    C4 3245   4.462   0.392  10.926 -0.9116 -0.2778 -0.6337
  210MPD1    C5 3246   4.501   0.370  11.062  0.2872 -0.1131  0.0348
  210MPD1     H 3247   4.649   0.661  10.870 -0.5377  0.2905  0.8244
  210MPD1    H1 3248   4.378   0.339  10.884 -2.0171 -0.5028  1.8701
  210MPD1    H2 3249   4.635   0.432  11.221  1.2424 -1.2604 -0.0518
  210MPD1    H3 3250   4.447   0.307  11.133  1.2016  0.7861  1.5090
  210MPD1     N 3251   4.464   0.523  10.732  0.2212 -0.0972 -0.7459
  210MPD1    H5 3252   4.381   0.469  10.708 -1.0167  1.8980 -0.9757
  210MPD1    N1 3253   4.729   0.656  11.108  0.3646 -0.4031  0.1533
  210MPD1    H6 3254   0.031   0.716  11.038  1.8931 -0.4962  1.0166
  210MPD1    H7 3255   0.042   0.642  11.193  1.8223 -0.1472 -0.7290
  211MPD1     C 3256   2.952   4.720  16.868  0.4379 -0.2718 -0.6431
  211MPD1    C1 3257   2.840   4.645  16.865  0.3738  0.2616 -1.1502
  211MPD1    C2 3258   2.724   4.710  16.832 -0.0716 -0.7372  0.1106
  211MPD1    C3 3259   2.724   0.091  16.769  0.8484 -0.1914  0.7590
  211MPD1    C4 3260   2.844   0.152  16.743 -0.2826 -0.3179  0.8838
  211MPD1    C5 3261   2.954   0.103  16.807 -0.0392  0.1827  0.0848
  211MPD1     H 3262   2.633   4.668  16.872 -0.6169  0.0027 -0.3392
  211MPD1    H1 3263   2.864   0.235  16.676 -0.7231 -1.0206 -0.1173
  211MPD1    H2 3264   3.040   4.676  16.915  0.4971  0.8677  0.3244
  211MPD1    H3 3265   3.045   0.162  16.806 -0.5691  0.9881 -0.2621
  211MPD1     N 3266   2.608   0.155  16.735  0.4752  0.0377 -0.5078
  211MPD1    H5 3267   2.522   0.099  16.736  1.2695 -1.1001  2.9943
  211MPD1    N1 3268   2.835   4.520  16.925 -0.2036  0.3229  0.1235
  211MPD1    H6 3269   2.766   4.451  16.895 -0.3475  0.3219  0.4522
  211MPD1    H7 3270   2.922   4.467  16.929 -0.2063  0.4092  1.4554
  212MPD1     C 3271   1.824   3.365  16.186 -0.7916 -0.4144  0.8416
  212MPD1    C1 3272   1.718   3.406  16.267 -0.0930 -0.1599  0.2769
  212MPD1    C2 3273   1.653   3.308  16.347 -0.1643 -0.1316 -0.6806
  212MPD1    C3 3274   1.697   3.175  16.350 -0.6370 -0.1939 -0.1315
  212MPD1    C4 3275   1.806   3.144  16.266  0.0781  0.4245  0.6657
  212MPD1    C5 3276   1.862   3.236  16.190  0.7740  0.6162  0.6934
  212MPD1     H 3277   1.564   3.336  16.401  0.6769 -1.0213  1.1814
  212MPD1    H1 3278   1.851   3.045  16.259  1.1384  0.9172  0.4909
  212MPD1    H2 3279   1.881   3.437  16.127  1.8873 -1.8993  1.5930
  212MPD1    H3 3280   1.947   3.212  16.127 -0.9747 -0.2822 -1.2968
  212MPD1     N 3281   1.649   3.078  16.438 -0.2034  0.6730 -0.4656
  212MPD1    H5 3282   1.704   2.993  16.447 -2.2493 -0.5191  0.8090
  212MPD1    N1 3283   1.662   3.530  16.252 -0.1351  0.1186  0.3706
  212MPD1    H6 3284   1.606   3.557  16.332 -0.2236  2.3423 -0.4314
  212MPD1    H7 3285   1.736   3.599  16.237  0.5357 -0.6889 -0.0099
  213MPD1     C 3286   4.309   3.164  16.018  0.1284  0.5421  0.6395
  213MPD1    C1 3287   4.206   3.228  15.956 -0.2858  0.1125  0.5289
  213MPD1    C2 3288   4.238   3.342  15.883  0.2911 -0.1770  0.7207
  213MPD1    C3 3289   4.359   3.411  15.913 -0.7563  0.3561  0.1339
  213MPD1    C4 3290   4.457   3.358  15.994 -0.0560  0.2630 -0.5608
  213MPD1    C5 3291   4.433   3.225  16.036 -0.5653 -0.2267  0.0114
  213MPD1     H 3292   4.162   3.393  15.824  2.0314  2.0211  0.3509
  213MPD1    H1 3293   4.554   3.401  16.016  0.0444 -0.2200 -0.0594
  213MPD1    H2 3294   4.285   3.077  16.080  0.9463  0.7170  1.1968
  213MPD1    H3 3295   4.504   3.173  16.099 -1.7491 -0.0760  1.4703
  213MPD1     N 3296   4.372   3.535  15.840 -0.0095 -0.5278 -0.1523
  213MPD1    H5 3297   4.301   3.540  15.767  0.5187  1.0575 -0.5578
  213MPD1    N1 3298   4.101   3.145  15.915  0.1289 -0.1448  0.4541
  213MPD1    H6 3299   4.077   3.083  15.993 -0.3469 -0.3197  0.1655
  213MPD1    H7 3300   4.021   3.186  15.868  1.6370 -0.7242 -2.6412
  214MPD1     C 3301   3.705   3.824  15.425 -0.4537  0.1355 -0.0614
  214MPD1    C1 3302   3.761   3.949  15.449 -0.3479  0.4408 -0.5318
  214MPD1    C2 3303   3.895   3.949  15.494 -0.2312 -0.5483 -0.1878
  214MPD1    C3 3304   3.968   3.836  15.510  0.6842  0.1029 -0.0396
  214MPD1    C4 3305   3.912   3.713  15.477 -0.2639 -0.3115 -0.3069
  214MPD1    C5 3306   3.782   3.710  15.430  0.2360  0.2578 -0.0057
  214MPD1     H 3307   3.934   4.045  15.525 -0.6467 -0.5263  0.2714
  214MPD1    H1 3308   3.960   3.615  15.479  1.7731  0.7274  2.2025
  214MPD1    H2 3309   3.602   3.812  15.395 -0.6159 -0.2795  0.6666
  214MPD1    H3 3310   3.738   3.612  15.413  0.7986  0.1339 -0.7574
  214MPD1     N 3311   4.107   3.833  15.542 -0.2659  0.1634 -0.7874
  214MPD1    H5 3312   4.158   3.745  15.544 -1.2423 -0.3842 -0.0110
  214MPD1    N1 3313   3.681   4.069  15.452  0.2107 -0.1595 -0.5930
  214MPD1    H6 3314   3.601   4.076  15.390  1.3915 -0.8045 -2.1806
  214MPD1    H7 3315   3.732   4.156  15.438 -0.8698  0.5663 -0.0301
  215MPD1     C 3316   3.309   4.657  11.385  0.2612 -0.1374  1.1191
  215MPD1    C1 3317   3.378   4.670  11.502 -0.5809  0.1941 -0.0824
  215MPD1    C2 3318   3.505   4.718  11.489  0.4312  0.9866 -0.2906
  215MPD1    C3 3319   3.560   0.009  11.360 -0.1875  0.2438  0.4621
  215MPD1    C4 3320   3.484   0.011  11.250 -0.1812 -0.1836 -0.3931
  215MPD1    C5 3321   3.354   4.708  11.271 -0.4493  0.0043  0.5010
  215MPD1     H 3322   3.570   4.740  11.572  1.7525 -0.3379 -0.9599
  215MPD1    H1 3323   3.519   0.043  11.153 -0.0341 -0.8537 -0.5578
  215MPD1    H2 3324   3.218   4.598  11.382  0.7902 -0.9096  0.1269
  215MPD1    H3 3325   3.282   4.715  11.190  0.1682 -0.0993 -0.0520
  215MPD1     N 3326   3.701   0.045  11.374  0.3399 -0.0234 -0.0688
  215MPD1    H5 3327   3.745   0.041  11.465 -0.3650 -0.0914  0.2731
  215MPD1    N1 3328   3.332   4.601  11.617 -0.2480  0.2549  0.5264
  215MPD1    H6 3329   3.371   4.645  11.700  0.0193  1.1957 -0.0990
  215MPD1    H7 3330   3.230   4.605  11.619 -0.2269  0.3586  1.2083
  216MPD1     C 3331   1.959   2.949  16.564 -0.3944  0.3762 -0.0163
  216MPD1    C1 3332   2.026   2.821  16.554  0.5763 -0.4052  0.3671
  216MPD1    C2 3333   2.043   2.752  16.671 -0.3082  1.0542 -0.5864
  216MPD1    C3 3334   1.993   2.794  16.796  1.4333 -0.0558 -0.4041
  216MPD1    C4 3335   1.934   2.923  16.798  0.2618 -0.5582  0.3682
  216MPD1    C5 3336   1.915   2.997  16.685  0.3693 -0.4122  0.5980
  216MPD1     H 3337   2.096   2.657  16.672 -0.3845  1.0050 -1.3794
  216MPD1    H1 3338   1.897   2.963  16.892 -1.1437  0.1585 -0.4926
  216MPD1    H2 3339   1.935   3.011  16.479 -0.5539  0.7657  0.3125
  216MPD1    H3 3340   1.876   3.097  16.700 -0.2315 -0.4171 -0.9220
  216MPD1     N 3341   2.005   2.707  16.910 -0.1104  0.4934 -0.1363
  216MPD1    H5 3342   2.024   2.609  16.894  0.6698  0.9423 -2.0832
  216MPD1    N1 3343   2.063   2.768  16.427  0.5877  0.1780 -0.0082
  216MPD1    H6 3344   2.146   2.710  16.438  2.6516  2.8033 -1.5020
  216MPD1    H7 3345   2.088   2.837  16.357 -0.1791  1.7963  1.2975
  217MPD1     C 3346   1.443   4.207   9.827 -0.5263 -0.0587 -0.2932
  217MPD1    C1 3347   1.515   4.254   9.720  0.6633  1.5175 -0.0691
  217MPD1    C2 3348   1.594   4.365   9.739 -0.5484 -0.2606 -0.2512
  217MPD1    C3 3349   1.586   4.440   9.855  0.4780 -0.2542 -0.9025
  217MPD1    C4 3350   1.499   4.404   9.950  0.1894  0.7430  0.5445
  217MPD1    C5 3351   1.446   4.281   9.943 -0.7237  0.1473  0.3937
  217MPD1     H 3352   1.654   4.397   9.655  0.8304 -1.9653  0.0809
  217MPD1    H1 3353   1.489   4.463  10.040  2.1872  1.2218  0.4522
  217MPD1    H2 3354   1.386   4.115   9.825  1.1743 -1.1493  1.6137
  217MPD1    H3 3355   1.395   4.251  10.034 -2.1969 -1.1540 -0.8456
  217MPD1     N 3356   1.658   4.554   9.887  0.2420  0.7501  0.4697
  217MPD1    H5 3357   1.620   4.605   9.966  1.6277  2.5350 -0.0221
  217MPD1    N1 3358   1.529   4.188   9.599  0.2028  0.2266  0.1741
  217MPD1    H6 3359   1.461   4.115   9.579  0.9680 -1.1747  2.6530
  217MPD1    H7 3360   1.531   4.257   9.524 -0.8143  0.4098  0.3173
  218MPD1     C 3361   3.477   4.349  13.428  0.1461  0.0229 -0.2524
  218MPD1    C1 3362   3.549   4.461  13.440  0.2580  0.0146  0.6222
  218MPD1    C2 3363   3.639   4.506  13.343 -0.3074 -0.0090  0.8793
  218MPD1    C3 3364   3.646   4.426  13.225  0.4002  0.4439  0.4271
  218MPD1    C4 3365   3.558   4.320  13.216  0.9071 -0.4122  0.2482
  218MPD1    C5 3366   3.471   4.279  13.308 -0.2457  0.8178 -0.2153
  218MPD1     H 3367   3.692   4.594  13.376 -1.5555  0.8377  0.6445
  218MPD1    H1 3368   3.568   4.258  13.128  0.6746  0.8705 -0.6702
  218MPD1    H2 3369   3.427   4.313  13.518  0.4115 -0.0896 -0.1490
  218MPD1    H3 3370   3.404   4.194  13.294  1.0271 -0.0064 -1.2792
  218MPD1     N 3371   3.745   4.461  13.131 -0.3697  0.5159 -0.1249
  218MPD1    H5 3372   3.807   4.534  13.164  0.2862 -1.0756  2.1887
  218MPD1    N1 3373   3.557   4.512  13.563 -0.5153 -0.4204 -0.0161
  218MPD1    H6 3374   3.474   4.507  13.622 -1.3190 -0.9564 -1.2073
  218MPD1    H7 3375   3.584   4.610  13.568 -0.8693 -0.2949 -0.6063
  219MPD1     C 3376   3.834   4.480  12.125 -0.6133 -0.1408  0.6217
  219MPD1    C1 3377   3.947   4.537  12.182 -0.3875 -1.0195 -0.1516
  219MPD1    C2 3378   3.961   4.530  12.321 -0.5478  0.6273  0.7795
  219MPD1    C3 3379   3.874   4.462  12.400  0.2876 -0.0902  0.3825
  219MPD1    C4 3380   3.766   4.403  12.337 -0.1848  0.3069 -0.5557
  219MPD1    C5 3381   3.749   4.411  12.205  0.2294  0.1406 -1.3269
  219MPD1     H 3382   4.039   4.588  12.369  2.4330 -1.9530 -0.9276
  219MPD1    H1 3383   3.699   4.342  12.398  0.8540 -0.4070 -0.1192
  219MPD1    H2 3384   3.808   4.497  12.021  0.8244 -1.5086  0.0355
  219MPD1    H3 3385   3.670   4.353  12.159 -0.5129  0.7709 -0.8424
  219MPD1     N 3386   3.892   4.455  12.534 -0.1379 -0.9240 -0.2252
  219MPD1    H5 3387   3.825   4.395  12.581 -1.1986 -0.1841 -0.8123
  219MPD1    N1 3388   4.009   4.639  12.105  0.0632 -0.4429 -0.7998
  219MPD1    H6 3389   4.101   4.647  12.148  0.0161 -0.5236 -0.6822
  219MPD1    H7 3390   4.023   4.624  12.006 -0.2725  1.4870 -1.1357
  220MPD1     C 3391   3.726   1.438   9.989 -0.6411 -0.0112  0.2614
  220MPD1    C1 3392   3.616   1.384  10.047  0.1059 -0.2007  0.3747
  220MPD1    C2 3393   3.635   1.277  10.132  0.6115  0.5451  1.0255
  220MPD1    C3 3394   3.761   1.241  10.180 -0.1141  0.5595  0.1703
  220MPD1    C4 3395   3.870   1.305  10.123  0.2262  0.9130 -0.6253
  220MPD1    C5 3396   3.853   1.402  10.026 -0.4363  0.1022 -0.3932
  220MPD1     H 3397   3.555   1.217  10.175 -0.9950  1.4471 -0.7316
  220MPD1    H1 3398   3.972   1.282  10.154  0.2797 -0.5280 -1.8940
  220MPD1    H2 3399   3.709   1.515   9.915  0.0089 -1.6502 -1.5952
  220MPD1    H3 3400   3.941   1.442   9.977 -1.2234  0.9242 -1.1375
  220MPD1     N 3401   3.770   1.138  10.278 -0.4471  0.0356 -0.0767
  220MPD1    H5 3402   3.683   1.091  10.300 -0.9445  1.4967  1.1069
  220MPD1    N1 3403   3.494   1.425   9.995 -0.4483  0.0673  0.4137
  220MPD1    H6 3404   3.495   1.522   9.964  0.1415 -0.4401 -1.1069
  220MPD1    H7 3405   3.415   1.417  10.060 -0.9133  1.2860  0.0024
  221MPD1     C 3406   2.871   3.107  16.363 -0.5927 -0.4649 -1.1171
  221MPD1    C1 3407   2.901   3.209  16.450  0.5434 -0.1277  0.0402
  221MPD1    C2 3408   2.862   3.335  16.415  0.1823  0.5993  0.6243
  221MPD1    C3 3409   2.781   3.361  16.302  0.1545  0.1416 -0.0688
  221MPD1    C4 3410   2.732   3.256  16.227 -0.1327 -0.9171  0.3660
  221MPD1    C5 3411   2.781   3.129  16.259  0.3123  0.3782 -0.1899
  221MPD1     H 3412   2.886   3.418  16.481 -2.1961  0.3800  1.7529
  221MPD1    H1 3413   2.661   3.274  16.147 -0.0852  1.5162  0.8781
  221MPD1    H2 3414   2.923   3.012  16.368 -0.7734 -0.6741 -3.0009
  221MPD1    H3 3415   2.761   3.051  16.187 -0.8974  1.9876 -1.5925
  221MPD1     N 3416   2.733   3.491  16.266  0.3623  0.2335  0.4969
  221MPD1    H5 3417   2.687   3.503  16.176 -0.1786 -0.2471  0.7092
  221MPD1    N1 3418   2.989   3.186  16.554 -0.2886 -0.3622  0.6595
  221MPD1    H6 3419   2.996   3.093  16.596 -1.5885  0.2115  2.1283
  221MPD1    H7 3420   2.994   3.257  16.627  0.2081  0.2431  0.0422
  222MPD1     C 3421   1.670   2.398  17.136  0.7103  0.5630  0.7849
  222MPD1    C1 3422   1.661   2.361  17.270 -0.2926  0.0097  0.4365
  222MPD1    C2 3423   1.669   2.454  17.369  0.1219 -0.0023  1.3685
  222MPD1    C3 3424   1.661   2.593  17.337 -0.2081  0.7906  0.9328
  222MPD1    C4 3425   1.673   2.623  17.205 -0.1884  0.3220 -0.1457
  222MPD1    C5 3426   1.674   2.533  17.106 -0.5226  0.3478 -0.3796
  222MPD1     H 3427   1.678   2.422  17.472 -1.1289  2.6252  2.3025
  222MPD1    H1 3428   1.675   2.727  17.177  2.1462  0.3020 -0.0748
  222MPD1    H2 3429   1.680   2.332  17.051  1.9795  2.2934 -0.4341
  222MPD1    H3 3430   1.668   2.557  17.001 -0.9851 -0.3070 -0.4983
  222MPD1     N 3431   1.673   2.704  17.431 -0.5774 -0.4146  0.4590
  222MPD1    H5 3432   1.696   2.794  17.391 -3.2432  0.6690  1.3865
  222MPD1    N1 3433   1.671   2.224  17.299 -0.7704  0.1750 -0.0579
  222MPD1    H6 3434   1.618   2.166  17.235 -2.2155  1.2358  0.1800
  222MPD1    H7 3435   1.636   2.205  17.393  1.2760 -1.1445  0.4217
  223MPD1     C 3436   1.990   2.660   0.609  0.4433 -0.0890  0.4614
  223MPD1    C1 3437   1.903   2.570   0.547 -0.2180 -0.1069 -0.1102
  223MPD1    C2 3438   1.840   2.618   0.433 -0.3084 -0.2024 -0.3075
  223MPD1    C3 3439   1.872   2.744   0.379 -0.0227  0.8248 -0.2967
  223MPD1    C4 3440   1.966   2.826   0.440 -0.2803 -0.8196 -0.3969
  223MPD1    C5 3441   2.015   2.787   0.563 -0.2945  0.1006 -0.3350
  223MPD1     H 3442   1.764   2.561   0.380 -0.6540  0.3325 -0.3824
  223MPD1    H1 3443   1.991   2.929   0.423 -0.0201 -0.2706  3.1673
  223MPD1    H2 3444   2.044   2.628   0.698  2.1346 -2.2154 -1.3297
  223MPD1    H3 3445   2.091   2.847   0.613  2.4736 -4.1653  0.5723
  223MPD1     N 3446   1.804   2.788   0.259  0.2415  0.1997  0.7048
  223MPD1    H5 3447   1.760   2.715   0.205 -0.5782 -0.3144  2.0542
  223MPD1    N1 3448   1.901   2.435   0.587 -0.5426  0.0738  0.8433
  223MPD1    H6 3449   1.892   2.443   0.688 -2.4583  2.0731  0.5151
  223MPD1    H7 3450   1.820   2.392   0.543  0.1188 -0.2559 -0.0655
  224MPD1     C 3451   3.378   0.212  10.373  0.4557  0.5872 -0.2271
  224MPD1    C1 3452   3.339   0.200  10.241  0.2550 -0.2868 -0.3347
  224MPD1    C2 3453   3.273   0.308  10.185  0.7957 -0.7948 -0.3825
  224MPD1    C3 3454   3.281   0.435  10.248 -0.0660  0.3588 -0.0561
  224MPD1    C4 3455   3.342   0.443  10.377 -0.3501  0.1325  0.0437
  224MPD1    C5 3456   3.386   0.332  10.438 -0.6564  0.1066  0.5645
  224MPD1     H 3457   3.229   0.295  10.086  2.7990  1.6315 -1.6125
  224MPD1    H1 3458   3.346   0.544  10.417 -1.1778 -0.2631  1.1178
  224MPD1    H2 3459   3.425   0.127  10.420 -1.2183 -0.7236 -0.9269
  224MPD1    H3 3460   3.421   0.337  10.541  1.7859 -2.6826 -0.1765
  224MPD1     N 3461   3.214   0.556  10.205  0.7433  0.2533  0.4790
  224MPD1    H5 3462   3.208   0.631  10.273  1.4769 -0.5934  1.4791
  224MPD1    N1 3463   3.343   0.076  10.181 -0.0161 -0.4973  0.2630
  224MPD1    H6 3464   3.424   0.023  10.211  0.4395  0.5446  0.8610
  224MPD1    H7 3465   3.357   0.085  10.080  0.4497 -3.6356  0.0498
  225MPD1     C 3466   4.112   1.352  12.475  0.0761  0.3915 -0.2962
  225MPD1    C1 3467   4.078   1.218  12.464  0.6309  0.2524  0.2301
  225MPD1    C2 3468   3.945   1.183  12.462  0.7305  0.5691 -0.0971
  225MPD1    C3 3469   3.857   1.286  12.468  0.8010  0.2128  0.4054
  225MPD1    C4 3470   3.887   1.417  12.498 -0.1260 -0.0136 -0.1758
  225MPD1    C5 3471   4.018   1.445  12.510  0.3229  0.6894 -0.2839
  225MPD1     H 3472   3.921   1.079  12.440  0.1304  0.7583 -0.3269
  225MPD1    H1 3473   3.820   1.502  12.506  1.6742  1.4396 -0.4792
  225MPD1    H2 3474   4.215   1.386  12.476  0.6294 -1.2491 -4.0283
  225MPD1    H3 3475   4.036   1.551  12.529  0.2433  0.5108  0.7988
  225MPD1     N 3476   3.717   1.259  12.454  0.6780 -0.3318 -0.1571
  225MPD1    H5 3477   3.649   1.332  12.468  2.3492  0.6350  3.0120
  225MPD1    N1 3478   4.173   1.121  12.451 -0.1701 -0.0195 -0.1675
  225MPD1    H6 3479   4.144   1.033  12.492 -0.9762  0.7309  0.8532
  225MPD1    H7 3480   4.259   1.158  12.491 -0.3627  0.5870 -0.3195
  226MPD1     C 3481   4.691   1.013  10.509  0.7786  0.5672  0.3067
  226MPD1    C1 3482   4.555   0.983  10.478 -0.4426  0.1923  0.0598
  226MPD1    C2 3483   4.514   1.054  10.369  0.0353  0.0149 -0.2276
  226MPD1    C3 3484   4.598   1.133  10.287 -0.3918  0.2836 -0.3689
  226MPD1    C4 3485   4.735   1.139  10.312 -0.2335 -0.3969 -0.5317
  226MPD1    C5 3486   0.033   1.078  10.424  0.7111  0.1883  0.1030
  226MPD1     H 3487   4.408   1.062  10.351 -0.1250  0.9317  1.1323
  226MPD1    H1 3488   0.067   1.179  10.244  0.9262  1.6613  1.9117
  226MPD1    H2 3489   4.733   0.978  10.603 -2.4503  2.1891  2.3531
  226MPD1    H3 3490   0.136   1.089  10.456  0.5346  0.7367  0.4933
  226MPD1     N 3491   4.535   1.202  10.180  0.2257  0.2018  0.2225
  226MPD1    H5 3492   4.440   1.171  10.164 -0.3606  1.8051  0.6433
  226MPD1    N1 3493   4.465   0.932  10.579  0.4438  0.3087  0.4770
  226MPD1    H6 3494   4.386   0.889  10.532  0.1773  1.8124 -0.4287
  226MPD1    H7 3495   4.512   0.863  10.638  2.4999  1.1781 -0.1314
  227MPD1     C 3496   4.579   2.014   9.424 -0.4297 -0.0275  0.4343
  227MPD1    C1 3497   4.460   1.941   9.400 -0.6321  0.2360  0.3765
  227MPD1    C2 3498   4.429   1.834   9.483 -0.2363  0.7927  0.5232
  227MPD1    C3 3499   4.505   1.803   9.594 -0.0849 -0.4021  0.6449
  227MPD1    C4 3500   4.613   1.884   9.618 -0.2065  0.4423  0.3319
  227MPD1    C5 3501   4.659   1.986   9.535  0.6367 -0.4809  0.0941
  227MPD1     H 3502   4.333   1.787   9.463 -0.1534  0.9149 -0.1487
  227MPD1    H1 3503   4.672   1.858   9.704  1.4572 -0.0370 -0.9607
  227MPD1    H2 3504   4.615   2.094   9.361 -0.1477 -1.6162 -1.4020
  227MPD1    H3 3505   0.007   2.043   9.556  0.8120 -0.8420  0.3273
  227MPD1     N 3506   4.481   1.691   9.679  0.0319 -0.0747  0.0610
  227MPD1    H5 3507   4.404   1.630   9.653 -0.5189  1.5090 -2.0730
  227MPD1    N1 3508   4.396   1.958   9.277 -0.3853  0.3618 -0.1968
  227MPD1    H6 3509   4.384   2.054   9.243  1.6580  1.6255  2.6593
  227MPD1    H7 3510   4.299   1.930   9.289 -0.2353  0.9334  2.2035
  228MPD1     C 3511   0.717   3.309  13.447  0.0258 -0.1265 -0.0310
  228MPD1    C1 3512   0.634   3.390  13.377  0.0618  0.1049  0.3364
  228MPD1    C2 3513   0.508   3.340  13.351  0.3772 -0.1084 -0.0884
  228MPD1    C3 3514   0.477   3.207  13.370 -0.8184  0.2096  0.3553
  228MPD1    C4 3515   0.564   3.124  13.440  0.2382  0.6175  0.9078
  228MPD1    C5 3516   0.682   3.178  13.481 -0.2212 -0.5533 -0.2775
  228MPD1     H 3517   0.438   3.414  13.312  0.0476 -0.8417 -0.8898
  228MPD1    H1 3518   0.547   3.025  13.478 -0.9725  1.7013  3.1851
  228MPD1    H2 3519   0.807   3.351  13.492  1.1635  0.0841 -2.5174
  228MPD1    H3 3520   0.747   3.115  13.540  0.1037  0.1027  0.0647
  228MPD1     N 3521   0.342   3.167  13.336  0.0108  0.3974 -0.4800
  228MPD1    H5 3522   0.283   3.235  13.289  0.6674  0.5721 -1.0450
  228MPD1    N1 3523   0.652   3.530  13.381 -0.2421 -0.0926  0.0545
  228MPD1    H6 3524   0.752   3.549  13.381  0.2632 -2.7312  0.0320
  228MPD1    H7 3525   0.602   3.579  13.308  0.1593  0.2075 -0.0229
  229MPD1     C 3526   0.498   2.633  15.017 -0.1245 -0.0375  0.1490
  229MPD1    C1 3527   0.449   2.551  14.918 -0.0284  0.0293 -0.5610
  229MPD1    C2 3528   0.499   2.422  14.921 -0.4785 -0.8245 -0.0289
  229MPD1    C3 3529   0.606   2.382  15.003 -0.1624 -0.5280 -0.2575
  229MPD1    C4 3530   0.660   2.469  15.086 -0.3028  0.3468  0.2867
  229MPD1    C5 3531   0.603   2.588  15.094 -0.0076  0.0922 -0.4825
  229MPD1     H 3532   0.456   2.349  14.854 -0.4881 -0.3468 -0.5388
  229MPD1    H1 3533   0.737   2.445  15.159  2.2544  1.1987 -2.1116
  229MPD1    H2 3534   0.449   2.726  15.045  0.4791 -0.3246  2.1975
  229MPD1    H3 3535   0.635   2.651  15.177 -1.7345  0.6326 -0.2287
  229MPD1     N 3536   0.654   2.246  15.009 -0.1073 -0.2467  0.3899
  229MPD1    H5 3537   0.745   2.230  15.050 -0.6503 -1.2858  1.1758
  229MPD1    N1 3538   0.331   2.590  14.861  0.4770  0.0529  0.1427
  229MPD1    H6 3539   0.313   2.542  14.773  0.6700  1.7622 -0.8449
  229MPD1    H7 3540   0.345   2.685  14.827  0.6406  0.1325  0.4329
  230MPD1     C 3541   1.335   1.538  15.196  0.0902 -1.3789  0.4786
  230MPD1    C1 3542   1.220   1.461  15.191  0.4266 -0.0762 -0.4726
  230MPD1    C2 3543   1.103   1.532  15.201 -0.3174  0.4261 -0.0347
  230MPD1    C3 3544   1.094   1.673  15.200  0.0200  0.5912 -0.2968
  230MPD1    C4 3545   1.210   1.740  15.182 -1.2097  0.5755 -0.2776
  230MPD1    C5 3546   1.329   1.676  15.177  0.3064 -0.3265  0.1543
  230MPD1     H 3547   1.013   1.476  15.220  0.4666 -0.6043  0.6232
  230MPD1    H1 3548   1.215   1.848  15.185  2.2143  0.4168  0.2244
  230MPD1    H2 3549   1.434   1.498  15.179  1.1638  1.3378  0.3261
  230MPD1    H3 3550   1.420   1.729  15.153 -1.7028  2.5990 -1.0533
  230MPD1     N 3551   0.966   1.733  15.203  0.3771 -0.4447  0.2217
  230MPD1    H5 3552   0.894   1.663  15.220  0.6086 -0.7936 -0.2287
  230MPD1    N1 3553   1.223   1.323  15.215 -0.0966 -0.7436  0.2666
  230MPD1    H6 3554   1.302   1.269  15.182 -1.3668 -1.4952 -1.5208
  230MPD1    H7 3555   1.135   1.281  15.187  1.2645 -1.2221 -3.1901
  231MPD1     C 3556   4.040   3.135  15.345  0.1320 -0.3773 -0.4201
  231MPD1    C1 3557   3.940   3.192  15.269  0.0399  0.4610 -0.2760
  231MPD1    C2 3558   3.948   3.321  15.232  0.3488  0.9804 -0.3771
  231MPD1    C3 3559   4.061   3.399  15.263 -0.0669  0.2558 -0.4667
  231MPD1    C4 3560   4.154   3.338  15.341 -0.2221  0.1278  0.3769
  231MPD1    C5 3561   4.143   3.209  15.384  0.3895 -0.2527 -0.6102
  231MPD1     H 3562   3.874   3.356  15.161 -0.7585 -0.3855  0.0706
  231MPD1    H1 3563   4.240   3.397  15.371  0.1951 -0.4933  0.4064
  231MPD1    H2 3564   4.045   3.029  15.367 -0.1354 -0.1525  0.7311
  231MPD1    H3 3565   4.230   3.167  15.433  0.2693 -0.1892 -0.3452
  231MPD1     N 3566   4.067   3.529  15.211 -0.0196 -0.3344  0.1060
  231MPD1    H5 3567   4.002   3.565  15.142  1.1838  0.5177 -0.5861
  231MPD1    N1 3568   3.841   3.106  15.219  0.6764  0.7855  0.1723
  231MPD1    H6 3569   3.827   3.108  15.118  0.2604  0.2259  0.2215
  231MPD1    H7 3570   3.862   3.010  15.246  0.6536  0.9529  0.7768
  232MPD1     C 3571   1.155   0.558   0.455  0.0083 -0.1815  1.0621
  232MPD1    C1 3572   1.057   0.496   0.387 -0.9386 -0.9103  0.2449
  232MPD1    C2 3573   0.987   0.568   0.293 -0.5938  0.1945  0.1485
  232MPD1    C3 3574   1.021   0.704   0.255 -0.5075  1.0902  0.6030
  232MPD1    C4 3575   1.125   0.763   0.326  0.5133  0.8907  0.1838
  232MPD1    C5 3576   1.185   0.687   0.430 -0.3334  0.5696  0.2908
  232MPD1     H 3577   0.888   0.532   0.267  0.2321 -1.8743 -0.1460
  232MPD1    H1 3578   1.161   0.865   0.314 -0.0348  1.2087  1.2473
  232MPD1    H2 3579   1.209   0.509   0.535  3.0678 -0.6893 -1.3121
  232MPD1    H3 3580   1.263   0.736   0.488  1.7609 -1.1870 -1.0377
  232MPD1     N 3581   0.936   0.770   0.169 -0.3368 -0.3264  0.0707
  232MPD1    H5 3582   0.857   0.715   0.138 -1.0315  0.8718 -0.2912
  232MPD1    N1 3583   1.019   0.366   0.430  0.1379 -0.1336 -0.1578
  232MPD1    H6 3584   1.097   0.327   0.482  0.9228 -0.0212 -1.2380
  232MPD1    H7 3585   1.019   0.310   0.345  0.3104  1.4820 -1.2409
  233MPD1     C 3586   2.269   4.094  17.736  0.3573  0.4744 -0.1382
  233MPD1    C1 3587   2.271   4.007   0.086 -0.3686  0.2158  0.2429
  233MPD1    C2 3588   2.208   4.047   0.206  0.0757 -0.5227  0.7625
  233MPD1    C3 3589   2.133   4.165   0.215  0.2906  0.4287  0.0409
  233MPD1    C4 3590   2.118   4.241   0.098  0.1527  0.1480  0.1993
  233MPD1    C5 3591   2.193   4.206  17.747 -0.5625 -0.5552  0.0652
  233MPD1     H 3592   2.231   3.990   0.295 -0.4300  0.6218  1.6164
  233MPD1    H1 3593   2.048   4.324   0.097 -0.6843 -0.5307  2.9100
  233MPD1    H2 3594   2.319   4.064  17.644 -2.6008  0.7182 -1.8249
  233MPD1    H3 3595   2.186   4.279  17.667 -0.4468 -0.6923 -0.0681
  233MPD1     N 3596   2.053   4.204   0.326 -0.6134  0.0031 -0.5624
  233MPD1    H5 3597   1.995   4.287   0.318  2.4890  2.0116 -2.1093
  233MPD1    N1 3598   2.354   3.890   0.080  0.4970 -0.1117  0.4419
  233MPD1    H6 3599   2.351   3.851  17.747 -0.2623 -2.4838  1.4449
  233MPD1    H7 3600   2.313   3.821   0.142 -0.7539 -0.0949 -0.3658
  234MPD1     C 3601   2.358   0.491   8.556 -0.1514  0.5755  1.0388
  234MPD1    C1 3602   2.480   0.521   8.610  0.3733 -0.4991  0.1375
  234MPD1    C2 3603   2.485   0.540   8.742 -0.3871  0.1467  1.1528
  234MPD1    C3 3604   2.371   0.544   8.820  0.2273 -0.7142 -0.2500
  234MPD1    C4 3605   2.244   0.531   8.764 -0.2737 -0.0382 -0.1279
  234MPD1    C5 3606   2.241   0.492   8.632 -0.1525  0.7725  0.0446
  234MPD1     H 3607   2.583   0.555   8.784  0.7118  0.8575 -1.6288
  234MPD1    H1 3608   2.152   0.552   8.818 -1.8190 -3.1959 -1.5559
  234MPD1    H2 3609   2.345   0.466   8.452  1.8187  0.3698  0.8383
  234MPD1    H3 3610   2.142   0.473   8.593  0.2232 -0.3639 -0.3574
  234MPD1     N 3611   2.386   0.592   8.954 -0.5277 -0.2938  0.1174
  234MPD1    H5 3612   2.481   0.622   8.974 -0.2130  0.5293 -2.6161
  234MPD1    N1 3613   2.589   0.517   8.524  0.1101 -0.5521  0.1038
  234MPD1    H6 3614   2.663   0.463   8.570  1.7209 -0.1962 -2.0441
  234MPD1    H7 3615   2.570   0.453   8.447  1.2065  1.5960 -1.9389
  235MPD1     C 3616   0.559   0.776  10.373  0.2748 -0.2181  0.7831
  235MPD1    C1 3617   0.662   0.828  10.298 -0.2479  0.1188  0.0262
  235MPD1    C2 3618   0.657   0.958  10.251  0.1336  0.5850 -0.1682
  235MPD1    C3 3619   0.557   1.047  10.299 -0.6741  0.2275 -0.1197
  235MPD1    C4 3620   0.451   0.992  10.370  0.1774 -0.2795  0.0174
  235MPD1    C5 3621   0.459   0.859  10.416 -0.1689  0.3193  0.4724
  235MPD1     H 3622   0.724   0.991  10.172  0.2297  0.1726 -0.2580
  235MPD1    H1 3623   0.358   1.044  10.390 -0.7778 -2.2278  0.6410
  235MPD1    H2 3624   0.557   0.674  10.411 -1.6392 -0.1280  0.9577
  235MPD1    H3 3625   0.373   0.821  10.470  1.1531 -0.6234  1.9181
  235MPD1     N 3626   0.567   1.178  10.248  0.2475 -0.3733  0.1441
  235MPD1    H5 3627   0.653   1.205  10.202  0.5706 -0.0276  0.9527
  235MPD1    N1 3628   0.751   0.742  10.230 -0.1784 -0.3487  0.4231
  235MPD1    H6 3629   0.781   0.662  10.286  1.6598 -0.4596 -0.7309
  235MPD1    H7 3630   0.837   0.788  10.201 -0.3795  0.3431  0.9079
  236MPD1     C 3631   3.288   2.916   9.613 -0.3190 -0.1799 -0.1495
  236MPD1    C1 3632   3.406   2.972   9.643 -0.4719  0.2187 -0.3512
  236MPD1    C2 3633   3.499   2.899   9.720  0.2747 -0.2505 -0.4830
  236MPD1    C3 3634   3.478   2.763   9.755 -0.2152 -0.8946  0.3663
  236MPD1    C4 3635   3.354   2.713   9.711 -0.3143 -0.2091 -0.1076
  236MPD1    C5 3636   3.265   2.790   9.646 -0.0310  0.2209  0.5083
  236MPD1     H 3637   3.576   2.958   9.768 -1.6392  3.2141 -1.6930
  236MPD1    H1 3638   3.332   2.608   9.726 -1.0615  0.0256  0.4528
  236MPD1    H2 3639   3.217   2.980   9.561 -0.6201 -0.5190 -0.1577
  236MPD1    H3 3640   3.172   2.743   9.617 -0.1004  1.9694 -2.2055
  236MPD1     N 3641   3.565   2.681   9.821 -0.1307  0.1541  0.2875
  236MPD1    H5 3642   3.533   2.585   9.826  1.0091 -0.2626 -0.3887
  236MPD1    N1 3643   3.415   3.112   9.635 -0.5023 -0.3775  0.0941
  236MPD1    H6 3644   3.506   3.157   9.627  0.1909 -1.5586  1.3181
  236MPD1    H7 3645   3.352   3.157   9.569  2.0902 -0.8775 -2.7099
  237MPD1     C 3646   4.246   0.368  15.408  0.2357 -0.2468  0.2060
  237MPD1    C1 3647   4.194   0.290  15.313  0.6050 -0.4481 -0.2078
  237MPD1    C2 3648   4.058   0.250  15.326 -0.2316  0.0499  0.2502
  237MPD1    C3 3649   3.977   0.309  15.420  0.4192  0.3602 -0.3901
  237MPD1    C4 3650   4.035   0.392  15.511 -0.8800  0.3538  0.3193
  237MPD1    C5 3651   4.167   0.414  15.513  0.4009 -0.5181 -0.0503
  237MPD1     H 3652   4.016   0.176  15.259 -1.4371  1.5757 -0.6986
  237MPD1    H1 3653   3.976   0.445  15.586 -1.1551 -1.2741  1.2587
  237MPD1    H2 3654   4.347   0.407  15.416  0.5391 -0.7417 -1.1652
  237MPD1    H3 3655   4.217   0.483  15.580  1.7189 -1.3897 -0.1198
  237MPD1     N 3656   3.838   0.284  15.429  1.0346 -0.1361 -0.6768
  237MPD1    H5 3657   3.793   0.314  15.515  1.7704 -0.2435 -0.2591
  237MPD1    N1 3658   4.270   0.221  15.217  0.3388 -0.6648 -0.3592
  237MPD1    H6 3659   4.221   0.189  15.134  0.2474  1.4321 -1.0974
  237MPD1    H7 3660   4.354   0.269  15.185  0.2843 -0.2840  0.0767
  238MPD1     C 3661   1.226   4.097  15.660 -0.5150 -0.0817  0.3883
  238MPD1    C1 3662   1.110   4.109  15.735 -0.1899 -0.0327 -0.1048
  238MPD1    C2 3663   0.989   4.115  15.675  0.4668 -0.3775  0.3984
  238MPD1    C3 3664   0.975   4.094  15.536 -0.2708  0.0693  0.1531
  238MPD1    C4 3665   1.093   4.083  15.470  0.6698 -0.1295 -0.0950
  238MPD1    C5 3666   1.214   4.077  15.527  0.3027  0.3896 -0.2603
  238MPD1     H 3667   0.903   4.098  15.739 -1.0194 -1.1252 -1.8159
  238MPD1    H1 3668   1.099   4.078  15.361 -2.0131 -2.5424 -0.1199
  238MPD1    H2 3669   1.319   4.095  15.717  0.7648  0.8649 -1.6616
  238MPD1    H3 3670   1.303   4.053  15.470  0.8472  0.7005  0.4625
  238MPD1     N 3671   0.857   4.081  15.461 -0.3113  0.2044 -0.9243
  238MPD1    H5 3672   0.870   4.067  15.361  0.1386 -1.4168 -0.6397
  238MPD1    N1 3673   1.119   4.133  15.874  0.6675  0.0555 -0.3414
  238MPD1    H6 3674   1.201   4.087  15.912  1.1918 -0.2693 -1.8597
  238MPD1    H7 3675   1.034   4.114  15.927 -0.9967  0.9794 -2.6501
  239MPD1     C 3676   1.009   0.253  14.715 -0.5216  0.1539 -0.1738
  239MPD1    C1 3677   1.034   0.298  14.591  0.3953 -0.0490  0.6322
  239MPD1    C2 3678   0.919   0.319  14.512 -0.1571 -1.3131  0.6257
  239MPD1    C3 3679   0.789   0.282  14.557  0.2207  0.7831  0.1193
  239MPD1    C4 3680   0.770   0.222  14.679  0.2388 -0.0713  0.4227
  239MPD1    C5 3681   0.882   0.211  14.760  0.7997  0.1715 -0.6579
  239MPD1     H 3682   0.935   0.376  14.422  1.4519 -0.2009  1.6167
  239MPD1    H1 3683   0.674   0.194  14.720 -0.2589  1.2932  0.1779
  239MPD1    H2 3684   1.086   0.237  14.791 -0.9550 -0.9133  0.0295
  239MPD1    H3 3685   0.879   0.166  14.859  1.4707  0.6732 -0.4106
  239MPD1     N 3686   0.674   0.298  14.480 -0.3887 -0.0366  0.0712
  239MPD1    H5 3687   0.589   0.262  14.524 -0.4923  1.4479  1.0748
  239MPD1    N1 3688   1.158   0.352  14.555  0.0918 -0.4259  0.0981
  239MPD1    H6 3689   1.170   0.363  14.455  2.5327  2.6827  0.7212
  239MPD1    H7 3690   1.237   0.296  14.585 -0.3409 -1.9825 -1.6860
  240MPD1     C 3691   1.029   4.287  14.243 -0.4574  0.7643  0.1441
  240MPD1    C1 3692   1.067   4.353  14.362 -0.0450 -0.0236 -0.5247
  240MPD1    C2 3693   0.973   4.369  14.461  0.1439  0.5355 -0.1945
  240MPD1    C3 3694   0.836   4.350  14.432  0.0122 -0.0876 -0.1137
  240MPD1    C4 3695   0.805   4.289  14.309  0.8250 -0.1358  0.3848
  240MPD1    C5 3696   0.902   4.242  14.223 -0.7176 -0.4138  0.3011
  240MPD1     H 3697   1.002   4.410  14.557 -0.0978  3.6804 -1.4673
  240MPD1    H1 3698   0.701   4.271  14.285  1.1939 -0.9164 -0.6363
  240MPD1    H2 3699   1.107   4.259  14.174 -0.7832  1.4367 -0.4874
  240MPD1    H3 3700   0.885   4.196  14.126 -0.7540 -1.0321  0.5993
  240MPD1     N 3701   0.735   4.384  14.531 -0.2126  0.7784  0.0840
  240MPD1    H5 3702   0.775   4.415  14.619  1.1473 -1.0716  0.1328
  240MPD1    N1 3703   1.201   4.387  14.386  0.1486  0.1695  0.5332
  240MPD1    H6 3704   1.256   4.380  14.300 -1.9349 -0.0193 -0.7704
  240MPD1    H7 3705   1.226   4.461  14.452  2.2163  0.1393 -0.2032
  241MPD1     C 3706   0.781   4.425  15.466 -0.6297 -0.1721 -0.0712
  241MPD1    C1 3707   0.855   4.391  15.355  0.3789  0.1379 -0.0766
  241MPD1    C2 3708   0.790   4.382  15.234  1.0622  0.3222 -0.1026
  241MPD1    C3 3709   0.647   4.399  15.223 -0.3334 -0.4052  0.2956
  241MPD1    C4 3710   0.581   4.423  15.343 -0.2527 -0.1649 -0.2190
  241MPD1    C5 3711   0.646   4.432  15.458  0.6279 -0.2129 -0.4390
  241MPD1     H 3712   0.844   4.355  15.143 -0.1565  0.6413 -0.9184
  241MPD1    H1 3713   0.475   4.448  15.345 -0.2625 -0.4447  2.4492
  241MPD1    H2 3714   0.827   4.459  15.558  0.8060  0.0825 -0.8981
  241MPD1    H3 3715   0.584   4.431  15.548  2.3093 -1.3226  0.7049
  241MPD1     N 3716   0.568   4.388  15.106 -0.6548  0.0707  0.3752
  241MPD1    H5 3717   0.468   4.401  15.113 -0.8908 -1.2024 -0.8197
  241MPD1    N1 3718   0.993   4.387  15.363 -0.0156  0.0451  0.4306
  241MPD1    H6 3719   1.020   4.350  15.454  0.9817  2.3318  1.0771
  241MPD1    H7 3720   1.036   4.337  15.286  2.0704  1.0151  0.9474
  242MPD1     C 3721   0.803   3.030  15.547 -0.6884  0.5201  0.0705
  242MPD1    C1 3722   0.670   3.016  15.511 -0.7134 -0.5096  0.0336
  242MPD1    C2 3723   0.633   3.002  15.380 -0.2661  0.6952  0.1275
  242MPD1    C3 3724   0.723   3.001  15.276  0.4054  0.2401 -0.5125
  242MPD1    C4 3725   0.855   3.009  15.315 -0.3508  0.8371  0.5865
  242MPD1    C5 3726   0.894   3.025  15.448  0.1153  0.7538  0.1772
  242MPD1     H 3727   0.528   2.979  15.363 -0.3973  2.2064 -1.0605
  242MPD1    H1 3728   0.932   3.002  15.238 -1.6496  0.1741 -0.6435
  242MPD1    H2 3729   0.836   3.055  15.647 -1.4911  0.3212  0.3756
  242MPD1    H3 3730   0.999   3.026  15.472 -0.4908 -1.7599  2.9319
  242MPD1     N 3731   0.688   2.986  15.139  0.1205 -0.0488  0.7222
  242MPD1    H5 3732   0.768   2.971  15.078 -0.3973  0.9768 -0.2215
  242MPD1    N1 3733   0.578   3.027  15.617 -0.2191  0.1716  0.1859
  242MPD1    H6 3734   0.600   2.970  15.699 -1.0220 -0.0129  0.2775
  242MPD1    H7 3735   0.481   3.012  15.589 -0.7362  2.3206  0.8120
  243MPD1     C 3736   2.362   1.808  17.449  0.0482  0.0106  0.4591
  243MPD1    C1 3737   2.386   1.791  17.312  0.7023  0.1198 -0.1904
  243MPD1    C2 3738   2.387   1.660  17.266 -0.9047 -0.0835  0.3924
  243MPD1    C3 3739   2.361   1.548  17.339  0.0299 -0.3879 -0.1084
  243MPD1    C4 3740   2.342   1.566  17.476 -0.6223  0.4125  0.2338
  243MPD1    C5 3741   2.341   1.693  17.523 -1.0437 -0.0001  0.2100
  243MPD1     H 3742   2.424   1.640  17.166 -2.1755 -2.5394  0.4238
  243MPD1    H1 3743   2.316   1.482  17.540  0.8136  0.9384  1.4974
  243MPD1    H2 3744   2.368   1.903  17.501  0.1593  0.8418 -1.0894
  243MPD1    H3 3745   2.302   1.715  17.622 -1.4639  0.3524 -0.0306
  243MPD1     N 3746   2.373   1.424  17.273  0.5816  0.3040 -0.2759
  243MPD1    H5 3747   2.419   1.415  17.182  0.5177 -0.7488 -0.2065
  243MPD1    N1 3748   2.426   1.900  17.239 -0.1910  0.4523 -0.3702
  243MPD1    H6 3749   2.391   1.986  17.281  1.6052  1.1862 -0.3794
  243MPD1    H7 3750   2.415   1.902  17.138  1.6885  0.7798 -0.5606
  244MPD1     C 3751   2.514   0.342  17.380  0.2496 -0.8494  0.8253
  244MPD1    C1 3752   2.580   0.387  17.266  0.2432  0.2166 -0.5379
  244MPD1    C2 3753   2.559   0.514  17.226 -0.2066  0.7108  0.7725
  244MPD1    C3 3754   2.474   0.602  17.292  0.3713  0.4633  0.0114
  244MPD1    C4 3755   2.391   0.550  17.390  0.0993  0.4042  0.0926
  244MPD1    C5 3756   2.424   0.428  17.438 -0.3576 -0.0162  0.1076
  244MPD1     H 3757   2.617   0.563  17.149  0.7724 -0.7648  0.5840
  244MPD1    H1 3758   2.317   0.609  17.443 -1.2010 -0.1825 -1.0527
  244MPD1    H2 3759   2.529   0.243  17.423 -0.0435 -1.6291 -0.8782
  244MPD1    H3 3760   2.373   0.381  17.521  2.9542 -1.5954  1.2494
  244MPD1     N 3761   2.477   0.735  17.249 -0.1206 -0.3110 -0.0288
  244MPD1    H5 3762   2.535   0.763  17.171 -0.7607  0.2653 -0.3063
  244MPD1    N1 3763   2.676   0.305  17.214 -0.1585 -0.5673 -0.2600
  244MPD1    H6 3764   2.648   0.207  17.211 -2.3335  0.0563 -0.1289
  244MPD1    H7 3765   2.702   0.336  17.120  1.6223  0.7125  0.6576
  245MPD1     C 3766   3.232   1.801  13.402  0.6712 -0.8710 -0.2218
  245MPD1    C1 3767   3.197   1.932  13.394 -0.2787 -0.7701  0.2220
  245MPD1    C2 3768   3.262   2.009  13.491  0.8332  0.0254  0.2339
  245MPD1    C3 3769   3.357   1.965  13.579  0.1264 -0.1826  0.2445
  245MPD1    C4 3770   3.389   1.828  13.574 -0.0028 -0.3423  0.9061
  245MPD1    C5 3771   3.330   1.747  13.480 -0.5057  0.4533 -0.1451
  245MPD1     H 3772   3.240   2.115  13.495  0.3248 -0.0625 -0.3009
  245MPD1    H1 3773   3.468   1.785  13.634 -0.3502 -1.0915  0.8385
  245MPD1    H2 3774   3.177   1.732  13.339 -1.6934  1.1039 -0.3300
  245MPD1    H3 3775   3.353   1.642  13.474 -0.6149  0.4082  0.1839
  245MPD1     N 3776   3.407   2.057  13.677  0.0403 -0.1481 -0.6253
  245MPD1    H5 3777   3.368   2.151  13.684 -1.4152 -0.7388 -0.8563
  245MPD1    N1 3778   3.087   1.970  13.320  0.2639 -0.1325 -0.2145
  245MPD1    H6 3779   3.074   2.070  13.304 -0.7858 -0.5411 -1.9387
  245MPD1    H7 3780   3.079   1.915  13.235  1.5054  2.7813 -2.2117
  246MPD1     C 3781   3.337   1.243  10.400 -0.2848  0.2391 -0.2490
  246MPD1    C1 3782   3.259   1.260  10.287 -0.6719  0.2794  0.0251
  246MPD1    C2 3783   3.258   1.379  10.222 -0.0548 -0.0819  0.1032
  246MPD1    C3 3784   3.331   1.487  10.268 -0.1228  0.4451 -0.4891
  246MPD1    C4 3785   3.409   1.473  10.382 -0.2710 -0.3844 -0.1523
  246MPD1    C5 3786   3.415   1.341  10.440  0.3096  0.8489 -0.6801
  246MPD1     H 3787   3.194   1.387  10.135 -0.4627  2.7445  0.6679
  246MPD1    H1 3788   3.461   1.550  10.437  0.5357 -1.8112  1.0594
  246MPD1    H2 3789   3.327   1.151  10.457 -0.8300 -0.4954 -1.5183
  246MPD1    H3 3790   3.465   1.338  10.536  1.8555  0.1260 -1.5130
  246MPD1     N 3791   3.316   1.604  10.191  0.3379 -0.5833 -0.0344
  246MPD1    H5 3792   3.255   1.608  10.110 -0.1224  0.7678  0.3688
  246MPD1    N1 3793   3.187   1.154  10.237 -0.2901 -0.1910  0.7661
  246MPD1    H6 3794   3.202   1.073  10.296 -0.3558  0.1567  1.2567
  246MPD1    H7 3795   3.086   1.168  10.241 -0.0974  1.0928  1.0110
  247MPD1     C 3796   3.174   2.637  16.857 -1.0477  0.6510  0.5169
  247MPD1    C1 3797   3.296   2.610  16.918  0.5055  0.0698  0.4460
  247MPD1    C2 3798   3.334   2.479  16.917  0.4930 -0.7241 -0.0561
  247MPD1    C3 3799   3.266   2.380  16.844 -1.1287 -0.6953 -0.0230
  247MPD1    C4 3800   3.151   2.421  16.771  0.1306 -0.3984 -0.0634
  247MPD1    C5 3801   3.098   2.544  16.791  0.2557 -0.0506 -0.7207
  247MPD1     H 3802   3.429   2.444  16.956  1.4274  1.5391 -0.2876
  247MPD1    H1 3803   3.094   2.346  16.718 -0.3905 -0.2962  0.3497
  247MPD1    H2 3804   3.132   2.736  16.851 -0.5845  0.7729 -0.7229
  247MPD1    H3 3805   3.003   2.576  16.752 -0.1796  0.0671  0.4401
  247MPD1     N 3806   3.308   2.248  16.825 -0.1676 -0.1678  0.2359
  247MPD1    H5 3807   3.255   2.205  16.749 -0.5856 -0.6860  0.8253
  247MPD1    N1 3808   3.351   2.702  17.012 -0.2198  0.1623 -0.5782
  247MPD1    H6 3809   3.336   2.800  16.988  1.2957  0.4920 -0.1501
  247MPD1    H7 3810   3.449   2.679  17.023 -0.1308  0.7784 -0.1019
  248MPD1     C 3811   3.674   0.557  17.625 -0.4783 -0.0019 -0.7565
  248MPD1    C1 3812   3.793   0.574  17.687 -0.3311  0.0366 -0.2803
  248MPD1    C2 3813   3.792   0.655   0.039  0.4291  0.2312  1.1519
  248MPD1    C3 3814   3.679   0.715   0.083 -0.7301 -0.0018 -0.7149
  248MPD1    C4 3815   3.559   0.695   0.015  0.3645  0.9764  0.0097
  248MPD1    C5 3816   3.556   0.618  17.660  0.1509 -0.9417 -1.0650
  248MPD1     H 3817   3.878   0.670   0.103  1.9393  1.7850 -1.2595
  248MPD1    H1 3818   3.466   0.731   0.056 -0.2337 -0.8163  0.2372
  248MPD1    H2 3819   3.658   0.488  17.543 -0.4282  1.0745 -1.6610
  248MPD1    H3 3820   3.469   0.588  17.603 -0.2282 -2.3723  0.2437
  248MPD1     N 3821   3.685   0.804   0.198  0.1387  0.7669  0.2835
  248MPD1    H5 3822   3.780   0.808   0.235 -0.0922 -1.0261  1.0533
  248MPD1    N1 3823   3.902   0.499  17.649  0.7697  0.0063  0.9994
  248MPD1    H6 3824   3.991   0.544  17.671  0.0621  1.5353  0.7437
  248MPD1    H7 3825   3.910   0.479  17.550 -1.2265  1.3394  0.5668
  249MPD1     C 3826   0.646   0.023  10.742  0.1329  0.0109 -0.2490
  249MPD1    C1 3827   0.694   0.136  10.805  0.3679 -0.3202  0.5550
  249MPD1    C2 3828   0.809   0.187  10.746 -0.4916  0.2584 -0.7885
  249MPD1    C3 3829   0.871   0.139  10.629 -0.5074  0.4950 -0.2286
  249MPD1    C4 3830   0.820   0.022  10.577  0.2063 -0.8406  0.5055
  249MPD1    C5 3831   0.710   4.707  10.632 -0.0530 -0.2938 -0.1494
  249MPD1     H 3832   0.852   0.281  10.775  1.6251 -0.2314 -2.3559
  249MPD1    H1 3833   0.867   4.727  10.486 -1.2991  0.5422 -0.8358
  249MPD1    H2 3834   0.556   4.713  10.776 -0.3040  0.2672 -1.0314
  249MPD1    H3 3835   0.665   4.618  10.590  2.0049 -2.1148  1.4842
  249MPD1     N 3836   0.984   0.203  10.579  0.4480  0.7202  0.6796
  249MPD1    H5 3837   1.013   0.287  10.628  0.1357  1.0229  0.3521
  249MPD1    N1 3838   0.636   0.182  10.926  0.5025 -0.3231  0.2399
  249MPD1    H6 3839   0.538   0.169  10.907 -0.2529  2.4711  2.0985
  249MPD1    H7 3840   0.656   0.281  10.942 -0.0492 -0.0854 -0.5294
  250MPD2     C 3841   1.993   0.182  12.992 -0.5397  0.1350  0.3097
  250MPD2    C1 3842   1.897   0.277  12.954 -0.3935 -0.2527  0.3317
  250MPD2    C2 3843   1.794   0.243  12.862  0.2860  0.0244 -0.6778
  250MPD2    C3 3844   1.794   0.112  12.805 -0.0223  0.0863  0.3835
  250MPD2    C4 3845   1.894   0.022  12.845  0.1389 -0.2173 -0.2233
  250MPD2    C5 3846   1.981   0.057  12.943  0.0714  1.0463 -0.4556
  250MPD2     H 3847   1.718   0.312  12.826  1.6666  1.1181 -1.5197
  250MPD2    H1 3848   1.905   4.663  12.804  1.8148 -0.3083  0.4576
  250MPD2    H2 3849   2.083   0.203  13.050 -0.2005 -0.2702 -0.0683
  250MPD2    H3 3850   2.051   4.722  12.974 -0.1922  2.0096  2.5699
  250MPD2     N 3851   1.696   0.057  12.722  0.4613  0.3492  0.8910
  250MPD2    H5 3852   1.709   4.706  12.681 -2.0800 -0.0329  0.9399
  250MPD2    N1 3853   1.906   0.407  13.005 -0.2581 -0.0835 -0.3505
  250MPD2    H7 3854   1.855   0.474  12.948 -2.2343 -2.3858 -1.3128
  251TMC3    C1 3855   2.009   0.588  13.119 -0.0405 -0.3271  0.3276
  251TMC3    C2 3856   1.946   0.658  13.214 -0.4450 -0.0220 -0.2450
  251TMC3    C3 3857   2.009   0.768  13.265  0.7354  0.1737 -0.0560
  251TMC3    C4 3858   2.136   0.619  13.076 -0.5583 -0.0556  0.5692
  251TMC3    C5 3859   2.196   0.732  13.132 -0.2877  0.1529 -0.4218
  251TMC3    C6 3860   2.136   0.816  13.224 -0.3859 -0.9249 -0.0836
  251TMC3     C 3861   1.978   0.445  13.118  0.7447  0.6157 -0.1912
  251TMC3     O 3862   2.009   0.379  13.217 -0.1379 -0.5302  0.3023
  251TMC3     H 3863   1.850   0.630  13.257 -1.1940  2.0292 -0.5775
  251TMC3    H1 3864   2.180   0.549  13.006 -1.0343  0.0610  0.1451
  251TMC3    H2 3865   2.184   0.908  13.257  0.6363 -0.8045 -1.8872
  251TMC3    C7 3866   2.324   0.774  13.089  0.6562 -0.4539 -0.9886
  251TMC3    C8 3867   1.939   0.834  13.375  0.0264  0.0493  0.4415
  251TMC3    O1 3868   2.368   0.872  13.139  0.1935 -0.1228  1.0761
  251TMC3    O2 3869   1.819   0.837  13.365 -0.6318 -0.2777 -0.2514
  252TMC3    C1 3870   2.025   2.786   9.983  0.2660 -0.6960  0.3595
  252TMC3    C2 3871   2.159   2.753  10.006  0.6212  0.4376  0.4300
  252TMC3    C3 3872   2.179   2.623  10.062  0.4051  0.2190 -0.0620
  252TMC3    C4 3873   1.922   2.701  10.011 -0.3133  0.3308 -0.0939
  252TMC3    C5 3874   1.950   2.579  10.069  0.1882  0.2846  0.5567
  252TMC3    C6 3875   2.079   2.546  10.106 -0.1908  0.2370  0.0144
  252TMC3     C 3876   2.000   2.917   9.921 -0.2486  0.3412 -0.0329
  252TMC3     O 3877   2.101   2.984   9.901 -0.6185  0.0283 -0.5742
  252TMC3     H 3878   2.243   2.819   9.990  0.4144  1.1959  2.4269
  252TMC3    H1 3879   1.820   2.739  10.005 -1.2616 -2.0550  0.7640
  252TMC3    H2 3880   2.103   2.440  10.113  0.0943  0.4981  2.8975
  252TMC3    C7 3881   1.832   2.509  10.122  0.3303 -0.5255  0.4633
  252TMC3    C8 3882   2.318   2.579  10.071  0.5007 -0.2729 -0.5849
  252TMC3    O1 3883   1.722   2.565  10.102  0.2021 -0.4335 -0.0416
  252TMC3    O2 3884   2.403   2.643  10.005  0.3999 -0.3238  0.1202
  253MPD2     C 3885   3.495   0.753  15.197  0.1897  0.7932  0.1055
  253MPD2    C1 3886   3.357   0.767  15.219 -0.4325 -0.2641  0.7967
  253MPD2    C2 3887   3.313   0.730  15.345 -0.4123  0.2495  0.1431
  253MPD2    C3 3888   3.398   0.700  15.450  0.0455 -0.5734 -0.5069
  253MPD2    C4 3889   3.532   0.685  15.418 -0.6510 -0.3966 -0.0736
  253MPD2    C5 3890   3.580   0.712  15.295 -0.2014  0.8777 -0.1008
  253MPD2     H 3891   3.208   0.745  15.365 -0.0037  0.4682  2.0908
  253MPD2    H1 3892   3.600   0.652  15.497 -0.9196 -0.9635 -0.0803
  253MPD2    H2 3893   3.540   0.777  15.101 -1.2589  1.1714 -0.4863
  253MPD2    H3 3894   3.685   0.706  15.273 -0.0211 -0.1360  1.0700
  253MPD2     N 3895   3.349   0.668  15.583 -0.8413  0.3396  0.5129
  253MPD2    H5 3896   3.420   0.644  15.652 -0.7518  0.0809  0.3290
  253MPD2    N1 3897   3.256   0.793  15.122 -0.3281  0.4317  0.3065
  253MPD2    H7 3898   3.162   0.804  15.158 -1.4701  2.4614 -3.2773
  254TMC3    C1 3899   3.202   0.676  15.781  0.2654 -0.3919  0.4080
  254TMC3    C2 3900   3.091   0.733  15.827 -0.6671  0.8201 -0.1193
  254TMC3    C3 3901   3.044   0.706  15.951 -0.1848  0.8343 -0.9671
  254TMC3    C4 3902   3.281   0.593  15.851 -0.4900  0.4065 -0.2416
  254TMC3    C5 3903   3.237   0.579  15.980 -0.3177  0.5232  0.5489
  254TMC3    C6 3904   3.118   0.629  16.032  0.1281  0.1994 -0.7984
  254TMC3     C 3905   3.218   0.677  15.635  0.2548  0.5662  0.0193
  254TMC3     O 3906   3.120   0.715  15.570  0.3808  0.2117  0.1730
  254TMC3     H 3907   3.020   0.780  15.760 -0.0506  0.4437 -1.0324
  254TMC3    H1 3908   3.360   0.538  15.803 -0.3655  3.0922 -3.0648
  254TMC3    H2 3909   3.096   0.621  16.138  0.8687 -0.2412 -0.6710
  254TMC3    C7 3910   3.341   0.562  16.079  0.5723  0.0518  0.1421
  254TMC3    C8 3911   2.937   0.783  16.012 -0.4581 -0.4198 -0.2862
  254TMC3    O1 3912   3.305   0.522  16.189 -0.4385 -0.0086  0.1717
  254TMC3    O2 3913   2.890   0.734  16.115 -0.1548  0.6211 -0.1106
  255MPD2     C 3914   0.600   3.344  10.353  0.1407 -0.0425 -0.2059
  255MPD2    C1 3915   0.712   3.425  10.352  0.7304 -0.1994  1.4729
  255MPD2    C2 3916   0.833   3.380  10.300  0.4563 -0.2581  0.8222
  255MPD2    C3 3917   0.861   3.246  10.274 -0.7757 -0.5066 -0.2460
  255MPD2    C4 3918   0.748   3.162  10.279  0.3837  0.1802 -0.0737
  255MPD2    C5 3919   0.625   3.212  10.315 -0.0838 -0.4246  0.4579
  255MPD2     H 3920   0.912   3.454  10.291  0.9712 -0.8655  0.3427
  255MPD2    H1 3921   0.753   3.055  10.258  2.2069 -0.3753  3.0952
  255MPD2    H2 3922   0.501   3.380  10.381  0.2926 -1.1353  1.7420
  255MPD2    H3 3923   0.539   3.145  10.306  0.4439 -0.9026 -0.9839
  255MPD2     N 3924   0.991   3.199  10.248 -0.4483 -0.5233 -0.0605
  255MPD2    H5 3925   1.061   3.271  10.263 -1.0100  0.3818 -1.7874
  255MPD2    N1 3926   0.695   3.561  10.394  0.6143 -0.2210  0.1757
  255MPD2    H7 3927   0.604   3.586  10.433  0.6171  0.3217 -0.1677
  256TMC3    C1 3928   0.750   3.794  10.460  0.1598 -0.0662 -0.4510
  256TMC3    C2 3929   0.861   3.869  10.489  0.1693 -0.1701 -0.0268
  256TMC3    C3 3930   0.867   3.996  10.447  0.8270  0.4546 -0.5736
  256TMC3    C4 3931   0.643   3.853  10.406 -0.0193 -1.0187 -0.5785
  256TMC3    C5 3932   0.659   3.981  10.352 -0.4147  0.4016  0.0167
  256TMC3    C6 3933   0.768   4.060  10.383 -0.0564  0.2202 -0.1230
  256TMC3     C 3934   0.790   3.661  10.410 -0.3217  0.1243 -1.0830
  256TMC3     O 3935   0.908   3.653  10.387 -0.1587 -0.1233 -0.2203
  256TMC3     H 3936   0.940   3.824  10.549  1.8733  1.3560 -1.1164
  256TMC3    H1 3937   0.559   3.790  10.381  1.5220 -3.6304  0.8692
  256TMC3    H2 3938   0.791   4.158  10.343  0.4982  0.1923  0.1218
  256TMC3    C7 3939   0.615   3.975  10.216  0.7961  0.0277  0.0072
  256TMC3    C8 3940   0.982   4.072  10.496  0.4685 -0.2641  0.1978
  256TMC3    O1 3941   0.595   3.861  10.174  0.0125 -0.0084 -0.2080
  256TMC3    O2 3942   0.966   4.190  10.519  0.1375  0.4676 -0.4635
  257MPD2     C 3943   0.127   0.118  13.114  0.0545  1.4363  0.2738
  257MPD2    C1 3944   0.226   0.199  13.075  0.1234 -0.7278 -0.1601
  257MPD2    C2 3945   0.344   0.186  13.144  0.6289 -0.0771  0.9312
  257MPD2    C3 3946   0.362   0.083  13.235  0.5567  0.6422 -0.3790
  257MPD2    C4 3947   0.256   0.006  13.272 -0.1615  0.2621 -0.7794
  257MPD2    C5 3948   0.136   0.017  13.205 -0.0057 -0.7032  0.0913
  257MPD2     H 3949   0.421   0.261  13.133  0.4771  0.2225  1.9421
  257MPD2    H1 3950   0.258   4.672  13.350 -0.3007 -1.1280 -2.1036
  257MPD2    H2 3951   0.036   0.121  13.056  1.2120 -2.3629 -1.7472
  257MPD2    H3 3952   0.050   4.696  13.229  0.1899 -0.9572  0.1310
  257MPD2     N 3953   0.488   0.067  13.290 -0.3792 -0.2398  0.1951
  257MPD2    H5 3954   0.556   0.132  13.252 -0.7179  0.4607  0.7782
  257MPD2    N1 3955   0.205   0.293  12.971  0.1004 -0.0131 -0.1205
  257MPD2    H7 3956   0.117   0.285  12.921  0.3008  1.9425 -0.7991
  258TMC3    C1 3957   0.665   4.722  13.408  0.1830 -0.2256 -0.2887
  258TMC3    C2 3958   0.748   4.729  13.300 -0.0533 -0.2386  0.2121
  258TMC3    C3 3959   0.889   4.739  13.325 -0.2152 -0.3561 -0.1956
  258TMC3    C4 3960   0.712   4.722  13.538 -0.4379  0.4658 -0.3344
  258TMC3    C5 3961   0.851   4.736  13.552 -0.8010 -0.3885 -0.9680
  258TMC3    C6 3962   0.940   0.009  13.451  0.7610  0.0816 -0.8464
  258TMC3     C 3963   0.526   4.718  13.386  0.2326  0.8760  0.0730
  258TMC3     O 3964   0.467   4.637  13.454  0.0626 -0.4086  0.0220
  258TMC3     H 3965   0.702   0.000  13.202 -0.1081 -1.8272  0.0449
  258TMC3    H1 3966   0.640   4.713  13.619  1.4134  0.6887  1.3310
  258TMC3    H2 3967   1.037   0.051  13.476  0.0809  0.5003  1.1128
  258TMC3    C7 3968   0.897   0.002  13.686  0.3361 -0.4175 -0.3005
  258TMC3    C8 3969   0.980   4.735  13.213 -0.1274  0.2310  1.1738
  258TMC3    O1 3970   0.817   0.036  13.772  0.4775  0.6444  0.1353
  258TMC3    O2 3971   1.094   4.688  13.236 -0.3654  0.0655 -0.1324
  259MPD2     C 3972   0.025   2.267   0.458  0.5765  0.0476  0.3392
  259MPD2    C1 3973   0.121   2.175   0.488 -0.2267 -0.0353  0.5997
  259MPD2    C2 3974   0.210   2.131   0.389 -0.0068 -0.1718  0.0727
  259MPD2    C3 3975   0.193   2.182   0.260  0.3358  1.0505 -0.4853
  259MPD2    C4 3976   0.099   2.281   0.234 -0.1866  0.7952  0.0820
  259MPD2    C5 3977   0.013   2.317   0.333 -0.2539 -0.3958  0.2667
  259MPD2     H 3978   0.292   2.061   0.402  0.0429 -0.0938  0.1813
  259MPD2    H1 3979   0.098   2.321   0.134  0.3525 -0.2357 -0.3411
  259MPD2    H2 3980   4.703   2.315   0.533 -1.9307  1.4224 -2.6478
  259MPD2    H3 3981   4.686   2.397   0.304  0.1710  0.4441  1.5651
  259MPD2     N 3982   0.277   2.131   0.151 -1.1695  0.0226  0.1871
  259MPD2    H5 3983   0.338   2.055   0.181 -0.6269  0.2000 -0.4761
  259MPD2    N1 3984   0.126   2.128   0.621 -0.7333  0.4375  0.3893
  259MPD2    H7 3985   0.066   2.156   0.698 -0.1551  3.2599 -0.1995
  260TMC3    C1 3986   0.386   2.089  17.714 -0.0274 -0.8799  0.3003
  260TMC3    C2 3987   0.481   2.022   0.023  0.4821  0.2360  0.0309
  260TMC3    C3 3988   0.574   1.945  17.724  0.3379 -0.0791  0.1994
  260TMC3    C4 3989   0.375   2.073  17.579  0.0754 -0.1835  0.0634
  260TMC3    C5 3990   0.465   1.995  17.524 -0.6058 -0.2500 -0.0095
  260TMC3    C6 3991   0.560   1.923  17.590  0.5266 -0.4295  0.4261
  260TMC3     C 3992   0.289   2.171   0.017 -0.3353  0.6154  0.2313
  260TMC3     O 3993   0.235   2.255  17.719 -0.0114  0.4467 -0.0600
  260TMC3     H 3994   0.499   2.047   0.127 -0.8541  0.2854  0.2496
  260TMC3    H1 3995   0.299   2.125  17.523 -0.1946  1.5370  2.0002
  260TMC3    H2 3996   0.639   1.875  17.533  0.5395 -0.4151  0.4318
  260TMC3    C7 3997   0.447   1.955  17.394  0.7719 -0.4900  0.8759
  260TMC3    C8 3998   0.674   1.874   0.048 -0.1370  0.0823  0.6961
  260TMC3    O1 3999   0.478   1.840  17.352  0.8943  0.2824  0.3009
  260TMC3    O2 4000   0.700   1.934   0.151  0.7931  0.0703 -0.0962
  261MPD2     C 4001   0.983   0.184  12.258 -0.7292 -0.5197 -0.9919
  261MPD2    C1 4002   1.114   0.227  12.272  0.7394  0.1490  0.2799
  261MPD2    C2 4003   1.148   0.354  12.223 -0.1759 -0.2281 -0.1027
  261MPD2    C3 4004   1.063   0.425  12.136 -0.0237  0.1891  0.7266
  261MPD2    C4 4005   0.936   0.379  12.124 -0.0349 -0.1909 -0.6403
  261MPD2    C5 4006   0.898   0.260  12.179  0.0201 -0.1655 -0.0838
  261MPD2     H 4007   1.247   0.393  12.246 -0.5858  0.5443  0.3655
  261MPD2    H1 4008   0.858   0.425  12.065 -0.4846 -0.1151  0.0005
  261MPD2    H2 4009   0.957   0.086  12.294 -2.5927  0.7156  1.0533
  261MPD2    H3 4010   0.797   0.230  12.156 -0.9856  2.5940  0.6937
  261MPD2     N 4011   1.103   0.551  12.085  0.2114  0.0430 -1.0690
  261MPD2    H5 4012   1.195   0.584  12.112 -0.1503  0.9500 -0.9554
  261MPD2    N1 4013   1.214   0.158  12.350 -0.9428 -0.7390 -0.1502
  261MPD2    H7 4014   1.308   0.195  12.354 -1.6791  1.1357 -0.4046
  262TMC3    C1 4015   1.079   0.767  11.981 -0.1822 -0.7742  0.4135
  262TMC3    C2 4016   1.011   0.852  11.902  0.0562  0.4181 -0.6927
  262TMC3    C3 4017   1.065   0.971  11.866  0.5029  0.7478  0.7104
  262TMC3    C4 4018   1.207   0.793  12.018 -0.3342  0.2684 -0.2413
  262TMC3    C5 4019   1.260   0.909  11.981 -0.0609 -0.2877 -0.3072
  262TMC3    C6 4020   1.190   0.997  11.904  0.0750 -0.6168 -0.5092
  262TMC3     C 4021   1.030   0.633  11.999  0.4147 -0.1705  0.1691
  262TMC3     O 4022   0.921   0.607  11.950 -0.5652 -0.3603 -0.2719
  262TMC3     H 4023   0.912   0.827  11.865 -1.1877  1.1501  2.1400
  262TMC3    H1 4024   1.276   0.720  12.061 -0.7831  1.3236  2.2358
  262TMC3    H2 4025   1.242   1.088  11.875  0.2134 -0.9238 -1.2239
  262TMC3    C7 4026   1.368   0.954  12.058 -0.4518  0.2932  0.5951
  262TMC3    C8 4027   0.998   1.075  11.796 -0.4822  0.5366 -0.0492
  262TMC3    O1 4028   1.389   0.908  12.169  0.2551  0.0003  0.1940
  262TMC3    O2 4029   1.078   1.156  11.756 -0.1449 -0.0415  0.3384
  263MPD2     C 4030   2.063   0.137  11.967  0.2701 -0.4557 -0.3684
  263MPD2    C1 4031   2.156   0.123  11.864  0.4137 -0.9689 -0.3548
  263MPD2    C2 4032   2.222   0.238  11.823  0.3583  0.3683 -0.4742
  263MPD2    C3 4033   2.184   0.364  11.861 -0.0244 -0.5684 -0.2224
  263MPD2    C4 4034   2.087   0.377  11.959  0.2061  0.5338  0.2129
  263MPD2    C5 4035   2.030   0.263  12.017 -0.1618 -0.2596  0.5664
  263MPD2     H 4036   2.314   0.229  11.766  1.7959  1.9479  1.6204
  263MPD2    H1 4037   2.059   0.475  11.996  1.7303  0.8797  0.4569
  263MPD2    H2 4038   2.017   0.048  12.008  0.7874 -0.5955 -0.1059
  263MPD2    H3 4039   1.959   0.272  12.099  0.3755 -0.0860  1.0134
  263MPD2     N 4040   2.262   0.474  11.807 -0.1502 -0.1217  0.1547
  263MPD2    H5 4041   2.336   0.450  11.742 -1.0249 -0.8768 -0.5801
  263MPD2    N1 4042   2.181   4.732  11.814  0.4148 -0.4221  0.3496
  263MPD2    H7 4043   2.133   4.655  11.860 -2.0437  1.9204  1.7360
  264TMC3    C1 4044   2.339   0.693  11.745  0.0527 -0.7470 -0.3593
  264TMC3    C2 4045   2.368   0.822  11.786 -0.6594 -0.0764 -0.2335
  264TMC3    C3 4046   2.437   0.909  11.706  0.1470  0.1498 -0.3894
  264TMC3    C4 4047   2.368   0.653  11.620 -0.2383 -0.3009  0.4950
  264TMC3    C5 4048   2.449   0.732  11.543 -0.4934  0.1849  0.6945
  264TMC3    C6 4049   2.478   0.863  11.581  0.6495 -0.2275 -0.5910
  264TMC3     C 4050   2.257   0.609  11.838 -1.1857 -0.0803 -0.6834
  264TMC3     O 4051   2.187   0.667  11.926 -0.7696 -0.5918  0.1726
  264TMC3     H 4052   2.344   0.841  11.890 -2.5225  1.0295 -0.8645
  264TMC3    H1 4053   2.343   0.553  11.585 -2.3850 -0.3183  2.0654
  264TMC3    H2 4054   2.538   0.930  11.521  0.4030  0.9270  0.4465
  264TMC3    C7 4055   2.487   0.692  11.405 -0.9328  0.0418  0.4454
  264TMC3    C8 4056   2.498   1.022  11.764  0.5303  0.2758  0.0353
  264TMC3    O1 4057   2.506   0.785  11.327 -0.1184  0.1241  0.3164
  264TMC3    O2 4058   2.574   1.074  11.686  1.1366 -0.1888  0.6870
  265MPD2     C 4059   4.334   0.399  15.903 -0.1668  0.0487 -0.3358
  265MPD2    C1 4060   4.376   0.495  15.811  0.0819 -0.1585 -1.2680
  265MPD2    C2 4061   4.465   0.470  15.713  0.4721  0.2790 -0.1307
  265MPD2    C3 4062   4.499   0.332  15.694 -0.4014 -0.0147 -0.4679
  265MPD2    C4 4063   4.450   0.237  15.779  0.3050 -0.9452 -0.2033
  265MPD2    C5 4064   4.376   0.270  15.885  1.3419 -0.7064 -0.0357
  265MPD2     H 4065   4.496   0.558  15.659  1.7980  1.0756  1.9109
  265MPD2    H1 4066   4.465   0.131  15.761  2.1805 -0.5052 -1.2148
  265MPD2    H2 4067   4.267   0.426  15.984 -0.2809  1.3919 -0.8766
  265MPD2    H3 4068   4.328   0.192  15.943  0.7170  0.1296  0.5600
  265MPD2     N 4069   4.584   0.281  15.599  0.2798  0.3593  0.0379
  265MPD2    H5 4070   4.602   0.183  15.615 -1.1798 -0.0058 -0.5997
  265MPD2    N1 4071   4.337   0.627  15.830  0.7091  0.1466  0.1744
  265MPD2    H7 4072   4.376   0.702  15.774 -0.5302 -0.3789 -1.3879
  266TMC3    C1 4073   4.246   0.810  15.941 -0.6761  0.5718  0.1809
  266TMC3    C2 4074   4.366   0.873  15.948  0.3818 -0.0627 -0.1829
  266TMC3    C3 4075   4.377   1.003  15.994  0.1315  0.2961  0.6528
  266TMC3    C4 4076   4.134   0.878  15.982  0.4695 -0.0204 -0.2700
  266TMC3    C5 4077   4.149   1.001  16.035 -0.4279  0.0355  0.1352
  266TMC3    C6 4078   4.265   1.067  16.033  0.1908 -0.3591 -0.1018
  266TMC3     C 4079   4.234   0.670  15.904  0.0930 -0.5358  0.0028
  266TMC3     O 4080   4.134   0.606  15.932 -0.0055  1.2463  0.5475
  266TMC3     H 4081   4.457   0.819  15.923 -1.5445 -2.3228 -2.4392
  266TMC3    H1 4082   4.036   0.832  15.979  0.4705 -0.0922  0.6922
  266TMC3    H2 4083   4.263   1.167  16.075 -0.4377 -0.9138  1.1912
  266TMC3    C7 4084   4.024   1.067  16.043  0.3520 -0.1442 -0.7468
  266TMC3    C8 4085   4.514   1.052  16.007 -0.3605 -0.5729  0.6175
  266TMC3    O1 4086   3.921   0.999  16.060  0.3875 -0.5413  0.5467
  266TMC3    O2 4087   4.605   0.973  15.993  0.2563 -0.4123 -0.0403
  267MPD2     C 4088   2.146   2.944   0.143 -0.2647  0.8791  0.5066
  267MPD2    C1 4089   2.157   2.807   0.133  0.4329  0.0939  0.2566
  267MPD2    C2 4090   2.122   2.740   0.015 -0.6848  0.2493  0.7743
  267MPD2    C3 4091   2.085   2.817  17.669  0.2908  0.3001 -0.1366
  267MPD2    C4 4092   2.068   2.955  17.682  0.8601  0.1796  0.7402
  267MPD2    C5 4093   2.097   3.014   0.041 -0.4773 -0.1423  0.6025
  267MPD2     H 4094   2.145   2.635   0.002 -2.1925  0.1461 -0.9359
  267MPD2    H1 4095   2.030   3.008  17.595  0.3022  1.5998  1.8594
  267MPD2    H2 4096   2.173   2.999   0.232  0.2725  0.7318  0.4331
  267MPD2    H3 4097   2.088   3.122   0.044  1.9995  0.0570  1.4372
  267MPD2     N 4098   2.060   2.760  17.537 -0.0730  0.3325  0.2236
  267MPD2    H5 4099   2.058   2.811  17.449  0.0545  0.9262  0.5733
  267MPD2    N1 4100   2.202   2.742   0.249 -0.1257  0.2379 -1.0845
  267MPD2    H7 4101   2.231   2.802   0.325 -0.7726 -2.4734  1.2744
  268TMC3    C1 4102   2.281   2.577   0.399  0.1821 -0.2371  0.1314
  268TMC3    C2 4103   2.403   2.635   0.404 -0.2355 -0.1806  0.1704
  268TMC3    C3 4104   2.494   2.591   0.497  0.0780 -0.0208  0.0463
  268TMC3    C4 4105   2.250   2.464   0.466  0.8687  0.0389  0.0080
  268TMC3    C5 4106   2.345   2.422   0.562  0.9060  0.4727  0.1294
  268TMC3    C6 4107   2.459   2.489   0.586 -0.0940  0.2184  0.3768
  268TMC3     C 4108   2.204   2.607   0.277  0.2124  0.0998 -0.0245
  268TMC3     O 4109   2.157   2.513   0.216 -0.5503 -0.1451 -0.3456
  268TMC3     H 4110   2.425   2.725   0.347  1.1913 -0.8054 -0.2525
  268TMC3    H1 4111   2.159   2.412   0.441  0.2979  1.9503 -1.7722
  268TMC3    H2 4112   2.537   2.438   0.641 -0.5663  0.1777  1.0114
  268TMC3    C7 4113   2.330   2.285   0.617 -0.2583 -0.6504  0.0476
  268TMC3    C8 4114   2.630   2.639   0.478 -0.3480 -0.8733 -0.7341
  268TMC3    O1 4115   2.429   2.234   0.670 -0.4980 -0.4429 -0.2627
  268TMC3    O2 4116   2.700   2.660   0.573  1.1699  0.5480  0.2747
  269MPD2     C 4117   2.324   0.648  15.466 -0.1472 -0.4513  0.0138
  269MPD2    C1 4118   2.197   0.692  15.493 -0.1936 -0.0393 -0.4347
  269MPD2    C2 4119   2.157   0.824  15.466 -0.0646  0.2854 -0.0838
  269MPD2    C3 4120   2.245   0.909  15.400  0.5917  0.1599  0.2715
  269MPD2    C4 4121   2.372   0.862  15.378 -0.0557  0.1549 -0.0910
  269MPD2    C5 4122   2.418   0.736  15.406 -0.3468 -0.8900 -0.6661
  269MPD2     H 4123   2.059   0.860  15.496 -0.5626 -0.7839 -0.4221
  269MPD2    H1 4124   2.450   0.925  15.338 -0.1183  0.0791 -0.3350
  269MPD2    H2 4125   2.357   0.547  15.487  1.6527 -0.6056 -3.5317
  269MPD2    H3 4126   2.517   0.702  15.382  0.4116 -0.5120  1.9734
  269MPD2     N 4127   2.202   1.039  15.365  0.4162  0.0496  0.6253
  269MPD2    H5 4128   2.111   1.068  15.398  0.2926  0.3081  0.0552
  269MPD2    N1 4129   2.109   0.598  15.552 -0.4982  0.1651 -0.3151
  269MPD2    H7 4130   2.147   0.507  15.578  2.6627  1.3064 -0.9218
  270TMC3    C1 4131   1.899   0.505  15.603  1.0608 -0.4821 -0.2612
  270TMC3    C2 4132   1.796   0.458  15.531 -0.2004  0.4251  0.4010
  270TMC3    C3 4133   1.742   0.335  15.554  1.0217 -0.2592 -0.0636
  270TMC3    C4 4134   1.951   0.429  15.705  0.1197 -0.2265 -0.2411
  270TMC3    C5 4135   1.899   0.303  15.725 -0.0037  0.1582  0.0550
  270TMC3    C6 4136   1.795   0.253  15.651  0.4406  0.2472  0.1098
  270TMC3     C 4137   1.973   0.614  15.545  0.5591 -0.1422  0.4030
  270TMC3     O 4138   1.908   0.701  15.487 -0.3884  0.0420  0.1017
  270TMC3     H 4139   1.769   0.516  15.444  0.7151 -1.0398 -0.8639
  270TMC3    H1 4140   2.031   0.465  15.768  1.9735 -3.7715 -0.5408
  270TMC3    H2 4141   1.764   0.150  15.662 -0.1576  0.1312 -2.5257
  270TMC3    C7 4142   1.968   0.217  15.833  0.2929 -0.3967 -0.4048
  270TMC3    C8 4143   1.691   0.261  15.438 -0.2428 -0.2503 -0.0447
  270TMC3    O1 4144   2.068   0.265  15.887  0.1820 -0.0625 -0.0572
  270TMC3    O2 4145   1.623   0.161  15.472 -0.5690  0.0008 -0.4133
  271MPD2     C 4146   1.525   0.072  13.843 -0.4577 -0.8578 -0.4509
  271MPD2    C1 4147   1.483   0.156  13.942 -0.0585  0.4646 -0.1306
  271MPD2    C2 4148   1.388   0.252  13.914 -0.8238 -0.0005  0.9124
  271MPD2    C3 4149   1.359   0.281  13.781  0.3662  0.3760 -0.2388
  271MPD2    C4 4150   1.401   0.190  13.686  0.1320  0.2848  0.6016
  271MPD2    C5 4151   1.481   0.082  13.717 -1.0654 -0.4681  0.6310
  271MPD2     H 4152   1.364   0.319  13.996 -0.5740 -0.7250  1.5721
  271MPD2    H1 4153   1.376   0.202  13.581  1.4005  0.1996  0.2878
  271MPD2    H2 4154   1.594   4.734  13.870  0.8020  0.1879 -0.6301
  271MPD2    H3 4155   1.513   0.014  13.638 -1.4323 -1.8161  1.6359
  271MPD2     N 4156   1.281   0.392  13.744  0.3045  0.5408  0.6056
  271MPD2    H5 4157   1.256   0.398  13.646 -0.5760  0.2447  0.8214
  271MPD2    N1 4158   1.542   0.146  14.067 -0.6119 -0.5837  0.3369
  271MPD2    H7 4159   1.498   0.213  14.130 -0.6988 -2.1774  1.9650
  272TMC3    C1 4160   1.663   0.074  14.255 -0.0900  0.0050  0.8245
  272TMC3    C2 4161   1.781   0.024  14.304 -0.1271  0.1313 -0.0767
  272TMC3    C3 4162   1.814   0.043  14.431 -0.5769  0.8888 -0.7482
  272TMC3    C4 4163   1.569   0.133  14.332 -0.6033 -0.4227 -0.4827
  272TMC3    C5 4164   1.604   0.140  14.466 -0.5479 -0.1404  0.9366
  272TMC3    C6 4165   1.722   0.094  14.513 -0.1104  0.3611 -0.2046
  272TMC3     C 4166   1.631   0.055  14.117 -0.3639 -0.2307  0.2835
  272TMC3     O 4167   1.719   0.002  14.051  0.4939  0.0620 -0.1674
  272TMC3     H 4168   1.852   4.707  14.246  1.7411  1.1834  1.1667
  272TMC3    H1 4169   1.469   0.157  14.299 -0.8764 -0.5199  0.2676
  272TMC3    H2 4170   1.741   0.089  14.620 -2.2354 -1.7622  0.0839
  272TMC3    C7 4171   1.514   0.190  14.562 -0.7059  0.4254  0.2044
  272TMC3    C8 4172   1.932   4.731  14.504 -0.2896 -0.0622 -1.3109
  272TMC3    O1 4173   1.395   0.175  14.544 -0.4847 -0.0761  0.2079
  272TMC3    O2 4174   1.937   0.002  14.626 -0.2065  0.4488 -0.0245
  273MPD2     C 4175   2.773   3.589  11.704  1.0545 -0.0209 -0.6158
  273MPD2    C1 4176   2.886   3.675  11.675 -0.5128  0.0359 -0.3381
  273MPD2    C2 4177   2.903   3.712  11.547 -0.5879 -0.1481 -0.3570
  273MPD2    C3 4178   2.818   3.687  11.440  0.2105  0.6763  0.4003
  273MPD2    C4 4179   2.718   3.599  11.469 -0.3630  0.2848  1.1532
  273MPD2    C5 4180   2.698   3.547  11.595 -0.8099  0.2873 -0.2479
  273MPD2     H 4181   2.989   3.777  11.530  0.2889 -0.8911  1.2914
  273MPD2    H1 4182   2.649   3.585  11.386 -1.0015 -1.6185  1.9944
  273MPD2    H2 4183   2.775   3.530  11.796 -0.1409 -0.2530 -0.7409
  273MPD2    H3 4184   2.625   3.470  11.616 -0.5520  0.5196  1.4964
  273MPD2     N 4185   2.832   3.743  11.306  0.3074 -0.1219  0.2448
  273MPD2    H5 4186   2.770   3.708  11.233  0.0642  3.2528 -1.1451
  273MPD2    N1 4187   2.993   3.683  11.771  0.0215  0.5175 -0.5720
  273MPD2    H7 4188   2.988   3.617  11.848 -1.8748 -0.4140 -1.5071
  274TMC3    C1 4189   2.901   3.890  11.139 -1.1544 -0.2487  0.2929
  274TMC3    C2 4190   2.798   3.842  11.059 -0.6775 -0.5620 -0.5213
  274TMC3    C3 4191   2.741   3.936  10.973 -0.3961 -0.1226 -0.3623
  274TMC3    C4 4192   2.929   4.028  11.144 -0.1222  0.8103 -0.1327
  274TMC3    C5 4193   2.867   4.115  11.060  0.4562  0.6537 -0.6827
  274TMC3    C6 4194   2.775   4.063  10.978  0.1186  0.7416 -0.1200
  274TMC3     C 4195   2.936   3.821  11.263 -0.3542 -0.3026  0.6174
  274TMC3     O 4196   3.039   3.851  11.321  0.0081 -0.2145  0.3089
  274TMC3     H 4197   2.768   3.738  11.049  0.5696 -1.0844  1.1724
  274TMC3    H1 4198   2.993   4.063  11.224  1.5872 -3.3656  0.3317
  274TMC3    H2 4199   2.722   4.135  10.916  1.9616  0.1212 -2.3783
  274TMC3    C7 4200   2.810   4.227  11.131  0.7777  0.9762 -0.4314
  274TMC3    C8 4201   2.617   3.898  10.910  0.1699  0.7615 -0.7417
  274TMC3    O1 4202   2.691   4.209  11.152  0.6537 -0.1711  0.1897
  274TMC3    O2 4203   2.564   3.795  10.953 -0.0932 -0.4636  0.0586
  275MPD2     C 4204   2.964   1.298  14.615  0.5490  0.6095  0.4612
  275MPD2    C1 4205   2.905   1.413  14.568  0.2408 -0.2872 -0.0199
  275MPD2    C2 4206   2.778   1.402  14.516  0.0899 -0.0440  0.2280
  275MPD2    C3 4207   2.700   1.292  14.518 -0.3819 -0.1193  0.5786
  275MPD2    C4 4208   2.752   1.178  14.574  0.8997 -0.2340 -0.4523
  275MPD2    C5 4209   2.892   1.182  14.607 -0.1694 -0.3335  0.0867
  275MPD2     H 4210   2.740   1.491  14.467 -0.4044  0.1790  1.0249
  275MPD2    H1 4211   2.710   1.078  14.583 -5.6954  2.6148  0.4513
  275MPD2    H2 4212   3.059   1.290  14.667  0.7496  0.0596  0.0109
  275MPD2    H3 4213   2.927   1.087  14.646  0.5813  0.7818  2.0887
  275MPD2     N 4214   2.559   1.293  14.494 -0.1855  0.6584 -0.1014
  275MPD2    H5 4215   2.507   1.208  14.513 -1.0489  1.6716  1.9705
  275MPD2    N1 4216   2.972   1.537  14.571 -0.1261 -0.2826 -0.2276
  275MPD2    H7 4217   2.908   1.607  14.534 -1.6607 -1.2362  0.6138
  276TMC3    C1 4218   3.122   1.698  14.674 -0.0660 -0.3847  0.1030
  276TMC3    C2 4219   3.009   1.763  14.710 -0.1873 -0.5196  0.6177
  276TMC3    C3 4220   3.001   1.860  14.806  0.3634  0.4262  0.1213
  276TMC3    C4 4221   3.234   1.717  14.742  0.5425  0.1484 -0.2942
  276TMC3    C5 4222   3.241   1.820  14.835  0.2219 -0.2617 -0.3245
  276TMC3    C6 4223   3.125   1.891  14.867 -0.0971  0.1793 -0.0321
  276TMC3     C 4224   3.099   1.561  14.623 -0.4113 -0.3770  0.3681
  276TMC3     O 4225   3.187   1.478  14.645 -0.5032 -0.4973  0.6728
  276TMC3     H 4226   2.925   1.745  14.645 -0.3136 -0.7475  0.8461
  276TMC3    H1 4227   3.324   1.657  14.728 -0.8762 -1.6332 -1.7799
  276TMC3    H2 4228   3.134   1.966  14.944  3.0475 -1.4139  1.1683
  276TMC3    C7 4229   3.296   1.775  14.960  0.1736  0.2045  0.6997
  276TMC3    C8 4230   2.895   1.830  14.901  0.2771  0.0189 -0.8615
  276TMC3    O1 4231   3.221   1.781  15.056  0.3069  0.4573 -0.3165
  276TMC3    O2 4232   2.865   1.914  14.992  0.1886  0.5263  0.2017
  277MPD2     C 4233   4.739   0.533  13.209 -0.1086 -0.3223 -0.3504
  277MPD2    C1 4234   4.629   0.597  13.248 -0.0700  0.4502  0.4928
  277MPD2    C2 4235   4.565   0.558  13.364 -0.3981 -0.3022  0.5499
  277MPD2    C3 4236   4.621   0.452  13.433  0.0853 -0.1326 -0.1362
  277MPD2    C4 4237   4.729   0.385  13.389  0.1558 -0.2793  0.0197
  277MPD2    C5 4238   0.045   0.432  13.279 -0.0482  0.5032  0.0539
  277MPD2     H 4239   4.463   0.590  13.384 -0.6553  1.0981 -2.9124
  277MPD2    H1 4240   0.034   0.302  13.442  2.5299  0.8491 -0.2513
  277MPD2    H2 4241   0.046   0.558  13.114  1.5703  0.3350  0.6674
  277MPD2    H3 4242   0.128   0.372  13.245  0.6030  0.6397  1.4425
  277MPD2     N 4243   4.548   0.418  13.548  0.1720 -0.5602  0.0347
  277MPD2    H5 4244   4.471   0.475  13.582 -0.5071 -2.3296  1.4604
  277MPD2    N1 4245   4.562   0.694  13.169  0.5811  0.4695 -0.4830
  277MPD2    H7 4246   4.476   0.734  13.207  0.8283  0.8218 -0.3003
  278TMC3    C1 4247   4.474   0.288  13.741  0.3873 -0.9331 -0.4948
  278TMC3    C2 4248   4.473   0.163  13.790 -0.2212 -0.0944  0.2513
  278TMC3    C3 4249   4.350   0.118  13.825  1.4538 -0.4676 -0.0779
  278TMC3    C4 4250   4.365   0.364  13.729  0.1719 -0.4005  0.0467
  278TMC3    C5 4251   4.243   0.314  13.767  0.6239 -0.5585  0.2895
  278TMC3    C6 4252   4.239   0.190  13.820  0.2114 -0.4518  0.0941
  278TMC3     C 4253   4.578   0.318  13.641  0.2679 -0.0542  0.5209
  278TMC3     O 4254   4.681   0.248  13.639 -0.1695  0.4452  0.2269
  278TMC3     H 4255   4.558   0.097  13.805 -1.3654 -1.3685  1.1133
  278TMC3    H1 4256   4.364   0.466  13.692  1.8539  0.0761  1.3176
  278TMC3    H2 4257   4.148   0.137  13.846 -0.8876  0.3993 -1.9545
  278TMC3    C7 4258   4.133   0.361  13.692 -0.0825 -0.6588  0.2021
  278TMC3    C8 4259   4.345   4.719  13.883  0.0131 -0.3300 -0.1872
  278TMC3    O1 4260   4.154   0.446  13.608  0.3021  0.5844 -0.2298
  278TMC3    O2 4261   4.452   4.669  13.919  0.2539  0.0212  0.3510
  279MPD2     C 4262   4.198   0.327   0.197 -1.3729 -0.3201  0.0653
  279MPD2    C1 4263   4.120   0.438   0.228 -0.1563 -0.3497  0.4719
  279MPD2    C2 4264   4.135   0.560   0.155 -0.3772  0.5432  0.2043
  279MPD2    C3 4265   4.224   0.556   0.047  0.0285  0.0644  0.0369
  279MPD2    C4 4266   4.303   0.451   0.021  0.1311 -0.1984 -0.0107
  279MPD2    C5 4267   4.281   0.335   0.086 -0.0982 -0.1133  0.1024
  279MPD2     H 4268   4.075   0.644   0.189 -1.0991 -0.2861  0.9851
  279MPD2    H1 4269   4.378   0.452  17.704  1.5275 -2.2721  1.2845
  279MPD2    H2 4270   4.189   0.229   0.241  0.3151 -0.1082  0.8906
  279MPD2    H3 4271   4.344   0.247   0.072 -1.3160 -1.0159  0.2734
  279MPD2     N 4272   4.250   0.672  17.726 -0.1178  0.0375  0.3831
  279MPD2    H5 4273   4.320   0.667  17.653 -1.3108 -1.6171 -0.6414
  279MPD2    N1 4274   4.037   0.421   0.338 -0.0753  0.4042 -0.2618
  279MPD2    H7 4275   4.026   0.329   0.379  1.4099  0.4996  0.3255
  280TMC3    C1 4276   3.841   0.465   0.459 -0.0033 -1.0730 -0.1602
  280TMC3    C2 4277   3.788   0.351   0.418 -0.5878 -0.2846  0.4484
  280TMC3    C3 4278   3.659   0.314   0.456 -0.2287  0.0178  0.2584
  280TMC3    C4 4279   3.778   0.552   0.544  0.0903 -0.1721 -0.4035
  280TMC3    C5 4280   3.649   0.514   0.583  0.0283  0.0507  0.4112
  280TMC3    C6 4281   3.585   0.402   0.532 -0.4525  0.4640  0.0695
  280TMC3     C 4282   3.948   0.518   0.383 -0.5159  0.3294  0.1469
  280TMC3     O 4283   3.939   0.639   0.361  0.1913 -0.1894  0.0417
  280TMC3     H 4284   3.840   0.294   0.341 -0.1091  0.3547  0.2980
  280TMC3    H1 4285   3.833   0.639   0.578  1.8880 -1.1584 -0.7568
  280TMC3    H2 4286   3.480   0.378   0.541 -1.0028  3.2356  1.1736
  280TMC3    C7 4287   3.580   0.622   0.650  0.7629  0.0805 -0.5164
  280TMC3    C8 4288   3.604   0.195   0.402 -0.3746 -0.0586 -0.1673
  280TMC3    O1 4289   3.626   0.683   0.750 -0.1464 -0.4037  0.7300
  280TMC3    O2 4290   3.639   0.171   0.288  0.6133 -0.5273 -0.3918
  281TMC3    C1 4291   2.915   1.138  13.230  0.2574 -0.0523 -0.0818
  281TMC3    C2 4292   2.868   1.180  13.106 -0.6426  0.2070  0.4911
  281TMC3    C3 4293   2.902   1.109  13.001  0.3879  0.9240 -0.8772
  281TMC3    C4 4294   2.996   1.026  13.245  0.0049 -0.1333 -0.6193
  281TMC3    C5 4295   3.051   0.980  13.128 -0.1325 -0.0715 -0.3438
  281TMC3    C6 4296   2.998   1.015  13.006  0.6973 -0.1259  0.4206
  281TMC3     C 4297   2.858   1.186  13.358 -0.5630  0.5976 -0.8791
  281TMC3     O 4298   2.919   1.156  13.456  0.1376  0.0136  0.0435
  281TMC3     H 4299   2.810   1.269  13.086 -1.3464 -0.3359  0.0788
  281TMC3    H1 4300   3.048   1.006  13.338 -0.5858 -0.4157 -0.3511
  281TMC3    H2 4301   3.040   0.981  12.912 -0.3820 -0.5735  0.1044
  281TMC3    C7 4302   3.064   0.834  13.122 -0.0427  0.4473  0.1635
  281TMC3    C8 4303   2.779   1.047  12.964 -0.3254 -0.3148 -0.2560
  281TMC3    O1 4304   3.129   0.793  13.033  0.3107  0.6302  0.1757
  281TMC3    O2 4305   2.681   1.086  13.031  0.1114  0.3540 -0.0096
  282MPD2     C 4306   4.568   2.401  15.187  0.0909  0.0244  0.0329
  282MPD2    C1 4307   4.459   2.357  15.251 -0.0977  0.4861 -0.1209
  282MPD2    C2 4308   4.354   2.311  15.171  0.2491 -0.6697  0.1399
  282MPD2    C3 4309   4.360   2.314  15.031 -0.3002  0.4964 -0.0386
  282MPD2    C4 4310   4.475   2.368  14.972 -0.1440  0.6101  0.1621
  282MPD2    C5 4311   4.572   2.418  15.050  0.1019 -0.4240 -0.3403
  282MPD2     H 4312   4.267   2.269  15.221 -0.1657  1.1557  0.9433
  282MPD2    H1 4313   4.486   2.359  14.865  0.0708 -1.4205  0.3394
  282MPD2    H2 4314   4.657   2.426  15.243 -0.8911  1.0569  1.1149
  282MPD2    H3 4315   4.670   2.441  15.010  1.2715 -0.8628  2.2636
  282MPD2     N 4316   4.240   2.272  14.966 -0.4302  0.2700  0.1440
  282MPD2    H5 4317   4.160   2.251  15.024 -0.2425  1.5750  0.8844
  282MPD2    N1 4318   4.472   2.314  15.387 -0.2363  0.0209 -0.1221
  282MPD2    H7 4319   4.379   2.295  15.425 -0.1265 -2.0499 -0.8639
  283TMC3    C1 4320   4.559   2.251  15.590  0.3170  0.1344  0.1579
  283TMC3    C2 4321   4.656   2.276  15.680 -0.3623  0.2717  0.3130
  283TMC3    C3 4322   4.627   2.272  15.810 -0.0673 -0.1630 -0.4487
  283TMC3    C4 4323   4.439   2.207  15.635  0.0139 -0.0526  0.5306
  283TMC3    C5 4324   4.411   2.206  15.767  0.3548 -0.5656  0.2338
  283TMC3    C6 4325   4.509   2.231  15.855  0.6666  0.6971  0.1796
  283TMC3     C 4326   4.579   2.313  15.466  0.2376 -0.1920 -0.7083
  283TMC3     O 4327   4.692   2.356  15.450 -0.1740  0.1328 -0.7390
  283TMC3     H 4328   0.019   2.298  15.658  0.1815  1.6742  4.2923
  283TMC3    H1 4329   4.355   2.176  15.574  0.3434 -0.8377  0.4730
  283TMC3    H2 4330   4.495   2.228  15.962  1.6099  0.1501  0.2908
  283TMC3    C7 4331   4.287   2.148  15.814  0.1264  0.3600 -0.2137
  283TMC3    C8 4332   4.691   2.374  15.884  0.4230  0.0093  0.1655
  283TMC3    O1 4333   4.286   2.079  15.913 -0.0151  0.3952 -0.5890
  283TMC3    O2 4334   4.715   2.343  16.001 -0.2716 -0.6794  0.0303
  284MPD2     C 4335   2.322   1.817  12.327 -0.2166  0.6296 -0.3661
  284MPD2    C1 4336   2.460   1.819  12.326 -0.1734  0.1521 -0.7316
  284MPD2    C2 4337   2.529   1.708  12.359  0.3026 -0.1769 -0.4426
  284MPD2    C3 4338   2.466   1.584  12.387 -0.8382 -0.8966 -1.0604
  284MPD2    C4 4339   2.326   1.584  12.396 -0.0715  0.7735 -0.4582
  284MPD2    C5 4340   2.255   1.702  12.364 -0.0536 -0.2653 -0.7245
  284MPD2     H 4341   2.637   1.719  12.359  0.1727  1.1201 -0.6937
  284MPD2    H1 4342   2.273   1.492  12.413  0.2598  0.3138 -1.8838
  284MPD2    H2 4343   2.255   1.896  12.296  0.5128  1.7082  0.7819
  284MPD2    H3 4344   2.148   1.707  12.382  0.1162 -0.1754  0.2996
  284MPD2     N 4345   2.535   1.463  12.410  0.6106 -0.1767 -0.5292
  284MPD2    H5 4346   2.484   1.375  12.416  1.7522 -0.8999 -1.3434
  284MPD2    N1 4347   2.542   1.931  12.294 -0.2263 -0.4146  0.8135
  284MPD2    H7 4348   2.641   1.912  12.304 -0.2725 -0.8031  0.5036
  285TMC3    C1 4349   2.614   2.135  12.207  0.2904  0.0658  0.0153
  285TMC3    C2 4350   2.740   2.077  12.190  0.0037  0.2804 -0.2424
  285TMC3    C3 4351   2.846   2.146  12.138  0.3511  0.3271  0.0285
  285TMC3    C4 4352   2.596   2.266  12.152 -0.1345  0.0024  0.2285
  285TMC3    C5 4353   2.703   2.331  12.106 -0.6048  0.4237 -0.0417
  285TMC3    C6 4354   2.829   2.274  12.096 -0.6587 -0.5088 -0.1428
  285TMC3     C 4355   2.501   2.052  12.252  0.2921 -0.7238  0.5399
  285TMC3     O 4356   2.390   2.098  12.239 -0.7365 -0.0697 -0.1051
  285TMC3     H 4357   2.771   1.979  12.224  2.0272  0.2207 -2.2287
  285TMC3    H1 4358   2.501   2.317  12.163  0.2394  0.8376 -0.4523
  285TMC3    H2 4359   2.901   2.326  12.033  0.8142  0.8915  2.6956
  285TMC3    C7 4360   2.686   2.458  12.037 -0.0249 -0.2394 -0.8616
  285TMC3    C8 4361   2.933   2.061  12.059 -0.0390 -0.2022  0.6917
  285TMC3    O1 4362   2.788   2.509  11.988 -0.3596 -0.0072 -0.1613
  285TMC3    O2 4363   2.915   1.940  12.062 -0.7935 -0.5392  0.7834
  286MPD2     C 4364   2.934   0.068   1.334  0.7039 -0.1047 -0.0141
  286MPD2    C1 4365   2.931   0.042   1.195 -0.7322 -0.9531 -0.0582
  286MPD2    C2 4366   2.999   4.671   1.152  0.3709 -0.6322  0.2551
  286MPD2    C3 4367   3.065   4.582   1.237  0.5173 -0.6841  0.4118
  286MPD2    C4 4368   3.088   4.621   1.361  0.3326 -0.5392 -0.3117
  286MPD2    C5 4369   3.015   4.731   1.409  0.1041 -0.0534 -0.1537
  286MPD2     H 4370   2.994   4.657   1.045  0.4406  3.4984 -0.2731
  286MPD2    H1 4371   3.130   4.547   1.428  1.3116 -0.6322 -1.0333
  286MPD2    H2 4372   2.885   0.157   1.373  0.3245  0.2939 -1.4056
  286MPD2    H3 4373   3.036   0.012   1.513 -2.6164 -2.1830  0.8300
  286MPD2     N 4374   3.129   4.467   1.186  0.3178  0.2020  0.0338
  286MPD2    H5 4375   3.208   4.425   1.234  0.4786 -0.5484 -0.8748
  286MPD2    N1 4376   2.856   0.123   1.109  0.2150  0.5898 -0.1528
  286MPD2    H7 4377   2.832   0.077   1.021  2.6334  0.4609 -0.7259
  287TMC3    C1 4378   3.211   4.294   1.041  0.1792  0.0698 -0.0924
  287TMC3    C2 4379   3.175   4.225   0.922  0.8803  0.2463 -0.5063
  287TMC3    C3 4380   3.266   4.157   0.855  0.5287  0.2368  0.0163
  287TMC3    C4 4381   3.342   4.291   1.076 -0.8812  0.5111 -0.3176
  287TMC3    C5 4382   3.433   4.223   0.991 -0.9001 -0.4977 -0.3357
  287TMC3    C6 4383   3.399   4.165   0.873  0.2551  0.3501 -0.2960
  287TMC3     C 4384   3.108   4.396   1.075  0.7170 -0.4635  1.0476
  287TMC3     O 4385   3.026   4.418   0.987 -0.1191 -0.1921  0.8751
  287TMC3     H 4386   3.070   4.209   0.900  0.3194 -0.4759  2.6084
  287TMC3    H1 4387   3.377   4.333   1.170  0.5712 -3.2693  0.8147
  287TMC3    H2 4388   3.448   4.092   0.811 -0.7203 -2.6225  2.4504
  287TMC3    C7 4389   3.571   4.215   1.033 -0.2375 -0.3573 -0.5758
  287TMC3    C8 4390   3.217   4.103   0.724  0.2112  0.1701 -0.9767
  287TMC3    O1 4391   3.586   4.233   1.155  0.3180 -0.2053  0.3611
  287TMC3    O2 4392   3.123   4.028   0.736  0.0308  0.3376  0.2173
  288TMC3    C1 4393   0.208   4.712  14.596 -0.1467 -1.0226  0.0625
  288TMC3    C2 4394   0.203   4.646  14.720  0.3653 -0.3236 -0.2708
  288TMC3    C3 4395   0.075   4.621  14.764  0.6285 -0.7410 -0.4155
  288TMC3    C4 4396   0.097   0.036  14.543 -0.6912 -0.2628  0.0714
  288TMC3    C5 4397   4.714   0.015  14.595 -0.2246 -0.1751 -0.6195
  288TMC3    C6 4398   4.700   4.664  14.701  0.1723  0.2462 -0.0003
  288TMC3     C 4399   0.337   0.003  14.534 -0.4098 -0.0329 -0.6370
  288TMC3     O 4400   0.431   0.012  14.614 -0.3922 -0.3506 -0.5974
  288TMC3     H 4401   0.283   4.598  14.774  1.2618  0.4700 -0.8808
  288TMC3    H1 4402   0.096   0.081  14.444 -0.0182  1.3780  0.7987
  288TMC3    H2 4403   4.601   4.639  14.738 -0.6293  2.6863 -0.4477
  288TMC3    C7 4404   4.600   0.023  14.506  0.3865 -0.0533  0.0211
  288TMC3    C8 4405   0.053   4.556  14.893  0.0779 -0.2802 -0.2535
  288TMC3    O1 4406   4.501   4.709  14.548 -0.2614 -0.0569  0.2894
  288TMC3    O2 4407   0.142   4.571  14.972 -0.4480  0.6674 -0.9641
  289MPD2     C 4408   0.085   3.990  14.990  0.1328  0.0795 -0.4423
  289MPD2    C1 4409   0.079   4.074  14.885 -0.2082 -0.1829  0.7076
  289MPD2    C2 4410   4.726   4.051  14.789  0.5676 -0.2872 -0.3817
  289MPD2    C3 4411   4.628   3.949  14.806 -0.3468 -0.1810  0.5559
  289MPD2    C4 4412   4.628   3.872  14.917 -0.3649 -0.0302 -0.3497
  289MPD2    C5 4413   4.736   3.890  15.001  0.1260  0.6133 -0.2169
  289MPD2     H 4414   4.718   4.120  14.705  1.6347 -0.4487 -0.6253
  289MPD2    H1 4415   4.554   3.795  14.937  0.8162 -0.6796  1.5567
  289MPD2    H2 4416   0.163   3.992  15.066 -0.0636 -0.3916 -0.2308
  289MPD2    H3 4417   0.009   3.811  15.073  0.0573 -0.5848 -1.5079
  289MPD2     N 4418   4.532   3.914  14.708 -0.3730 -0.8279  1.0394
  289MPD2    H5 4419   4.471   3.837  14.733 -0.5702 -1.8551 -2.6137
  289MPD2    N1 4420   0.187   4.167  14.862 -0.1807 -0.6104 -0.2319
  289MPD2    H7 4421   0.264   4.159  14.926 -0.1822 -0.8911 -0.2668
  290TMC3    C1 4422   4.408   3.908  14.512 -0.1804  0.7885 -0.0413
  290TMC3    C2 4423   4.323   3.985  14.437  0.4063  0.0824 -0.3638
  290TMC3    C3 4424   4.210   3.929  14.390  0.3245  0.0656 -0.1136
  290TMC3    C4 4425   4.379   3.776  14.535  0.0357  0.1970  0.1678
  290TMC3    C5 4426   4.281   3.721  14.472  0.1632  1.0302  0.1709
  290TMC3    C6 4427   4.188   3.795  14.400 -0.4658  0.2202  0.7728
  290TMC3     C 4428   4.502   3.985  14.593 -0.0521 -0.5902 -0.8469
  290TMC3     O 4429   4.548   4.091  14.552 -0.5401  0.0443 -0.2707
  290TMC3     H 4430   4.344   4.090  14.418 -1.2542  0.5993  0.6330
  290TMC3    H1 4431   4.449   3.722  14.597 -0.9598 -0.9988  0.2378
  290TMC3    H2 4432   4.094   3.751  14.367 -0.1048  0.8754 -1.1577
  290TMC3    C7 4433   4.240   3.590  14.522 -0.1126  0.4380 -0.1369
  290TMC3    C8 4434   4.111   4.007  14.346 -0.3635 -0.2137  0.2974
  290TMC3    O1 4435   4.321   3.524  14.579 -0.2422  0.4067  0.5132
  290TMC3    O2 4436   4.048   3.965  14.253  0.3219 -0.0771 -0.4152
  291MPD2     C 4437   4.160   4.100   0.480  0.8673 -0.3430 -0.7840
  291MPD2    C1 4438   4.246   4.005   0.434 -0.8040  0.1528  0.8265
  291MPD2    C2 4439   4.351   4.055   0.353  0.3678  0.4210 -0.8498
  291MPD2    C3 4440   4.361   4.192   0.324 -0.5410 -0.1316 -0.3864
  291MPD2    C4 4441   4.268   4.282   0.374 -0.3506  0.7275  0.5976
  291MPD2    C5 4442   4.170   4.238   0.451 -0.1710 -0.5267 -0.2308
  291MPD2     H 4443   4.435   3.993   0.324 -0.1436 -0.2336 -0.9458
  291MPD2    H1 4444   4.273   4.388   0.356 -2.7589  0.7974  0.2739
  291MPD2    H2 4445   4.073   4.080   0.541  1.3273 -0.3802 -0.1314
  291MPD2    H3 4446   4.107   4.311   0.500  2.9888  0.1981  2.7635
  291MPD2     N 4447   4.471   4.252   0.253 -0.0078  0.0519 -0.2467
  291MPD2    H5 4448   4.468   4.353   0.247  0.0363  0.0222 -0.7758
  291MPD2    N1 4449   4.231   3.880   0.478  0.6662  0.1187  0.4596
  291MPD2    H7 4450   4.154   3.861   0.541  1.2662 -4.7719 -0.2578
  292TMC3    C1 4451   4.257   3.652   0.503  0.1100 -0.2036  0.0711
  292TMC3    C2 4452   4.210   3.672   0.631 -1.2222  1.0963  0.4525
  292TMC3    C3 4453   4.133   3.565   0.681 -1.0319  0.3783  0.2813
  292TMC3    C4 4454   4.222   3.549   0.426  0.5757  0.6705  0.3069
  292TMC3    C5 4455   4.138   3.457   0.477 -0.8224  0.6343  0.4839
  292TMC3    C6 4456   4.085   3.460   0.604  0.0626  0.1519  0.4316
  292TMC3     C 4457   4.298   3.768   0.420  0.6122  0.0195 -0.1701
  292TMC3     O 4458   4.372   3.758   0.325  0.1130  0.4979  0.0945
  292TMC3     H 4459   4.249   3.742   0.704 -1.5672  1.2248  0.5129
  292TMC3    H1 4460   4.257   3.543   0.324  0.7517 -0.1388  0.4202
  292TMC3    H2 4461   4.025   3.383   0.652 -1.2143  0.6518 -0.3675
  292TMC3    C7 4462   4.091   3.354   0.388  0.1821  0.6339  0.1602
  292TMC3    C8 4463   4.118   3.572   0.820  0.0233  0.4703 -0.4208
  292TMC3    O1 4464   4.156   3.318   0.293 -0.0101 -0.6314 -0.1177
  292TMC3    O2 4465   4.194   3.637   0.891 -0.6275  1.0736  0.5417
  293MPD2     C 4466   0.751   0.368  12.482 -0.9453  0.3087 -0.3788
  293MPD2    C1 4467   0.662   0.339  12.583 -0.9353  0.4848 -0.1117
  293MPD2    C2 4468   0.696   0.352  12.717  0.2647 -0.1941 -0.3406
  293MPD2    C3 4469   0.823   0.391  12.746  0.4091  0.5641 -0.1420
  293MPD2    C4 4470   0.911   0.436  12.649  0.0990  0.3611  0.2138
  293MPD2    C5 4471   0.871   0.417  12.520  0.0659  0.6154  0.2574
  293MPD2     H 4472   0.622   0.343  12.795  0.1281 -0.6553 -0.5264
  293MPD2    H1 4473   1.013   0.465  12.671  0.1129  0.4909 -0.0286
  293MPD2    H2 4474   0.722   0.357  12.379 -0.8509  1.0139 -0.4808
  293MPD2    H3 4475   0.943   0.439  12.441 -0.1739  0.4204 -0.0158
  293MPD2     N 4476   0.855   0.389  12.882  0.2799  0.0932  0.3720
  293MPD2    H5 4477   0.780   0.357  12.942 -0.3592  1.9612  0.5702
  293MPD2    N1 4478   0.539   0.286  12.540 -0.2370  0.2124  0.1549
  293MPD2    H7 4479   0.514   0.291  12.442  3.5916 -1.8629 -0.9302
  294TMC3    C1 4480   0.334   0.187  12.570 -0.2783 -0.0643 -0.4543
  294TMC3    C2 4481   0.262   0.088  12.634 -0.0356 -0.4065 -0.2384
  294TMC3    C3 4482   0.129   0.078  12.623 -0.6390  0.3450  0.0552
  294TMC3    C4 4483   0.269   0.276  12.487  0.5322 -0.5775  0.1773
  294TMC3    C5 4484   0.135   0.261  12.480  0.3192 -0.4114  1.0917
  294TMC3    C6 4485   0.061   0.166  12.545 -0.4146  0.1165  0.7248
  294TMC3     C 4486   0.453   0.231  12.634 -0.7100 -0.3825 -0.2415
  294TMC3     O 4487   0.462   0.203  12.753 -0.8719  0.1432  0.5433
  294TMC3     H 4488   0.318   0.035  12.711 -2.1388 -2.0272  0.1701
  294TMC3    H1 4489   0.317   0.366  12.452  0.1310 -0.4556 -0.0619
  294TMC3    H2 4490   4.695   0.154  12.533 -0.4430 -0.0466  1.1301
  294TMC3    C7 4491   0.073   0.340  12.379 -0.3255 -0.1589  0.9787
  294TMC3    C8 4492   0.095   4.682  12.616  0.4820 -1.3109  0.0459
  294TMC3    O1 4493   0.146   0.410  12.311  0.1242  0.1170  0.0873
  294TMC3    O2 4494   0.179   4.595  12.597 -0.3468 -0.5510  0.3609
  295MPD2     C 4495   1.573   4.049   0.315 -0.2921  0.4506  0.0372
  295MPD2    C1 4496   1.681   3.966   0.301  0.3289 -0.7189 -0.3383
  295MPD2    C2 4497   1.704   3.876   0.394  1.0161  0.0841 -0.3588
  295MPD2    C3 4498   1.639   3.879   0.520 -0.1228 -0.5470 -0.6185
  295MPD2    C4 4499   1.540   3.975   0.538 -0.0273  0.1178  0.1836
  295MPD2    C5 4500   1.517   4.069   0.441  0.4449  0.0629 -0.0087
  295MPD2     H 4501   1.774   3.798   0.368  0.3843 -0.9302  0.9620
  295MPD2    H1 4502   1.489   3.995   0.632  0.5170  2.9686 -0.1392
  295MPD2    H2 4503   1.539   4.118   0.239 -0.5445  0.9251  0.5802
  295MPD2    H3 4504   1.440   4.140   0.468  0.1446 -0.1600 -0.2751
  295MPD2     N 4505   1.642   3.783   0.622  0.7106  0.0282 -0.4264
  295MPD2    H5 4506   1.564   3.786   0.686  1.0034 -2.6838  0.0514
  295MPD2    N1 4507   1.747   3.957   0.176  0.4894  0.7488  0.3699
  295MPD2    H7 4508   1.816   3.883   0.170  0.9198  1.3125 -1.7372
  296TMC3    C1 4509   1.717   3.586   0.732  0.1454 -0.6784  0.6663
  296TMC3    C2 4510   1.616   3.592   0.829  0.4072  0.4577  0.7406
  296TMC3    C3 4511   1.578   3.480   0.899  0.3022 -0.0313  0.6488
  296TMC3    C4 4512   1.788   3.470   0.717  0.4884  0.2554 -0.4225
  296TMC3    C5 4513   1.756   3.363   0.801  0.2437  0.0173 -0.0195
  296TMC3    C6 4514   1.646   3.364   0.887 -0.1830 -0.7552 -0.8260
  296TMC3     C 4515   1.738   3.682   0.626 -0.2528  0.8380 -0.0954
  296TMC3     O 4516   1.828   3.661   0.543 -0.1609  0.0586 -0.3878
  296TMC3     H 4517   1.548   3.677   0.821  0.6555  0.7238  1.4830
  296TMC3    H1 4518   1.873   3.476   0.650  0.5515  0.1225 -0.3555
  296TMC3    H2 4519   1.613   3.275   0.939  1.5428 -1.0429 -0.2161
  296TMC3    C7 4520   1.845   3.250   0.801 -0.5188 -0.2640  0.6621
  296TMC3    C8 4521   1.478   3.490   1.003  0.6644 -0.1431 -0.0817
  296TMC3    O1 4522   1.932   3.252   0.715  0.0615 -0.5944  0.1980
  296TMC3    O2 4523   1.424   3.386   1.038 -0.2680 -0.2920  0.6276
  297MPD2     C 4524   3.880   0.894  16.660 -0.1142  0.1360  0.7812
  297MPD2    C1 4525   3.838   0.929  16.535 -0.2110  0.3690  0.6130
  297MPD2    C2 4526   3.894   1.042  16.475  0.5618 -0.2195  0.2965
  297MPD2    C3 4527   4.000   1.109  16.534  0.4698 -0.1513  0.1928
  297MPD2    C4 4528   4.037   1.079  16.666  0.7763 -0.1570  0.8014
  297MPD2    C5 4529   3.985   0.963  16.719  0.1666  0.5386  0.1291
  297MPD2     H 4530   3.856   1.081  16.382  0.6051  2.1201  1.2726
  297MPD2    H1 4531   4.100   1.140  16.730  0.5140 -0.1048  1.0082
  297MPD2    H2 4532   3.841   0.807  16.710 -0.1724 -0.0499  0.4100
  297MPD2    H3 4533   4.019   0.936  16.818 -1.7841 -0.3919  0.5450
  297MPD2     N 4534   4.056   1.220  16.470 -0.2573  0.0772 -0.4789
  297MPD2    H5 4535   4.017   1.233  16.378  0.2300  0.0231 -0.6946
  297MPD2    N1 4536   3.724   0.874  16.467 -0.1951  0.0327 -0.8473
  297MPD2    H7 4537   3.699   0.920  16.381  1.8087  1.9579 -0.4239
  298TMC3    C1 4538   3.490   0.842  16.465 -0.0048  0.4752  0.0469
  298TMC3    C2 4539   3.489   0.844  16.330 -0.7644  0.5675  0.0482
  298TMC3    C3 4540   3.377   0.903  16.276 -0.5525 -0.2011 -0.0813
  298TMC3    C4 4541   3.383   0.879  16.543 -0.3058  0.3890 -0.0569
  298TMC3    C5 4542   3.273   0.937  16.489  0.7613  0.1281  0.4660
  298TMC3    C6 4543   3.275   0.953  16.352 -0.3119  0.7898  0.2599
  298TMC3     C 4544   3.625   0.804  16.527 -0.4637  0.7016 -0.1318
  298TMC3     O 4545   3.628   0.769  16.643 -0.0663  0.3614  0.1730
  298TMC3     H 4546   3.575   0.810  16.273 -0.3885  0.1713  0.8490
  298TMC3    H1 4547   3.401   0.883  16.650  2.1837  0.9821 -0.4911
  298TMC3    H2 4548   3.192   1.006  16.305 -0.0903 -1.5009 -2.6832
  298TMC3    C7 4549   3.207   1.037  16.571  0.5030 -0.2331 -0.6291
  298TMC3    C8 4550   3.364   0.911  16.132  0.7220  0.0592  0.2042
  298TMC3    O1 4551   3.273   1.087  16.658 -0.2192  0.0221 -0.4029
  298TMC3    O2 4552   3.265   0.963  16.082 -0.1483  0.0031  0.1695
  299MPD2     C 4553   3.886   1.088  10.864  0.4273 -0.3244 -0.2500
  299MPD2    C1 4554   3.865   0.977  10.943 -0.0920 -0.2150 -0.0281
  299MPD2    C2 4555   3.736   0.927  10.947 -0.3156  0.1340 -0.1531
  299MPD2    C3 4556   3.629   0.979  10.882  0.2120 -0.0625 -0.2824
  299MPD2    C4 4557   3.657   1.085  10.806 -0.2899 -0.1392 -0.4559
  299MPD2    C5 4558   3.784   1.138  10.791  0.4293 -0.0618  1.4384
  299MPD2     H 4559   3.727   0.843  11.015  0.8195 -1.4633 -1.9432
  299MPD2    H1 4560   3.589   1.137  10.739 -1.7708 -0.7758  0.5549
  299MPD2    H2 4561   3.979   1.143  10.870  0.7901 -0.8829 -0.7327
  299MPD2    H3 4562   3.799   1.226  10.728  1.7702 -0.8168  0.7148
  299MPD2     N 4563   3.493   0.939  10.894  0.4524 -0.2739  0.1457
  299MPD2    H5 4564   3.421   1.002  10.860  1.0311  0.8247  0.9196
  299MPD2    N1 4565   3.971   0.938  11.035  0.0084 -0.2460 -0.2575
  299MPD2    H7 4566   4.057   0.991  11.028 -0.7354  1.1886  1.5748
  300TMC3    C1 4567   3.304   0.817  10.951 -0.0066 -0.0867  0.3300
  300TMC3    C2 4568   3.237   0.882  10.847 -0.4458  0.1127 -0.3885
  300TMC3    C3 4569   3.105   0.873  10.848  1.2253 -0.3389 -0.0769
  300TMC3    C4 4570   3.241   0.752  11.053 -0.3052  0.7001 -0.0253
  300TMC3    C5 4571   3.104   0.747  11.049  0.3580  0.2028 -0.3603
  300TMC3    C6 4572   3.038   0.807  10.946  0.5505 -0.0415  0.0523
  300TMC3     C 4573   3.444   0.839  10.980  0.2818  0.6110 -0.3733
  300TMC3     O 4574   3.506   0.757  11.039 -0.0551  0.8004 -0.7006
  300TMC3     H 4575   3.290   0.912  10.757 -1.4666 -0.9642 -1.3456
  300TMC3    H1 4576   3.284   0.703  11.140  0.0230 -1.7162 -1.5324
  300TMC3    H2 4577   2.931   0.814  10.964  0.9904  2.1356  1.7963
  300TMC3    C7 4578   3.034   0.750  11.179 -0.6736  0.0891  0.0268
  300TMC3    C8 4579   3.027   0.962  10.769  0.2224  0.1292  0.1589
  300TMC3    O1 4580   2.917   0.717  11.176  0.0244  0.2863 -0.7322
  300TMC3    O2 4581   2.911   0.925  10.738  0.4691 -0.7110 -0.1175
  301MPD2     C 4582   1.999   1.921   1.071 -0.2287  0.3098  0.6131
  301MPD2    C1 4583   1.864   1.930   1.024  0.1011 -0.5620 -0.2936
  301MPD2    C2 4584   1.813   1.819   0.972  0.0851 -0.0337 -0.6327
  301MPD2    C3 4585   1.882   1.695   0.971 -0.3130  0.5462 -0.0502
  301MPD2    C4 4586   2.005   1.687   1.028 -0.1847  0.2647  0.2970
  301MPD2    C5 4587   2.072   1.804   1.067  0.2775 -0.6370  0.1995
  301MPD2     H 4588   1.710   1.828   0.939 -1.0202 -1.5147  2.4620
  301MPD2    H1 4589   2.060   1.594   1.037 -1.2362 -0.3572  0.2745
  301MPD2    H2 4590   2.041   2.011   1.115 -0.8256  0.4590  0.8841
  301MPD2    H3 4591   2.173   1.815   1.104 -0.5421 -0.1125  2.2822
  301MPD2     N 4592   1.820   1.579   0.918 -0.3223 -0.5708 -0.1860
  301MPD2    H5 4593   1.871   1.495   0.946 -0.0995  0.2663  1.9136
  301MPD2    N1 4594   1.773   2.035   1.055 -0.2852  0.4601  0.1607
  301MPD2    H7 4595   1.675   2.009   1.046  0.8313 -3.0929 -1.9511
  302TMC3    C1 4596   1.651   1.439   0.847 -0.0147  0.6438  0.0784
  302TMC3    C2 4597   1.700   1.345   0.934  0.2855 -0.6657 -0.8437
  302TMC3    C3 4598   1.616   1.248   0.980 -0.2663 -0.0374 -0.0888
  302TMC3    C4 4599   1.521   1.430   0.798  0.1857  0.6249 -0.0162
  302TMC3    C5 4600   1.446   1.333   0.848  1.6566 -0.1840  0.0629
  302TMC3    C6 4601   1.489   1.251   0.945  0.8025 -0.5239  0.3095
  302TMC3     C 4602   1.700   1.575   0.854 -0.0747  0.3681  0.2852
  302TMC3     O 4603   1.632   1.664   0.812 -0.0438 -0.2119  0.7045
  302TMC3     H 4604   1.806   1.336   0.952  0.2830  0.1073 -0.4505
  302TMC3    H1 4605   1.482   1.500   0.724 -0.1889 -1.0492 -1.4087
  302TMC3    H2 4606   1.428   1.164   0.969  0.2837  0.0475  1.0664
  302TMC3    C7 4607   1.312   1.317   0.804  0.1172 -0.0397  0.1109
  302TMC3    C8 4608   1.676   1.114   1.007 -0.3200 -0.1721 -0.2397
  302TMC3    O1 4609   1.254   1.213   0.830  0.5462  0.0129 -0.3011
  302TMC3    O2 4610   1.787   1.091   0.957  0.1139 -0.3599 -0.8767
  303MPD2     C 4611   1.606   0.687  11.554 -0.4296 -0.0770 -0.2212
  303MPD2    C1 4612   1.562   0.569  11.499  0.2821  0.6213 -0.0232
  303MPD2    C2 4613   1.592   0.557  11.362 -0.3178 -0.7588  0.1194
  303MPD2    C3 4614   1.651   0.653  11.286 -0.9006 -0.1608 -0.2598
  303MPD2    C4 4615   1.695   0.762  11.349 -0.0049 -0.5371 -0.1509
  303MPD2    C5 4616   1.686   0.778  11.486 -0.1039 -0.3915  0.3469
  303MPD2     H 4617   1.547   0.471  11.313  1.2043 -2.1923  1.2184
  303MPD2    H1 4618   1.733   0.848  11.295  1.5946 -1.8890 -1.2120
  303MPD2    H2 4619   1.601   0.712  11.659  0.9269 -1.4839  0.1684
  303MPD2    H3 4620   1.735   0.860  11.537  2.0447 -2.1882  1.1573
  303MPD2     N 4621   1.669   0.651  11.140 -0.5694 -0.0117 -0.3985
  303MPD2    H5 4622   1.711   0.732  11.095  0.8617 -0.0393  0.8906
  303MPD2    N1 4623   1.494   0.474  11.576 -0.7535 -0.2194 -0.0645
  303MPD2    H7 4624   1.462   0.501  11.668 -1.7909  0.9089 -0.7602
  304TMC3    C1 4625   1.367   0.285  11.622  0.2650 -0.7272  0.5634
  304TMC3    C2 4626   1.262   0.358  11.664 -0.0407 -0.1246  0.0662
  304TMC3    C3 4627   1.154   0.298  11.720  0.0963 -0.3297 -0.6808
  304TMC3    C4 4628   1.373   0.148  11.620 -0.1674 -0.3109  0.6050
  304TMC3    C5 4629   1.257   0.096  11.668 -0.4680  0.3298  0.1271
  304TMC3    C6 4630   1.154   0.165  11.726  0.3168  0.6863 -0.0691
  304TMC3     C 4631   1.468   0.346  11.540  0.3455  0.0743  0.4742
  304TMC3     O 4632   1.515   0.283  11.446 -0.3302  0.0080  0.2131
  304TMC3     H 4633   1.257   0.466  11.655  1.5336 -0.0319  0.3291
  304TMC3    H1 4634   1.455   0.098  11.569  1.3406  2.1717  0.5794
  304TMC3    H2 4635   1.081   0.111  11.785  2.4244 -2.5814 -0.4188
  304TMC3    C7 4636   1.197   4.716  11.608  0.2650 -0.6621 -0.1124
  304TMC3    C8 4637   1.031   0.342  11.651 -0.3536  0.4607  0.0510
  304TMC3    O1 4638   1.074   4.700  11.612  0.1935 -0.3102 -0.2534
  304TMC3    O2 4639   1.011   0.461  11.651 -0.3859 -0.0803 -0.2169
  305MPD2     C 4640   3.943   2.678  13.935 -0.5354  0.0143  0.7367
  305MPD2    C1 4641   4.033   2.573  13.961 -0.1435  0.9623  0.0042
  305MPD2    C2 4642   4.021   2.458  13.886  0.7645  0.1679 -0.5295
  305MPD2    C3 4643   3.927   2.442  13.793 -0.0729 -0.3781  0.3023
  305MPD2    C4 4644   3.839   2.548  13.769 -0.1912  0.0921  0.9367
  305MPD2    C5 4645   3.838   2.657  13.851  0.2104  0.6584  0.3091
  305MPD2     H 4646   4.084   2.376  13.917 -1.2633 -1.1614  0.0091
  305MPD2    H1 4647   3.753   2.546  13.703  0.1416 -1.3480  0.5510
  305MPD2    H2 4648   3.940   2.776  13.981  1.3303 -0.0711  1.0535
  305MPD2    H3 4649   3.770   2.737  13.824 -2.5277 -2.1675 -1.1489
  305MPD2     N 4650   3.897   2.315  13.734  0.2848 -0.8423 -0.5647
  305MPD2    H5 4651   3.804   2.307  13.694 -0.8418  2.1023  1.4881
  305MPD2    N1 4652   4.126   2.587  14.067 -0.0881 -0.5120  0.4236
  305MPD2    H7 4653   4.135   2.682  14.100 -0.9062  0.0224 -0.8863
  306TMC3    C1 4654   4.324   2.539  14.194 -0.5182  0.3361 -0.5601
  306TMC3    C2 4655   4.412   2.439  14.233 -0.3940  0.0948  0.1545
  306TMC3    C3 4656   4.511   2.472  14.322 -0.0564 -0.4220 -0.8077
  306TMC3    C4 4657   4.347   2.668  14.233 -0.1824 -0.0010  0.4834
  306TMC3    C5 4658   4.447   2.704  14.324  0.9801  0.2152  0.1377
  306TMC3    C6 4659   4.537   2.601  14.361  0.1750  0.1935 -0.2864
  306TMC3     C 4660   4.226   2.495  14.101  0.6586  0.4752 -0.1482
  306TMC3     O 4661   4.239   2.381  14.066 -0.2005  0.0664 -0.4118
  306TMC3     H 4662   4.400   2.337  14.200  1.0079  0.1836 -0.6201
  306TMC3    H1 4663   4.277   2.746  14.202 -2.4730 -3.2885 -2.6549
  306TMC3    H2 4664   4.619   2.615  14.430 -0.3872  3.8138 -0.3446
  306TMC3    C7 4665   4.511   2.838  14.319 -0.3976 -0.0801  0.1374
  306TMC3    C8 4666   4.596   2.354  14.343 -0.2077 -0.1043  0.1110
  306TMC3    O1 4667   4.476   2.904  14.222  0.0811 -0.1946  0.1778
  306TMC3    O2 4668   4.547   2.241  14.340  0.1796  0.0271  0.3512
  307MPD2     C 4669   2.616   1.399   0.326  0.1154  0.1720 -0.3313
  307MPD2    C1 4670   2.498   1.440   0.385 -0.8321  0.0148  0.6615
  307MPD2    C2 4671   2.401   1.347   0.413 -0.3473  0.0107 -0.0731
  307MPD2    C3 4672   2.424   1.210   0.391 -0.1075  0.7505 -0.4383
  307MPD2    C4 4673   2.545   1.168   0.358 -0.2656  0.4938  0.0208
  307MPD2    C5 4674   2.637   1.265   0.319  0.3453 -0.6579 -0.3432
  307MPD2     H 4675   2.303   1.386   0.436 -0.5922  0.7140 -2.3128
  307MPD2    H1 4676   2.560   1.066   0.327  0.1825 -0.0280  1.9616
  307MPD2    H2 4677   2.700   1.460   0.294  0.7809 -0.8156 -0.4394
  307MPD2    H3 4678   2.731   1.233   0.276  0.0309  1.1512 -2.3579
  307MPD2     N 4679   2.322   1.116   0.406 -0.0581  0.5848 -0.0916
  307MPD2    H5 4680   2.356   1.022   0.388  1.0818  0.5753  2.0655
  307MPD2    N1 4681   2.476   1.578   0.400  0.0053  0.2923  0.0635
  307MPD2    H7 4682   2.382   1.605   0.427 -0.5103 -1.0055 -0.4248
  308TMC3    C1 4683   2.098   0.777   0.458  0.3515  0.0602 -0.0702
  308TMC3    C2 4684   1.984   0.779   0.528  0.1028 -0.0690  0.0516
  308TMC3    C3 4685   1.948   0.898   0.585 -0.0233 -0.3598 -0.3059
  308TMC3    C4 4686   2.177   0.886   0.437 -0.8050  0.8375 -0.3690
  308TMC3    C5 4687   2.122   1.005   0.477  0.2259 -0.4985  0.2806
  308TMC3    C6 4688   2.002   1.015   0.540  0.0889  0.7018  0.5162
  308TMC3     C 4689   2.117   0.670   0.362  0.3769  0.2478 -0.1939
  308TMC3     O 4690   2.228   0.616   0.346  0.6354  0.2012  0.1083
  308TMC3     H 4691   1.936   0.684   0.548 -1.0002  0.1584 -1.5576
  308TMC3    H1 4692   2.263   0.875   0.372  0.2020  1.0436  0.9044
  308TMC3    H2 4693   1.965   1.113   0.566 -2.4385 -0.3754  0.9764
  308TMC3    C7 4694   2.192   1.132   0.460 -0.2517  0.0946  0.1625
  308TMC3    C8 4695   1.802   0.898   0.606  0.6552 -0.3859 -0.1386
  308TMC3    O1 4696   2.130   1.235   0.471  0.4790 -0.5756  0.1952
  308TMC3    O2 4697   1.756   0.784   0.601  0.4231  0.6308  0.0601
  309MPD2     C 4698   1.501   1.175  16.951 -0.1571  0.2705  0.2725
  309MPD2    C1 4699   1.441   1.135  16.831 -0.0799 -0.5065  0.2302
  309MPD2    C2 4700   1.311   1.084  16.838 -0.2871 -0.3170 -0.2918
  309MPD2    C3 4701   1.246   1.092  16.961 -0.0744 -0.4122  0.1157
  309MPD2    C4 4702   1.307   1.138  17.070 -0.2763 -0.4634 -0.7747
  309MPD2    C5 4703   1.433   1.176  17.068 -0.0930  0.1976 -0.0889
  309MPD2     H 4704   1.262   1.038  16.754 -0.2170  1.1054 -1.1039
  309MPD2    H1 4705   1.262   1.167  17.164 -1.3210  1.0287 -1.7276
  309MPD2    H2 4706   1.603   1.213  16.959  0.1304 -0.4759  0.1648
  309MPD2    H3 4707   1.483   1.210  17.158  0.2595  3.2142 -1.4144
  309MPD2     N 4708   1.114   1.055  16.970 -0.3836 -0.8792  0.0900
  309MPD2    H5 4709   1.076   1.061  17.064 -4.0141 -0.3186 -1.4284
  309MPD2    N1 4710   1.506   1.124  16.707 -0.3066 -0.0189 -0.0132
  309MPD2    H7 4711   1.448   1.117  16.624  2.2609  1.9352 -1.9679
  310TMC3    C1 4712   1.688   1.141  16.560 -0.2358  0.1984 -0.5696
  310TMC3    C2 4713   1.611   1.199  16.454 -0.4642 -0.0417  0.3331
  310TMC3    C3 4714   1.675   1.199  16.332  0.0245  0.3565  0.1173
  310TMC3    C4 4715   1.812   1.087  16.540 -0.5430  0.4738  0.4671
  310TMC3    C5 4716   1.877   1.097  16.419  0.7984 -0.3722  0.0547
  310TMC3    C6 4717   1.806   1.148  16.312  0.0864  0.1377  0.3189
  310TMC3     C 4718   1.640   1.137  16.697 -0.1861  0.2557 -0.2524
  310TMC3     O 4719   1.730   1.149  16.781 -0.3771 -0.8268 -0.0186
  310TMC3     H 4720   1.517   1.246  16.479 -0.4771 -1.2030  2.4834
  310TMC3    H1 4721   1.855   1.046  16.631  0.3516  0.9531  0.2629
  310TMC3    H2 4722   1.838   1.145  16.209 -0.6949  0.5140  0.0683
  310TMC3    C7 4723   1.961   0.985  16.388 -0.5646 -0.3759 -0.8757
  310TMC3    C8 4724   1.608   1.274  16.229  0.1634 -0.0847 -0.1737
  310TMC3    O1 4725   1.948   0.893  16.469  0.2317  0.5327 -0.4379
  310TMC3    O2 4726   1.486   1.284  16.225  0.2654  0.1633 -0.4106
  311MPD2     C 4727   3.148   2.015  12.437  0.2775 -0.0215  0.2281
  311MPD2    C1 4728   3.210   2.049  12.553 -0.2135 -0.0295  0.2993
  311MPD2    C2 4729   3.144   2.012  12.666 -0.2729 -0.4048 -0.1724
  311MPD2    C3 4730   3.025   1.948  12.661  0.4365  0.2869 -0.2614
  311MPD2    C4 4731   2.970   1.906  12.546  0.3458 -0.2281  0.0081
  311MPD2    C5 4732   3.037   1.937  12.431  0.0279 -0.4243  0.2057
  311MPD2     H 4733   3.159   2.046  12.767 -1.3843 -0.1163 -0.1034
  311MPD2    H1 4734   2.880   1.846  12.547  1.1137 -1.4806 -3.6570
  311MPD2    H2 4735   3.204   2.043  12.349 -1.3067  0.3811 -0.6519
  311MPD2    H3 4736   2.999   1.926  12.330 -1.4012  0.1360  0.6694
  311MPD2     N 4737   2.963   1.926  12.790  0.3481 -0.0393 -0.2704
  311MPD2    H5 4738   3.030   1.939  12.864 -0.4608 -1.2678  0.6741
  311MPD2    N1 4739   3.327   2.123  12.554 -0.5537 -0.1851  0.2009
  311MPD2    H7 4740   3.353   2.164  12.465 -2.0693  0.4929  0.0788
  312TMC3    C1 4741   2.804   1.860  12.958  0.3316  1.0001 -0.4056
  312TMC3    C2 4742   2.670   1.861  12.986  0.0462 -0.3265 -0.4970
  312TMC3    C3 4743   2.616   1.789  13.093  0.5917 -0.2947 -0.5836
  312TMC3    C4 4744   2.886   1.782  13.042  1.0183  0.5082 -0.7778
  312TMC3    C5 4745   2.827   1.702  13.137 -0.4094  0.1580 -0.5012
  312TMC3    C6 4746   2.694   1.707  13.169 -0.6287  0.2364  0.1613
  312TMC3     C 4747   2.835   1.892  12.824  0.6272  0.9508  0.3585
  312TMC3     O 4748   2.743   1.871  12.745 -0.3898  0.5107  0.2300
  312TMC3     H 4749   2.606   1.915  12.917 -1.3843  1.2252  2.0259
  312TMC3    H1 4750   2.989   1.759  13.016  0.2641 -3.2385 -0.4271
  312TMC3    H2 4751   2.654   1.641  13.245  0.6845 -2.6411 -1.6677
  312TMC3    C7 4752   2.909   1.601  13.197  0.2542 -0.1714 -0.2752
  312TMC3    C8 4753   2.475   1.771  13.088  0.3037  0.6833  0.0793
  312TMC3    O1 4754   2.995   1.558  13.123  0.6031  0.0938 -0.2699
  312TMC3    O2 4755   2.428   1.659  13.082 -0.6230  0.4648 -0.2456
  313MPD2     C 4756   2.416   1.924  11.944 -0.5304  0.1811 -0.2068
  313MPD2    C1 4757   2.521   1.975  11.873  0.0424  0.3631 -0.4169
  313MPD2    C2 4758   2.604   1.891  11.805 -0.0795 -0.0048 -0.2457
  313MPD2    C3 4759   2.581   1.755  11.808 -0.6435 -0.5588  0.7136
  313MPD2    C4 4760   2.474   1.705  11.884 -1.2100  0.2893 -0.8260
  313MPD2    C5 4761   2.394   1.792  11.955 -0.0661  0.2381 -0.4462
  313MPD2     H 4762   2.672   1.935  11.733 -0.6129 -0.0074 -0.7472
  313MPD2    H1 4763   2.459   1.598  11.884  1.4884 -0.0971 -0.8365
  313MPD2    H2 4764   2.354   1.999  11.992  0.9278  1.8977 -0.9904
  313MPD2    H3 4765   2.312   1.759  12.018  3.2209 -2.4710  2.3872
  313MPD2     N 4766   2.661   1.679  11.720  0.3804  0.0925 -0.7366
  313MPD2    H5 4767   2.733   1.730  11.670  0.2080  0.7994 -0.2670
  313MPD2    N1 4768   2.521   2.113  11.851 -0.6940  0.2838 -0.2714
  313MPD2    H7 4769   2.442   2.173  11.871  0.2825  1.6781 -0.5930
  314TMC3    C1 4770   2.590   2.309  11.735  0.2028  0.1348  0.3840
  314TMC3    C2 4771   2.703   2.369  11.683 -0.2929 -0.3271 -0.3822
  314TMC3    C3 4772   2.691   2.425  11.559  0.0901  0.9788 -0.1191
  314TMC3    C4 4773   2.468   2.301  11.666  0.2986 -0.2248 -0.4269
  314TMC3    C5 4774   2.474   2.345  11.537  0.1155 -0.7289  0.0131
  314TMC3    C6 4775   2.583   2.413  11.483  0.0425 -0.4362  0.1699
  314TMC3     C 4776   2.627   2.181  11.795  0.0775  0.3581  0.1233
  314TMC3     O 4777   2.744   2.158  11.763  0.2293  0.3137 -0.0687
  314TMC3     H 4778   2.788   2.379  11.751  0.5808  1.5025 -1.7378
  314TMC3    H1 4779   2.380   2.251  11.705  0.4260  0.5817  0.8967
  314TMC3    H2 4780   2.578   2.449  11.381 -1.5631 -1.3566 -0.0738
  314TMC3    C7 4781   2.376   2.289  11.449  0.8953 -0.5917 -0.3632
  314TMC3    C8 4782   2.816   2.442  11.474 -0.3469  0.3558 -0.8648
  314TMC3    O1 4783   2.263   2.276  11.494 -0.2706 -0.1400  0.4423
  314TMC3    O2 4784   2.803   2.491  11.362 -0.1932 -0.1134 -1.1157
  315MPD2     C 4785   2.752   0.530  17.607 -0.3281  0.7059  0.0455
  315MPD2    C1 4786   2.850   0.531  17.703 -0.0482 -0.3528 -0.1102
  315MPD2    C2 4787   2.890   0.651   0.001  0.0966 -0.2702 -0.1858
  315MPD2    C3 4788   2.828   0.772  17.720 -0.0169 -0.4721  0.1676
  315MPD2    C4 4789   2.726   0.769  17.632  0.0369 -0.4874 -0.1720
  315MPD2    C5 4790   2.696   0.649  17.569 -0.1017  0.1616 -0.6223
  315MPD2     H 4791   2.970   0.645   0.073 -0.9599 -0.7135  0.9466
  315MPD2    H1 4792   2.670   0.855  17.596  2.3573  0.0176 -2.6083
  315MPD2    H2 4793   2.718   0.442  17.554  1.2525  0.2854 -0.2746
  315MPD2    H3 4794   2.631   0.648  17.482 -1.3176 -1.6377  0.3162
  315MPD2     N 4795   2.896   0.884   0.004 -0.1191 -0.2753  0.1618
  315MPD2    H5 4796   2.989   0.875   0.042  0.4796 -0.9182 -1.4405
  315MPD2    N1 4797   2.911   0.414  17.758 -0.0743  0.3105 -0.6542
  315MPD2    H7 4798   2.953   0.421   0.088 -0.7306 -3.5556 -0.0551
  316TMC3    C1 4799   2.921   1.101   0.066  0.1962  0.7282 -0.2810
  316TMC3    C2 4800   3.019   1.064   0.151 -0.5249 -1.0518  0.1283
  316TMC3    C3 4801   3.090   1.167   0.212  0.0653 -0.2349 -0.3151
  316TMC3    C4 4802   2.883   1.232   0.051 -0.2542  0.3209  0.4199
  316TMC3    C5 4803   2.958   1.327   0.116 -0.1215 -0.8878  0.7562
  316TMC3    C6 4804   3.059   1.296   0.196  0.2884  0.5667  0.1410
  316TMC3     C 4805   2.838   1.007  17.754 -0.2672  0.3003  0.3750
  316TMC3     O 4806   2.741   1.055  17.696 -0.0544  0.4730 -0.1912
  316TMC3     H 4807   3.030   0.965   0.194 -0.1621 -0.9103  0.3584
  316TMC3    H1 4808   2.795   1.264  17.758 -0.5541  0.0001  0.7126
  316TMC3    H2 4809   3.099   1.373   0.261  1.2144 -0.2521  0.5452
  316TMC3    C7 4810   2.950   1.464   0.068 -0.4099  0.0828  0.1961
  316TMC3    C8 4811   3.157   1.134   0.340 -0.4109 -0.3854 -0.2759
  316TMC3    O1 4812   2.910   1.544   0.154  0.0404 -0.7421  0.2376
  316TMC3    O2 4813   3.151   1.227   0.424 -0.1024  0.5088 -0.2672
  317MPD2     C 4814   4.576   4.026  12.770  0.1395  0.0513 -0.1234
  317MPD2    C1 4815   4.601   3.888  12.763 -0.5056  0.1635  0.3609
  317MPD2    C2 4816   4.634   3.821  12.880 -0.7089 -0.1261 -0.6297
  317MPD2    C3 4817   4.645   3.890  13.001  0.2048  0.0765 -0.3324
  317MPD2    C4 4818   4.637   4.028  13.000  0.5486  0.4359  0.2085
  317MPD2    C5 4819   4.596   4.095  12.885 -0.0558  0.1782  0.1470
  317MPD2     H 4820   4.651   3.715  12.865 -0.1648 -0.0900 -0.2972
  317MPD2    H1 4821   4.651   4.092  13.087 -1.4756  1.0300  0.0910
  317MPD2    H2 4822   4.554   4.094  12.688 -0.8675  0.6455  0.6482
  317MPD2    H3 4823   4.589   4.202  12.896 -1.0214  0.0236  0.9833
  317MPD2     N 4824   4.660   3.814  13.117  0.2085 -0.3936  0.2456
  317MPD2    H5 4825   4.670   3.715  13.096 -2.3305 -0.6446  0.1320
  317MPD2    N1 4826   4.569   3.808  12.655  0.6544  0.5383 -0.6884
  317MPD2    H7 4827   4.585   3.708  12.663  0.0788  0.3468 -1.9104
  318TMC3    C1 4828   4.673   3.756  13.334 -0.0850  1.2839 -0.2082
  318TMC3    C2 4829   4.607   3.642  13.312  0.6269  0.2823 -0.5081
  318TMC3    C3 4830   4.611   3.546  13.408 -0.2974  0.2851  0.2076
  318TMC3    C4 4831   0.013   3.776  13.443 -0.4617 -0.3292  0.4761
  318TMC3    C5 4832   0.013   3.675  13.535 -0.1628 -0.4769 -0.3313
  318TMC3    C6 4833   4.690   3.555  13.524  0.0301  0.4686 -0.3527
  318TMC3     C 4834   4.661   3.861  13.242  0.0809 -0.3799  1.0293
  318TMC3     O 4835   4.675   3.974  13.286 -0.0082 -0.1449 -0.5480
  318TMC3     H 4836   4.532   3.648  13.234 -1.6002 -0.3930  1.5974
  318TMC3    H1 4837   0.075   3.864  13.456 -0.2733 -0.4090  0.1147
  318TMC3    H2 4838   4.669   3.500  13.616 -2.5435  0.3051 -1.0397
  318TMC3    C7 4839   0.112   3.702  13.633  0.0830  0.3422 -0.2678
  318TMC3    C8 4840   4.520   3.434  13.411 -0.3685  0.1370 -0.0145
  318TMC3    O1 4841   0.129   3.818  13.662 -0.3116  0.3783 -0.3555
  318TMC3    O2 4842   4.539   3.344  13.490  0.7988  0.6108  0.7342
  319MPD2     C 4843   1.438   0.743  16.189 -0.6255 -0.1412  0.6276
  319MPD2    C1 4844   1.348   0.718  16.290  0.2591 -0.0224 -0.4255
  319MPD2    C2 4845   1.216   0.703  16.256  0.1696  0.7883  0.0174
  319MPD2    C3 4846   1.167   0.703  16.126 -0.0670 -0.7399 -0.1199
  319MPD2    C4 4847   1.261   0.718  16.024 -0.1660 -0.1442 -0.7485
  319MPD2    C5 4848   1.394   0.733  16.059 -0.1252 -0.4624  0.9028
  319MPD2     H 4849   1.152   0.695  16.343 -0.4675  2.2933 -0.3134
  319MPD2    H1 4850   1.233   0.719  15.920 -1.1968  2.3848 -0.4522
  319MPD2    H2 4851   1.544   0.767  16.195 -0.5010  0.1553 -2.3523
  319MPD2    H3 4852   1.465   0.757  15.981 -0.1381 -2.7080  0.2166
  319MPD2     N 4853   1.032   0.674  16.092  0.1390  0.2074 -0.4853
  319MPD2    H5 4854   1.014   0.665  15.992  0.1723 -0.9305 -0.3850
  319MPD2    N1 4855   1.381   0.707  16.426  0.2266 -0.1201  0.2585
  319MPD2    H7 4856   1.305   0.713  16.494 -0.5356 -1.1146 -0.5033
  320TMC3    C1 4857   0.814   0.600  16.111 -0.2303  0.8625  0.3942
  320TMC3    C2 4858   0.793   0.657  15.984 -1.0646  0.4093 -0.4049
  320TMC3    C3 4859   0.699   0.607  15.904  0.1705 -0.3691  0.4866
  320TMC3    C4 4860   0.744   0.487  16.147 -0.2875 -0.0144  0.9287
  320TMC3    C5 4861   0.648   0.444  16.061  0.0233 -0.5768  0.5515
  320TMC3    C6 4862   0.626   0.496  15.939  1.0325 -0.1217  0.4980
  320TMC3     C 4863   0.933   0.638  16.180 -0.9948  0.1485 -0.2972
  320TMC3     O 4864   0.954   0.585  16.288  0.0844  0.0363  0.3742
  320TMC3     H 4865   0.849   0.743  15.948 -0.5118  1.4036  2.8586
  320TMC3    H1 4866   0.758   0.447  16.247 -0.0929 -1.4757  0.3288
  320TMC3    H2 4867   0.541   0.459  15.881 -0.0001 -0.0376  1.9620
  320TMC3    C7 4868   0.553   0.335  16.102 -0.2022 -0.0925  0.2687
  320TMC3    C8 4869   0.637   0.699  15.810 -0.3977 -0.2641  0.5609
  320TMC3    O1 4870   0.470   0.301  16.018  0.1691 -0.3357 -0.2922
  320TMC3    O2 4871   0.649   0.817  15.821 -0.2700 -0.2812  0.2358
  321TMC3    C1 4872   1.540   0.737  16.601 -0.3268 -1.0272 -0.0594
  321TMC3    C2 4873   1.450   0.712  16.699 -0.1022 -0.4926  0.6395
  321TMC3    C3 4874   1.483   0.752  16.826  0.2688  0.7127  0.9272
  321TMC3    C4 4875   1.670   0.769  16.636  0.0213  0.1353 -0.1462
  321TMC3    C5 4876   1.701   0.810  16.761 -0.4815 -0.2232  0.1722
  321TMC3    C6 4877   1.598   0.825  16.851 -0.3137 -0.4564  0.3584
  321TMC3     C 4878   1.512   0.707  16.459 -0.8212 -0.0813 -0.4591
  321TMC3     O 4879   1.607   0.691  16.388 -0.0762 -0.2696  0.1224
  321TMC3     H 4880   1.350   0.679  16.674 -1.1014  1.4037  2.1047
  321TMC3    H1 4881   1.739   0.776  16.553  2.4796 -1.1333  1.7845
  321TMC3    H2 4882   1.622   0.869  16.948 -1.9091 -0.1412  0.6070
  321TMC3    C7 4883   1.836   0.785  16.813  0.0029 -1.1434 -0.3495
  321TMC3    C8 4884   1.450   0.659  16.934  0.2858  0.2605  0.2721
  321TMC3    O1 4885   1.829   0.780  16.936  0.0856  0.1059 -0.3860
  321TMC3    O2 4886   1.345   0.596  16.918 -0.2775 -1.0041 -0.3046
  322MPD2     C 4887   0.042   1.480  12.896  0.1360  0.3605  0.9397
  322MPD2    C1 4888   0.056   1.445  13.030  0.4733  0.5556  0.0209
  322MPD2    C2 4889   0.071   1.312  13.060 -0.1868 -0.1560 -0.6796
  322MPD2    C3 4890   0.086   1.210  12.964 -1.0868 -0.5946 -0.0133
  322MPD2    C4 4891   0.069   1.243  12.829 -0.2246  0.3137 -0.1237
  322MPD2    C5 4892   0.035   1.375  12.802  0.4281 -0.8470 -0.5354
  322MPD2     H 4893   0.072   1.282  13.164  0.6321 -3.5036 -1.6544
  322MPD2    H1 4894   0.074   1.164  12.754  1.9246  0.2188  0.1222
  322MPD2    H2 4895   0.034   1.585  12.870  0.2155  0.2511  0.4776
  322MPD2    H3 4896   0.014   1.402  12.699  0.4252 -0.9517 -0.5631
  322MPD2     N 4897   0.111   1.079  13.015 -0.6568 -0.2022 -0.3704
  322MPD2    H5 4898   0.114   1.066  13.116 -0.4998 -1.4753 -0.5474
  322MPD2    N1 4899   0.056   1.536  13.139 -0.0085 -0.4961 -0.8669
  322MPD2    H7 4900   0.075   1.486  13.226 -0.8263 -1.7463 -1.4219
  323TMC3    C1 4901   0.099   1.729  13.264 -0.8088  0.1809 -0.0219
  323TMC3    C2 4902   0.199   1.826  13.283  0.0837 -0.0794  0.4183
  323TMC3    C3 4903   0.222   1.864  13.415  0.0886 -0.6715 -0.2300
  323TMC3    C4 4904   0.025   1.676  13.365  0.3664  0.0585 -0.1226
  323TMC3    C5 4905   0.041   1.729  13.494  0.0601 -0.1303 -0.7545
  323TMC3    C6 4906   0.150   1.814  13.520  0.1701 -0.2576 -0.6605
  323TMC3     C 4907   0.076   1.674  13.127  0.4416 -0.1177  0.7096
  323TMC3     O 4908   0.123   1.734  13.029  0.7395 -0.8232 -0.4305
  323TMC3     H 4909   0.265   1.849  13.200 -0.7250  0.3472 -0.1039
  323TMC3    H1 4910   4.695   1.597  13.350  1.6530 -1.3662  1.2350
  323TMC3    H2 4911   0.168   1.850  13.621  2.0318 -0.3540 -0.9491
  323TMC3    C7 4912   4.723   1.655  13.599 -1.1426 -0.2486 -0.2323
  323TMC3    C8 4913   0.332   1.951  13.448  0.1170 -0.4882 -0.0861
  323TMC3    O1 4914   4.690   1.541  13.592  0.3915  0.3862 -0.0364
  323TMC3    O2 4915   0.389   1.941  13.561 -0.0080  0.5611 -0.2028
  324MPD2     C 4916   1.237   2.482  14.402 -0.2232 -0.4684  0.2962
  324MPD2    C1 4917   1.250   2.608  14.345 -0.5858  0.5652  0.6301
  324MPD2    C2 4918   1.139   2.685  14.330 -0.4094 -0.5575 -0.3106
  324MPD2    C3 4919   1.015   2.646  14.381  0.0494  0.9358 -0.7851
  324MPD2    C4 4920   1.003   2.514  14.420 -0.0447 -0.4536 -0.1664
  324MPD2    C5 4921   1.112   2.431  14.429  0.5635 -0.4972 -0.0568
  324MPD2     H 4922   1.159   2.781  14.284 -1.3505  0.2288  0.9144
  324MPD2    H1 4923   0.903   2.478  14.441 -0.7406  0.5451 -1.7263
  324MPD2    H2 4924   1.325   2.425  14.429  0.9588  0.3425 -1.8718
  324MPD2    H3 4925   1.109   2.337  14.483  4.3026 -0.1599  0.7529
  324MPD2     N 4926   0.910   2.740  14.386  0.3178 -0.2043 -0.7665
  324MPD2    H5 4927   0.827   2.708  14.435 -0.2633 -1.0693 -2.3420
  324MPD2    N1 4928   1.375   2.669  14.313 -0.1568 -0.5434  0.0377
  324MPD2    H7 4929   1.369   2.749  14.251  0.0074  0.7045  1.6361
  325TMC3    C1 4930   0.771   2.913  14.335 -0.0147 -0.1482  0.4812
  325TMC3    C2 4931   0.676   2.814  14.325  0.0689  0.0090 -0.1581
  325TMC3    C3 4932   0.550   2.852  14.277 -0.5032  0.4731 -0.9113
  325TMC3    C4 4933   0.748   3.039  14.291  0.0509  0.3315  0.0464
  325TMC3    C5 4934   0.623   3.072  14.249  0.0728 -0.0684  0.0103
  325TMC3    C6 4935   0.522   2.982  14.243  0.2429  0.3869  0.5220
  325TMC3     C 4936   0.908   2.867  14.338  0.4276 -0.5864  0.3944
  325TMC3     O 4937   0.985   2.931  14.266 -0.2404 -0.0493  0.0232
  325TMC3     H 4938   0.695   2.707  14.332  2.2982  0.2835 -2.4497
  325TMC3    H1 4939   0.816   3.123  14.301  0.3647 -0.4024  4.3069
  325TMC3    H2 4940   0.424   3.015  14.212  0.1819  0.6100  0.9513
  325TMC3    C7 4941   0.604   3.205  14.202  0.6180  0.1664 -0.4006
  325TMC3    C8 4942   0.461   2.745  14.237 -0.3829 -0.5042  0.0907
  325TMC3    O1 4943   0.562   3.213  14.088 -0.2447  0.1647  0.0644
  325TMC3    O2 4944   0.505   2.630  14.239  0.0068  0.2823 -0.1203
  326MPD2     C 4945   2.257   3.870  11.197 -0.7994  0.5647  0.2590
  326MPD2    C1 4946   2.178   3.935  11.108  0.1403  0.4180  0.6681
  326MPD2    C2 4947   2.222   4.059  11.065  0.0363 -0.4454  0.6258
  326MPD2    C3 4948   2.344   4.114  11.120  0.3971  0.4918  0.1789
  326MPD2    C4 4949   2.418   4.047  11.210 -0.4380 -0.2135  0.2589
  326MPD2    C5 4950   2.371   3.922  11.243  0.4238  0.3064 -0.0763
  326MPD2     H 4951   2.168   4.103  10.981 -1.3200 -1.0250  1.2038
  326MPD2    H1 4952   2.515   4.084  11.241 -1.6424  2.4150  0.8965
  326MPD2    H2 4953   2.235   3.767  11.224  0.5320  0.6764  1.7905
  326MPD2    H3 4954   2.442   3.873  11.309 -0.3684  2.3638  2.2934
  326MPD2     N 4955   2.406   4.227  11.066  0.3482  0.2925  0.1617
  326MPD2    H5 4956   2.501   4.245  11.097 -0.1005 -0.9939  2.2573
  326MPD2    N1 4957   2.060   3.886  11.064 -0.1660 -0.6522 -0.1979
  326MPD2    H7 4958   2.010   3.950  11.002  0.1986 -1.7952 -1.6766
  327TMC3    C1 4959   1.868   3.768  11.014 -0.4547 -0.1387  0.0436
  327TMC3    C2 4960   1.803   3.885  11.036  0.0378  0.5445  0.1413
  327TMC3    C3 4961   1.776   3.960  10.923 -0.3892 -0.2802 -0.7759
  327TMC3    C4 4962   1.898   3.725  10.888 -0.3702  0.0456 -0.3845
  327TMC3    C5 4963   1.876   3.800  10.775 -1.2285 -0.0507 -0.3638
  327TMC3    C6 4964   1.801   3.910  10.800  0.4322 -0.9182  0.4594
  327TMC3     C 4965   1.990   3.771  11.087 -0.1567 -0.0923  0.1130
  327TMC3     O 4966   2.015   3.667  11.151 -0.4230 -0.2038  0.0656
  327TMC3     H 4967   1.807   3.927  11.136 -0.2044 -0.5740  0.6149
  327TMC3    H1 4968   1.970   3.644  10.876  0.2073  0.4496  0.3165
  327TMC3    H2 4969   1.789   3.973  10.713 -3.7919 -0.2397  1.5275
  327TMC3    C7 4970   1.995   3.824  10.685  0.0683 -1.3966 -0.7280
  327TMC3    C8 4971   1.783   4.106  10.932 -0.2203  0.2844 -0.6917
  327TMC3    O1 4972   1.958   3.873  10.579  0.0980  0.3850  0.1965
  327TMC3    O2 4973   1.828   4.157  10.831  0.3137 -0.0740  0.4476
  328MPD2     C 4974   4.498   3.411  17.400  0.4934  0.5679  0.2063
  328MPD2    C1 4975   4.598   3.459  17.315  0.5443 -0.3097 -0.4674
  328MPD2    C2 4976   4.561   3.508  17.192  0.4919  0.2751 -0.0293
  328MPD2    C3 4977   4.424   3.511  17.155 -0.0976  0.6431  0.4469
  328MPD2    C4 4978   4.329   3.452  17.226 -1.2767  0.3764  0.1535
  328MPD2    C5 4979   4.362   3.412  17.355 -0.5571  0.5735  0.0368
  328MPD2     H 4980   4.643   3.536  17.127  1.0540 -0.0455  0.5591
  328MPD2    H1 4981   4.227   3.448  17.190 -1.7715  0.8176  1.5231
  328MPD2    H2 4982   4.511   3.363  17.496 -0.9189 -0.6533 -0.2138
  328MPD2    H3 4983   4.295   3.344  17.408  1.4109 -1.9249 -0.6638
  328MPD2     N 4984   4.383   3.547  17.027  0.0691  1.0484  0.2896
  328MPD2    H5 4985   4.285   3.545  17.002  0.3693  2.2739 -0.9383
  328MPD2    N1 4986   4.739   3.457  17.354 -0.0074  0.2089 -0.6572
  328MPD2    H7 4987   0.066   3.510  17.300 -0.7007  1.9221  0.1594
  329TMC3    C1 4988   0.187   3.362  17.466 -0.6137  0.0601  0.0800
  329TMC3    C2 4989   0.240   3.493  17.467  0.1061  0.3521  0.6643
  329TMC3    C3 4990   0.378   3.506  17.444  0.1696  0.8414  0.0138
  329TMC3    C4 4991   0.258   3.246  17.455  0.8974  0.7937  0.6266
  329TMC3    C5 4992   0.390   3.267  17.412 -0.4684 -0.3159 -0.2436
  329TMC3    C6 4993   0.449   3.396  17.418  0.2825 -0.3776  0.2559
  329TMC3     C 4994   0.043   3.357  17.436  0.2874  0.0600 -0.0556
  329TMC3     O 4995   4.729   3.262  17.487 -0.4473 -0.5492 -0.0178
  329TMC3     H 4996   0.174   3.577  17.451 -0.0183 -0.1888 -1.6923
  329TMC3    H1 4997   0.210   3.150  17.436  3.1452 -0.0845 -0.6906
  329TMC3    H2 4998   0.556   3.397  17.397  0.3901  2.0765  0.9438
  329TMC3    C7 4999   0.447   3.154  17.342  0.5296 -0.7583  0.8563
  329TMC3    C8 5000   0.440   3.631  17.428  0.2553 -0.3837  0.4836
  329TMC3    O1 5001   0.411   3.043  17.376  0.6379 -0.2057  0.2352
  329TMC3    O2 5002   0.549   3.629  17.373  0.4214  0.0764  0.4702
  330TMC3    C1 5003   2.878   3.845   9.944  0.1400 -0.5721 -0.9278
  330TMC3    C2 5004   2.893   3.746   9.851 -0.2492  0.1819 -0.1256
  330TMC3    C3 5005   2.998   3.664   9.874 -0.2264  0.8295 -0.2970
  330TMC3    C4 5006   2.963   3.865  10.047  0.1787 -0.0071  0.2166
  330TMC3    C5 5007   3.071   3.776  10.056 -0.6316  0.2889  0.1550
  330TMC3    C6 5008   3.083   3.672   9.980 -0.5328  0.5825  0.2705
  330TMC3     C 5009   2.749   3.911   9.939  0.6408 -0.1737  0.0637
  330TMC3     O 5010   2.659   3.853   9.885  0.1972  0.0056 -0.1457
  330TMC3     H 5011   2.812   3.723   9.783 -1.2716  1.1287  0.7609
  330TMC3    H1 5012   2.933   3.926  10.131  1.2671 -1.4785  1.6835
  330TMC3    H2 5013   3.159   3.596   9.990 -0.4826  0.8310  1.8139
  330TMC3    C7 5014   3.176   3.798  10.152 -0.1939  0.4750  1.0106
  330TMC3    C8 5015   2.995   3.544   9.798  0.7323  0.8264 -0.5032
  330TMC3    O1 5016   3.245   3.700  10.176 -0.4224 -0.0360 -0.4676
  330TMC3    O2 5017   2.957   3.553   9.680  0.0575  0.1921  0.2851
  331MPD2     C 5018   0.888   2.584  12.909  0.9724  0.4658  0.0002
  331MPD2    C1 5019   0.760   2.563  12.866  0.2677 -0.4674 -0.2742
  331MPD2    C2 5020   0.703   2.439  12.866 -0.0844 -0.0278  0.2106
  331MPD2    C3 5021   0.788   2.328  12.892  0.2275 -0.3290  0.0011
  331MPD2    C4 5022   0.918   2.352  12.925 -0.0215  0.6141  0.2801
  331MPD2    C5 5023   0.962   2.477  12.955 -0.4524 -0.1627 -0.5497
  331MPD2     H 5024   0.597   2.422  12.847  0.0383  0.3317 -0.8285
  331MPD2    H1 5025   0.981   2.265  12.939 -3.4420 -1.8428  0.4727
  331MPD2    H2 5026   0.927   2.684  12.925  2.5288  0.0436 -1.2542
  331MPD2    H3 5027   1.065   2.492  12.983 -0.6961 -3.0323  1.8125
  331MPD2     N 5028   0.740   2.194  12.874 -0.2185 -0.2382 -0.0026
  331MPD2    H5 5029   0.646   2.189  12.837  0.5522 -1.3638 -1.7994
  331MPD2    N1 5030   0.691   2.678  12.820  0.0005 -0.4214  0.0962
  331MPD2    H7 5031   0.738   2.767  12.807 -0.7167  0.2375  1.9635
  332TMC3    C1 5032   0.731   1.957  12.833  0.2772  0.9240 -0.6117
  332TMC3    C2 5033   0.632   1.980  12.743 -0.0199 -1.0001  0.7527
  332TMC3    C3 5034   0.575   1.873  12.677 -0.2573  0.2470  0.0232
  332TMC3    C4 5035   0.775   1.833  12.868 -0.3857  0.4260 -0.1652
  332TMC3    C5 5036   0.719   1.724  12.796  0.1252  0.0964 -0.4259
  332TMC3    C6 5037   0.612   1.741  12.705  1.0402 -0.0668 -0.0271
  332TMC3     C 5038   0.810   2.069  12.871  0.0749 -0.7816  0.2463
  332TMC3     O 5039   0.921   2.039  12.913 -0.1323  0.3530 -0.0316
  332TMC3     H 5040   0.608   2.074  12.694  1.5536 -1.0259 -0.0813
  332TMC3    H1 5041   0.855   1.823  12.940 -0.4756 -2.1494 -0.4210
  332TMC3    H2 5042   0.560   1.653  12.669 -3.7821  2.7046  0.1972
  332TMC3    C7 5043   0.776   1.598  12.804  0.2715  0.4123  0.0002
  332TMC3    C8 5044   0.517   1.895  12.545 -1.0622 -0.1159  0.3218
  332TMC3    O1 5045   0.703   1.503  12.786  0.2051 -0.6350 -0.0257
  332TMC3    O2 5046   0.496   2.010  12.509 -0.4693 -0.2553 -0.3222
  333MPD2     C 5047   0.661   2.398  11.175  0.0789 -0.1632 -0.1119
  333MPD2    C1 5048   0.775   2.324  11.153  0.3640 -0.5105 -0.1837
  333MPD2    C2 5049   0.771   2.185  11.175  0.1923  0.1579 -0.6804
  333MPD2    C3 5050   0.648   2.126  11.212 -0.2764 -0.1571  0.1743
  333MPD2    C4 5051   0.539   2.204  11.223  0.0683 -0.2279  0.4438
  333MPD2    C5 5052   0.546   2.340  11.204 -0.5380 -0.1807 -0.0931
  333MPD2     H 5053   0.850   2.112  11.167 -0.5450 -0.4727 -2.3107
  333MPD2    H1 5054   0.435   2.177  11.235  0.2294 -0.7455  0.6902
  333MPD2    H2 5055   0.664   2.507  11.180 -0.2667 -0.2341  1.5368
  333MPD2    H3 5056   0.457   2.402  11.210 -0.7604 -0.6698  1.8926
  333MPD2     N 5057   0.645   1.984  11.213 -0.0481 -0.1369  0.3968
  333MPD2    H5 5058   0.733   1.938  11.193  0.6587  1.4920 -0.2295
  333MPD2    N1 5059   0.898   2.390  11.111 -0.2385 -0.2727 -0.5210
  333MPD2    H7 5060   0.894   2.490  11.126  2.1491 -0.6651  2.7301
  334TMC3    C1 5061   1.120   2.423  11.077 -0.8605 -0.5370 -0.1334
  334TMC3    C2 5062   1.242   2.375  11.109  0.2511  0.1650 -0.1472
  334TMC3    C3 5063   1.360   2.441  11.071  0.3419  0.3201 -0.7350
  334TMC3    C4 5064   1.106   2.538  11.011  0.0133 -0.4971  0.7088
  334TMC3    C5 5065   1.223   2.604  10.980  0.3030  0.4624  0.0397
  334TMC3    C6 5066   1.352   2.556  10.998 -0.2131 -0.0097  0.5119
  334TMC3     C 5067   1.013   2.332  11.080 -0.7247 -0.1505 -0.0853
  334TMC3     O 5068   1.043   2.211  11.074  0.2993 -0.2185  0.4966
  334TMC3     H 5069   1.248   2.279  11.158  1.2168 -0.9705 -2.5056
  334TMC3    H1 5070   1.009   2.581  10.988  0.8619  1.2813  0.4115
  334TMC3    H2 5071   1.442   2.609  10.971  0.5514 -1.7822 -0.3962
  334TMC3    C7 5072   1.226   2.728  10.905  0.1665  0.3313  0.5364
  334TMC3    C8 5073   1.474   2.347  11.049  0.7081 -0.2391  0.5066
  334TMC3    O1 5074   1.320   2.802  10.918 -0.0195  0.1604 -0.4804
  334TMC3    O2 5075   1.453   2.228  11.046  0.3793 -0.0369 -0.0699
  335TMC3    C1 5076   1.500   3.970  17.562  0.6195 -0.1087  0.1093
  335TMC3    C2 5077   1.498   3.839  17.526 -0.0785 -0.7866 -0.2034
  335TMC3    C3 5078   1.528   3.812  17.399 -0.3461  0.0267  0.4195
  335TMC3    C4 5079   1.555   4.075  17.489 -0.0973  0.1240 -0.2281
  335TMC3    C5 5080   1.599   4.035  17.363 -0.9172  0.0734  0.3401
  335TMC3    C6 5081   1.576   3.907  17.310 -0.3046 -0.2864  0.1872
  335TMC3     C 5082   1.376   4.005  17.633 -0.3510 -0.4466  0.3173
  335TMC3     O 5083   1.323   4.110  17.603  0.2116  0.1786 -0.1845
  335TMC3     H 5084   1.461   3.765  17.595 -2.0642  1.8272  1.5556
  335TMC3    H1 5085   1.575   4.169  17.539 -0.2910 -0.4192  0.8649
  335TMC3    H2 5086   1.604   3.895  17.206 -0.7236  0.7665 -0.0524
  335TMC3    C7 5087   1.675   4.128  17.285 -0.9500 -0.3561 -0.2181
  335TMC3    C8 5088   1.452   3.708  17.336 -0.3549 -0.2355 -0.8515
  335TMC3    O1 5089   1.733   4.085  17.186  0.0969  0.1652 -0.8055
  335TMC3    O2 5090   1.419   3.621  17.416  0.7184  0.3752 -0.2525
  336MPD2     C 5091   0.760   1.969  15.880  0.3371  0.2601 -0.0439
  336MPD2    C1 5092   0.667   1.904  15.805  0.4291 -0.0414 -0.0020
  336MPD2    C2 5093   0.687   1.769  15.781 -0.1333 -0.4024 -0.0829
  336MPD2    C3 5094   0.784   1.695  15.852  0.5851  0.9650 -0.2592
  336MPD2    C4 5095   0.871   1.762  15.934 -0.0282  0.9312 -1.1907
  336MPD2    C5 5096   0.870   1.897  15.925  0.5512 -0.1638  0.0179
  336MPD2     H 5097   0.607   1.724  15.724 -1.1703  0.1754  0.8929
  336MPD2    H1 5098   0.942   1.709  15.995 -2.7127  1.6234  2.4924
  336MPD2    H2 5099   0.759   2.076  15.900 -2.1638  0.1521  0.3875
  336MPD2    H3 5100   0.935   1.949  15.995 -1.1705  0.1643  1.3759
  336MPD2     N 5101   0.783   1.557  15.852 -0.6119 -0.2465  0.5054
  336MPD2    H5 5102   0.849   1.510  15.912  0.7957 -1.0621 -1.6802
  336MPD2    N1 5103   0.565   1.964  15.731 -0.2285 -0.0535 -0.1987
  336MPD2    H7 5104   0.517   1.908  15.661  0.4350 -1.2381  0.3020
  337TMC3    C1 5105   0.436   2.141  15.621  0.3732  0.0490 -0.0789
  337TMC3    C2 5106   0.338   2.052  15.578 -0.2154 -0.4174  0.0283
  337TMC3    C3 5107   0.251   2.096  15.479 -0.9775 -0.0038 -0.5813
  337TMC3    C4 5108   0.433   2.271  15.577 -0.1089  0.0496  1.0481
  337TMC3    C5 5109   0.343   2.310  15.479  0.4519 -0.1912 -0.3392
  337TMC3    C6 5110   0.256   2.227  15.426 -0.7375  0.3919  0.4523
  337TMC3     C 5111   0.535   2.102  15.727  0.0318  0.8153  0.0413
  337TMC3     O 5112   0.579   2.194  15.799  0.5567  0.6352  0.1253
  337TMC3     H 5113   0.321   1.959  15.632  1.0268 -2.3939 -2.9608
  337TMC3    H1 5114   0.510   2.342  15.608  1.0989 -1.0192  0.4758
  337TMC3    H2 5115   0.186   2.258  15.349 -2.4733 -1.0443  1.4558
  337TMC3    C7 5116   0.322   2.450  15.453 -0.1247 -0.2302 -0.0070
  337TMC3    C8 5117   0.124   2.022  15.461 -0.0263  1.1163  0.4016
  337TMC3    O1 5118   0.284   2.474  15.339  0.3705 -0.1872  0.1556
  337TMC3    O2 5119   0.108   1.923  15.527  0.0874  0.2149 -0.1230
  338MPD2     C 5120   1.023   0.011   0.312 -0.5306 -0.0763  0.5368
  338MPD2    C1 5121   0.976   0.098   0.219 -0.2618  0.4017 -0.2789
  338MPD2    C2 5122   0.834   0.101   0.197  0.0934 -0.1491  0.1901
  338MPD2    C3 5123   0.749   0.026   0.280 -0.5622  0.3692  0.0209
  338MPD2    C4 5124   0.803   4.680   0.372  0.1731 -0.6652  0.1121
  338MPD2    C5 5125   0.940   4.672   0.383  1.0393 -0.8159 -0.0215
  338MPD2     H 5126   0.790   0.169   0.126  0.1934 -0.1638  0.1138
  338MPD2    H1 5127   0.742   4.611   0.430  1.1669 -2.2137 -0.6668
  338MPD2    H2 5128   1.127   4.732   0.332 -0.0519 -0.2783 -2.2168
  338MPD2    H3 5129   0.978   4.601   0.455  0.3756 -3.2357 -2.0508
  338MPD2     N 5130   0.608   0.034   0.255  0.0202 -0.8878 -0.0451
  338MPD2    H5 5131   0.581   0.099   0.181  0.3325  0.2649  0.8592
  338MPD2    N1 5132   1.056   0.195   0.151 -0.8173  0.8225 -0.1280
  338MPD2    H7 5133   1.020   0.261   0.083  0.7741 -0.4660 -2.2042
  339TMC3    C1 5134   0.378   0.029   0.309 -0.3684 -0.2103  0.3983
  339TMC3    C2 5135   0.304   0.019   0.431  0.0299  0.2049 -0.9629
  339TMC3    C3 5136   0.230   0.129   0.482 -0.1936  0.1387 -0.0013
  339TMC3    C4 5137   0.364   0.154   0.248 -0.0493 -0.4307  0.3303
  339TMC3    C5 5138   0.294   0.257   0.297 -0.2621 -0.2339 -0.5858
  339TMC3    C6 5139   0.222   0.247   0.414 -0.2709 -0.0050  0.2424
  339TMC3     C 5140   0.505   4.710   0.315 -0.2540 -0.0731 -0.4235
  339TMC3     O 5141   0.512   4.623   0.406 -0.4304 -0.3603 -0.3127
  339TMC3     H 5142   0.305   4.669   0.489  0.5317  0.5849 -0.3725
  339TMC3    H1 5143   0.398   0.156   0.145  1.5176 -3.2515  0.8148
  339TMC3    H2 5144   0.165   0.332   0.449 -0.3747 -1.0054  2.4308
  339TMC3    C7 5145   0.311   0.380   0.222  0.7849  0.4638  0.5642
  339TMC3    C8 5146   0.138   0.114   0.593 -0.6423 -0.0208  0.2897
  339TMC3    O1 5147   0.375   0.375   0.122 -0.0880  0.2388 -0.0521
  339TMC3    O2 5148   0.054   0.206   0.606  0.1613  0.7681  0.3710
  340MPD2     C 5149   0.488   4.159   9.749 -0.5291  0.6009 -0.1089
  340MPD2    C1 5150   0.488   4.029   9.794 -1.1089  0.7148 -0.0177
  340MPD2    C2 5151   0.518   4.015   9.928  0.5330 -0.8030 -0.0825
  340MPD2    C3 5152   0.564   4.118  10.012  0.3765  0.2691 -0.0362
  340MPD2    C4 5153   0.566   4.243   9.960  0.3565  0.5215 -0.1801
  340MPD2    C5 5154   0.528   4.263   9.834  0.1085 -0.1104 -0.4524
  340MPD2     H 5155   0.514   3.916   9.970 -0.1421 -0.9937 -0.5919
  340MPD2    H1 5156   0.611   4.327  10.012  3.7187 -1.5391  0.2459
  340MPD2    H2 5157   0.479   4.182   9.644 -2.0505  2.0531  0.3445
  340MPD2    H3 5158   0.550   4.357   9.784 -0.7591  0.5518  0.4358
  340MPD2     N 5159   0.604   4.097  10.150 -0.3973  0.5062  0.1640
  340MPD2    H5 5160   0.614   4.179  10.209 -2.3697 -0.7913  2.2823
  340MPD2    N1 5161   0.467   3.928   9.698 -0.3218 -0.2098 -0.0166
  340MPD2    H7 5162   0.468   3.959   9.601 -0.3862  0.3900  0.1771
  341TMC3    C1 5163   0.421   3.708   9.621 -0.3535 -0.4711 -0.5918
  341TMC3    C2 5164   0.359   3.589   9.642 -0.1901 -0.0639 -0.4500
  341TMC3    C3 5165   0.371   3.489   9.553 -0.4492 -1.0106  0.4168
  341TMC3    C4 5166   0.486   3.733   9.500  0.3192 -0.8297  0.1101
  341TMC3    C5 5167   0.500   3.632   9.410  0.0645  0.1791 -0.4608
  341TMC3    C6 5168   0.435   3.509   9.432 -0.0940  0.0137  0.6191
  341TMC3     C 5169   0.437   3.798   9.727  0.0215  0.8802  0.4083
  341TMC3     O 5170   0.423   3.755   9.840  0.0254 -0.7368 -0.3067
  341TMC3     H 5171   0.321   3.569   9.742  0.9763 -2.1377 -0.4429
  341TMC3    H1 5172   0.533   3.829   9.480 -1.3263  0.1835  1.0754
  341TMC3    H2 5173   0.459   3.435   9.358 -0.2277 -1.6312  2.2280
  341TMC3    C7 5174   0.589   3.638   9.292 -0.5048  0.2465  0.1182
  341TMC3    C8 5175   0.339   3.351   9.602 -0.4110  0.4588 -0.3220
  341TMC3    O1 5176   0.595   3.742   9.228 -0.2789 -0.1621  0.4346
  341TMC3    O2 5177   0.334   3.328   9.719  0.2960 -0.3738 -0.1700
  342MPD2     C 5178   3.721   1.975  17.670 -0.4875 -0.4285  0.1868
  342MPD2    C1 5179   3.825   2.011  17.581  0.4088 -0.0860  0.0451
  342MPD2    C2 5180   3.854   2.151  17.582 -0.3893 -0.3214  0.1233
  342MPD2    C3 5181   3.807   2.237  17.680  0.6329  0.1902 -0.1516
  342MPD2    C4 5182   3.711   2.194   0.002  0.1676 -0.2633 -0.0063
  342MPD2    C5 5183   3.669   2.064  17.759 -0.0381 -0.4388  0.4515
  342MPD2     H 5184   3.924   2.179  17.503 -1.2964  1.0741 -0.1706
  342MPD2    H1 5185   3.657   2.261   0.069 -0.6993 -0.7533 -0.2097
  342MPD2    H2 5186   3.676   1.876  17.671 -0.5812 -0.4018 -1.1127
  342MPD2    H3 5187   3.585   2.035   0.061 -2.5530  1.7320 -1.9135
  342MPD2     N 5188   3.845   2.374  17.690  0.1747  0.0832 -0.0839
  342MPD2    H5 5189   3.794   2.425   0.001  1.4825  0.6700  0.4272
  342MPD2    N1 5190   3.893   1.916  17.508 -0.2152  0.5138  0.7961
  342MPD2    H7 5191   3.964   1.942  17.441  0.8289 -1.2790  1.1991
  343TMC3    C1 5192   3.942   1.707  17.416 -0.0022  0.3215 -0.8824
  343TMC3    C2 5193   4.013   1.766  17.315 -0.0442 -0.0712 -0.4411
  343TMC3    C3 5194   4.069   1.678  17.217  0.2344 -0.3290  0.3568
  343TMC3    C4 5195   3.929   1.575  17.426  0.0415  0.3756  0.4007
  343TMC3    C5 5196   3.980   1.492  17.331 -0.8886 -0.4757 -0.7324
  343TMC3    C6 5197   4.058   1.543  17.228  0.1284  0.7036  0.8241
  343TMC3     C 5198   3.871   1.784  17.519 -0.7526  0.5475  0.4248
  343TMC3     O 5199   3.790   1.718  17.584  0.0877 -0.1395  0.6444
  343TMC3     H 5200   4.026   1.874  17.312 -1.7218  0.1153 -0.9198
  343TMC3    H1 5201   3.865   1.527  17.499 -0.8702 -1.5634 -1.6581
  343TMC3    H2 5202   4.082   1.474  17.148  0.3714  0.1243  1.3990
  343TMC3    C7 5203   3.963   1.343  17.330  0.3145 -0.1709  0.7440
  343TMC3    C8 5204   4.154   1.742  17.111 -0.2522  0.0434 -0.1761
  343TMC3    O1 5205   3.974   1.276  17.233  0.3012 -0.2892 -0.4793
  343TMC3    O2 5206   4.168   1.865  17.127 -0.1445  0.5178 -0.5931
  344MPD2     C 5207   4.669   1.080  11.136  0.3780  0.4774  0.0239
  344MPD2    C1 5208   4.545   1.107  11.082  0.1750 -0.4797  0.1786
  344MPD2    C2 5209   4.541   1.152  10.957 -0.0954  0.6479  0.0097
  344MPD2    C3 5210   4.652   1.206  10.896 -0.2602  0.1146 -0.1687
  344MPD2    C4 5211   0.035   1.192  10.960  0.0980  0.0712 -0.0107
  344MPD2    C5 5212   0.041   1.131  11.080  0.2798 -0.5796 -0.4457
  344MPD2     H 5213   4.441   1.168  10.919 -0.7841 -0.3924  1.4038
  344MPD2    H1 5214   0.124   1.220  10.905  0.6402 -0.8543  0.3917
  344MPD2    H2 5215   4.685   1.023  11.226 -0.0450  1.0218  0.4385
  344MPD2    H3 5216   0.140   1.115  11.122 -0.4739 -1.6881  0.9011
  344MPD2     N 5217   4.659   1.281  10.774 -0.2652 -0.5575 -0.4623
  344MPD2    H5 5218   0.011   1.304  10.741 -0.5974 -0.1836 -1.1379
  344MPD2    N1 5219   4.427   1.056  11.136  0.3447  0.0323  0.2132
  344MPD2    H7 5220   4.342   1.088  11.090  0.9640 -1.2111 -1.7769
  345TMC3    C1 5221   4.590   1.356  10.567  0.1344 -0.6636 -0.7330
  345TMC3    C2 5222   4.722   1.381  10.528 -0.2335 -0.2717 -0.9625
  345TMC3    C3 5223   0.009   1.469  10.423  0.1437  0.0402  1.4314
  345TMC3    C4 5224   4.490   1.412  10.490 -0.1160  0.1343  0.6173
  345TMC3    C5 5225   4.522   1.506  10.395 -0.3291 -0.2952  0.9848
  345TMC3    C6 5226   4.651   1.534  10.358  0.4189  0.6340  0.3897
  345TMC3     C 5227   4.552   1.304  10.694 -0.0588  0.6778  0.0829
  345TMC3     O 5228   4.433   1.302  10.726  0.2269  0.6215  0.2727
  345TMC3     H 5229   0.067   1.334  10.574 -0.2330 -0.3766 -1.0713
  345TMC3    H1 5230   4.383   1.401  10.508  0.1657  0.3482  2.4326
  345TMC3    H2 5231   4.678   1.603  10.279  0.9056  1.3233  1.1444
  345TMC3    C7 5232   4.412   1.551  10.310  0.8230 -0.4791 -0.9556
  345TMC3    C8 5233   0.134   1.533  10.445 -0.1949 -0.5165  0.9755
  345TMC3    O1 5234   4.323   1.469  10.283 -0.0815  0.1528  0.2242
  345TMC3    O2 5235   0.224   1.476  10.508  0.5583 -0.0964 -0.3314
  346MPD2     C 5236   4.525   3.210  14.754 -0.2175  0.4443 -0.0054
  346MPD2    C1 5237   4.560   3.298  14.655 -0.1717 -0.3680 -0.0522
  346MPD2    C2 5238   4.643   3.406  14.682 -0.2906 -0.7195 -0.1500
  346MPD2    C3 5239   4.689   3.431  14.816  0.0991 -0.2276  0.4502
  346MPD2    C4 5240   4.648   3.343  14.916 -0.5182  0.3499  0.0048
  346MPD2    C5 5241   4.566   3.240  14.881 -0.7122 -0.4260  0.2215
  346MPD2     H 5242   4.661   3.483  14.608  1.4468 -1.3576 -0.3909
  346MPD2    H1 5243   4.676   3.354  15.020  0.6509 -2.4655 -0.0079
  346MPD2    H2 5244   4.460   3.124  14.740  2.2194 -0.8876 -3.0835
  346MPD2    H3 5245   4.549   3.166  14.958 -1.7107  0.0454  0.4620
  346MPD2     N 5246   0.049   3.531  14.831 -0.3043  0.0919  0.2487
  346MPD2    H5 5247   0.055   3.601  14.757  1.1724 -0.8180 -0.5118
  346MPD2    N1 5248   4.496   3.302  14.527 -0.4689  0.5594  0.0755
  346MPD2    H7 5249   4.536   3.370  14.463  1.2392 -0.3862  0.1536
  347TMC3    C1 5250   0.226   3.635  14.938  0.1645  0.5067 -0.6692
  347TMC3    C2 5251   0.283   3.650  14.814  0.1311  0.5826 -1.0309
  347TMC3    C3 5252   0.413   3.700  14.804 -0.4214 -0.5496  0.8503
  347TMC3    C4 5253   0.298   3.647  15.051  0.4245  0.6970  0.3006
  347TMC3    C5 5254   0.429   3.671  15.044  0.1131 -1.0730 -0.1833
  347TMC3    C6 5255   0.481   3.699  14.920  0.1544  0.1503 -0.2033
  347TMC3     C 5256   0.107   3.558  14.954  0.2232  0.0077 -0.0235
  347TMC3     O 5257   0.069   3.528  15.068 -0.5606  0.4295 -0.0498
  347TMC3     H 5258   0.241   3.632  14.716 -2.0149  0.7547 -0.1214
  347TMC3    H1 5259   0.259   3.624  15.149 -3.0027 -0.3402 -1.3118
  347TMC3    H2 5260   0.581   3.741  14.915  0.2262  0.0480  0.3822
  347TMC3    C7 5261   0.507   3.685  15.167 -0.2717 -1.5291  0.2067
  347TMC3    C8 5262   0.491   3.632  14.701 -0.9327 -0.2578  0.2612
  347TMC3    O1 5263   0.452   3.660  15.275 -0.5874 -0.1930  0.0114
  347TMC3    O2 5264   0.581   3.557  14.740 -0.1028 -0.3335  0.0989
  348MPD2     C 5265   3.058   2.746  12.086 -0.0685  0.3095  0.2797
  348MPD2    C1 5266   3.174   2.793  12.032  0.0216  0.5259 -0.2636
  348MPD2    C2 5267   3.163   2.888  11.929 -0.1095  0.4360 -0.2965
  348MPD2    C3 5268   3.037   2.935  11.884 -0.6229 -0.6319 -0.2705
  348MPD2    C4 5269   2.926   2.878  11.936 -0.8847 -0.4101 -0.1263
  348MPD2    C5 5270   2.934   2.789  12.041 -0.0499 -0.3449 -0.2118
  348MPD2     H 5271   3.256   2.929  11.891  1.4128 -0.7132  2.2291
  348MPD2    H1 5272   2.829   2.904  11.897 -1.1043 -0.9854  0.0358
  348MPD2    H2 5273   3.058   2.676  12.170  1.1927 -0.6303 -0.5069
  348MPD2    H3 5274   2.844   2.738  12.072 -0.0825  1.5104  2.7402
  348MPD2     N 5275   3.043   3.034  11.779 -0.3830  0.3613 -0.1303
  348MPD2    H5 5276   3.134   3.066  11.748 -1.3537  0.4485 -2.8752
  348MPD2    N1 5277   3.301   2.749  12.077 -0.5371 -0.0265  0.4434
  348MPD2    H7 5278   3.384   2.788  12.034 -0.4159 -1.2447 -0.4293
  349TMC3    C1 5279   3.453   2.586  12.159 -0.3248  0.1067  0.6300
  349TMC3    C2 5280   3.457   2.463  12.220 -0.5868  0.1959 -0.2350
  349TMC3    C3 5281   3.519   2.355  12.152 -0.5709 -0.3571 -0.1296
  349TMC3    C4 5282   3.514   2.597  12.035 -0.2129  0.5496 -0.5607
  349TMC3    C5 5283   3.572   2.486  11.978  0.0327 -0.2741  0.6162
  349TMC3    C6 5284   3.579   2.366  12.036 -0.2366 -0.0062 -0.2631
  349TMC3     C 5285   3.322   2.658  12.179 -0.6338 -0.6439 -0.8658
  349TMC3     O 5286   3.246   2.598  12.254 -0.0924  0.5586 -0.4056
  349TMC3     H 5287   3.399   2.456  12.311 -1.8262 -0.4582 -1.0713
  349TMC3    H1 5288   3.517   2.690  11.980  1.7261  0.4376 -0.6250
  349TMC3    H2 5289   3.615   2.283  11.977  1.7108  1.4060 -1.0570
  349TMC3    C7 5290   3.580   2.479  11.830  0.0933 -0.0783 -0.2228
  349TMC3    C8 5291   3.503   2.228  12.223 -0.2160  0.2642  0.0032
  349TMC3    O1 5292   3.675   2.422  11.779  0.1313  0.1115 -0.5228
  349TMC3    O2 5293   3.427   2.225  12.318  0.0590  0.1428 -0.2794
  350MPD2     C 5294   2.299   1.570  10.937 -0.7122 -1.0321 -0.4052
  350MPD2    C1 5295   2.391   1.475  10.908  0.6688 -0.0271  0.8401
  350MPD2    C2 5296   2.511   1.473  10.980  0.2794 -0.4118 -0.3802
  350MPD2    C3 5297   2.543   1.572  11.073 -0.6578  0.8018  0.2485
  350MPD2    C4 5298   2.450   1.673  11.096 -0.3414  0.1802 -0.3512
  350MPD2    C5 5299   2.330   1.667  11.031 -0.0158 -0.7499 -0.4181
  350MPD2     H 5300   2.584   1.396  10.959  1.6870  0.4873  1.1902
  350MPD2    H1 5301   2.464   1.753  11.167 -0.3120  0.2118 -0.3926
  350MPD2    H2 5302   2.195   1.563  10.910 -0.5936 -0.7362 -0.9415
  350MPD2    H3 5303   2.249   1.730  11.065  1.1518 -0.1567  1.2326
  350MPD2     N 5304   2.655   1.554  11.154  0.6538 -0.3951  0.8826
  350MPD2    H5 5305   2.693   1.461  11.144 -0.9209 -0.8082 -1.2945
  350MPD2    N1 5306   2.367   1.364  10.824 -0.2753 -0.4782 -0.1795
  350MPD2    H7 5307   2.446   1.299  10.818 -0.5212 -0.8622  0.8084
  351TMC3    C1 5308   2.255   1.221  10.668  0.3274  0.4491 -0.2431
  351TMC3    C2 5309   2.372   1.183  10.603  0.3698  0.4929  0.0610
  351TMC3    C3 5310   2.362   1.105  10.490 -0.2146  0.9743 -0.3888
  351TMC3    C4 5311   2.133   1.174  10.624  0.1804 -0.2020 -0.1957
  351TMC3    C5 5312   2.137   1.086  10.523 -0.3246 -0.5181 -0.1771
  351TMC3    C6 5313   2.249   1.040  10.461  0.0189  0.6016 -0.0155
  351TMC3     C 5314   2.255   1.341  10.757 -0.4278 -0.4881 -0.0323
  351TMC3     O 5315   2.142   1.384  10.774 -0.1476  0.1151 -0.5692
  351TMC3     H 5316   2.466   1.233  10.624  0.4266 -0.2094  1.4636
  351TMC3    H1 5317   2.037   1.204  10.664  1.6206 -0.8094  3.6745
  351TMC3    H2 5318   2.249   0.981  10.370 -1.3262  1.2935 -0.4667
  351TMC3    C7 5319   2.007   1.047  10.466 -0.8197  0.1718  0.0213
  351TMC3    C8 5320   2.463   1.105  10.384 -0.7207 -0.1785 -0.2919
  351TMC3    O1 5321   1.918   1.130  10.471  0.5042 -1.1411  0.0365
  351TMC3    O2 5322   2.480   1.000  10.317  0.3704 -0.0580  0.1058
  352MPD2     C 5323   1.570   2.970   0.843 -0.1495  0.1360 -0.2054
  352MPD2    C1 5324   1.481   2.951   0.946 -0.8549 -0.3748 -0.1389
  352MPD2    C2 5325   1.508   2.836   1.018 -0.4875 -0.5370 -0.0016
  352MPD2    C3 5326   1.603   2.742   0.989  0.0696 -0.1981  0.0606
  352MPD2    C4 5327   1.690   2.769   0.882  0.1838  0.5623 -0.2418
  352MPD2    C5 5328   1.664   2.876   0.800  0.2073  0.3365  0.5853
  352MPD2     H 5329   1.445   2.828   1.105  0.4337  0.9622  0.7938
  352MPD2    H1 5330   1.769   2.703   0.850  1.8491  1.5431  1.9210
  352MPD2    H2 5331   1.559   3.054   0.777 -1.5259 -0.1359 -0.3242
  352MPD2    H3 5332   1.716   2.892   0.707  2.4817  0.1118  1.8173
  352MPD2     N 5333   1.619   2.616   1.051 -0.8476  0.5908 -0.3274
  352MPD2    H5 5334   1.697   2.561   1.017 -0.0733  1.1776  0.5116
  352MPD2    N1 5335   1.380   3.054   0.966  0.1743  0.0935  0.4994
  352MPD2    H7 5336   1.385   3.139   0.910 -0.9275  0.6281  1.2158
  353TMC3    C1 5337   1.576   2.431   1.194 -0.3048  0.4216 -0.0569
  353TMC3    C2 5338   1.689   2.365   1.152 -0.3593  0.0744  0.1958
  353TMC3    C3 5339   1.679   2.230   1.136  0.3233 -0.4899 -0.1846
  353TMC3    C4 5340   1.455   2.362   1.210 -0.4532  0.5925 -0.4039
  353TMC3    C5 5341   1.447   2.225   1.189  1.1847 -0.8426  0.8446
  353TMC3    C6 5342   1.561   2.158   1.155  0.0369  0.4633 -0.6790
  353TMC3     C 5343   1.543   2.568   1.155  0.1936 -0.0261 -0.6386
  353TMC3     O 5344   1.461   2.631   1.226 -0.3391  0.0408 -0.5194
  353TMC3     H 5345   1.785   2.414   1.141  0.2769 -1.2992 -0.2890
  353TMC3    H1 5346   1.367   2.424   1.194 -0.9500 -0.4227 -1.6377
  353TMC3    H2 5347   1.554   2.051   1.169  1.2792  0.2928 -1.3724
  353TMC3    C7 5348   1.317   2.176   1.147  0.0376  0.6142 -0.3983
  353TMC3    C8 5349   1.799   2.162   1.095 -0.0346  0.0808 -0.7638
  353TMC3    O1 5350   1.324   2.082   1.069  0.6067  0.1750 -0.2075
  353TMC3    O2 5351   1.905   2.222   1.120 -0.1986 -0.0632  0.5058
  354TMC3    C1 5352   2.508   4.007  13.505 -0.0576  0.0132  0.1729
  354TMC3    C2 5353   2.553   4.132  13.461  0.1584  0.0793 -0.1336
  354TMC3    C3 5354   2.595   4.138  13.332 -0.2508 -0.2059  0.2323
  354TMC3    C4 5355   2.509   3.896  13.420 -0.5872 -0.0727 -0.4176
  354TMC3    C5 5356   2.546   3.916  13.291 -0.3298 -0.1706  0.5100
  354TMC3    C6 5357   2.595   4.037  13.241 -0.4510  0.2704 -0.4658
  354TMC3     C 5358   2.492   3.981  13.644 -0.0286 -1.0215 -0.2289
  354TMC3     O 5359   2.521   3.871  13.682 -0.0689 -0.0271  0.0813
  354TMC3     H 5360   2.555   4.225  13.516  2.3550  0.8013 -1.4487
  354TMC3    H1 5361   2.458   3.809  13.460 -2.7074  0.8078 -1.1963
  354TMC3    H2 5362   2.630   4.052  13.140 -1.4597  0.4644 -0.7870
  354TMC3    C7 5363   2.555   3.797  13.218 -0.2158 -0.7419 -0.3787
  354TMC3    C8 5364   2.635   4.263  13.283 -0.5212  0.0768 -0.0743
  354TMC3    O1 5365   2.547   3.695  13.286  0.2391 -0.0437 -0.1797
  354TMC3    O2 5366   2.697   4.337  13.362 -0.3434  0.1538 -0.0945
  355MPD2     C 5367   2.602   0.080  11.803  0.4748  0.1997  0.0085
  355MPD2    C1 5368   2.740   0.093  11.804 -0.3165  0.7985  0.8243
  355MPD2    C2 5369   2.813   0.010  11.889  0.2674 -0.5845 -0.0285
  355MPD2    C3 5370   2.751   4.660  11.972  0.2862  0.1171  0.6226
  355MPD2    C4 5371   2.618   4.640  11.953  1.1225  0.5773 -0.7054
  355MPD2    C5 5372   2.547   4.725  11.878 -0.2594 -0.4368 -0.2615
  355MPD2     H 5373   2.921   0.017  11.880  0.3284  0.1778  1.2344
  355MPD2    H1 5374   2.564   4.562  12.006 -0.8815  2.2480 -0.2914
  355MPD2    H2 5375   2.536   0.142  11.743  1.0932  1.4457  0.6130
  355MPD2    H3 5376   2.441   4.707  11.864 -0.5319 -0.6614  2.0794
  355MPD2     N 5377   2.815   4.578  12.074 -0.7783 -0.2251  0.7950
  355MPD2    H5 5378   2.762   4.496  12.104  0.1659 -0.0731  2.8865
  355MPD2    N1 5379   2.818   0.169  11.719 -0.3735  0.0325  0.4805
  355MPD2    H7 5380   2.919   0.165  11.711 -0.3319  0.0883  1.0193
  356TMC3    C1 5381   3.002   4.733  12.101  0.7572 -0.0555 -0.1650
  356TMC3    C2 5382   3.123   0.012  12.025  0.1868 -0.3372  0.6512
  356TMC3    C3 5383   3.170   0.139  12.008  0.2198 -0.3284  0.8021
  356TMC3    C4 5384   2.934   0.103  12.140 -0.3885 -0.0271 -0.4366
  356TMC3    C5 5385   2.973   0.231  12.106 -0.3698  0.4285 -0.0199
  356TMC3    C6 5386   3.097   0.248  12.047  0.4768  0.3828  0.9515
  356TMC3     C 5387   2.947   4.597  12.118 -0.8389 -0.2738  0.4433
  356TMC3     O 5388   3.022   4.513  12.154  0.0914 -0.0590  0.4437
  356TMC3     H 5389   3.181   4.667  11.992 -0.0529  0.0506 -0.7716
  356TMC3    H1 5390   2.842   0.085  12.196 -1.3505  0.8709 -1.7351
  356TMC3    H2 5391   3.132   0.347  12.019 -2.6970  1.5946  1.2595
  356TMC3    C7 5392   2.915   0.336  12.185  0.1608  0.2746  0.0895
  356TMC3    C8 5393   3.271   0.159  11.898 -0.1089 -0.4395 -0.5800
  356TMC3    O1 5394   2.820   0.309  12.262  0.3850 -0.4655  0.4070
  356TMC3    O2 5395   3.272   0.070  11.816  0.1739  0.4026 -0.0224
  357MPD2     C 5396   1.913   4.458   1.178  0.5217 -0.3482 -0.0640
  357MPD2    C1 5397   1.962   4.388   1.065  0.3038  0.9386  0.2264
  357MPD2    C2 5398   1.935   4.422   0.934 -0.8117 -0.1524  0.2053
  357MPD2    C3 5399   1.839   4.518   0.912 -0.3136 -0.0196 -0.0054
  357MPD2    C4 5400   1.798   4.597   1.020 -0.4056 -0.1785 -0.3836
  357MPD2    C5 5401   1.827   4.558   1.147  0.2724  0.3250 -0.7001
  357MPD2     H 5402   1.978   4.369   0.849  1.4152  1.0591  0.5627
  357MPD2    H1 5403   1.728   4.678   1.006  0.7287  0.2287 -3.7735
  357MPD2    H2 5404   1.946   4.434   1.278  3.1751  1.3545 -0.5079
  357MPD2    H3 5405   1.798   4.622   1.230 -1.6029 -2.0768  0.4845
  357MPD2     N 5406   1.780   4.538   0.789 -0.3545  0.1253  0.0050
  357MPD2    H5 5407   1.732   4.628   0.781 -1.3204 -0.4063 -0.2118
  357MPD2    N1 5408   2.029   4.272   1.106 -0.0418  0.0279 -0.0140
  357MPD2    H7 5409   2.035   4.245   1.204 -1.2819  0.4739  0.1927
  358TMC3    C1 5410   2.141   4.069   1.100 -0.6294 -0.1710  0.1464
  358TMC3    C2 5411   2.245   3.992   1.048 -0.5610 -0.1014  1.1097
  358TMC3    C3 5412   2.270   3.872   1.102  0.2108  0.2481  0.1839
  358TMC3    C4 5413   2.050   4.011   1.180 -0.1462  0.3868  0.4398
  358TMC3    C5 5414   2.079   3.896   1.245  0.5156  1.0197 -0.2276
  358TMC3    C6 5415   2.190   3.823   1.205  0.1496  0.1717  0.2135
  358TMC3     C 5416   2.087   4.182   1.021  0.3961 -0.0550 -1.3824
  358TMC3     O 5417   2.087   4.189   0.899  0.1327 -0.1926 -0.2665
  358TMC3     H 5418   2.292   4.038   0.961  0.1418 -1.3259  0.8549
  358TMC3    H1 5419   1.952   4.053   1.196 -0.7597 -0.6346 -0.7184
  358TMC3    H2 5420   2.201   3.719   1.232 -0.9616 -0.4145 -1.5763
  358TMC3    C7 5421   2.015   3.856   1.367 -0.2965  0.6184  1.0384
  358TMC3    C8 5422   2.368   3.780   1.038  0.8356  0.4425 -0.4276
  358TMC3    O1 5423   1.898   3.891   1.394 -0.2363  0.0000  0.1787
  358TMC3    O2 5424   2.391   3.673   1.094  0.4123  0.3966  0.3443
  359MPD2     C 5425   3.329   3.187  12.179 -0.2896 -0.6105  0.6394
  359MPD2    C1 5426   3.238   3.281  12.136 -0.4243  0.2490  0.4971
  359MPD2    C2 5427   3.108   3.265  12.180  0.0915  0.5234  0.4779
  359MPD2    C3 5428   3.068   3.154  12.243  0.2976  0.0501 -0.4438
  359MPD2    C4 5429   3.165   3.058  12.288  0.2389 -0.0383 -0.1188
  359MPD2    C5 5430   3.295   3.077  12.249  0.0259  0.1611  0.0317
  359MPD2     H 5431   3.035   3.339  12.150  0.6575  0.3940 -1.2136
  359MPD2    H1 5432   3.129   2.973  12.345 -0.1116  1.6845  2.2331
  359MPD2    H2 5433   3.434   3.200  12.154 -0.9443 -0.2465 -1.9498
  359MPD2    H3 5434   3.372   3.005  12.276 -1.7553 -1.5312  0.5943
  359MPD2     N 5435   2.936   3.120  12.267  0.0479  0.2453  0.4358
  359MPD2    H5 5436   2.905   3.041  12.322 -1.4585  1.4399  1.3001
  359MPD2    N1 5437   3.263   3.394  12.053  0.0899  0.3415  0.1131
  359MPD2    H7 5438   3.180   3.451  12.038 -0.2530  0.8059  3.6568
  360TMC3    C1 5439   3.351   3.550  11.918  0.2449  0.4302 -0.0721
  360TMC3    C2 5440   3.463   3.617  11.879 -0.8518  0.2591 -0.7413
  360TMC3    C3 5441   3.452   3.739  11.829  0.3012  0.1099  0.0941
  360TMC3    C4 5442   3.229   3.605  11.901 -0.6711  0.0340 -0.5725
  360TMC3    C5 5443   3.221   3.726  11.839 -0.2259  0.0054 -0.1721
  360TMC3    C6 5444   3.328   3.797  11.801  0.5765 -0.2106  0.0698
  360TMC3     C 5445   3.376   3.430  11.991 -0.0327  0.3340 -0.4007
  360TMC3     O 5446   3.477   3.365  11.990 -0.2666 -0.4607  0.2980
  360TMC3     H 5447   3.554   3.558  11.880 -0.3054  1.1262  0.2389
  360TMC3    H1 5448   3.147   3.537  11.923 -2.1891  1.6040 -1.2948
  360TMC3    H2 5449   3.324   3.895  11.755 -0.3460 -1.2838 -2.1643
  360TMC3    C7 5450   3.100   3.769  11.767  0.0266  0.1878 -0.3479
  360TMC3    C8 5451   3.563   3.798  11.761  0.0146 -0.0375  0.0216
  360TMC3    O1 5452   3.118   3.861  11.688 -0.1196  0.0052 -0.1927
  360TMC3    O2 5453   3.574   3.918  11.753  0.3474 -0.2182  0.0373
  361MPD2     C 5454   0.419   2.816  16.591  0.4479 -0.4728  0.5308
  361MPD2    C1 5455   0.353   2.767  16.702 -0.9103 -0.2346  0.0370
  361MPD2    C2 5456   0.412   2.668  16.777  0.3603 -0.1418  0.1915
  361MPD2    C3 5457   0.525   2.603  16.731 -0.1899 -0.0875  0.5459
  361MPD2    C4 5458   0.587   2.644  16.615 -0.0690  0.5176 -0.8381
  361MPD2    C5 5459   0.536   2.755  16.545  0.5368  0.6533  0.3201
  361MPD2     H 5460   0.366   2.631  16.868 -0.7635  0.7406 -0.0276
  361MPD2    H1 5461   0.679   2.591  16.595  0.9168  1.7605  0.4069
  361MPD2    H2 5462   0.387   2.902  16.532  1.6867  0.6029  1.4384
  361MPD2    H3 5463   0.589   2.794  16.460 -0.7991 -0.1103 -0.8638
  361MPD2     N 5464   0.585   2.499  16.798 -0.1545  0.3093  0.3655
  361MPD2    H5 5465   0.661   2.450  16.751 -2.6602 -1.8354 -1.4412
  361MPD2    N1 5466   0.226   2.821  16.742 -0.1698  0.2491  0.1976
  361MPD2    H7 5467   0.186   2.771  16.821 -1.5459 -1.4040 -1.5516
  362TMC3    C1 5468   0.003   2.908  16.713  0.6559  0.1819 -0.7212
  362TMC3    C2 5469   4.701   2.839  16.830  0.1474  0.4601 -0.7217
  362TMC3    C3 5470   4.564   2.823  16.848  0.0749  0.3063  0.3789
  362TMC3    C4 5471   4.650   2.922  16.616 -0.1524  0.5772 -0.2662
  362TMC3    C5 5472   4.524   2.885  16.632 -0.1043  0.5947  0.0951
  362TMC3    C6 5473   4.478   2.843  16.748 -0.9250 -0.2058 -0.2926
  362TMC3     C 5474   0.143   2.900  16.670  0.2161 -0.7650 -0.4221
  362TMC3     O 5475   0.169   2.961  16.566 -0.0535 -0.6653  0.0282
  362TMC3     H 5476   0.033   2.821  16.908  1.1849  2.0570 -1.3144
  362TMC3    H1 5477   4.682   2.966  16.522 -0.9390 -0.8309 -1.1870
  362TMC3    H2 5478   4.374   2.816  16.756 -0.5731 -0.5879  2.9887
  362TMC3    C7 5479   4.428   2.890  16.521  0.0407  0.2114  0.1978
  362TMC3    C8 5480   4.509   2.761  16.963  0.1703  0.1320 -0.1714
  362TMC3    O1 5481   4.319   2.947  16.544  0.0348 -0.2633 -0.0273
  362TMC3    O2 5482   4.588   2.690  17.021 -0.0570 -0.1644  0.8844
  363TMC3    C1 5483   4.030   0.372  10.036 -0.2552  0.3075  1.0462
  363TMC3    C2 5484   3.904   0.332  10.020 -0.0917 -0.9630 -0.6772
  363TMC3    C3 5485   3.812   0.427   9.976  0.5209 -0.7100  0.0382
  363TMC3    C4 5486   4.074   0.496  10.005  0.3463 -0.9041 -0.3062
  363TMC3    C5 5487   3.981   0.584   9.959  0.0991  0.2920 -0.1511
  363TMC3    C6 5488   3.850   0.553   9.939  0.7837  0.1372  0.5543
  363TMC3     C 5489   4.108   0.312  10.135 -0.5908  0.1582 -0.3970
  363TMC3     O 5490   4.232   0.332  10.132 -0.2708 -0.1497  0.2367
  363TMC3     H 5491   3.879   0.229  10.041  0.6118 -0.9323  0.3074
  363TMC3    H1 5492   4.174   0.529  10.031 -0.6820  1.7132  0.2762
  363TMC3    H2 5493   3.776   0.622   9.900  2.3400  0.9834 -0.8999
  363TMC3    C7 5494   4.033   0.719   9.924 -0.2077 -0.4075 -0.1511
  363TMC3    C8 5495   3.679   0.387   9.941 -0.1701 -0.5939 -0.0191
  363TMC3    O1 5496   4.151   0.744   9.952 -0.2480  0.2345  0.3192
  363TMC3    O2 5497   3.598   0.475   9.930 -0.5306  0.1533 -0.0206
  364MPD2     C 5498   1.794   4.560  11.174  0.4648 -0.2549 -0.1801
  364MPD2    C1 5499   1.864   4.512  11.063  0.8523  0.7374  0.0345
  364MPD2    C2 5500   1.849   4.383  11.025 -0.9404 -0.1325 -0.0853
  364MPD2    C3 5501   1.761   4.294  11.093  0.3518 -0.2077  0.0237
  364MPD2    C4 5502   1.687   4.348  11.191 -0.2281 -0.5042  0.1907
  364MPD2    C5 5503   1.706   4.476  11.239  0.0125 -0.0833  0.4102
  364MPD2     H 5504   1.911   4.338  10.948 -0.8941 -2.1567  1.1184
  364MPD2    H1 5505   1.616   4.289  11.247 -1.3716  1.1143  0.4493
  364MPD2    H2 5506   1.804   4.662  11.209  0.1592  0.0495 -0.9718
  364MPD2    H3 5507   1.644   4.510  11.321  2.4780  1.2599  1.6977
  364MPD2     N 5508   1.744   4.162  11.051  0.1472  0.0025 -0.5494
  364MPD2    H5 5509   1.691   4.103  11.115 -0.3160 -1.5109 -2.3488
  364MPD2    N1 5510   1.936   4.612  10.984  0.6875 -0.3167 -0.2667
  364MPD2    H7 5511   1.968   4.699  11.025  0.0192 -1.0618  1.8777
  365TMC3    C1 5512   2.072   4.671  10.791  0.4657 -0.2504  0.2394
  365TMC3    C2 5513   2.086   4.647  10.659  0.0582  0.1587  0.3985
  365TMC3    C3 5514   2.158   0.003  10.595 -0.5383 -0.2908 -0.0877
  365TMC3    C4 5515   2.129   0.038  10.855  0.1597 -0.2315 -0.1994
  365TMC3    C5 5516   2.200   0.132  10.785 -0.2596  0.3718 -0.3550
  365TMC3    C6 5517   2.212   0.113  10.647  0.3035 -0.0379 -0.0919
  365TMC3     C 5518   1.968   4.592  10.852 -0.5759  0.4189  0.6979
  365TMC3     O 5519   1.916   4.512  10.779 -0.1054 -0.2158  0.0411
  365TMC3     H 5520   2.041   4.558  10.616 -1.7154  0.7807  0.9811
  365TMC3    H1 5521   2.128   0.038  10.964 -0.0586  1.1749 -0.2050
  365TMC3    H2 5522   2.251   0.192  10.583 -1.4062  1.0755  0.2245
  365TMC3    C7 5523   2.232   0.258  10.845 -0.0423  0.3978  0.6643
  365TMC3    C8 5524   2.159   0.001  10.445  0.6772  0.6887 -0.3854
  365TMC3    O1 5525   2.295   0.336  10.770  0.4203  0.4687 -0.0900
  365TMC3    O2 5526   2.211   0.093  10.378  0.1769  0.1673  0.4451
  366MPD2     C 5527   4.539   1.283  15.364  0.4879  0.6286  0.2601
  366MPD2    C1 5528   4.663   1.297  15.311 -0.4190  0.3122 -0.1028
  366MPD2    C2 5529   4.739   1.181  15.280 -0.3098 -0.1478 -0.2978
  366MPD2    C3 5530   4.677   1.057  15.283  0.4657 -0.5102 -1.1150
  366MPD2    C4 5531   4.546   1.047  15.334  0.0058 -0.7500 -0.0774
  366MPD2    C5 5532   4.484   1.159  15.385  0.2843  0.0982 -0.2197
  366MPD2     H 5533   0.100   1.195  15.248 -0.5178  0.5887 -0.6447
  366MPD2    H1 5534   4.495   0.952  15.335 -0.6223 -0.4027  0.3108
  366MPD2    H2 5535   4.479   1.368  15.395  1.1577  1.1335  0.1754
  366MPD2    H3 5536   4.385   1.152  15.427 -0.3025  1.0963 -1.4125
  366MPD2     N 5537   0.012   0.943  15.237 -0.0900 -0.1469 -0.3627
  366MPD2    H5 5538   0.099   0.971  15.194  0.1509 -0.4141 -0.0414
  366MPD2    N1 5539   4.731   1.421  15.297  0.1898  0.1020 -0.0290
  366MPD2    H7 5540   0.071   1.405  15.238  1.3804 -1.1870  1.9761
  367TMC3    C1 5541   0.029   1.647  15.282  0.2478  0.4765  0.2306
  367TMC3    C2 5542   0.155   1.661  15.342  0.0554 -0.7332  0.1933
  367TMC3    C3 5543   0.243   1.748  15.279 -0.0195  0.0091 -0.4303
  367TMC3    C4 5544   0.005   1.695  15.157  0.3546 -0.3994  0.9875
  367TMC3    C5 5545   0.096   1.767  15.087  0.3572 -0.2282 -0.1543
  367TMC3    C6 5546   0.218   1.798  15.150  0.9178 -0.5652  0.2043
  367TMC3     C 5547   4.687   1.548  15.334  0.0625  0.6692  0.1751
  367TMC3     O 5548   4.586   1.585  15.393  0.3754  0.7329 -0.0157
  367TMC3     H 5549   0.184   1.605  15.430  0.5345 -0.1025  0.4315
  367TMC3    H1 5550   4.649   1.671  15.115  0.1223  1.9228  0.2200
  367TMC3    H2 5551   0.292   1.858  15.097  0.1702 -1.1262 -1.4907
  367TMC3    C7 5552   0.055   1.820  14.961 -0.0445  0.1349  0.2364
  367TMC3    C8 5553   0.362   1.787  15.352 -0.2869 -0.1194  0.5009
  367TMC3    O1 5554   4.689   1.773  14.918  0.6493  0.6422 -0.6038
  367TMC3    O2 5555   0.393   1.731  15.457 -0.4078 -0.1446 -0.3162
  368MPD2     C 5556   1.274   2.661  13.144 -0.2670 -0.0603  0.3740
  368MPD2    C1 5557   1.271   2.798  13.112  0.5886 -0.1996  0.3767
  368MPD2    C2 5558   1.378   2.864  13.058  0.3584  0.2892  0.5691
  368MPD2    C3 5559   1.502   2.799  13.049 -0.4315  0.2536  0.3826
  368MPD2    C4 5560   1.509   2.670  13.095 -0.0339  0.5856  0.2690
  368MPD2    C5 5561   1.397   2.601  13.130  0.3313  0.0147 -0.3586
  368MPD2     H 5562   1.364   2.967  13.027 -1.6409 -0.9744 -2.7780
  368MPD2    H1 5563   1.599   2.610  13.092  0.2280  0.9169  1.4173
  368MPD2    H2 5564   1.186   2.599  13.160  0.8106 -1.5404  0.5144
  368MPD2    H3 5565   1.401   2.494  13.152  1.0376 -0.1727 -1.3764
  368MPD2     N 5566   1.618   2.864  12.986  0.0721  0.0149  0.9734
  368MPD2    H5 5567   1.703   2.809  12.995  0.5217  0.6559  0.7005
  368MPD2    N1 5568   1.145   2.855  13.126 -1.1404  0.1024  0.3600
  368MPD2    H7 5569   1.071   2.800  13.168 -1.3944 -2.0529 -2.9741
  369TMC3    C1 5570   0.955   3.002  13.102 -0.5585  0.3434 -0.4282
  369TMC3    C2 5571   0.912   3.128  13.080  0.4229 -0.5521  0.1462
  369TMC3    C3 5572   0.779   3.156  13.106 -0.0328  0.2216  0.2437
  369TMC3    C4 5573   0.873   2.896  13.136 -0.2172  0.4596  0.1757
  369TMC3    C5 5574   0.745   2.930  13.152  1.2669 -0.1041 -0.0854
  369TMC3    C6 5575   0.696   3.056  13.142 -0.0604  0.6203 -0.2383
  369TMC3     C 5576   1.102   2.977  13.078  0.4357 -0.2315 -0.1129
  369TMC3     O 5577   1.167   3.057  13.013  0.1820  0.6936 -0.2025
  369TMC3     H 5578   0.975   3.212  13.052  0.6997 -0.6993  0.3283
  369TMC3    H1 5579   0.900   2.793  13.156  0.2319  0.8444  1.5189
  369TMC3    H2 5580   0.596   3.076  13.181 -0.5264  0.6216 -1.4456
  369TMC3    C7 5581   0.663   2.833  13.209  0.1038  0.1658 -0.2481
  369TMC3    C8 5582   0.722   3.284  13.072 -0.4670  0.3040  0.0224
  369TMC3    O1 5583   0.724   2.747  13.278  0.0750 -0.0459  0.2477
  369TMC3    O2 5584   0.611   3.275  13.026  0.2855  0.3370  0.4005
  370TMC3    C1 5585   1.024   3.310  16.216 -0.3563 -1.1929  0.3536
  370TMC3    C2 5586   1.018   3.233  16.328  0.7398 -0.4375 -0.4561
  370TMC3    C3 5587   1.053   3.099  16.313  0.2465 -0.0956  0.2524
  370TMC3    C4 5588   1.058   3.265  16.093 -0.3365  0.0125  0.1276
  370TMC3    C5 5589   1.079   3.129  16.083 -0.3195  0.9181  0.5049
  370TMC3    C6 5590   1.082   3.046  16.191  0.9342  0.3745  0.0001
  370TMC3     C 5591   1.025   3.450  16.238  0.1442  0.1603  0.3932
  370TMC3     O 5592   0.956   3.498  16.329 -0.4022 -0.2462 -0.3558
  370TMC3     H 5593   0.984   3.284  16.418 -0.8163 -0.5784 -0.9527
  370TMC3    H1 5594   1.060   3.329  16.006  1.3839  0.2447  0.3506
  370TMC3    H2 5595   1.082   2.938  16.184  0.1447  0.5594 -2.5947
  370TMC3    C7 5596   1.103   3.071  15.950 -0.7624 -0.1771 -0.2492
  370TMC3    C8 5597   1.103   3.019  16.425  0.3243  0.0912 -0.1271
  370TMC3    O1 5598   1.061   3.125  15.848 -0.1362  0.1650 -0.1435
  370TMC3    O2 5599   1.102   2.896  16.421 -0.3435 -0.6240 -0.1689
  371TMC3    C1 5600   2.203   1.251  15.267 -0.2479 -0.8859  0.2309
  371TMC3    C2 5601   2.084   1.272  15.337 -0.0341  0.5716 -0.6372
  371TMC3    C3 5602   2.033   1.397  15.331 -0.0668 -0.2496  0.1179
  371TMC3    C4 5603   2.258   1.348  15.194  0.0772  0.9712 -0.4761
  371TMC3    C5 5604   2.192   1.467  15.179 -0.1737 -0.3672  0.0590
  371TMC3    C6 5605   2.086   1.501  15.258 -0.0129 -0.1552  0.3903
  371TMC3     C 5606   2.274   1.127  15.289  0.1396 -0.2150  0.1283
  371TMC3     O 5607   2.392   1.123  15.253  0.0204  0.4898  1.0967
  371TMC3     H 5608   2.037   1.205  15.408  1.9435 -0.0536  0.0855
  371TMC3    H1 5609   2.350   1.331  15.139 -0.9416 -0.5075 -1.7191
  371TMC3    H2 5610   2.036   1.597  15.251  1.3209  0.6678  2.0826
  371TMC3    C7 5611   2.230   1.567  15.079  0.3584 -0.4057 -0.4534
  371TMC3    C8 5612   1.907   1.423  15.402 -0.1546 -0.2485 -0.3426
  371TMC3    O1 5613   2.189   1.682  15.100 -0.7725 -0.2578  0.5773
  371TMC3    O2 5614   1.835   1.327  15.418 -0.3540 -0.2561  0.0082
  372MPD2     C 5615   2.197   2.934  13.118  0.1357 -0.0575 -0.6043
  372MPD2    C1 5616   2.258   2.822  13.185 -0.4944 -0.2169  0.0424
  372MPD2    C2 5617   2.175   2.746  13.267 -0.5680 -0.6992 -0.2010
  372MPD2    C3 5618   2.046   2.773  13.297  0.2489 -0.3194 -0.0058
  372MPD2    C4 5619   1.993   2.884  13.230 -0.2455 -0.1501  0.4166
  372MPD2    C5 5620   2.072   2.963  13.151 -0.1701  0.3265  0.0683
  372MPD2     H 5621   2.215   2.659  13.317  0.3051 -0.0618  0.2165
  372MPD2    H1 5622   1.894   2.924  13.251 -0.8311 -1.2151 -0.3278
  372MPD2    H2 5623   2.251   2.992  13.044 -0.5947  0.6776 -0.5621
  372MPD2    H3 5624   2.030   3.057  13.118  0.9541  0.6816 -0.3713
  372MPD2     N 5625   1.986   2.700  13.402 -0.4166  0.4689 -0.5726
  372MPD2    H5 5626   2.037   2.620  13.438 -1.4083 -0.0424 -0.3056
  372MPD2    N1 5627   2.394   2.777  13.151 -0.2263 -0.1671 -0.0784
  372MPD2    H7 5628   2.429   2.701  13.208 -1.1339  2.0948  3.5317
  373TMC3    C1 5629   1.828   2.636  13.554 -0.7518  0.5474 -0.4304
  373TMC3    C2 5630   1.739   2.673  13.648 -1.4331  0.2656  0.0816
  373TMC3    C3 5631   1.685   2.580  13.729  0.1265 -0.3453  0.4495
  373TMC3    C4 5632   1.868   2.504  13.542  0.3358  0.0700 -0.2290
  373TMC3    C5 5633   1.814   2.418  13.634 -0.6904 -0.3017 -0.1323
  373TMC3    C6 5634   1.710   2.449  13.711  0.5864 -0.3044 -0.2961
  373TMC3     C 5635   1.864   2.731  13.453 -0.1615 -0.2903 -0.3890
  373TMC3     O 5636   1.798   2.832  13.442  0.2470  0.1761  0.1536
  373TMC3     H 5637   1.731   2.779  13.669 -1.6433  0.1688  0.4865
  373TMC3    H1 5638   1.939   2.465  13.470  1.2210  0.3731  0.4794
  373TMC3    H2 5639   1.663   2.373  13.772  0.5014 -0.1011 -0.1087
  373TMC3    C7 5640   1.820   2.277  13.614  0.4702  0.1968  0.3652
  373TMC3    C8 5641   1.555   2.621  13.793 -0.1812 -0.2339  0.1425
  373TMC3    O1 5642   1.930   2.226  13.607  0.2471  0.0682 -0.5898
  373TMC3    O2 5643   1.491   2.695  13.723 -0.4184 -0.6913 -0.3087
  374TMC3    C1 5644   2.159   2.968   9.578  0.1340 -0.0546 -0.0507
  374TMC3    C2 5645   2.235   3.067   9.625 -0.7152 -0.2703 -0.0323
  374TMC3    C3 5646   2.190   3.192   9.609 -0.3121 -0.5999 -0.2702
  374TMC3    C4 5647   2.039   2.990   9.510  0.5605 -0.7805  0.2258
  374TMC3    C5 5648   2.006   3.117   9.481  0.4100  0.5845 -0.9528
  374TMC3    C6 5649   2.081   3.223   9.531 -0.3047 -0.3946 -0.0723
  374TMC3     C 5650   2.192   2.837   9.628  0.5419 -0.5292 -0.9103
  374TMC3     O 5651   2.282   2.820   9.707 -0.3292  0.0652  0.3944
  374TMC3     H 5652   2.326   3.050   9.682 -0.1839  0.0785 -0.7738
  374TMC3    H1 5653   1.958   2.918   9.507 -1.5485  1.5814  0.6042
  374TMC3    H2 5654   2.048   3.324   9.511 -3.1103 -1.3257 -0.0696
  374TMC3    C7 5655   1.904   3.152   9.387 -0.2068  0.2466  0.2861
  374TMC3    C8 5656   2.275   3.304   9.651  0.3168  0.4335  0.5791
  374TMC3    O1 5657   1.882   3.274   9.378 -0.2056 -0.4166 -0.0960
  374TMC3    O2 5658   2.259   3.403   9.578  0.0285 -0.7971  0.1425
  375MPD2     C 5659   2.576   4.463  16.677  0.1960 -0.1562 -0.4458
  375MPD2    C1 5660   2.458   4.406  16.721  0.3606 -0.7431  0.2439
  375MPD2    C2 5661   2.450   4.270  16.737 -0.1094 -0.2404  0.5296
  375MPD2    C3 5662   2.555   4.191  16.718 -0.4788  0.1541 -0.1676
  375MPD2    C4 5663   2.673   4.245  16.676 -0.3301 -0.2062  0.9618
  375MPD2    C5 5664   2.684   4.380  16.654 -0.6325 -0.5871 -0.5512
  375MPD2     H 5665   2.354   4.228  16.766 -0.6132 -0.3833 -1.3721
  375MPD2    H1 5666   2.759   4.180  16.676  0.8739  1.4012 -0.8953
  375MPD2    H2 5667   2.593   4.567  16.651  0.4897  0.2471  1.3139
  375MPD2    H3 5668   2.776   4.419  16.612 -0.9535  0.4333 -0.3078
  375MPD2     N 5669   2.552   4.050  16.723 -0.0003  0.1557  0.0669
  375MPD2    H5 5670   2.640   4.000  16.714 -0.1455  0.0716 -0.8750
  375MPD2    N1 5671   2.341   4.483  16.734  0.0422 -0.1269  0.8574
  375MPD2    H7 5672   2.258   4.431  16.759 -1.2215  0.8539 -1.2637
  376TMC3    C1 5673   2.481   3.838  16.781  0.2271 -0.1616 -0.7138
  376TMC3    C2 5674   2.614   3.811  16.792  0.6315  0.1397  0.5895
  376TMC3    C3 5675   2.643   3.677  16.777  0.1121 -0.2239  0.3629
  376TMC3    C4 5676   2.387   3.740  16.766 -0.4134 -0.2788  0.8036
  376TMC3    C5 5677   2.424   3.611  16.750 -0.3733 -0.0639  0.2288
  376TMC3    C6 5678   2.553   3.577  16.750 -0.1838  0.8958  0.3383
  376TMC3     C 5679   2.440   3.970  16.763  0.2365  0.4938 -0.8531
  376TMC3     O 5680   2.323   4.003  16.782  0.0615 -0.5013  0.0821
  376TMC3     H 5681   2.694   3.881  16.811  1.1709 -0.0776 -0.8794
  376TMC3    H1 5682   2.284   3.775  16.769 -0.3487 -0.0866  0.8366
  376TMC3    H2 5683   2.586   3.474  16.741  1.1737  1.2570  1.1042
  376TMC3    C7 5684   2.337   3.541  16.662  0.2576 -0.0211 -0.4562
  376TMC3    C8 5685   2.783   3.645  16.760  0.2604  0.0033  0.6734
  376TMC3    O1 5686   2.252   3.603  16.602 -0.4540  0.5073 -0.2658
  376TMC3    O2 5687   2.868   3.732  16.740  0.3268 -0.4694  0.0678
  377MPD2     C 5688   4.338   2.699  12.824  0.3657  0.3608 -0.0875
  377MPD2    C1 5689   4.455   2.747  12.878  0.8525 -0.8955 -0.0083
  377MPD2    C2 5690   4.493   2.712  13.011 -0.0139 -0.5430  0.5412
  377MPD2    C3 5691   4.415   2.629  13.091  0.3444 -0.6208 -0.5195
  377MPD2    C4 5692   4.307   2.574  13.024 -0.0158  0.9612  0.3328
  377MPD2    C5 5693   4.267   2.611  12.900 -0.1992 -0.1008  0.0532
  377MPD2     H 5694   4.578   2.769  13.047  1.0203 -0.7979 -1.5111
  377MPD2    H1 5695   4.245   2.503  13.079 -0.9447 -1.2018 -3.5533
  377MPD2    H2 5696   4.307   2.729  12.725  0.6643  0.2834 -0.2055
  377MPD2    H3 5697   4.183   2.555  12.861 -0.1413 -1.1719  1.4483
  377MPD2     N 5698   4.454   2.587  13.221 -0.3323 -0.0450 -1.4463
  377MPD2    H5 5699   4.422   2.497  13.255 -0.7476  1.5889  2.4460
  377MPD2    N1 5700   4.524   2.846  12.801  0.1589  0.6774  0.9606
  377MPD2    H7 5701   4.483   2.863  12.710 -0.3446 -1.9429  0.6908
  378TMC3    C1 5702   4.666   3.112  12.531  0.2377 -0.0801  0.3443
  378TMC3    C2 5703   4.603   3.039  12.625  0.4880  0.1756 -0.5299
  378TMC3    C3 5704   4.677   3.012  12.734 -0.3276  0.7170 -0.2442
  378TMC3    C4 5705   0.054   3.163  12.536 -1.2613 -0.6870 -0.5174
  378TMC3    C5 5706   0.121   3.133  12.651  0.1745  0.3994 -0.5186
  378TMC3    C6 5707   0.059   3.062  12.750 -0.4593 -0.3225 -0.4716
  378TMC3     C 5708   4.591   3.121  12.408 -0.8727 -0.4497 -0.0127
  378TMC3     O 5709   4.475   3.081  12.412 -0.1452 -0.4842  0.4806
  378TMC3     H 5710   4.499   3.008  12.619  0.4959  0.0322  0.1987
  378TMC3    H1 5711   0.101   3.234  12.468 -1.0098  0.6118  1.0089
  378TMC3    H2 5712   0.117   3.029  12.836 -0.1553 -0.4074 -0.7104
  378TMC3    C7 5713   0.259   3.171  12.674  0.0670  1.2505  0.3211
  378TMC3    C8 5714   4.646   2.912  12.829  0.0479 -0.5519  0.6746
  378TMC3    O1 5715   0.289   3.192  12.789  0.1561  0.2478 -0.7250
  378TMC3    O2 5716   4.708   2.885  12.929  0.3760 -0.1043  0.5270
  379MPD2     C 5717   1.607   1.662  15.910  1.1329  0.4984  0.7283
  379MPD2    C1 5718   1.512   1.568  15.929 -0.0198  0.2866 -0.1244
  379MPD2    C2 5719   1.542   1.457  16.001  0.6399 -0.3242  0.1316
  379MPD2    C3 5720   1.670   1.445  16.062  0.1716 -0.0625  0.1235
  379MPD2    C4 5721   1.761   1.542  16.049 -0.0643 -0.5558  0.3296
  379MPD2    C5 5722   1.731   1.651  15.972 -0.7058 -0.0694  0.3019
  379MPD2     H 5723   1.476   1.374  16.023  0.1602 -0.2783 -1.1636
  379MPD2    H1 5724   1.858   1.534  16.095  0.5240 -0.5499 -0.9265
  379MPD2    H2 5725   1.592   1.748  15.846 -1.2341 -0.9321 -0.6544
  379MPD2    H3 5726   1.798   1.736  15.973  0.3048 -0.8401 -1.2289
  379MPD2     N 5727   1.701   1.347  16.159 -0.4223  0.2126  0.0191
  379MPD2    H5 5728   1.792   1.354  16.202 -0.7736  2.5721  0.4033
  379MPD2    N1 5729   1.386   1.567  15.861 -0.3965 -0.0341  0.1618
  379MPD2    H7 5730   1.329   1.483  15.867  0.8396 -0.9701 -0.8839
  380TMC3    C1 5731   1.217   1.648  15.716  0.3085  0.6191  0.1247
  380TMC3    C2 5732   1.191   1.515  15.682  0.2931  0.1238 -0.0190
  380TMC3    C3 5733   1.086   1.493  15.602  0.1100 -0.0092  0.1009
  380TMC3    C4 5734   1.143   1.752  15.666  0.8585  0.8259 -0.0530
  380TMC3    C5 5735   1.033   1.723  15.591  0.0553 -0.0847  0.2432
  380TMC3    C6 5736   0.997   1.595  15.563  0.2314 -0.2173  0.1365
  380TMC3     C 5737   1.324   1.679  15.808 -0.2712 -0.4655  0.1333
  380TMC3     O 5738   1.364   1.794  15.817 -0.0974  0.7783 -0.3197
  380TMC3     H 5739   1.268   1.440  15.695  0.8531  0.8909  1.1407
  380TMC3    H1 5740   1.169   1.850  15.702  2.0859  0.9197 -1.1899
  380TMC3    H2 5741   0.902   1.576  15.516  0.7284  0.5986 -1.1965
  380TMC3    C7 5742   0.960   1.843  15.559  0.4704 -0.9879 -1.0899
  380TMC3    C8 5743   1.056   1.361  15.550 -0.2107 -0.0561  0.1230
  380TMC3    O1 5744   1.022   1.944  15.572  0.1557  0.5285 -0.0218
  380TMC3    O2 5745   0.971   1.361  15.462 -0.0723  0.8530  0.6226
  381TMC3    C1 5746   0.937   2.602  16.318 -0.1855 -0.4448  0.1500
  381TMC3    C2 5747   1.056   2.608  16.250  0.1397 -0.2969 -0.1865
  381TMC3    C3 5748   1.166   2.549  16.304 -0.4610 -0.4851  0.2035
  381TMC3    C4 5749   0.922   2.530  16.434  0.3826  0.5868  0.8597
  381TMC3    C5 5750   1.038   2.485  16.491  0.4834 -0.4610  0.1807
  381TMC3    C6 5751   1.164   2.493  16.428  0.0146 -0.5398  0.2346
  381TMC3     C 5752   0.836   2.704  16.289  0.5967  0.3857 -0.4519
  381TMC3     O 5753   0.787   2.763  16.384  0.0161 -0.1909  0.3366
  381TMC3     H 5754   1.063   2.670  16.161 -2.5802 -0.5382 -0.5472
  381TMC3    H1 5755   0.837   2.550  16.498  0.2039 -1.1263  1.1709
  381TMC3    H2 5756   1.253   2.463  16.483  0.6293 -1.4615 -1.2778
  381TMC3    C7 5757   1.031   2.455  16.629 -0.1097  0.6254  0.3352
  381TMC3    C8 5758   1.291   2.588  16.246  0.1722  0.3107 -0.1151
  381TMC3    O1 5759   1.089   2.352  16.657  0.3410 -0.2008 -0.3411
  381TMC3    O2 5760   1.324   2.507  16.161 -0.7905 -0.9380 -0.5997
  382MPD2     C 5761   0.780   4.728  17.078  0.3732  0.0506 -0.6225
  382MPD2    C1 5762   0.646   0.005  17.089 -0.3320  0.3722  0.5326
  382MPD2    C2 5763   0.562   4.641  17.114 -0.6025  0.1054 -0.0571
  382MPD2    C3 5764   0.615   4.518  17.147 -0.6346 -0.1989 -0.4998
  382MPD2    C4 5765   0.754   4.510  17.152 -0.5147  0.2256 -0.5110
  382MPD2    C5 5766   0.835   4.608  17.118  0.3628  0.6955 -0.0066
  382MPD2     H 5767   0.456   4.661  17.101 -0.7426 -0.1182  0.6982
  382MPD2    H1 5768   0.798   4.411  17.165  0.5086  0.7691  0.1303
  382MPD2    H2 5769   0.851   0.058  17.037 -0.4847  1.2127 -0.0853
  382MPD2    H3 5770   0.940   4.584  17.104  0.0825 -0.7699  0.4401
  382MPD2     N 5771   0.541   4.403  17.165  0.7406  0.3284 -0.0631
  382MPD2    H5 5772   0.590   4.316  17.183 -1.4584 -0.8215  0.3838
  382MPD2    N1 5773   0.589   0.127  17.048 -0.0734  0.6113 -0.0252
  382MPD2    H7 5774   0.488   0.128  17.057  0.0223  0.2352  1.0773
  383TMC3    C1 5775   0.355   4.256  17.167  0.2335 -0.0540  0.1888
  383TMC3    C2 5776   0.228   4.249  17.216  0.5617 -0.2061  0.3396
  383TMC3    C3 5777   0.173   4.128  17.208 -0.2966  0.6421  1.1138
  383TMC3    C4 5778   0.424   4.153  17.113  0.5599 -0.0711  0.4379
  383TMC3    C5 5779   0.365   4.032  17.117  0.2512  0.9244  0.2642
  383TMC3    C6 5780   0.233   4.018  17.152  0.2628  0.0114  0.4846
  383TMC3     C 5781   0.404   4.390  17.148  0.0287  0.6272 -0.0892
  383TMC3     O 5782   0.316   4.472  17.139  0.7021  0.3184 -0.4629
  383TMC3     H 5783   0.169   4.331  17.256  0.3481 -0.6935  1.0145
  383TMC3    H1 5784   0.530   4.164  17.090  0.5690 -0.1105  0.4616
  383TMC3    H2 5785   0.188   3.920  17.164 -1.3398  0.5662 -0.9308
  383TMC3    C7 5786   0.445   3.934  17.050  0.0039  1.0275 -0.0163
  383TMC3    C8 5787   0.043   4.100  17.278  0.6100 -0.7125  0.4289
  383TMC3    O1 5788   0.564   3.963  17.042  0.7872  0.2823  0.3421
  383TMC3    O2 5789   0.001   4.166  17.373  0.0582  0.3879 -0.9185
  384MPD2     C 5790   1.364   1.489  12.579  0.0599  0.8286  0.5206
  384MPD2    C1 5791   1.426   1.381  12.647 -0.6796  0.3209  0.0610
  384MPD2    C2 5792   1.560   1.365  12.637  0.0234  0.1173 -0.4838
  384MPD2    C3 5793   1.640   1.458  12.573  0.1923 -0.4985  0.1093
  384MPD2    C4 5794   1.584   1.573  12.530  0.1593 -0.7778 -0.5790
  384MPD2    C5 5795   1.444   1.590  12.528 -0.0807  0.0700  0.4050
  384MPD2     H 5796   1.612   1.276  12.669 -2.6162 -1.6673 -1.1808
  384MPD2    H1 5797   1.649   1.639  12.474 -1.3628  0.6081 -0.7123
  384MPD2    H2 5798   1.256   1.498  12.566 -0.1046 -1.5492  0.2633
  384MPD2    H3 5799   1.416   1.678  12.472  1.0426 -0.8052 -1.5344
  384MPD2     N 5800   1.772   1.420  12.548  0.0354  0.4244  0.0857
  384MPD2    H5 5801   1.783   1.320  12.561  0.0736  0.5233  0.8326
  384MPD2    N1 5802   1.342   1.277  12.690  0.1528 -0.1811  0.1862
  384MPD2    H7 5803   1.242   1.284  12.677 -0.1202 -2.2243  1.0980
  385TMC3    C1 5804   1.983   1.405  12.463  0.0930  1.0424  0.0117
  385TMC3    C2 5805   2.019   1.401  12.332 -0.2632 -0.0108 -0.2973
  385TMC3    C3 5806   2.048   1.280  12.269  0.1816 -0.0155 -0.2218
  385TMC3    C4 5807   1.985   1.287  12.539 -0.5139 -0.1289 -0.5925
  385TMC3    C5 5808   2.007   1.168  12.474  0.9963  0.7807 -0.0491
  385TMC3    C6 5809   2.028   1.162  12.346  0.5179 -0.0145  0.8323
  385TMC3     C 5810   1.869   1.489  12.490  0.0923 -0.2119  0.6454
  385TMC3     O 5811   1.867   1.604  12.446  0.1549 -0.0474  0.1122
  385TMC3     H 5812   2.022   1.497  12.282  2.3042  0.3232  0.5303
  385TMC3    H1 5813   1.956   1.302  12.643  1.5336 -0.4980  0.0269
  385TMC3    H2 5814   2.021   1.064  12.300  1.7949 -0.3727  1.3872
  385TMC3    C7 5815   1.907   1.076  12.523  0.2557 -0.0594  0.1768
  385TMC3    C8 5816   2.061   1.286  12.122 -0.5478  0.0277 -0.6049
  385TMC3    O1 5817   1.808   1.142  12.560 -0.1978  0.0978 -1.0553
  385TMC3    O2 5818   2.072   1.398  12.069  0.0235 -0.0911  0.0922
  386TMC3    C1 5819   1.451   3.536  11.886  0.3179  0.0863  0.6981
  386TMC3    C2 5820   1.480   3.513  11.753 -0.4212  0.0169  0.0044
  386TMC3    C3 5821   1.374   3.529  11.665 -0.2233 -0.3918 -0.3852
  386TMC3    C4 5822   1.325   3.569  11.930 -0.0927  0.2676 -0.3310
  386TMC3    C5 5823   1.220   3.555  11.841  0.0277  0.1538  0.0616
  386TMC3    C6 5824   1.245   3.567  11.708 -0.4195 -0.6712  0.5427
  386TMC3     C 5825   1.543   3.478  11.981  0.0559  0.0083 -0.0291
  386TMC3     O 5826   1.663   3.482  11.953 -0.0898 -0.3367  1.1404
  386TMC3     H 5827   1.576   3.471  11.724 -0.0431  1.0348 -0.2237
  386TMC3    H1 5828   1.303   3.600  12.032 -2.5423 -2.4189 -0.0328
  386TMC3    H2 5829   1.174   3.587  11.629  1.1528  0.6334 -0.5377
  386TMC3    C7 5830   1.089   3.554  11.898  0.2110  0.8519 -0.0524
  386TMC3    C8 5831   1.403   3.534  11.520  0.1481  0.3505 -0.3174
  386TMC3    O1 5832   1.081   3.591  12.015  0.8489 -0.0988  0.8706
  386TMC3    O2 5833   1.302   3.531  11.447  0.4666  0.2484  0.6966
  387MPD2     C 5834   4.161   3.041   9.717 -0.1601 -0.4166  0.2812
  387MPD2    C1 5835   4.296   3.011   9.718  0.1664  0.1578  0.5769
  387MPD2    C2 5836   4.333   2.883   9.698 -0.9054 -0.1838  0.4313
  387MPD2    C3 5837   4.239   2.781   9.700 -0.0619  0.0023 -0.4924
  387MPD2    C4 5838   4.105   2.806   9.711  0.2367  0.6263  0.0622
  387MPD2    C5 5839   4.071   2.940   9.718 -0.8062 -0.6473  0.3881
  387MPD2     H 5840   4.438   2.858   9.688 -0.4272  1.3454  1.8033
  387MPD2    H1 5841   4.027   2.730   9.714  0.0471  0.8156 -0.1354
  387MPD2    H2 5842   4.122   3.142   9.725 -1.0864 -0.7681  0.2187
  387MPD2    H3 5843   3.967   2.961   9.742 -0.3072  1.7442  0.4492
  387MPD2     N 5844   4.293   2.650   9.708  0.0040 -0.3322  0.0357
  387MPD2    H5 5845   4.393   2.652   9.690 -0.0302  1.5055  0.1098
  387MPD2    N1 5846   4.404   3.105   9.731 -0.2502  0.0681 -0.7136
  387MPD2    H7 5847   4.494   3.058   9.726 -1.1521 -1.7850  0.4045
  388TMC3    C1 5848   4.524   3.301   9.761  0.5958  0.8188 -0.3172
  388TMC3    C2 5849   4.521   3.429   9.820 -0.2120  0.2399 -0.4164
  388TMC3    C3 5850   4.639   3.466   9.887  0.2217 -0.0272  0.5494
  388TMC3    C4 5851   4.636   3.221   9.772  0.8127 -0.7050 -0.1914
  388TMC3    C5 5852   0.004   3.261   9.843 -0.5798  0.0388 -0.5050
  388TMC3    C6 5853   0.000   3.378   9.907 -0.5201 -0.4163 -0.5056
  388TMC3     C 5854   4.389   3.242   9.740 -0.0215  0.8143  0.0256
  388TMC3     O 5855   4.293   3.320   9.736 -0.3406 -0.0442 -0.2709
  388TMC3     H 5856   4.433   3.492   9.811  0.4235  1.3547  0.9872
  388TMC3    H1 5857   4.641   3.137   9.704  0.8562  1.5808 -3.0384
  388TMC3    H2 5858   0.092   3.408   9.956  0.7019  1.0173 -3.6448
  388TMC3    C7 5859   0.090   3.153   9.901  0.4872 -0.0802  0.0217
  388TMC3    C8 5860   4.648   3.586   9.968 -0.7179 -0.5622 -0.1781
  388TMC3    O1 5861   0.165   3.178   9.995 -0.1719  0.1734  0.0911
  388TMC3    O2 5862   0.018   3.615  10.008  0.5843  0.1824 -0.1205
  389MPD2     C 5863   3.748   1.893  11.040 -0.7708  0.4421 -0.1516
  389MPD2    C1 5864   3.647   1.800  11.039 -0.2805  0.5040  0.0922
  389MPD2    C2 5865   3.630   1.701  11.141 -0.0961 -0.7456 -0.6111
  389MPD2    C3 5866   3.721   1.695  11.242  0.0937  0.2900  0.2669
  389MPD2    C4 5867   3.833   1.776  11.233 -0.1757  0.8990  0.3052
  389MPD2    C5 5868   3.850   1.869  11.137  0.2783  0.0786  0.3241
  389MPD2     H 5869   3.540   1.642  11.149  0.7746 -1.8579  0.9728
  389MPD2    H1 5870   3.909   1.770  11.311 -0.4056 -1.5113  0.3443
  389MPD2    H2 5871   3.766   1.981  10.980 -0.2452  0.9712  0.7764
  389MPD2    H3 5872   3.937   1.934  11.143 -0.3700  1.0751 -1.0038
  389MPD2     N 5873   3.722   1.590  11.337  0.2243  0.1630  0.3435
  389MPD2    H5 5874   3.796   1.601  11.405 -0.9726  1.5346  1.3976
  389MPD2    N1 5875   3.556   1.820  10.931 -0.1826 -0.2970 -0.4927
  389MPD2    H7 5876   3.565   1.909  10.883  1.0696  0.5792  1.3984
  390TMC3    C1 5877   3.641   1.423  11.480  0.0076  0.8369 -0.1672
  390TMC3    C2 5878   3.589   1.298  11.483  0.8151  0.1970 -0.3670
  390TMC3    C3 5879   3.561   1.247  11.604  0.3450  0.2173  0.4493
  390TMC3    C4 5880   3.659   1.496  11.596 -0.3254  0.4691  0.0447
  390TMC3    C5 5881   3.607   1.449  11.719 -0.1010  0.3135 -0.8853
  390TMC3    C6 5882   3.569   1.317  11.725 -0.2171  0.0217 -0.3096
  390TMC3     C 5883   3.626   1.494  11.354  0.6328  0.4115  0.0288
  390TMC3     O 5884   3.535   1.455  11.282 -0.2708 -0.0905 -0.4172
  390TMC3     H 5885   3.570   1.243  11.391  0.7439  0.6754 -0.6399
  390TMC3    H1 5886   3.662   1.603  11.578 -2.6490  0.6175  0.5105
  390TMC3    H2 5887   3.558   1.265  11.820 -1.1868  0.5597 -0.1237
  390TMC3    C7 5888   3.535   1.543  11.812 -0.0228 -0.4238  0.6366
  390TMC3    C8 5889   3.499   1.110  11.608 -0.2962 -0.5895 -0.1065
  390TMC3    O1 5890   3.551   1.659  11.785  0.0660  0.0936  0.7509
  390TMC3    O2 5891   3.504   1.036  11.507  0.0167 -0.3107 -0.3825
  391MPD2     C 5892   2.478   3.153  11.222 -0.7392 -0.1019 -0.4475
  391MPD2    C1 5893   2.603   3.196  11.189 -0.5211  0.5022  0.2821
  391MPD2    C2 5894   2.637   3.219  11.058 -0.0707 -0.6345  0.1198
  391MPD2    C3 5895   2.541   3.198  10.955  0.5989  0.2425 -0.7235
  391MPD2    C4 5896   2.415   3.154  10.992  0.5187  0.4316 -0.2803
  391MPD2    C5 5897   2.393   3.128  11.123 -0.4053  0.0045 -0.4288
  391MPD2     H 5898   2.733   3.258  11.027 -1.2738  1.6693 -0.7277
  391MPD2    H1 5899   2.332   3.131  10.926 -0.3610  0.4851  0.7986
  391MPD2    H2 5900   2.461   3.138  11.328  0.2936 -0.1364 -0.2802
  391MPD2    H3 5901   2.299   3.094  11.166  0.1879 -0.7015  0.3029
  391MPD2     N 5902   2.587   3.239  10.829  0.5203 -0.6023 -0.4023
  391MPD2    H5 5903   2.675   3.291  10.831 -0.6027  1.3625 -1.5590
  391MPD2    N1 5904   2.689   3.224  11.299  0.0181  0.3177  0.8131
  391MPD2    H7 5905   2.644   3.216  11.390 -0.0956  1.3133  0.8454
  392TMC3    C1 5906   2.597   3.291  10.604 -0.6727 -0.1647 -0.5100
  392TMC3    C2 5907   2.537   3.297  10.484 -0.0198  0.4260 -0.0731
  392TMC3    C3 5908   2.608   3.340  10.376  0.1363  0.1448 -0.2249
  392TMC3    C4 5909   2.727   3.303  10.616  0.0576 -0.8805 -0.0820
  392TMC3    C5 5910   2.797   3.346  10.507  0.7406 -0.3521  0.2544
  392TMC3    C6 5911   2.746   3.356  10.383  0.5080 -0.4305  0.3252
  392TMC3     C 5912   2.518   3.229  10.708  0.1532  0.4499 -0.1268
  392TMC3     O 5913   2.420   3.165  10.680 -0.0038 -0.4539 -0.3440
  392TMC3     H 5914   2.429   3.288  10.483 -0.0987  1.6676 -2.0983
  392TMC3    H1 5915   2.782   3.290  10.709 -0.1238 -0.1137  0.1338
  392TMC3    H2 5916   2.812   3.373  10.299  0.8611 -1.2322  0.4363
  392TMC3    C7 5917   2.939   3.361  10.526  0.5838 -0.0735  0.1614
  392TMC3    C8 5918   2.534   3.352  10.251  0.3433  0.2514 -0.3170
  392TMC3    O1 5919   2.998   3.436  10.455 -0.0269  0.0755 -0.5884
  392TMC3    O2 5920   2.420   3.300  10.254  0.4189  0.4481  0.1504
  393TMC3    C1 5921   1.831   1.443  10.949  0.0544 -0.2826 -0.4738
  393TMC3    C2 5922   1.704   1.404  10.986 -0.5242 -0.5896 -0.0246
  393TMC3    C3 5923   1.698   1.272  11.022  0.0926 -0.9237  1.0037
  393TMC3    C4 5924   1.939   1.374  10.983  0.0676 -0.0497 -0.1463
  393TMC3    C5 5925   1.930   1.251  11.023 -0.1172  0.0613 -0.1744
  393TMC3    C6 5926   1.806   1.191  11.048 -0.2454 -0.0442  0.2067
  393TMC3     C 5927   1.842   1.577  10.884  0.4104  0.4030  0.4151
  393TMC3     O 5928   1.741   1.645  10.883  0.2879  0.0475 -0.1226
  393TMC3     H 5929   1.616   1.451  10.944  0.0281 -1.0317 -1.6558
  393TMC3    H1 5930   2.034   1.427  10.981  0.0419 -0.0050 -0.1886
  393TMC3    H2 5931   1.793   1.091  11.090  3.1245 -0.9726 -0.9639
  393TMC3    C7 5932   2.046   1.179  11.039 -0.4666  0.0297  0.0260
  393TMC3    C8 5933   1.570   1.204  11.018 -0.3185  0.1255  0.1956
  393TMC3    O1 5934   2.033   1.061  11.018 -0.0109  0.1058  0.0414
  393TMC3    O2 5935   1.566   1.084  11.023  0.8704 -0.3283  0.2302
  394TMC3    C1 5936   3.373   1.788  10.790 -0.5450  0.2474  0.5334
  394TMC3    C2 5937   3.256   1.723  10.760 -0.2688 -0.0306 -0.3442
  394TMC3    C3 5938   3.181   1.758  10.651  0.5702 -0.0490 -0.2415
  394TMC3    C4 5939   3.414   1.895  10.716 -0.2764 -0.0941  0.0818
  394TMC3    C5 5940   3.342   1.919  10.601 -1.0701  0.1533  0.1447
  394TMC3    C6 5941   3.221   1.858  10.568  0.3953  0.0007 -0.1898
  394TMC3     C 5942   3.448   1.739  10.909 -0.3166 -1.1373  0.4432
  394TMC3     O 5943   3.420   1.632  10.949  1.0136 -0.3005  0.2704
  394TMC3     H 5944   3.216   1.660  10.839 -1.6587 -1.0477 -1.8444
  394TMC3    H1 5945   3.507   1.949  10.731 -0.2009 -0.1602 -0.1450
  394TMC3    H2 5946   3.169   1.879  10.475  1.0014  0.4460 -0.4276
  394TMC3    C7 5947   3.384   2.030  10.524 -0.7269  0.2459  0.7820
  394TMC3    C8 5948   3.087   1.658  10.607  0.4816 -0.1113  0.2705
  394TMC3    O1 5949   3.502   2.057  10.531  0.1053  0.0133  0.2679
  394TMC3    O2 5950   2.997   1.690  10.535  0.2870 -0.0759  0.3567
  395TMC3    C1 5951   3.224   3.359  14.783  0.4708  0.0337  0.2739
  395TMC3    C2 5952   3.162   3.350  14.660 -0.2753  0.3506 -0.5057
  395TMC3    C3 5953   3.225   3.414  14.551 -0.9857 -0.6292 -0.0062
  395TMC3    C4 5954   3.334   3.439  14.803 -0.4152 -0.5097  1.1994
  395TMC3    C5 5955   3.388   3.503  14.692  0.3886  0.7625  0.5867
  395TMC3    C6 5956   3.332   3.504  14.566 -0.1552 -0.0757 -0.7606
  395TMC3     C 5957   3.161   3.303  14.900  0.3300 -1.0291 -0.5757
  395TMC3     O 5958   3.155   3.365  15.005  0.3286 -0.1314  0.3941
  395TMC3     H 5959   3.064   3.303  14.657 -0.4104  0.5649  0.3812
  395TMC3    H1 5960   3.370   3.440  14.905 -1.3239 -1.3543  1.5311
  395TMC3    H2 5961   3.369   3.549  14.475 -2.0794  1.1188 -0.9488
  395TMC3    C7 5962   3.510   3.577  14.720  0.3184  0.3764 -0.0006
  395TMC3    C8 5963   3.170   3.371  14.418 -0.4587 -0.4205  0.8944
  395TMC3    O1 5964   3.561   3.556  14.830  0.1435 -0.3020 -0.0560
  395TMC3    O2 5965   3.175   3.452  14.324 -0.2463 -0.2541  0.3629
  396MPD2     C 5966   3.376   4.573  17.249  0.4314 -0.8521  0.2373
  396MPD2    C1 5967   3.501   4.607  17.284 -0.3203  0.5053  0.1282
  396MPD2    C2 5968   3.568   4.704  17.206  0.1777  0.5473  0.0525
  396MPD2    C3 5969   3.500   0.027  17.105 -0.5444 -0.4019 -0.3791
  396MPD2    C4 5970   3.365   4.735  17.083 -0.6791  0.2748  0.1952
  396MPD2    C5 5971   3.304   4.640  17.156  0.6597 -0.1126  0.0317
  396MPD2     H 5972   3.674   4.724  17.221  0.8221 -1.7174 -1.4723
  396MPD2    H1 5973   3.316   0.043  17.000  1.4981  1.8072 -0.1993
  396MPD2    H2 5974   3.331   4.488  17.299  0.5713 -1.3563 -0.4907
  396MPD2    H3 5975   3.207   4.605  17.124  0.6637 -0.0973  0.0035
  396MPD2     N 5976   3.572   0.109  17.011 -0.0233  0.5287  0.3831
  396MPD2    H5 5977   3.673   0.095  17.017  0.3166  2.0895 -1.5507
  396MPD2    N1 5978   3.557   4.537  17.390 -0.0112 -0.6135  0.5833
  396MPD2    H7 5979   3.492   4.472  17.433  0.0972  0.0801  1.7836
  397TMC3    C1 5980   3.712   4.450  17.546 -0.2458  0.1739 -0.1309
  397TMC3    C2 5981   3.788   4.348  17.494 -0.1359 -0.2942 -0.0903
  397TMC3    C3 5982   3.735   4.223  17.494  0.0525 -0.2477 -0.1643
  397TMC3    C4 5983   3.596   4.422  17.605 -0.3938  0.1289  0.0139
  397TMC3    C5 5984   3.545   4.293  17.597 -0.4589 -0.2735  1.2938
  397TMC3    C6 5985   3.624   4.190  17.559  0.4601 -0.2398 -0.1838
  397TMC3     C 5986   3.688   4.545  17.440  0.3072  1.0994 -0.1670
  397TMC3     O 5987   3.784   4.602  17.391  0.2405 -0.1226  0.2220
  397TMC3     H 5988   3.867   4.373  17.425  0.6916  3.2130  2.1076
  397TMC3    H1 5989   3.534   4.504  17.638  0.1792 -0.1647  1.8795
  397TMC3    H2 5990   3.579   4.092  17.547 -0.2492 -0.2419  2.3215
  397TMC3    C7 5991   3.405   4.280  17.590  0.0832 -0.7644  0.6220
  397TMC3    C8 5992   3.701   4.188  17.358  0.4492 -0.3951 -1.0818
  397TMC3    O1 5993   3.356   4.386  17.551 -0.0017  0.1918  0.1904
  397TMC3    O2 5994   3.589   4.162  17.319  0.4950 -0.2264 -0.2728
  398MPD2     C 5995   1.084   1.262  17.403 -0.3944  0.0090  0.1547
  398MPD2    C1 5996   1.173   1.195  17.480 -0.3464 -0.3612 -0.5113
  398MPD2    C2 5997   1.216   1.262  17.592  0.3190 -0.1003  0.1372
  398MPD2    C3 5998   1.178   1.386  17.632 -0.4111 -0.4397  0.6274
  398MPD2    C4 5999   1.080   1.444  17.556  0.9260  0.4129  0.6403
  398MPD2    C5 6000   1.041   1.386  17.440  0.2789  0.2491 -0.2862
  398MPD2     H 6001   1.308   1.221  17.632 -0.6976 -1.5123  1.0188
  398MPD2    H1 6002   1.038   1.541  17.578 -0.8542  0.4377 -2.9900
  398MPD2    H2 6003   1.049   1.225  17.307  0.4974  1.8656 -0.8817
  398MPD2    H3 6004   0.973   1.441  17.377  2.6010  1.6091 -1.6137
  398MPD2     N 6005   1.225   1.448  17.755  0.0743 -0.0143 -0.1089
  398MPD2    H5 6006   1.306   1.399   0.031 -0.4299 -0.9909 -0.3051
  398MPD2    N1 6007   1.239   1.075  17.451  0.6137 -0.2905 -0.5519
  398MPD2    H7 6008   1.306   1.046  17.521 -0.7518 -3.1505 -0.4382
  399TMC3    C1 6009   1.301   0.873  17.350  0.6655  0.3969 -0.1690
  399TMC3    C2 6010   1.427   0.890  17.399  0.4248 -0.1267  0.1265
  399TMC3    C3 6011   1.498   0.777  17.446 -0.0712 -0.8834  0.6909
  399TMC3    C4 6012   1.248   0.748  17.338 -0.6869 -0.2343 -0.4551
  399TMC3    C5 6013   1.320   0.640  17.378 -0.9539 -0.6393  0.4983
  399TMC3    C6 6014   1.449   0.650  17.431  0.5287 -0.1366  0.2178
  399TMC3     C 6015   1.200   0.983  17.354  0.2291  0.5888 -0.3713
  399TMC3     O 6016   1.082   0.969  17.316  0.6639  0.1917 -0.1417
  399TMC3     H 6017   1.477   0.986  17.401 -1.6386  0.9145  0.9144
  399TMC3    H1 6018   1.140   0.750  17.328 -0.6395  1.7559 -0.5861
  399TMC3    H2 6019   1.497   0.565  17.479 -5.1021 -2.8255  1.1029
  399TMC3    C7 6020   1.254   0.509  17.384 -0.2399  0.8143 -0.0100
  399TMC3    C8 6021   1.636   0.792  17.472 -0.2853  0.0426 -0.3672
  399TMC3    O1 6022   1.304   0.419  17.450 -0.1220  0.1452 -0.1755
  399TMC3    O2 6023   1.675   0.910  17.493  0.2802  0.2237 -0.0193
  400TMC3    C1 6024   4.380   3.614  16.800 -0.0161 -0.5351 -0.6016
  400TMC3    C2 6025   4.280   3.529  16.768  0.4440  0.6486  0.5322
  400TMC3    C3 6026   4.213   3.566  16.656 -0.0742 -0.0550  0.3537
  400TMC3    C4 6027   4.424   3.727  16.727  1.0072  0.1230 -0.3677
  400TMC3    C5 6028   4.349   3.754  16.615  0.6644  0.4483 -0.3157
  400TMC3    C6 6029   4.245   3.674  16.580 -0.9207  0.1668  0.4473
  400TMC3     C 6030   4.459   3.591  16.919  0.1785  0.3230 -0.3546
  400TMC3     O 6031   4.567   3.653  16.929 -0.0865  0.2158  0.1142
  400TMC3     H 6032   4.271   3.436  16.824  0.0132 -0.3344 -1.1603
  400TMC3    H1 6033   4.512   3.782  16.758  0.7948 -0.3407  1.0573
  400TMC3    H2 6034   4.164   3.695  16.511 -0.8000  0.1479  0.2985
  400TMC3    C7 6035   4.358   3.886  16.558 -0.5472 -0.1107  0.1364
  400TMC3    C8 6036   4.105   3.475  16.605 -0.8528 -0.1543 -0.5659
  400TMC3    O1 6037   4.289   3.916  16.461 -0.6586  0.1366 -0.0854
  400TMC3    O2 6038   4.080   3.478  16.485  0.7186 -0.2075 -0.5781
  401MPD2     C 6039   3.074   2.799   0.819  0.0872  0.2196 -0.3053
  401MPD2    C1 6040   3.184   2.743   0.888  0.2903 -0.2915  0.4453
  401MPD2    C2 6041   3.209   2.608   0.862  0.3986  0.2140  0.5414
  401MPD2    C3 6042   3.122   2.529   0.784  0.1240  0.0682  0.7002
  401MPD2    C4 6043   3.011   2.588   0.730  0.9662 -0.3375 -0.6626
  401MPD2    C5 6044   2.988   2.724   0.741 -0.0047 -0.0329 -0.7833
  401MPD2     H 6045   3.300   2.566   0.903  1.1402  3.4138  2.2096
  401MPD2    H1 6046   2.954   2.536   0.654 -1.4232 -0.3965  1.2088
  401MPD2    H2 6047   3.048   2.904   0.826  0.7580  0.3421  0.3493
  401MPD2    H3 6048   2.902   2.771   0.694  1.4068  2.6193 -0.7038
  401MPD2     N 6049   3.164   2.395   0.762  0.3030 -0.4326 -0.0639
  401MPD2    H5 6050   3.249   2.374   0.813  0.2678 -1.7291 -0.5357
  401MPD2    N1 6051   3.279   2.812   0.972 -0.1930  0.4807  0.5674
  401MPD2    H7 6052   3.358   2.755   1.003  0.9390  2.0911  0.6259
  402TMC3    C1 6053   3.171   2.181   0.694  0.1120 -0.2202 -0.9027
  402TMC3    C2 6054   3.278   2.154   0.779  0.0439 -0.4211  0.2248
  402TMC3    C3 6055   3.332   2.030   0.775  0.1647 -0.5079 -0.2619
  402TMC3    C4 6056   3.148   2.095   0.585  0.1435 -0.6418  0.1403
  402TMC3    C5 6057   3.197   1.968   0.588 -0.3357  0.7352 -0.6542
  402TMC3    C6 6058   3.287   1.932   0.684  0.1988  0.3635  0.3054
  402TMC3     C 6059   3.093   2.300   0.697 -0.7441  0.3046  0.6760
  402TMC3     O 6060   2.988   2.311   0.630 -0.2551  0.2060  0.0057
  402TMC3     H 6061   3.295   2.220   0.863  2.3264 -2.6642  1.5363
  402TMC3    H1 6062   3.085   2.120   0.500 -0.8029 -1.8007  0.4897
  402TMC3    H2 6063   3.341   1.838   0.685  1.3311  1.0145 -0.7875
  402TMC3    C7 6064   3.189   1.905   0.458  0.3642 -0.2102 -0.3925
  402TMC3    C8 6065   3.429   1.987   0.879 -0.1153 -0.0784 -0.0645
  402TMC3    O1 6066   3.176   1.978   0.357 -0.3697 -0.0242 -0.0103
  402TMC3    O2 6067   3.451   1.866   0.894  0.2586 -0.1583  0.0259
  403MPD2     C 6068   1.523   0.210  13.237  0.3049  0.4960 -0.1633
  403MPD2    C1 6069   1.444   0.286  13.314 -0.2319  0.2192 -0.3729
  403MPD2    C2 6070   1.496   0.361  13.420 -0.3360 -0.0638  0.4169
  403MPD2    C3 6071   1.632   0.354  13.438  0.2213 -0.0100  0.6312
  403MPD2    C4 6072   1.717   0.278  13.361  0.2130  0.3688 -0.0725
  403MPD2    C5 6073   1.658   0.203  13.261 -0.4437  0.6219  0.8644
  403MPD2     H 6074   1.437   0.436  13.471 -0.6483 -0.7353  1.0376
  403MPD2    H1 6075   1.817   0.256  13.395  0.0176  0.6479  0.7051
  403MPD2    H2 6076   1.484   0.168  13.144 -0.7991 -1.6376  1.2651
  403MPD2    H3 6077   1.705   0.126  13.200  1.1922  2.4510 -0.2046
  403MPD2     N 6078   1.697   0.422  13.542 -0.3236 -0.6384  0.3658
  403MPD2    H5 6079   1.796   0.401  13.547 -0.5702 -2.0831 -0.7923
  403MPD2    N1 6080   1.308   0.276  13.279 -0.1463 -0.1786 -0.1093
  403MPD2    H7 6081   1.282   0.242  13.187 -1.6004 -0.9396  0.5722
  404TMC3    C1 6082   1.077   0.331  13.279  0.3091  0.0384  0.0119
  404TMC3    C2 6083   0.959   0.328  13.344 -0.5805  0.7095  0.4032
  404TMC3    C3 6084   0.840   0.349  13.276 -0.5691 -0.3874 -0.0326
  404TMC3    C4 6085   1.084   0.363  13.142 -0.2888 -0.4954  0.7420
  404TMC3    C5 6086   0.966   0.379  13.078 -0.3524  0.6360 -0.1665
  404TMC3    C6 6087   0.846   0.372  13.141 -0.2788 -0.1415 -0.1821
  404TMC3     C 6088   1.198   0.315  13.356 -0.1669 -0.1796  0.1707
  404TMC3     O 6089   1.201   0.349  13.478  0.7654  0.2072  0.4398
  404TMC3     H 6090   0.963   0.311  13.451 -0.0821  1.1466  0.4548
  404TMC3    H1 6091   1.177   0.379  13.088 -1.3970  0.8665 -0.8045
  404TMC3    H2 6092   0.756   0.421  13.105 -0.3966  0.2283  0.6115
  404TMC3    C7 6093   0.977   0.405  12.939 -0.0320  0.6576 -0.2339
  404TMC3    C8 6094   0.715   0.331  13.335  0.4890 -0.2199 -0.2084
  404TMC3    O1 6095   1.088   0.423  12.886 -0.1479  0.2250 -0.0434
  404TMC3    O2 6096   0.632   0.300  13.251  0.1238  0.1037 -0.0051
  405MPD2     C 6097   1.456   0.979  14.508  0.0659  0.3130 -0.5457
  405MPD2    C1 6098   1.327   0.965  14.475  0.0185  0.5188 -0.8107
  405MPD2    C2 6099   1.255   1.072  14.434 -0.4496  0.3384  0.1263
  405MPD2    C3 6100   1.303   1.198  14.455 -0.5745 -0.5536 -0.0204
  405MPD2    C4 6101   1.432   1.221  14.485  0.1043  0.0072 -0.3046
  405MPD2    C5 6102   1.504   1.111  14.523 -0.3776  0.3953  0.1174
  405MPD2     H 6103   1.149   1.075  14.409  0.4293 -0.3225 -3.5564
  405MPD2    H1 6104   1.485   1.314  14.496 -0.3359  0.2675 -0.3940
  405MPD2    H2 6105   1.511   0.897  14.553 -0.0241  0.1873 -0.6699
  405MPD2    H3 6106   1.606   1.122  14.555 -0.4163 -2.0479  1.0334
  405MPD2     N 6107   1.204   1.300  14.438  0.8058 -0.0469 -0.4131
  405MPD2    H5 6108   1.114   1.268  14.406  0.9410 -1.2122  0.3743
  405MPD2    N1 6109   1.271   0.836  14.498  0.4026 -0.6529 -0.6290
  405MPD2    H7 6110   1.321   0.764  14.550 -2.3891 -2.1811 -0.0477
  406TMC3    C1 6111   0.973   1.626  14.283 -0.4635  0.2288 -0.1532
  406TMC3    C2 6112   0.859   1.588  14.348  0.1388  0.8761 -0.2559
  406TMC3    C3 6113   0.867   1.502  14.453 -0.2203 -0.5278 -0.1778
  406TMC3    C4 6114   1.097   1.595  14.331  0.5004 -0.6228 -0.3057
  406TMC3    C5 6115   1.096   1.507  14.431 -0.2014 -0.5370 -0.5051
  406TMC3    C6 6116   0.986   1.454  14.491  0.0492 -0.3515  0.4995
  406TMC3     C 6117   0.960   1.716  14.168 -0.2364  0.4337 -0.3083
  406TMC3     O 6118   1.053   1.792  14.142 -0.7073  0.1568  0.2166
  406TMC3     H 6119   0.763   1.631  14.321 -1.3396 -1.2233  1.6252
  406TMC3    H1 6120   1.179   1.601  14.260 -1.2596 -0.9207 -2.3857
  406TMC3    H2 6121   0.995   1.374  14.564 -0.5862 -1.1775 -0.3219
  406TMC3    C7 6122   1.219   1.436  14.448  0.2821  0.3352 -0.0953
  406TMC3    C8 6123   0.752   1.423  14.473 -0.3415  0.0187  0.1798
  406TMC3    O1 6124   1.322   1.499  14.436 -0.0113  0.0424  0.5542
  406TMC3    O2 6125   0.643   1.478  14.464  0.9841  0.0792  0.2170
  407MPD2     C 6126   3.689   3.122   9.419 -0.7267 -0.4866  0.2293
  407MPD2    C1 6127   3.731   3.039   9.521  0.5366 -0.6323 -0.4270
  407MPD2    C2 6128   3.757   3.100   9.642 -0.0547 -0.7062  0.2477
  407MPD2    C3 6129   3.766   3.233   9.664 -0.8820  0.3103  0.1383
  407MPD2    C4 6130   3.722   3.314   9.560 -0.0740  0.0636  0.3672
  407MPD2    C5 6131   3.687   3.260   9.439  0.0942 -0.0569  0.2937
  407MPD2     H 6132   3.772   3.032   9.725 -1.4469 -1.1191  0.1665
  407MPD2    H1 6133   3.696   3.418   9.577 -0.3157  0.0254  0.2406
  407MPD2    H2 6134   3.642   3.081   9.331 -1.4488 -2.0301  1.3260
  407MPD2    H3 6135   3.654   3.315   9.351 -1.4652 -1.5714 -0.0544
  407MPD2     N 6136   3.816   3.305   9.781 -0.3683  0.0907 -0.0531
  407MPD2    H5 6137   3.810   3.406   9.778  0.5217  0.2032  1.7038
  407MPD2    N1 6138   3.739   2.901   9.512 -0.5142 -0.4762  0.5374
  407MPD2    H7 6139   3.742   2.844   9.596  0.0526 -0.6779  0.3787
  408TMC3    C1 6140   3.833   2.711   9.424  0.4762 -0.2570  0.2988
  408TMC3    C2 6141   3.956   2.698   9.362  0.2498  0.8255 -0.3020
  408TMC3    C3 6142   4.027   2.584   9.390  0.3544 -0.4985  0.5819
  408TMC3    C4 6143   3.784   2.623   9.515  0.0951 -0.0434 -0.3542
  408TMC3    C5 6144   3.858   2.516   9.544 -0.3379 -0.3871  0.0602
  408TMC3    C6 6145   3.973   2.482   9.472 -0.5164 -0.3932 -0.0313
  408TMC3     C 6146   3.761   2.832   9.396 -0.0715  0.2042  0.5602
  408TMC3     O 6147   3.778   2.871   9.280 -0.3872  0.0602  0.3141
  408TMC3     H 6148   3.995   2.775   9.296  0.8922  0.9422  0.2123
  408TMC3    H1 6149   3.683   2.635   9.555 -0.5906 -0.0539 -2.0712
  408TMC3    H2 6150   4.046   2.405   9.494 -0.2230  0.4355  1.8985
  408TMC3    C7 6151   3.805   2.418   9.636  0.7217  0.1198  0.3898
  408TMC3    C8 6152   4.163   2.588   9.390  0.2405  0.0617 -0.1284
  408TMC3    O1 6153   3.683   2.417   9.643 -0.3252 -0.1402  0.4346
  408TMC3    O2 6154   4.228   2.485   9.375  0.3216  0.0012  0.4642
  409MPD2     C 6155   3.396   3.458  17.007  0.3120 -0.1384  0.0876
  409MPD2    C1 6156   3.529   3.415  17.010 -0.4471 -0.4798  0.5319
  409MPD2    C2 6157   3.630   3.494  16.963  0.4357  0.3384  0.2332
  409MPD2    C3 6158   3.603   3.613  16.900 -0.2645  1.1851 -0.5466
  409MPD2    C4 6159   3.469   3.649  16.883  0.1293  0.0968 -0.3680
  409MPD2    C5 6160   3.373   3.584  16.952 -0.5186 -0.3846 -0.3452
  409MPD2     H 6161   3.731   3.458  16.979  0.1510 -0.7880 -0.5443
  409MPD2    H1 6162   3.444   3.748  16.845  2.3575  0.7148 -0.2743
  409MPD2    H2 6163   3.319   3.401  17.059  0.9535 -0.3743  0.7817
  409MPD2    H3 6164   3.273   3.627  16.955  0.2671  1.1845  3.2247
  409MPD2     N 6165   3.703   3.698  16.850 -0.1396  0.7074 -0.5812
  409MPD2    H5 6166   3.663   3.781  16.805 -1.2314  0.5146  0.0306
  409MPD2    N1 6167   3.581   3.297  17.070 -0.8716 -0.7931 -0.0983
  409MPD2    H7 6168   3.677   3.289  17.037 -0.4044  1.0383  0.8431
  410TMC3    C1 6169   3.915   3.803  16.833  0.1496 -0.7395 -0.3580
  410TMC3    C2 6170   4.034   3.816  16.898 -0.2847  0.0947  0.9222
  410TMC3    C3 6171   4.120   3.919  16.870  0.6052 -0.0188 -0.3550
  410TMC3    C4 6172   3.893   3.873  16.720  0.1237 -0.4523  0.6740
  410TMC3    C5 6173   3.980   3.974  16.692 -0.8526  0.0341  0.5754
  410TMC3    C6 6174   4.096   4.002  16.756 -0.3978  0.4322 -0.8695
  410TMC3     C 6175   3.840   3.685  16.869 -1.3048 -0.3239  1.0652
  410TMC3     O 6176   3.899   3.598  16.928  0.3574  0.4446 -0.3705
  410TMC3     H 6177   4.059   3.752  16.981 -0.1070  0.4672  1.1563
  410TMC3    H1 6178   3.812   3.852  16.651  0.4218  1.6079 -0.3057
  410TMC3    H2 6179   4.159   4.089  16.736 -0.0497  0.6082  0.9463
  410TMC3    C7 6180   3.951   4.048  16.564 -0.2207 -0.9672  0.3588
  410TMC3    C8 6181   4.248   3.942  16.940  0.0311  0.1176 -1.1786
  410TMC3    O1 6182   3.856   4.006  16.495 -0.3134 -0.1137 -0.1126
  410TMC3    O2 6183   4.335   4.001  16.878 -0.0702 -0.4187  0.1445
  411MPD2     C 6184   3.949   4.043  15.170  0.2199  0.6331  0.0469
  411MPD2    C1 6185   3.959   4.136  15.066 -0.0209  0.6195  0.4807
  411MPD2    C2 6186   3.883   4.134  14.955  0.0373  0.1782  0.0476
  411MPD2    C3 6187   3.776   4.048  14.939  0.4699 -0.2673  0.8506
  411MPD2    C4 6188   3.754   3.962  15.037  0.1896 -0.0679 -1.1451
  411MPD2    C5 6189   3.845   3.957  15.145 -0.3998 -0.3869 -0.1609
  411MPD2     H 6190   3.908   4.204  14.876  0.1320 -1.4617 -1.3662
  411MPD2    H1 6191   3.672   3.891  15.026 -0.6371  1.0148 -1.8844
  411MPD2    H2 6192   4.021   4.029  15.249  1.3010  0.3431 -0.9830
  411MPD2    H3 6193   3.823   3.877  15.215  0.7352 -0.7234 -0.2015
  411MPD2     N 6194   3.703   4.043  14.818 -0.1317 -0.4646  0.2419
  411MPD2    H5 6195   3.634   3.969  14.823  0.4080 -1.1119 -1.8186
  411MPD2    N1 6196   4.056   4.236  15.098 -0.3147  0.0694 -0.4001
  411MPD2    H7 6197   4.080   4.246  15.196 -1.6867 -1.0805  0.0317
  412TMC3    C1 6198   3.619   4.081  14.600  0.1474  0.8916  0.0029
  412TMC3    C2 6199   3.510   3.997  14.633  0.6709 -0.7310  0.0485
  412TMC3    C3 6200   3.424   3.962  14.538 -0.1865 -0.7809 -0.0303
  412TMC3    C4 6201   3.647   4.123  14.474 -0.5960 -0.5863  0.1097
  412TMC3    C5 6202   3.548   4.091  14.379 -0.1372 -0.6597 -0.1187
  412TMC3    C6 6203   3.442   4.008  14.412  0.6547  0.1842  0.1490
  412TMC3     C 6204   3.723   4.109  14.698  0.0963  0.5659 -0.1617
  412TMC3     O 6205   3.815   4.187  14.667 -0.1151  0.3355 -0.2232
  412TMC3     H 6206   3.482   3.958  14.730 -0.2987 -1.6878 -0.6090
  412TMC3    H1 6207   3.732   4.180  14.440 -0.7958 -0.4889 -0.2302
  412TMC3    H2 6208   3.373   3.968  14.338  1.4455  2.7709 -1.9668
  412TMC3    C7 6209   3.545   4.162  14.249  0.9928 -0.1004 -0.1143
  412TMC3    C8 6210   3.301   3.888  14.570  0.2020  0.6896 -0.2391
  412TMC3    O1 6211   3.621   4.252  14.228 -0.2902  0.2150  0.1389
  412TMC3    O2 6212   3.293   3.812  14.666  0.2904  0.2783 -0.3602
  413MPD2     C 6213   1.087   2.701  14.801  0.5911 -0.8134  0.4998
  413MPD2    C1 6214   0.961   2.662  14.748  0.4794 -0.2406  0.4479
  413MPD2    C2 6215   0.933   2.532  14.723  0.7545  1.0586 -0.5214
  413MPD2    C3 6216   1.032   2.435  14.752  0.5142 -0.3321 -0.0838
  413MPD2    C4 6217   1.159   2.477  14.788  0.5124 -0.5788 -0.6248
  413MPD2    C5 6218   1.184   2.608  14.820  0.0751  0.5701 -0.7762
  413MPD2     H 6219   0.833   2.503  14.693  0.2920  0.3273  1.6775
  413MPD2    H1 6220   1.236   2.402  14.803  1.6116  0.7805  0.5735
  413MPD2    H2 6221   1.109   2.805  14.821  1.9836 -1.0969  0.4572
  413MPD2    H3 6222   1.281   2.640  14.857 -0.0400 -0.8812  0.7491
  413MPD2     N 6223   0.994   2.297  14.733 -0.1526 -0.0076 -0.3225
  413MPD2    H5 6224   0.900   2.287  14.695 -0.5562 -1.1265  0.9875
  413MPD2    N1 6225   0.860   2.758  14.743 -0.3156 -0.4748  0.0722
  413MPD2    H7 6226   0.888   2.849  14.778  1.4976 -1.3423  0.8675
  414TMC3    C1 6227   1.013   2.066  14.736  0.8455  0.0403  0.4085
  414TMC3    C2 6228   1.026   1.954  14.810  0.1358 -0.2805  0.2473
  414TMC3    C3 6229   0.960   1.846  14.774 -0.2734 -0.1414 -0.3015
  414TMC3    C4 6230   0.930   2.068  14.627 -0.4201 -0.1355 -0.0572
  414TMC3    C5 6231   0.875   1.954  14.587  0.5863 -0.1591  0.1916
  414TMC3    C6 6232   0.875   1.841  14.665 -0.0395 -0.5295  0.3710
  414TMC3     C 6233   1.068   2.194  14.782 -0.3101 -0.3942 -0.0662
  414TMC3     O 6234   1.164   2.187  14.859 -0.6174 -0.3364  0.3165
  414TMC3     H 6235   1.086   1.958  14.900 -0.2679 -0.1467  0.5123
  414TMC3    H1 6236   0.919   2.152  14.560  0.0245  0.7013  0.9207
  414TMC3    H2 6237   0.831   1.746  14.635  0.8762 -0.7325 -0.3165
  414TMC3    C7 6238   0.830   1.925  14.453  0.2295  0.2625 -0.4232
  414TMC3    C8 6239   1.015   1.715  14.803 -0.6388 -0.2026 -0.1420
  414TMC3    O1 6240   0.729   1.853  14.449 -0.1629  0.1923 -0.8879
  414TMC3    O2 6241   0.929   1.627  14.802  0.0358  0.1078 -0.3349
  415TMC3    C1 6242   1.655   0.584  10.910 -0.3265  0.3167 -0.4729
  415TMC3    C2 6243   1.612   0.713  10.876 -0.4102 -0.8705  0.5110
  415TMC3    C3 6244   1.532   0.729  10.771 -0.1029 -0.3217 -0.2498
  415TMC3    C4 6245   1.617   0.476  10.823 -0.2442  0.3202  0.4539
  415TMC3    C5 6246   1.552   0.496  10.706  0.3234 -0.3637 -0.9277
  415TMC3    C6 6247   1.506   0.628  10.678  0.0153  0.3676  0.0444
  415TMC3     C 6248   1.639   0.546  11.053 -0.0589 -0.0267  0.1790
  415TMC3     O 6249   1.598   0.434  11.077  0.1178 -0.0187 -0.5597
  415TMC3     H 6250   1.634   0.802  10.933 -0.7357 -0.3143 -0.2392
  415TMC3    H1 6251   1.641   0.375  10.852 -1.4433 -0.3615 -0.9542
  415TMC3    H2 6252   1.437   0.642  10.595 -0.8406  3.6393  1.3161
  415TMC3    C7 6253   1.498   0.386  10.635  0.5584  0.6176 -0.3291
  415TMC3    C8 6254   1.469   0.856  10.752  0.6391 -0.2542 -0.1728
  415TMC3    O1 6255   1.510   0.391  10.516  0.1571  0.1559 -0.0729
  415TMC3    O2 6256   1.345   0.866  10.761 -0.2167 -0.1009  0.0113
  416MPD2     C 6257   2.801   4.615  11.456  0.9785  0.8224 -0.0186
  416MPD2    C1 6258   2.719   4.506  11.441 -0.1217 -0.4186  0.5430
  416MPD2    C2 6259   2.742   4.420  11.339  0.3509 -0.4683 -0.3594
  416MPD2    C3 6260   2.854   4.424  11.268  0.1632  0.4382  0.1685
  416MPD2    C4 6261   2.945   4.524  11.282  0.1161 -0.0002  0.5536
  416MPD2    C5 6262   2.911   4.623  11.371  0.3244  0.4515  0.0277
  416MPD2     H 6263   2.670   4.341  11.324  2.2419 -2.4563  1.0896
  416MPD2    H1 6264   3.037   4.534  11.225 -0.7907 -2.0294 -1.2930
  416MPD2    H2 6265   2.782   4.698  11.522 -1.1227 -0.4429  0.9919
  416MPD2    H3 6266   2.970   4.714  11.376  0.2709  0.5083 -0.3402
  416MPD2     N 6267   2.896   4.323  11.178  0.6829 -0.8964 -0.5766
  416MPD2    H5 6268   2.991   4.331  11.143  0.9144 -1.6661 -0.1417
  416MPD2    N1 6269   2.606   4.489  11.527 -0.6792 -0.0041 -0.0180
  416MPD2    H7 6270   2.586   4.570  11.585  0.5980 -0.1612  0.6382
  417TMC3    C1 6271   2.406   4.405  11.596 -0.4137 -0.1781  0.4522
  417TMC3    C2 6272   2.362   4.312  11.682 -0.1275  0.2868  0.0158
  417TMC3    C3 6273   2.254   4.348  11.756  0.5421  0.6130 -0.3185
  417TMC3    C4 6274   2.362   4.533  11.590 -0.2380 -1.0682  0.4047
  417TMC3    C5 6275   2.258   4.568  11.671 -0.5422  0.7293  0.3892
  417TMC3    C6 6276   2.204   4.476  11.754 -0.2347 -0.3971 -0.1258
  417TMC3     C 6277   2.533   4.377  11.533 -0.5629  0.2495  0.1754
  417TMC3     O 6278   2.576   4.261  11.525 -0.1011 -0.5395 -0.3253
  417TMC3     H 6279   2.394   4.209  11.675  2.5165  1.0214  1.4026
  417TMC3    H1 6280   2.400   4.607  11.521  0.6418 -1.9015 -0.0124
  417TMC3    H2 6281   2.113   4.488  11.812 -0.7103 -0.3197 -0.8905
  417TMC3    C7 6282   2.247   4.705  11.699 -0.4140 -0.0166  0.3588
  417TMC3    C8 6283   2.225   4.287  11.887  0.2215  0.1698  0.4188
  417TMC3    O1 6284   2.305   0.034  11.622  0.5285  0.8070  0.1651
  417TMC3    O2 6285   2.113   4.311  11.934 -0.3004 -0.1745  0.0481
  418TMC3    C1 6286   1.475   1.743   0.207 -0.7671 -0.0040  0.7150
  418TMC3    C2 6287   1.366   1.727   0.130 -0.3922 -0.2265 -0.1924
  418TMC3    C3 6288   1.295   1.605   0.144 -0.3551  0.2566 -0.1654
  418TMC3    C4 6289   1.501   1.660   0.313 -0.7073  1.2318  0.3787
  418TMC3    C5 6290   1.427   1.549   0.333  0.7367  0.3164 -0.2504
  418TMC3    C6 6291   1.323   1.515   0.247  0.4247 -0.4824 -0.2826
  418TMC3     C 6292   1.566   1.855   0.175  0.6389 -0.3097  0.0745
  418TMC3     O 6293   1.519   1.949   0.115 -0.1389 -0.1453 -0.3089
  418TMC3     H 6294   1.345   1.800   0.053 -1.0860 -0.0621  0.1419
  418TMC3    H1 6295   1.572   1.682   0.391 -0.5594  1.2299  0.2451
  418TMC3    H2 6296   1.277   1.418   0.254  0.7179 -0.6200 -0.2637
  418TMC3    C7 6297   1.487   1.437   0.407 -0.2287 -0.7757 -0.0222
  418TMC3    C8 6298   1.201   1.572   0.042  0.5258  0.8278 -0.6740
  418TMC3    O1 6299   1.596   1.459   0.455  0.4961 -0.7174 -0.3804
  418TMC3    O2 6300   1.145   1.664  17.751 -0.3834 -0.1205  0.2112
  419MPD2     C 6301   0.370   3.896  12.809 -0.1340  0.0249 -0.2343
  419MPD2    C1 6302   0.270   3.987  12.766  0.5566  0.1778 -0.3301
  419MPD2    C2 6303   0.226   4.094  12.852  0.0795  0.2083 -0.5084
  419MPD2    C3 6304   0.278   4.091  12.985 -0.0040  0.3549  0.1166
  419MPD2    C4 6305   0.359   3.992  13.025 -0.0838  0.3355 -0.1130
  419MPD2    C5 6306   0.415   3.899  12.936 -0.9306 -0.4172 -1.0273
  419MPD2     H 6307   0.169   4.179  12.817  0.8772  0.7358 -0.5159
  419MPD2    H1 6308   0.394   3.989  13.127 -0.6500  0.2047  0.0759
  419MPD2    H2 6309   0.409   3.815  12.748 -0.1708  1.7878 -2.6121
  419MPD2    H3 6310   0.498   3.839  12.969  0.6505  3.1011  1.4718
  419MPD2     N 6311   0.240   4.191  13.078  0.1722  0.6667  0.6458
  419MPD2    H5 6312   0.175   4.262  13.045 -1.4451  0.1447  2.7012
  419MPD2    N1 6313   0.209   3.984  12.640 -0.0607  0.9298  0.7644
  419MPD2    H7 6314   0.129   4.044  12.622  0.5807  1.1960 -1.1729
  420TMC3    C1 6315   0.210   4.317  13.269  0.5284  0.2228  0.0461
  420TMC3    C2 6316   0.075   4.333  13.249  0.7304  0.0947 -0.6183
  420TMC3    C3 6317   0.005   4.394  13.352  0.9960 -0.1753 -0.3944
  420TMC3    C4 6318   0.272   4.355  13.387  0.6810  0.1256  0.0904
  420TMC3    C5 6319   0.202   4.417  13.489 -0.2692 -0.5295 -0.5788
  420TMC3    C6 6320   0.067   4.438  13.470 -0.0304  0.1957 -0.4503
  420TMC3     C 6321   0.286   4.210  13.202  0.1179 -0.1163  0.2435
  420TMC3     O 6322   0.386   4.167  13.259 -0.0882  0.2382  0.7708
  420TMC3     H 6323   0.029   4.302  13.156  0.3181  0.8248 -0.6564
  420TMC3    H1 6324   0.378   4.337  13.400  0.7898 -1.1590 -2.5627
  420TMC3    H2 6325   0.009   4.470  13.555  1.8830 -2.2354  1.7465
  420TMC3    C7 6326   0.251   4.395  13.621 -0.0187 -0.1171  0.0783
  420TMC3    C8 6327   4.620   4.443  13.312 -0.1563 -0.4711 -0.0218
  420TMC3    O1 6328   0.174   4.332  13.690 -0.3286 -0.1696 -0.0906
  420TMC3    O2 6329   4.569   4.404  13.208 -0.0603 -0.1406 -0.5798
  421TMC3    C1 6330   1.735   0.556  13.735  0.3511 -0.3216  0.8086
  421TMC3    C2 6331   1.715   0.683  13.779 -0.1180  0.3467  0.6183
  421TMC3    C3 6332   1.804   0.743  13.854 -0.4291 -0.6061  0.0786
  421TMC3    C4 6333   1.849   0.488  13.765  0.2716 -0.7612  0.0177
  421TMC3    C5 6334   1.948   0.560  13.832  0.4252  0.2119 -0.1586
  421TMC3    C6 6335   1.926   0.688  13.883  1.0064  0.6582  0.0867
  421TMC3     C 6336   1.642   0.516  13.633 -0.0033 -0.0963 -0.2587
  421TMC3     O 6337   1.540   0.577  13.628 -0.1620 -0.4239  0.5105
  421TMC3     H 6338   1.626   0.737  13.749 -0.8604 -2.6964 -2.6872
  421TMC3    H1 6339   1.870   0.389  13.726  1.5492  0.6242 -2.8755
  421TMC3    H2 6340   2.006   0.752  13.919  0.8267  0.8427  0.1600
  421TMC3    C7 6341   2.061   0.487  13.886 -0.6887  0.5187 -0.6877
  421TMC3    C8 6342   1.780   0.869  13.919  0.1823 -0.4336  0.6480
  421TMC3    O1 6343   2.133   0.560  13.957 -0.6843  0.4005 -0.1758
  421TMC3    O2 6344   1.880   0.930  13.940 -0.7981  0.2517  0.0596
  422TMC3    C1 6345   3.741   2.259  12.546  0.5732  1.1749 -0.5460
  422TMC3    C2 6346   3.720   2.389  12.518  0.1859  0.3045 -0.1699
  422TMC3    C3 6347   3.601   2.441  12.537 -0.0802  0.5815  0.2750
  422TMC3    C4 6348   3.640   2.179  12.595  0.4055 -0.2300 -0.7058
  422TMC3    C5 6349   3.519   2.237  12.617 -0.0603  0.0193 -0.2924
  422TMC3    C6 6350   3.499   2.370  12.595 -0.1215  0.3782 -0.6216
  422TMC3     C 6351   3.855   2.199  12.482  0.6300 -0.3830 -0.8243
  422TMC3     O 6352   3.894   2.259  12.383 -0.0936  0.2359 -0.6055
  422TMC3     H 6353   3.809   2.440  12.483 -0.8066  1.2536 -1.3221
  422TMC3    H1 6354   3.648   2.072  12.610 -3.3347 -0.7647 -2.5573
  422TMC3    H2 6355   3.400   2.410  12.612 -0.8233 -0.9860 -1.4754
  422TMC3    C7 6356   3.406   2.155  12.667 -0.0620 -0.4689 -0.0016
  422TMC3    C8 6357   3.591   2.587  12.545  0.1249  0.0519 -0.0882
  422TMC3    O1 6358   3.391   2.126  12.784 -0.0323  0.4816  0.3806
  422TMC3    O2 6359   3.511   2.629  12.630 -0.3133  0.1109 -0.5677
  423MPD2     C 6360   0.978   3.462   0.516  0.3680 -0.3180 -0.3984
  423MPD2    C1 6361   1.025   3.341   0.548 -0.1083 -0.1082 -0.9808
  423MPD2    C2 6362   1.047   3.249   0.446 -0.7458 -0.1103  0.1474
  423MPD2    C3 6363   1.011   3.280   0.314 -0.1038  0.9170  0.5830
  423MPD2    C4 6364   0.960   3.408   0.289  0.5950 -0.1074 -0.1934
  423MPD2    C5 6365   0.943   3.490   0.393 -0.1787 -0.2976  0.3373
  423MPD2     H 6366   1.077   3.149   0.475  2.1082  0.9770  0.9485
  423MPD2    H1 6367   0.933   3.449   0.192  1.8569  0.0421 -0.4828
  423MPD2    H2 6368   0.962   3.537   0.592 -1.7246 -2.0184  0.8344
  423MPD2    H3 6369   0.902   3.590   0.387  0.0995 -0.1923  0.1766
  423MPD2     N 6370   1.026   3.190   0.209  0.0269 -0.2858 -0.0258
  423MPD2    H5 6371   1.005   3.231   0.119  1.0478  1.3437  0.4645
  423MPD2    N1 6372   1.060   3.294   0.676  0.1035  0.1226  0.0390
  423MPD2    H7 6373   1.097   3.200   0.681  1.8510  0.7460 -1.1899
  424TMC3    C1 6374   1.035   3.281   0.916 -0.2162 -0.2317  0.3270
  424TMC3    C2 6375   1.150   3.208   0.924  0.2275  0.1820 -0.8861
  424TMC3    C3 6376   1.195   3.176   1.054  0.4862 -0.8835  0.4429
  424TMC3    C4 6377   0.969   3.330   1.028  0.3398  0.2239  0.2061
  424TMC3    C5 6378   1.022   3.294   1.154  1.0327 -0.1160  0.4157
  424TMC3    C6 6379   1.130   3.212   1.170 -0.3853 -0.6953  0.6504
  424TMC3     C 6380   1.019   3.354   0.792 -0.0708 -0.2877  0.4685
  424TMC3     O 6381   0.946   3.453   0.803 -0.3196  0.1722 -0.2313
  424TMC3     H 6382   1.214   3.196   0.838 -0.8645 -1.4702 -1.4705
  424TMC3    H1 6383   0.873   3.379   1.019  1.0678  1.4136 -1.0000
  424TMC3    H2 6384   1.177   3.184   1.264  0.6236  2.2520  1.0210
  424TMC3    C7 6385   0.953   3.335   1.277 -0.4104 -0.4408  0.8564
  424TMC3    C8 6386   1.284   3.059   1.068 -0.0319  0.1870  0.1439
  424TMC3    O1 6387   0.996   3.311   1.390  0.0268 -0.2903 -0.3479
  424TMC3    O2 6388   1.269   2.986   1.165 -0.2023  0.0101  1.0780
  425MPD2     C 6389   4.654   2.747  17.314 -0.1483 -0.6965  0.4410
  425MPD2    C1 6390   4.623   2.633  17.383 -0.0038  0.4217  0.1816
  425MPD2    C2 6391   4.515   2.632  17.463  0.2663 -0.7578 -0.9318
  425MPD2    C3 6392   4.446   2.748  17.487  0.0772 -0.4970  0.3892
  425MPD2    C4 6393   4.481   2.865  17.421 -0.9894  0.2329 -0.3044
  425MPD2    C5 6394   4.586   2.865  17.334  0.8817  0.2074  0.1633
  425MPD2     H 6395   4.476   2.536  17.495 -2.1807 -0.1349 -2.0365
  425MPD2    H1 6396   4.427   2.958  17.428 -0.5383  0.3447  1.6199
  425MPD2    H2 6397   4.734   2.741  17.241 -1.8450  0.3537 -1.5114
  425MPD2    H3 6398   4.603   2.953  17.273  1.1682  0.4075  0.5242
  425MPD2     N 6399   4.324   2.726  17.559 -0.0219  0.0424 -0.6466
  425MPD2    H5 6400   4.311   2.636  17.604  2.1422 -1.2381 -2.6205
  425MPD2    N1 6401   4.690   2.514  17.346  0.1357 -0.1361  0.1855
  425MPD2    H7 6402   0.019   2.507  17.272  1.2299 -1.1600  1.3177
  426TMC3    C1 6403   4.721   2.276  17.340  0.5594  0.2959 -0.3529
  426TMC3    C2 6404   4.691   2.271  17.208  0.8131  0.1039  0.3283
  426TMC3    C3 6405   4.714   2.153  17.143  0.0201 -0.6196  0.2664
  426TMC3    C4 6406   0.030   2.165  17.413 -0.0295  0.5884  0.3682
  426TMC3    C5 6407   0.028   2.040  17.349  0.2608 -0.3979 -0.1477
  426TMC3    C6 6408   0.009   2.036  17.209  0.2372 -0.0966 -0.2638
  426TMC3     C 6409   4.670   2.395  17.416  0.2776 -0.4959  0.4707
  426TMC3     O 6410   4.631   2.370  17.530  0.3792  0.3888 -0.2135
  426TMC3     H 6411   4.634   2.348  17.158 -0.1231 -1.4432 -0.9735
  426TMC3    H1 6412   0.047   2.172  17.520  0.2588  0.9498  0.2966
  426TMC3    H2 6413   0.004   1.940  17.157 -1.5162 -0.5988  0.8254
  426TMC3    C7 6414   0.077   1.921  17.414  0.3751  0.3701 -0.0925
  426TMC3    C8 6415   4.704   2.145  16.999  0.8506 -0.2319 -0.5457
  426TMC3    O1 6416   0.119   1.827  17.346 -0.2398 -0.7114  0.1482
  426TMC3    O2 6417   4.689   2.033  16.952  0.0620  0.2415 -0.5546
  427MPD2     C 6418   3.082   4.362  15.109  0.0484 -0.7919 -0.1341
  427MPD2    C1 6419   3.022   4.280  15.197 -0.5863  0.4285 -0.0136
  427MPD2    C2 6420   2.885   4.252  15.181 -0.5984 -0.1317 -0.0983
  427MPD2    C3 6421   2.819   4.307  15.066  0.7833 -0.0782 -0.3791
  427MPD2    C4 6422   2.889   4.388  14.982  0.3401  0.5273  0.0221
  427MPD2    C5 6423   3.015   4.428  15.009  0.1820 -0.2642  0.3791
  427MPD2     H 6424   2.838   4.177  15.243 -0.9593  1.1413  1.1650
  427MPD2    H1 6425   2.845   4.425  14.890  0.6261  2.3604  0.6333
  427MPD2    H2 6426   3.188   4.383  15.115 -0.5136  2.2146 -0.2860
  427MPD2    H3 6427   3.068   4.480  14.931 -2.1176 -0.1888 -1.1485
  427MPD2     N 6428   2.690   4.274  15.033 -0.3474  0.6383  0.7349
  427MPD2    H5 6429   2.652   4.326  14.955  3.7863 -2.2386 -3.2026
  427MPD2    N1 6430   3.088   4.228  15.314  0.4414 -0.2421  0.0440
  427MPD2    H7 6431   3.041   4.168  15.381 -0.4469 -2.8710 -2.9351
  428TMC3    C1 6432   3.262   4.179  15.472 -0.6651 -0.2172 -0.4820
  428TMC3    C2 6433   3.198   4.064  15.511 -0.3504 -0.7153  0.1679
  428TMC3    C3 6434   3.211   4.026  15.640 -0.1616  0.8018  0.2772
  428TMC3    C4 6435   3.342   4.254  15.563  0.3508 -0.2233 -0.0385
  428TMC3    C5 6436   3.359   4.201  15.685 -0.3100  0.1971 -0.4686
  428TMC3    C6 6437   3.302   4.091  15.727  0.1051 -0.3962 -0.0222
  428TMC3     C 6438   3.215   4.254  15.351  0.3818  0.6657 -0.4063
  428TMC3     O 6439   3.302   4.330  15.308 -0.4070  0.0246 -0.9265
  428TMC3     H 6440   3.137   4.008  15.440 -0.1688 -0.1524 -0.4286
  428TMC3    H1 6441   3.365   4.359  15.551 -1.4478  0.1823 -0.0709
  428TMC3    H2 6442   3.307   4.074  15.834 -0.5974  0.8528  0.2003
  428TMC3    C7 6443   3.481   4.241  15.753  0.6162  0.6945 -0.2488
  428TMC3    C8 6444   3.157   3.892  15.671 -0.0607 -0.6497 -0.0559
  428TMC3    O1 6445   3.506   4.188  15.858 -0.1648  0.0574 -0.0956
  428TMC3    O2 6446   3.093   3.828  15.583 -0.2310 -1.3164 -0.5213
  429MPD2     C 6447   4.246   4.206  17.737  0.4220  0.4974 -0.0522
  429MPD2    C1 6448   4.340   4.125  17.678  0.8465  0.7903 -0.1526
  429MPD2    C2 6449   4.421   4.175  17.573  0.0909  0.0690  0.1122
  429MPD2    C3 6450   4.404   4.296  17.517  0.3012 -0.6612 -0.3587
  429MPD2    C4 6451   4.320   4.383  17.587  0.1180 -1.3923 -0.8973
  429MPD2    C5 6452   4.242   4.336  17.690  0.1343  0.0635  0.5293
  429MPD2     H 6453   4.500   4.107  17.542 -0.1341  0.1034 -0.5402
  429MPD2    H1 6454   4.298   4.482  17.550  0.9797 -1.0263 -0.4368
  429MPD2    H2 6455   4.174   4.181   0.052  0.0939  2.5940  0.3223
  429MPD2    H3 6456   4.173   4.405  17.737  0.6433  0.5686  0.5338
  429MPD2     N 6457   4.489   4.330  17.406  0.1351 -0.0343 -0.3092
  429MPD2    H5 6458   4.564   4.267  17.380  0.2762 -0.7025  1.7939
  429MPD2    N1 6459   4.363   3.997  17.719  0.2252  0.3422 -0.4776
  429MPD2    H7 6460   4.445   3.948  17.684  0.2107 -0.7903  1.0656
  430TMC3    C1 6461   4.585   4.483  17.234  1.0191 -0.8314  0.0032
  430TMC3    C2 6462   4.596   4.615  17.201  0.5461  0.7787  0.0148
  430TMC3    C3 6463   4.653   4.649  17.078  0.2436 -0.7537 -0.5368
  430TMC3    C4 6464   4.616   4.389  17.137 -0.2087 -0.9149  0.1386
  430TMC3    C5 6465   4.665   4.427  17.011 -0.9166 -0.0653  0.9364
  430TMC3    C6 6466   4.689   4.556  16.981 -0.1552  0.5880  0.5963
  430TMC3     C 6467   4.484   4.455  17.339 -0.2162 -0.6482  0.9457
  430TMC3     O 6468   4.393   4.537  17.334  0.1158 -0.1253  0.1926
  430TMC3     H 6469   4.575   4.695  17.271 -0.1665  1.8576 -1.4192
  430TMC3    H1 6470   4.611   4.283  17.162  1.2514 -1.5944 -2.5180
  430TMC3    H2 6471   4.727   4.592  16.886 -2.0983 -0.8269 -0.7390
  430TMC3    C7 6472   4.674   4.327  16.906 -0.5747 -0.6466 -0.3995
  430TMC3    C8 6473   4.680   0.048  17.044  0.2281 -0.2100 -0.1565
  430TMC3    O1 6474   4.707   4.209  16.941  0.6425  0.0981 -1.1774
  430TMC3    O2 6475   0.014   0.056  16.948 -0.4120 -0.1589 -0.8163
  431MPD2     C 6476   4.495   4.535  12.656  0.0105  0.1735 -0.5061
  431MPD2    C1 6477   4.622   4.546  12.605 -0.0875  0.8508  0.8557
  431MPD2    C2 6478   4.670   4.439  12.533 -0.5180  0.1196 -0.4401
  431MPD2    C3 6479   4.594   4.328  12.506 -0.2234  0.3708  0.3074
  431MPD2    C4 6480   4.475   4.317  12.567 -0.0077 -0.5329  0.4887
  431MPD2    C5 6481   4.427   4.421  12.645  0.0724  0.4073  0.0344
  431MPD2     H 6482   0.031   4.433  12.495 -0.5209 -0.0823 -0.4152
  431MPD2    H1 6483   4.416   4.226  12.575  1.1992 -1.4241 -0.7776
  431MPD2    H2 6484   4.453   4.609  12.723  1.2578  0.1666  0.2661
  431MPD2    H3 6485   4.337   4.412  12.706 -0.1640  0.1882 -0.3525
  431MPD2     N 6486   4.626   4.216  12.427 -0.1160 -0.0560 -0.1324
  431MPD2    H5 6487   4.566   4.135  12.437 -0.1773 -0.1368 -1.2080
  431MPD2    N1 6488   4.700   4.666  12.628  0.6492 -0.6281 -0.0448
  431MPD2    H7 6489   4.651   0.003  12.670  2.6235 -0.3362  1.7649
  432TMC3    C1 6490   0.040   4.080  12.316 -0.1449  0.0532 -0.3265
  432TMC3    C2 6491   0.120   4.090  12.203 -0.3747  0.1761  0.1689
  432TMC3    C3 6492   0.228   4.004  12.187  0.6667  0.6733 -0.0404
  432TMC3    C4 6493   0.068   4.000  12.424  0.1986 -0.6384  1.4298
  432TMC3    C5 6494   0.180   3.924  12.416 -0.4373  0.4299  0.2427
  432TMC3    C6 6495   0.256   3.928  12.299 -0.0187  1.0840 -0.7026
  432TMC3     C 6496   4.736   4.212  12.350  0.6663 -0.7420 -0.1930
  432TMC3     O 6497   0.057   4.308  12.301  0.6020  0.6896  0.0668
  432TMC3     H 6498   0.090   4.149  12.117 -2.1052  1.4865  1.6531
  432TMC3    H1 6499   4.738   3.993  12.505 -1.1749  0.3855  0.3265
  432TMC3    H2 6500   0.338   3.858  12.296  0.1960  1.2107  1.9724
  432TMC3    C7 6501   0.257   3.905  12.538  0.0484  0.3367 -0.6685
  432TMC3    C8 6502   0.339   4.030  12.097  0.3939  0.5849 -0.0710
  432TMC3    O1 6503   0.372   3.864  12.528  0.5051 -0.2683  0.1440
  432TMC3    O2 6504   0.440   3.971  12.125 -0.2558  0.3180 -0.1438
  433MPD2     C 6505   3.614   2.984  10.474  0.1267 -0.2970  0.2670
  433MPD2    C1 6506   3.731   2.932  10.519 -0.5064 -0.2607 -0.3775
  433MPD2    C2 6507   3.803   3.019  10.593 -0.4280 -0.4208 -0.6801
  433MPD2    C3 6508   3.763   3.146  10.634 -1.0013  0.0483  0.2440
  433MPD2    C4 6509   3.641   3.196  10.586 -0.7307  0.5544  0.0195
  433MPD2    C5 6510   3.574   3.112  10.500  0.3418 -0.1902  0.5185
  433MPD2     H 6511   3.903   2.992  10.626 -0.9998  0.1915  1.4889
  433MPD2    H1 6512   3.599   3.291  10.617 -1.5457 -0.2505  1.3853
  433MPD2    H2 6513   3.553   2.916  10.414  2.0072 -1.9582  0.2362
  433MPD2    H3 6514   3.478   3.151  10.469 -0.0461 -2.1062 -0.6992
  433MPD2     N 6515   3.844   3.208  10.733 -0.5951 -0.9409 -0.0065
  433MPD2    H5 6516   3.936   3.169  10.753 -0.7716 -0.3341  2.0508
  433MPD2    N1 6517   3.769   2.796  10.484 -0.4615  0.7683 -0.0811
  433MPD2    H7 6518   3.696   2.738  10.442  1.0816 -1.6166  0.5517
  434TMC3    C1 6519   3.888   2.596  10.511 -0.7949 -0.0979  0.4319
  434TMC3    C2 6520   4.005   2.538  10.520  0.1999  0.5575  0.0697
  434TMC3    C3 6521   4.019   2.409  10.550  0.5963  0.4314 -0.7110
  434TMC3    C4 6522   3.772   2.535  10.554  0.6791 -0.8631  0.2183
  434TMC3    C5 6523   3.791   2.403  10.588 -0.2962 -0.2691 -0.4583
  434TMC3    C6 6524   3.911   2.332  10.578 -0.1990  0.3197 -0.8780
  434TMC3     C 6525   3.890   2.743  10.519  0.1640 -0.1582  0.5272
  434TMC3     O 6526   3.992   2.791  10.568 -0.7765 -0.5200 -0.6360
  434TMC3     H 6527   4.093   2.598  10.499  0.5355  0.8475  2.3758
  434TMC3    H1 6528   3.680   2.590  10.569 -0.4271 -2.2617 -1.3825
  434TMC3    H2 6529   3.922   2.231  10.617 -1.2752 -0.8040 -3.4758
  434TMC3    C7 6530   3.682   2.331  10.655 -0.0311 -0.1813  0.5441
  434TMC3    C8 6531   4.155   2.375  10.598 -0.2596 -0.5229 -0.4860
  434TMC3    O1 6532   3.716   2.225  10.707  0.0463 -0.1831  0.0738
  434TMC3    O2 6533   4.233   2.466  10.628 -0.5160 -0.6860  0.0078
  435MPD2     C 6534   1.324   3.076  15.091  0.2759 -0.1490 -0.1624
  435MPD2    C1 6535   1.278   3.070  15.219 -0.4282  0.0980 -0.1936
  435MPD2    C2 6536   1.349   3.001  15.312 -0.6222  0.6597  0.4577
  435MPD2    C3 6537   1.444   2.906  15.277 -0.6019  0.2851 -0.2196
  435MPD2    C4 6538   1.485   2.902  15.142  0.1640 -0.4112  0.2007
  435MPD2    C5 6539   1.429   2.999  15.058 -0.2242 -0.0383  0.4371
  435MPD2     H 6540   1.316   3.005  15.416 -2.3290  0.1766 -0.0697
  435MPD2    H1 6541   1.567   2.840  15.108 -0.5121 -0.8340 -0.6588
  435MPD2    H2 6542   1.291   3.147  15.016 -0.6835 -0.2676  0.1497
  435MPD2    H3 6543   1.473   3.009  14.959  0.1973 -1.4921  0.4768
  435MPD2     N 6544   1.503   2.825  15.381  0.1984  0.7464 -0.2374
  435MPD2    H5 6545   1.465   2.832  15.475 -0.6115  0.1514 -0.5076
  435MPD2    N1 6546   1.178   3.160  15.259 -0.6788  0.0003 -0.6471
  435MPD2    H7 6547   1.168   3.172  15.360 -0.7975  0.6341 -0.7322
  436TMC3    C1 6548   0.944   3.396  15.461  0.4562  0.2434 -0.2507
  436TMC3    C2 6549   1.038   3.351  15.382 -0.7159  0.1372 -0.6328
  436TMC3    C3 6550   1.010   3.323  15.247 -0.1654  0.2382 -0.9179
  436TMC3    C4 6551   0.815   3.403  15.419 -0.5803 -0.6874  0.2751
  436TMC3    C5 6552   0.784   3.371  15.290  0.5487  0.7805 -0.6688
  436TMC3    C6 6553   0.879   3.327  15.200  0.6587 -0.4266  0.0809
  436TMC3     C 6554   0.985   3.465  15.584 -0.4199  0.8098  0.7423
  436TMC3     O 6555   1.095   3.516  15.573 -0.0930  0.5188 -0.2598
  436TMC3     H 6556   1.143   3.362  15.408 -0.6498 -0.3584 -0.6836
  436TMC3    H1 6557   0.734   3.437  15.482  0.0118  1.1246  0.0438
  436TMC3    H2 6558   0.860   3.295  15.098 -0.3205 -0.4311  0.2646
  436TMC3    C7 6559   0.648   3.355  15.270  0.6712 -0.1044 -0.0156
  436TMC3    C8 6560   1.093   3.226  15.179 -0.4544  0.3633  0.3244
  436TMC3    O1 6561   0.577   3.352  15.368 -0.4494  0.1557 -0.3932
  436TMC3    O2 6562   1.067   3.197  15.066 -0.2507  0.3686 -0.0133
  437TMC3    C1 6563   3.939   0.856  13.012  0.1602 -0.1164  0.5709
  437TMC3    C2 6564   3.801   0.851  12.995  0.3747  1.4374 -0.2846
  437TMC3    C3 6565   3.749   0.810  12.873 -0.0664 -0.2019  0.8810
  437TMC3    C4 6566   4.023   0.824  12.917 -0.7479 -0.1169 -0.1662
  437TMC3    C5 6567   3.967   0.777  12.799  0.1366  0.6046 -0.0216
  437TMC3    C6 6568   3.833   0.770  12.775  0.2915  0.0051  0.6976
  437TMC3     C 6569   3.992   0.853  13.142 -0.0872  0.6409  0.0376
  437TMC3     O 6570   4.094   0.791  13.162  0.4183  0.3082  0.1785
  437TMC3     H 6571   3.734   0.864  13.079 -0.0926 -2.6998 -0.0300
  437TMC3    H1 6572   4.130   0.831  12.932 -0.5219 -2.5240 -0.5938
  437TMC3    H2 6573   3.798   0.739  12.678 -1.0045  3.6803  0.0010
  437TMC3    C7 6574   4.052   0.786  12.679 -0.0780 -0.2233  0.1850
  437TMC3    C8 6575   3.606   0.807  12.867  0.1338  0.2260  0.1889
  437TMC3    O1 6576   3.994   0.787  12.570  0.2976 -0.1683  0.0694
  437TMC3    O2 6577   3.539   0.854  12.958  0.5862  0.2195  0.4776
  438MPD2     C 6578   2.752   1.542  16.904  0.8641  0.5383  0.9336
  438MPD2    C1 6579   2.755   1.419  16.967 -0.3744  0.3030  0.2364
  438MPD2    C2 6580   2.746   1.422  17.104 -0.0199  0.2884  0.0109
  438MPD2    C3 6581   2.740   1.537  17.182  0.5118  0.3192  0.3300
  438MPD2    C4 6582   2.742   1.656  17.111  0.1887 -0.3729 -0.1031
  438MPD2    C5 6583   2.754   1.657  16.976 -0.4077  0.2304  0.1016
  438MPD2     H 6584   2.743   1.323  17.150  1.0854  1.2467  2.1531
  438MPD2    H1 6585   2.728   1.748  17.167 -1.4586 -1.3869  1.1416
  438MPD2    H2 6586   2.754   1.551  16.796 -0.3865 -0.0448  0.8602
  438MPD2    H3 6587   2.758   1.758  16.936 -0.2336  0.6791  1.2430
  438MPD2     N 6588   2.726   1.539  17.328 -0.3792  0.1621  0.4778
  438MPD2    H5 6589   2.728   1.625  17.383 -3.1834  0.6911 -0.2891
  438MPD2    N1 6590   2.737   1.298  16.907 -0.2943 -0.6690  0.2334
  438MPD2    H7 6591   2.762   1.218  16.965 -0.5846 -0.4543  0.6582
  439TMC3    C1 6592   2.722   1.164  16.706  0.4980 -0.2638 -0.1393
  439TMC3    C2 6593   2.649   1.132  16.593 -0.2181  0.0068 -0.2756
  439TMC3    C3 6594   2.661   1.005  16.540  0.3775 -0.4619  1.0126
  439TMC3    C4 6595   2.826   1.091  16.757  0.3912  0.2647  0.0595
  439TMC3    C5 6596   2.837   0.967  16.698  0.5841  0.1101 -0.3830
  439TMC3    C6 6597   2.762   0.928  16.593 -0.2919 -0.3354 -0.3238
  439TMC3     C 6598   2.691   1.292  16.773  0.0454 -0.2674  0.5391
  439TMC3     O 6599   2.617   1.369  16.713 -0.7553 -0.9745 -0.0217
  439TMC3     H 6600   2.564   1.193  16.563 -1.7279 -1.8038  0.3771
  439TMC3    H1 6601   2.882   1.118  16.845 -1.2172  1.3835  0.7488
  439TMC3    H2 6602   2.793   0.840  16.538 -1.7047 -0.2607 -1.2384
  439TMC3    C7 6603   2.928   0.870  16.765 -0.1545 -0.6758  0.8251
  439TMC3    C8 6604   2.633   0.971  16.400  0.0198 -1.0721  0.1581
  439TMC3    O1 6605   2.991   0.907  16.863  0.1718  0.5809  0.2523
  439TMC3    O2 6606   2.639   0.852  16.376  0.1169  0.5580 -0.7534
  440MPD2     C 6607   0.464   1.377  14.868 -0.4152  0.3746 -0.7858
  440MPD2    C1 6608   0.602   1.420  14.872  0.5364 -0.1275 -0.1096
  440MPD2    C2 6609   0.694   1.323  14.850  0.2565  0.1791 -0.0806
  440MPD2    C3 6610   0.661   1.189  14.852 -0.4608  0.1888 -0.6453
  440MPD2    C4 6611   0.534   1.146  14.883  0.9491  0.1532 -0.2177
  440MPD2    C5 6612   0.434   1.243  14.881  0.0790 -0.5332 -0.6827
  440MPD2     H 6613   0.796   1.360  14.846 -0.5412  2.7482  3.0781
  440MPD2    H1 6614   0.505   1.042  14.898  1.6290 -0.2573 -1.6899
  440MPD2    H2 6615   0.387   1.453  14.872  0.3752  1.0850  1.0312
  440MPD2    H3 6616   0.334   1.208  14.902  0.9821 -2.8908 -0.2329
  440MPD2     N 6617   0.766   1.094  14.845 -0.4534 -0.1646  0.4008
  440MPD2    H5 6618   0.738   0.999  14.866  3.2284 -1.5344 -0.9702
  440MPD2    N1 6619   0.647   1.552  14.890 -1.3986  0.2490 -0.2425
  440MPD2    H7 6620   0.747   1.566  14.876 -1.6469  1.5966 -0.6557
  441TMC3    C1 6621   0.984   1.001  14.834 -0.6514  0.3496 -0.1483
  441TMC3    C2 6622   1.108   1.022  14.785  1.0355 -0.2897 -0.2252
  441TMC3    C3 6623   1.223   1.010  14.861 -0.0764  0.4497  0.9509
  441TMC3    C4 6624   0.979   0.948  14.957 -0.3334  0.1170 -0.8095
  441TMC3    C5 6625   1.095   0.931  15.027 -0.0850  0.5054  0.8748
  441TMC3    C6 6626   1.221   0.959  14.981 -0.3968 -0.4584 -0.0185
  441TMC3     C 6627   0.895   1.111  14.810  0.2070  0.2398 -0.6032
  441TMC3     O 6628   0.952   1.201  14.753 -0.3906  0.1599 -0.3185
  441TMC3     H 6629   1.115   1.077  14.692  1.9007 -1.8856 -1.0941
  441TMC3    H1 6630   0.882   0.936  15.004  0.1606 -1.2994 -0.1419
  441TMC3    H2 6631   1.300   0.993  15.046  1.3305  2.0307 -3.4182
  441TMC3    C7 6632   1.067   0.983  15.166 -0.6790  0.7191  0.8139
  441TMC3    C8 6633   1.312   1.128  14.860 -0.4192  0.1351  0.1301
  441TMC3    O1 6634   0.975   1.063  15.186 -0.3407  0.3604 -0.0455
  441TMC3    O2 6635   1.422   1.114  14.903 -0.8178  0.5431  0.1439
  442MPD2     C 6636   4.248   2.262  16.645  0.2258 -0.7676 -0.7089
  442MPD2    C1 6637   4.166   2.172  16.711  0.1972  0.1501 -0.2624
  442MPD2    C2 6638   4.147   2.055  16.642 -0.0865 -1.1558  0.7783
  442MPD2    C3 6639   4.193   2.030  16.516 -0.0326  0.8302 -0.2421
  442MPD2    C4 6640   4.268   2.127  16.450 -0.1517 -0.2817  0.0055
  442MPD2    C5 6641   4.297   2.234  16.522 -0.2659  0.6030  0.3714
  442MPD2     H 6642   4.088   1.987  16.702  1.2191 -3.2831 -0.3501
  442MPD2    H1 6643   4.319   2.117  16.354 -0.9282 -0.7235 -0.3606
  442MPD2    H2 6644   4.282   2.351  16.697 -0.3889 -1.0904  0.2470
  442MPD2    H3 6645   4.362   2.304  16.471  0.6227  0.7302  1.6924
  442MPD2     N 6646   4.172   1.908  16.450 -0.4662  0.0271  0.2798
  442MPD2    H5 6647   4.227   1.900  16.364 -0.9999 -0.0878 -0.0513
  442MPD2    N1 6648   4.094   2.203  16.831 -0.0090 -0.1235  0.6869
  442MPD2    H7 6649   4.027   2.133  16.859 -0.6600 -0.1563 -0.9097
  443TMC3    C1 6650   3.995   2.337  16.991 -0.2152  0.7559  0.6984
  443TMC3    C2 6651   3.923   2.452  16.976  0.1625 -0.2798  0.0130
  443TMC3    C3 6652   3.807   2.478  17.046  0.6125 -0.3291  0.2239
  443TMC3    C4 6653   3.947   2.240  17.081 -0.5136  0.3883 -0.1538
  443TMC3    C5 6654   3.833   2.266  17.154  0.3772  0.0799  0.2921
  443TMC3    C6 6655   3.765   2.386  17.135  0.3054 -0.6005 -0.1313
  443TMC3     C 6656   4.100   2.324  16.892 -0.7748  0.9739 -0.0912
  443TMC3     O 6657   4.155   2.426  16.856 -0.1116 -0.4192  0.0983
  443TMC3     H 6658   3.953   2.520  16.897  1.2378 -0.2659  0.4274
  443TMC3    H1 6659   4.001   2.149  17.103  0.6453  0.6952 -1.7467
  443TMC3    H2 6660   3.663   2.389  17.173  0.3988 -1.2859  0.1812
  443TMC3    C7 6661   3.774   2.155  17.228  0.0559 -0.3042 -0.5751
  443TMC3    C8 6662   3.706   2.501  16.956  0.2834  0.2379  0.0251
  443TMC3    O1 6663   3.830   2.046  17.207  0.1832 -0.5023  0.4171
  443TMC3    O2 6664   3.643   2.605  16.968 -0.0610  0.5583 -0.3614
  444MPD2     C 6665   4.303   1.817  16.869  0.1659 -0.8630 -0.3628
  444MPD2    C1 6666   4.277   1.683  16.900 -0.1434  0.5582 -0.6545
  444MPD2    C2 6667   4.325   1.577  16.822 -0.7373  0.0604 -0.1029
  444MPD2    C3 6668   4.406   1.606  16.717  0.4308  0.2899 -0.1405
  444MPD2    C4 6669   4.436   1.738  16.691 -0.0768  0.4818  0.2595
  444MPD2    C5 6670   4.392   1.840  16.770 -0.2083 -0.1969  0.2537
  444MPD2     H 6671   4.306   1.474  16.846 -0.2188  0.5694  2.4731
  444MPD2    H1 6672   4.495   1.766  16.604 -1.4923 -0.9072 -1.1503
  444MPD2    H2 6673   4.264   1.902  16.925  0.2274  0.2594 -2.0138
  444MPD2    H3 6674   4.431   1.939  16.750  0.5380 -0.3100  1.1285
  444MPD2     N 6675   4.464   1.499  16.643 -0.1656 -0.0986  0.4766
  444MPD2    H5 6676   4.421   1.407  16.649 -0.4395  0.0885  1.3464
  444MPD2    N1 6677   4.193   1.654  17.013 -0.0809 -0.1987  0.8884
  444MPD2    H7 6678   4.153   1.561  17.010 -1.7217  0.4346  3.0533
  445TMC3    C1 6679   4.616   1.393  16.489  0.2361  0.6725 -0.0141
  445TMC3    C2 6680   4.514   1.306  16.454 -0.3061 -0.1446 -0.1856
  445TMC3    C3 6681   4.564   1.185  16.405 -0.0630 -0.4661  0.2587
  445TMC3    C4 6682   0.005   1.361  16.487 -0.1012 -0.6876 -0.1832
  445TMC3    C5 6683   0.045   1.245  16.447 -0.4150 -0.1713 -0.3289
  445TMC3    C6 6684   4.696   1.148  16.410  0.0214 -0.1892  0.4032
  445TMC3     C 6685   4.580   1.514  16.563 -0.6508 -0.2954  0.0404
  445TMC3     O 6686   4.660   1.605  16.567 -0.3450  0.3965  0.0527
  445TMC3     H 6687   4.408   1.328  16.456 -0.1802  0.4395  0.0735
  445TMC3    H1 6688   0.075   1.438  16.516 -0.7417  0.0587 -0.6206
  445TMC3    H2 6689   4.733   1.054  16.372  1.7740  0.3618  0.7845
  445TMC3    C7 6690   0.186   1.234  16.408 -0.3120  0.1367 -0.0493
  445TMC3    C8 6691   4.456   1.090  16.361 -0.0670  0.5528 -0.0381
  445TMC3    O1 6692   0.243   1.342  16.396 -0.1240  0.6514 -0.3441
  445TMC3    O2 6693   4.349   1.140  16.340  0.4425 -0.0757 -0.1233
  446MPD2     C 6694   3.827   2.386  10.998 -0.1030 -0.2297  0.1100
  446MPD2    C1 6695   3.800   2.511  10.944  0.1492 -0.6153 -0.8032
  446MPD2    C2 6696   3.903   2.592  10.901  0.2630 -0.2038  0.0888
  446MPD2    C3 6697   4.034   2.553  10.928  0.0014 -0.0619 -1.0042
  446MPD2    C4 6698   4.060   2.430  10.990  0.1750 -0.0505  0.5598
  446MPD2    C5 6699   3.960   2.344  11.034 -0.8576 -0.0440 -0.6192
  446MPD2     H 6700   3.886   2.686  10.850 -3.6689 -1.6622 -1.2929
  446MPD2    H1 6701   4.158   2.384  10.980 -0.0570 -0.5299  0.4778
  446MPD2    H2 6702   3.742   2.328  11.031 -0.6984 -0.0981 -1.2062
  446MPD2    H3 6703   3.975   2.249  11.084 -1.0151  0.6702  0.7979
  446MPD2     N 6704   4.136   2.630  10.877 -0.0297 -0.9227 -0.1841
  446MPD2    H5 6705   4.105   2.692  10.802  2.0432  1.1385  0.6765
  446MPD2    N1 6706   3.665   2.543  10.930  0.8579  0.5600 -0.6735
  446MPD2    H7 6707   3.594   2.491  10.981  0.8942  1.9872  0.8171
  447TMC3    C1 6708   4.368   2.681  10.840 -0.5484  0.0812 -0.6319
  447TMC3    C2 6709   4.340   2.756  10.736  0.0688  0.2581  0.1606
  447TMC3    C3 6710   4.436   2.803  10.654 -0.1018 -0.3272  0.3796
  447TMC3    C4 6711   4.494   2.652  10.873  0.2984 -0.0924  0.0450
  447TMC3    C5 6712   4.593   2.693  10.785 -0.4475  0.0257  0.2425
  447TMC3    C6 6713   4.567   2.764  10.670 -0.2668  0.2795  0.1481
  447TMC3     C 6714   4.267   2.622  10.925 -0.6630 -0.1472 -0.6060
  447TMC3     O 6715   4.307   2.556  11.017 -0.1467  0.1406 -0.6821
  447TMC3     H 6716   4.240   2.798  10.734  0.2404  0.7248  1.2482
  447TMC3    H1 6717   4.525   2.602  10.964  0.2055  0.3525  0.3216
  447TMC3    H2 6718   4.651   2.815  10.624  0.0584  0.3872  0.8556
  447TMC3    C7 6719   4.715   2.606  10.789 -0.4655 -0.1809 -0.5758
  447TMC3    C8 6720   4.407   2.912  10.572 -0.0034  1.1181 -0.4789
  447TMC3    O1 6721   0.085   2.656  10.766 -0.4412  0.4098  0.4057
  447TMC3    O2 6722   4.331   2.999  10.609 -0.5726 -0.0399 -0.2803
  448TMC3    C1 6723   2.714   2.866  17.305 -0.0031  0.4475  0.1650
  448TMC3    C2 6724   2.736   2.767  17.208  0.0477 -0.5041 -0.7043
  448TMC3    C3 6725   2.792   2.654  17.252 -0.5054 -0.3411 -0.3648
  448TMC3    C4 6726   2.749   2.859  17.439  0.3028 -0.0270 -0.5770
  448TMC3    C5 6727   2.827   2.748  17.467 -0.0265  0.2187  1.4854
  448TMC3    C6 6728   2.838   2.643  17.378 -0.4434  0.1353 -0.4455
  448TMC3     C 6729   2.611   2.966  17.280  0.0125  0.2294  0.9416
  448TMC3     O 6730   2.633   3.075  17.330  0.1451 -0.2333  0.0524
  448TMC3     H 6731   2.709   2.779  17.104 -2.0082 -3.3597 -0.5004
  448TMC3    H1 6732   2.731   2.942  17.506  2.7337  2.9033 -3.5612
  448TMC3    H2 6733   2.897   2.559  17.414  1.8298  1.5219 -0.9063
  448TMC3    C7 6734   2.821   2.702  17.607  0.2053  0.2179 -0.4147
  448TMC3    C8 6735   2.802   2.540  17.166  0.0658 -0.4217  0.1284
  448TMC3    O1 6736   2.799   2.583  17.625 -0.0062 -0.2661 -0.0090
  448TMC3    O2 6737   2.867   2.445  17.213  0.0722 -0.1404 -0.6007
  449MPD2     C 6738   4.268   0.865  13.905  0.6546  0.7265  0.0601
  449MPD2    C1 6739   4.152   0.931  13.945 -0.1757  1.2100  0.2162
  449MPD2    C2 6740   4.051   0.853  14.000 -0.1533 -0.4998 -0.4287
  449MPD2    C3 6741   4.062   0.720  14.001 -0.2168 -0.1395  0.7381
  449MPD2    C4 6742   4.177   0.652  13.971 -0.0070 -0.6985  0.1640
  449MPD2    C5 6743   4.284   0.731  13.918 -0.2263  1.0281  0.1299
  449MPD2     H 6744   3.961   0.895  14.044  0.9450  1.4481 -0.0687
  449MPD2    H1 6745   4.183   0.546  13.990  1.8261 -0.3708  1.4559
  449MPD2    H2 6746   4.347   0.925  13.860  0.2374 -1.6874 -3.8945
  449MPD2    H3 6747   4.372   0.681  13.879 -1.2308 -0.3472 -0.3759
  449MPD2     N 6748   3.938   0.654  14.023 -0.5325 -0.5155 -0.3268
  449MPD2    H5 6749   3.851   0.705  14.041 -0.7207 -0.0079 -2.7103
  449MPD2    N1 6750   4.124   1.073  13.946  0.2603 -0.0379  0.2252
  449MPD2    H7 6751   4.029   1.098  13.969  0.8657  1.3821  1.1833
  450TMC3    C1 6752   4.126   1.286  13.880 -0.6383  0.3830  0.4649
  450TMC3    C2 6753   4.115   1.325  13.753 -0.2667  0.6661  0.5381
  450TMC3    C3 6754   3.987   1.356  13.707 -0.2813 -0.0005  0.2736
  450TMC3    C4 6755   4.016   1.288  13.962 -0.8251 -0.0098  0.4841
  450TMC3    C5 6756   3.890   1.336  13.918 -0.1810 -0.6758  0.4527
  450TMC3    C6 6757   3.874   1.357  13.787  0.2596  0.0478  0.4840
  450TMC3     C 6758   4.206   1.166  13.897 -0.6353 -0.0921 -0.5402
  450TMC3     O 6759   4.315   1.153  13.839  0.1134 -0.8794 -0.5856
  450TMC3     H 6760   4.205   1.339  13.695 -0.1222 -2.7374 -0.0990
  450TMC3    H1 6761   4.028   1.276  14.069  0.5780  0.2803  0.3676
  450TMC3    H2 6762   3.783   1.384  13.735 -1.5556 -2.3850  2.3988
  450TMC3    C7 6763   3.789   1.257  13.982  0.4840 -0.2900 -0.2245
  450TMC3    C8 6764   3.985   1.426  13.580  0.0309 -0.7219  0.1417
  450TMC3    O1 6765   3.831   1.158  14.041 -0.5265 -0.2276  0.4371
  450TMC3    O2 6766   3.904   1.519  13.565  0.4172 -0.1464 -0.2140
  451MPD2     C 6767   0.294   4.044   1.196  0.1065 -0.8006  0.4862
  451MPD2    C1 6768   0.301   4.132   1.087 -0.4523 -1.0743  0.5365
  451MPD2    C2 6769   0.429   4.161   1.035  0.5416 -0.3221 -0.3671
  451MPD2    C3 6770   0.537   4.082   1.087  0.4099  0.0875  0.3624
  451MPD2    C4 6771   0.524   3.990   1.189 -0.0936 -0.2729  0.5583
  451MPD2    C5 6772   0.401   3.975   1.246 -0.3901  0.3958  1.2161
  451MPD2     H 6773   0.450   4.248   0.973 -3.0587  0.1269 -0.9654
  451MPD2    H1 6774   0.613   3.941   1.228 -0.8265 -1.8652  0.2269
  451MPD2    H2 6775   0.200   4.017   1.242  0.3710 -2.3140  0.1302
  451MPD2    H3 6776   0.374   3.903   1.322 -0.1194  1.3336  2.1998
  451MPD2     N 6777   0.668   4.088   1.031 -0.0953 -0.4298  0.0469
  451MPD2    H5 6778   0.736   4.027   1.077  0.6800  0.1194 -0.3671
  451MPD2    N1 6779   0.183   4.198   1.040 -0.1827 -0.2756  0.4286
  451MPD2    H7 6780   0.098   4.181   1.092 -0.0734 -2.1197 -0.0183
  452TMC3    C1 6781   0.848   4.143   0.891  0.0106  0.5529  0.0801
  452TMC3    C2 6782   0.901   4.021   0.916  0.3760 -0.3365 -0.1732
  452TMC3    C3 6783   1.025   3.990   0.862 -0.2648  0.4768 -0.5146
  452TMC3    C4 6784   0.914   4.240   0.824  0.3297 -0.4607  0.4804
  452TMC3    C5 6785   1.049   4.218   0.792  0.2827  0.7901  0.4194
  452TMC3    C6 6786   1.102   4.091   0.805 -0.0586 -0.1440  0.0893
  452TMC3     C 6787   0.713   4.174   0.933  0.4740  0.5087  0.1623
  452TMC3     O 6788   0.659   4.277   0.891 -0.5650  0.1745  0.2994
  452TMC3     H 6789   0.835   3.943   0.950  2.0150 -1.9235 -0.6595
  452TMC3    H1 6790   0.871   4.339   0.814  0.6428 -0.5868 -2.1775
  452TMC3    H2 6791   1.208   4.073   0.786  0.0638 -0.4795  1.0710
  452TMC3    C7 6792   1.082   4.292   0.669  0.2021  0.2917  0.3727
  452TMC3    C8 6793   1.071   3.855   0.855 -0.0306 -0.2245 -0.4250
  452TMC3    O1 6794   0.991   4.354   0.620  0.0945 -0.4842 -0.0179
  452TMC3    O2 6795   1.049   3.783   0.951 -0.3328  0.4773 -0.4326
  453TMC3    C1 6796   0.983   1.860  11.699  0.8222  0.4312  1.0988
  453TMC3    C2 6797   0.944   1.749  11.634 -0.5315 -0.0528 -0.4346
  453TMC3    C3 6798   0.816   1.747  11.575 -0.3448  0.1944 -0.2726
  453TMC3    C4 6799   0.917   1.979  11.687  0.4488  0.6697  0.4005
  453TMC3    C5 6800   0.812   1.981  11.604 -0.0628  0.2851  0.4084
  453TMC3    C6 6801   0.744   1.863  11.565  0.0447 -0.5420 -0.9129
  453TMC3     C 6802   1.111   1.872  11.762  0.0957 -0.4484 -0.3821
  453TMC3     O 6803   1.173   1.978  11.762  0.1591  0.2842 -0.4628
  453TMC3     H 6804   1.011   1.664  11.630  1.0732  1.1910  0.5603
  453TMC3    H1 6805   0.957   2.072  11.726 -0.5261  0.7166  1.2842
  453TMC3    H2 6806   0.665   1.880  11.493 -0.4987 -0.2525 -0.2406
  453TMC3    C7 6807   0.758   2.112  11.575  0.2567 -0.2993 -0.7924
  453TMC3    C8 6808   0.733   1.627  11.581  0.6288  0.1796 -0.0064
  453TMC3    O1 6809   0.637   2.116  11.557 -0.1052  0.2607 -0.0465
  453TMC3    O2 6810   0.618   1.637  11.535 -0.5107  0.3123  0.9247
  454MPD2     C 6811   0.423   1.648  15.901  0.0953 -0.1582 -0.3740
  454MPD2    C1 6812   0.305   1.682  15.835 -0.3898  1.0595 -0.2039
  454MPD2    C2 6813   0.235   1.788  15.875 -0.1961  0.1868 -0.0774
  454MPD2    C3 6814   0.265   1.855  15.991  0.3729  0.3039  0.3752
  454MPD2    C4 6815   0.379   1.817  16.058  0.4536 -0.7409  0.3778
  454MPD2    C5 6816   0.454   1.712  16.018 -0.7186  0.0560  0.4339
  454MPD2     H 6817   0.149   1.817  15.816 -0.1740  0.5721  0.0767
  454MPD2    H1 6818   0.413   1.862  16.150  1.9408  0.5490 -0.7825
  454MPD2    H2 6819   0.502   1.587  15.858  1.0776  1.1401 -0.4286
  454MPD2    H3 6820   0.553   1.690  16.055  0.2128 -0.4552 -2.3336
  454MPD2     N 6821   0.169   1.938  16.058  0.2679  0.2811  0.6195
  454MPD2    H5 6822   0.195   1.969  16.151  2.0730  0.2304  0.1462
  454MPD2    N1 6823   0.252   1.599  15.728  0.5828 -0.6866  0.5585
  454MPD2    H7 6824   0.168   1.626  15.678 -0.5893  0.6241  3.2346
  455TMC3    C1 6825   4.681   1.994  16.105 -0.3683 -0.5052 -0.4858
  455TMC3    C2 6826   4.710   2.046  16.228 -0.2063  0.2091 -0.3209
  455TMC3    C3 6827   4.645   1.982  16.333  0.6865  0.3656  0.3115
  455TMC3    C4 6828   4.597   1.890  16.088  0.8611  0.1040 -0.6208
  455TMC3    C5 6829   4.533   1.821  16.196  0.7722 -0.6084  0.7216
  455TMC3    C6 6830   4.571   1.871  16.319 -0.3904  0.2551 -0.4573
  455TMC3     C 6831   0.048   1.980  16.004 -0.1940  0.0066 -0.3799
  455TMC3     O 6832   0.004   1.963  15.896  0.0965 -0.2053  0.5066
  455TMC3     H 6833   0.019   2.142  16.226  0.7082 -0.2364  1.5627
  455TMC3    H1 6834   4.581   1.845  15.990 -3.0804  0.9243 -0.3573
  455TMC3    H2 6835   4.550   1.819  16.412  1.1763 -1.9684 -1.3262
  455TMC3    C7 6836   4.542   1.677  16.192  0.0336 -0.0503  0.3928
  455TMC3    C8 6837   4.672   2.032  16.465 -0.0238 -0.2355  0.4383
  455TMC3    O1 6838   4.464   1.611  16.257 -0.4179  0.1836  0.0830
  455TMC3    O2 6839   4.653   1.954  16.558 -0.4404  0.0390  0.3389
  456MPD2     C 6840   2.931   1.251  16.464  0.4578  0.0390 -0.1653
  456MPD2    C1 6841   3.047   1.222  16.536 -0.5441 -0.3989  0.3488
  456MPD2    C2 6842   3.103   1.317  16.621 -0.1000  0.2693  0.0948
  456MPD2    C3 6843   3.042   1.441  16.633 -0.1555 -0.6174  0.2260
  456MPD2    C4 6844   2.925   1.469  16.560 -0.3051  0.4647 -0.0136
  456MPD2    C5 6845   2.869   1.375  16.482  0.7519  0.5136  0.6423
  456MPD2     H 6846   3.192   1.296  16.679  1.4675  0.2750 -2.2954
  456MPD2    H1 6847   2.875   1.560  16.591  0.4436  0.6422  0.6366
  456MPD2    H2 6848   2.882   1.180  16.398  0.9220  0.2059 -0.6874
  456MPD2    H3 6849   2.773   1.400  16.437 -1.0890 -3.0527  2.5253
  456MPD2     N 6850   3.104   1.541  16.718 -0.6285 -0.0255 -0.7346
  456MPD2    H5 6851   3.186   1.521  16.774 -0.1735  0.1853 -1.3343
  456MPD2    N1 6852   3.101   1.088  16.515 -0.0271 -0.2751 -0.0124
  456MPD2    H7 6853   3.051   1.020  16.459 -2.2346  2.3159 -1.1640
  457TMC3    C1 6854   3.100   1.744  16.840  0.4859  0.0996 -0.4072
  457TMC3    C2 6855   3.065   1.879  16.835 -0.0518  0.0195 -0.1899
  457TMC3    C3 6856   3.038   1.951  16.949  0.4031  0.0658 -0.5940
  457TMC3    C4 6857   3.101   1.677  16.964  0.3353 -0.2479 -0.1619
  457TMC3    C5 6858   3.082   1.750  17.077  0.7679  0.5796 -0.6476
  457TMC3    C6 6859   3.035   1.885  17.075 -0.1528  0.6104  0.7517
  457TMC3     C 6860   3.054   1.670  16.723  0.2510  0.2501 -0.1872
  457TMC3     O 6861   2.973   1.737  16.660  0.5088 -0.2995 -0.0079
  457TMC3     H 6862   3.050   1.937  16.744  1.7610  2.1963  0.8958
  457TMC3    H1 6863   3.121   1.571  16.974  2.7415  0.3755  1.5275
  457TMC3    H2 6864   3.011   1.939  17.166  0.5033  0.9201  0.7326
  457TMC3    C7 6865   3.095   1.686  17.206 -0.9391  0.7940 -1.5059
  457TMC3    C8 6866   3.015   2.096  16.949  0.1220 -0.2587  0.5787
  457TMC3    O1 6867   3.106   1.563  17.197  0.3515  0.1978  0.1245
  457TMC3    O2 6868   3.063   2.156  17.042  0.1074  0.0736 -0.0004
  458MPD2     C 6869   4.489   0.762  12.420 -0.0213  0.7427 -0.1622
  458MPD2    C1 6870   4.520   0.699  12.545  0.4827  0.1458 -0.6413
  458MPD2    C2 6871   4.413   0.691  12.636 -0.7282  0.3222  0.1022
  458MPD2    C3 6872   4.291   0.748  12.609 -0.9166 -0.5255 -0.3025
  458MPD2    C4 6873   4.265   0.796  12.482 -0.5489  0.2140 -0.4804
  458MPD2    C5 6874   4.360   0.802  12.384 -0.0984  0.3079 -0.8034
  458MPD2     H 6875   4.427   0.642  12.732  0.1243  0.1147 -0.1330
  458MPD2    H1 6876   4.169   0.834  12.449 -1.4637 -0.9840  0.7684
  458MPD2    H2 6877   4.569   0.776  12.348 -0.3478  1.5890 -0.3556
  458MPD2    H3 6878   4.326   0.838  12.288 -1.1969  0.8228 -0.2187
  458MPD2     N 6879   4.182   0.740  12.704  0.4286 -0.1043 -0.0187
  458MPD2    H5 6880   4.204   0.694  12.792 -3.0163 -0.8511  0.4633
  458MPD2    N1 6881   4.650   0.655  12.555  0.0354 -0.3322  0.1057
  458MPD2    H7 6882   4.727   0.693  12.501 -0.2440  0.6049  0.3755
  459TMC3    C1 6883   0.086   0.568  12.689  0.4696 -0.2426 -0.1274
  459TMC3    C2 6884   0.176   0.651  12.625  0.5403 -0.0480  0.7936
  459TMC3    C3 6885   0.311   0.637  12.660 -0.0058  0.6992  0.2105
  459TMC3    C4 6886   0.124   0.483  12.792  0.4245 -0.2590  0.0609
  459TMC3    C5 6887   0.260   0.471  12.818  0.2744 -0.1797  0.2172
  459TMC3    C6 6888   0.355   0.538  12.746  0.4145 -0.5348  0.5513
  459TMC3     C 6889   4.691   0.572  12.662 -0.1813  0.2743  0.2501
  459TMC3     O 6890   4.625   0.494  12.727  0.0502  0.1168  0.5356
  459TMC3     H 6891   0.154   0.716  12.541  1.9384 -0.8135 -0.1769
  459TMC3    H1 6892   0.045   0.448  12.857 -1.8635  0.7769 -2.1726
  459TMC3    H2 6893   0.461   0.515  12.754  0.6851  0.3435 -0.5173
  459TMC3    C7 6894   0.302   0.391  12.933 -0.3863 -0.5121  0.7528
  459TMC3    C8 6895   0.398   0.665  12.544  0.2000  0.0504  0.2833
  459TMC3    O1 6896   0.398   0.432  12.994  0.2796  0.3335  0.0078
  459TMC3    O2 6897   0.355   0.672  12.430  0.4437  0.6663  0.1560
  460MPD2     C 6898   4.618   3.075  10.323 -0.3570 -0.0397 -0.7998
  460MPD2    C1 6899   4.498   3.038  10.382 -0.1504  0.7756 -0.1410
  460MPD2    C2 6900   4.383   3.115  10.356 -0.8389 -0.5688  0.6375
  460MPD2    C3 6901   4.389   3.218  10.265  0.7371  0.2142  0.1583
  460MPD2    C4 6902   4.507   3.240  10.193  0.1194 -0.1044  0.0049
  460MPD2    C5 6903   4.617   3.164  10.219  0.0853  0.6605  0.3730
  460MPD2     H 6904   4.291   3.099  10.412  0.4355  1.5662  3.2923
  460MPD2    H1 6905   4.520   3.307  10.108 -0.2820 -0.9045 -0.6885
  460MPD2    H2 6906   4.710   3.027  10.353 -0.4124  0.0625 -0.4651
  460MPD2    H3 6907   4.711   3.180  10.166  0.3617  0.5092  0.8136
  460MPD2     N 6908   4.261   3.278  10.242 -0.1621 -0.2967  0.1442
  460MPD2    H5 6909   4.180   3.240  10.289  0.3912 -0.3711  1.0321
  460MPD2    N1 6910   4.503   2.931  10.476 -0.0599  0.5731  0.2686
  460MPD2    H7 6911   4.577   2.863  10.465 -0.6508 -0.2841  1.5377
  461TMC3    C1 6912   4.104   3.399  10.124  0.1068 -0.2599  0.3666
  461TMC3    C2 6913   4.039   3.297  10.060  0.1332  0.2640  0.1362
  461TMC3    C3 6914   3.930   3.334   9.991  0.0197  0.5268  0.1304
  461TMC3    C4 6915   4.058   3.531  10.115 -0.1081 -0.2279  0.1528
  461TMC3    C5 6916   3.939   3.557  10.052  0.2652 -0.5730 -0.3989
  461TMC3    C6 6917   3.875   3.455   9.990  0.5890 -0.2955  0.3914
  461TMC3     C 6918   4.244   3.386  10.155  0.0796  0.2482  0.0922
  461TMC3     O 6919   4.336   3.462  10.118  0.1836 -0.2541  0.1998
  461TMC3     H 6920   4.073   3.197  10.039  1.5923  0.3573  2.0602
  461TMC3    H1 6921   4.108   3.611  10.169  0.8970 -2.2575  2.2494
  461TMC3    H2 6922   3.778   3.476   9.948  1.1675 -0.8958 -1.2210
  461TMC3    C7 6923   3.884   3.693  10.047  0.5609  0.1271 -1.3781
  461TMC3    C8 6924   3.877   3.247   9.887 -0.1185 -0.4242 -0.0515
  461TMC3    O1 6925   3.780   3.706   9.980 -0.0158 -0.1895 -0.1180
  461TMC3    O2 6926   3.900   3.128   9.915  0.0859  0.2207 -0.0269
  462TMC3    C1 6927   4.642   4.470  17.728 -0.3868 -0.0849 -0.2184
  462TMC3    C2 6928   0.022   4.437  17.674  0.3239  0.2044  0.3951
  462TMC3    C3 6929   0.078   4.320  17.710  0.4185  0.2336 -0.1895
  462TMC3    C4 6930   4.571   4.384   0.039  0.4535 -0.0664  0.0655
  462TMC3    C5 6931   4.632   4.265   0.079 -0.5440  0.0658 -0.3702
  462TMC3    C6 6932   0.020   4.243   0.045  0.7146 -0.3405 -0.3797
  462TMC3     C 6933   4.577   4.597  17.686 -0.2361  0.1183 -0.0936
  462TMC3     O 6934   4.476   4.633  17.742  0.2274  0.0254  0.3864
  462TMC3     H 6935   0.080   4.510  17.618  0.4985  0.3156  0.7198
  462TMC3    H1 6936   4.477   4.418   0.081 -0.8990 -3.2031 -0.4698
  462TMC3    H2 6937   0.064   4.147   0.070  1.4392  0.9077  3.2543
  462TMC3    C7 6938   4.572   4.187   0.187  0.2458 -0.4064  0.0269
  462TMC3    C8 6939   0.214   4.286  17.668 -0.4967  0.9716 -0.3208
  462TMC3    O1 6940   4.609   4.070   0.196  0.0428  0.3412  0.0109
  462TMC3    O2 6941   0.267   4.376  17.602 -0.1646 -0.3883  0.2005
  463MPD2     C 6942   1.718   1.840   1.412  0.4580 -0.1255  0.2842
  463MPD2    C1 6943   1.634   1.940   1.471 -0.2717  0.1473 -0.5009
  463MPD2    C2 6944   1.684   2.063   1.496 -0.1668  1.0342  0.5568
  463MPD2    C3 6945   1.815   2.093   1.455  0.3758  0.1870 -0.3676
  463MPD2    C4 6946   1.890   1.999   1.387 -0.0783 -0.1505  0.0044
  463MPD2    C5 6947   1.844   1.871   1.363  0.1720  0.4292 -0.4176
  463MPD2     H 6948   1.632   2.143   1.547  0.2741  1.0910  0.9097
  463MPD2    H1 6949   1.988   2.038   1.360 -0.3113  0.7210  0.4059
  463MPD2    H2 6950   1.684   1.738   1.401  0.1981 -0.0239  0.1440
  463MPD2    H3 6951   1.909   1.801   1.312  0.0356  1.0579 -1.4469
  463MPD2     N 6952   1.873   2.222   1.464  0.3623  0.3234 -0.1506
  463MPD2    H5 6953   1.965   2.237   1.422  0.5294 -0.1715  0.0405
  463MPD2    N1 6954   1.502   1.914   1.511 -0.4846 -0.2792  0.2662
  463MPD2    H7 6955   1.452   1.994   1.548  0.3125  0.9506 -1.2873
  464TMC3    C1 6956   1.286   1.824   1.526  0.0488  0.5011 -0.6265
  464TMC3    C2 6957   1.237   1.942   1.570 -1.3497  0.0832  0.4783
  464TMC3    C3 6958   1.109   1.969   1.541 -0.2825  0.1653  0.3726
  464TMC3    C4 6959   1.203   1.730   1.465  0.6074  0.4847 -0.4817
  464TMC3    C5 6960   1.083   1.777   1.419  0.2445  0.6519  0.4208
  464TMC3    C6 6961   1.030   1.890   1.465 -0.4723 -0.1421  0.1026
  464TMC3     C 6962   1.430   1.799   1.511  0.0779 -0.1751  0.3217
  464TMC3     O 6963   1.469   1.691   1.459  1.0719 -0.6525 -0.1417
  464TMC3     H 6964   1.286   2.001   1.647  1.1618 -0.9109 -0.3430
  464TMC3    H1 6965   1.243   1.636   1.428  1.1912  0.3489  0.4945
  464TMC3    H2 6966   0.936   1.932   1.430  0.5419  1.7212 -0.4022
  464TMC3    C7 6967   1.046   1.730   1.281  0.6590  1.1731 -0.1512
  464TMC3    C8 6968   1.060   2.100   1.590  1.0724  0.6608 -0.8562
  464TMC3    O1 6969   1.136   1.672   1.217  0.1220  0.0220 -0.4198
  464TMC3    O2 6970   1.137   2.194   1.580  0.9023 -0.1798  0.5156
  465MPD2     C 6971   2.299   1.154  16.631 -0.3238 -0.6291 -0.4557
  465MPD2    C1 6972   2.232   1.201  16.742  0.2370 -0.2742 -0.7122
  465MPD2    C2 6973   2.125   1.291  16.737 -0.1263 -0.4356  0.5754
  465MPD2    C3 6974   2.083   1.327  16.611  0.0283 -0.1008 -0.2113
  465MPD2    C4 6975   2.141   1.272  16.495  0.2182 -0.1439 -0.1245
  465MPD2    C5 6976   2.249   1.189  16.505  0.1492 -0.3491  0.5310
  465MPD2     H 6977   2.088   1.325  16.833 -1.8250 -0.4470 -0.0780
  465MPD2    H1 6978   2.116   1.295  16.392 -2.4846 -2.3087  0.0355
  465MPD2    H2 6979   2.377   1.080  16.633 -0.8060 -1.1495 -0.8286
  465MPD2    H3 6980   2.295   1.151  16.415  0.9584  0.6638  0.5146
  465MPD2     N 6981   1.969   1.405  16.607  0.7631  0.4492 -0.2016
  465MPD2    H5 6982   1.930   1.434  16.696  0.4014  0.0758 -0.2406
  465MPD2    N1 6983   2.275   1.168  16.878  0.5704 -0.5327 -0.4206
  465MPD2    H7 6984   2.240   1.227  16.953 -0.2668  0.3172 -1.4874
  466TMC3    C1 6985   1.586   1.503  16.706 -0.1526 -0.5006  0.2561
  466TMC3    C2 6986   1.502   1.567  16.619  0.0846 -0.5943 -0.4394
  466TMC3    C3 6987   1.562   1.583  16.493 -0.2559  0.2334 -0.8079
  466TMC3    C4 6988   1.717   1.465  16.668  0.5499  0.1229  0.1633
  466TMC3    C5 6989   1.768   1.493  16.543  0.1899  0.2557 -0.2452
  466TMC3    C6 6990   1.689   1.542  16.450  0.4740  0.1980  0.3605
  466TMC3     C 6991   1.542   1.485  16.840  0.3397 -0.1566  0.1938
  466TMC3     O 6992   1.626   1.494  16.930 -0.3769  0.6496  0.3790
  466TMC3     H 6993   1.398   1.591  16.637  0.0921 -1.1325  0.3508
  466TMC3    H1 6994   1.784   1.423  16.742  1.1792 -0.8437 -0.9504
  466TMC3    H2 6995   1.729   1.571  16.354 -0.8060 -0.6286 -0.4120
  466TMC3    C7 6996   1.901   1.450  16.501 -0.2291 -0.3197  0.3204
  466TMC3    C8 6997   1.506   1.705  16.419  0.7139  0.0279 -0.3969
  466TMC3    O1 6998   1.925   1.436  16.378 -0.0703  0.2129 -0.5197
  466TMC3    O2 6999   1.536   1.723  16.301  0.2859  0.2613 -0.1314
  467TMC3    C1 7000   2.394   0.371  13.601 -1.5830  0.3646 -0.1518
  467TMC3    C2 7001   2.428   0.484  13.524  1.1129  0.4628 -0.4120
  467TMC3    C3 7002   2.399   0.469  13.395 -0.3655 -0.7143  0.2915
  467TMC3    C4 7003   2.331   0.261  13.551  0.0903  0.1845  0.1397
  467TMC3    C5 7004   2.298   0.262  13.414 -0.3774  0.1468 -0.3629
  467TMC3    C6 7005   2.342   0.365  13.328 -0.2437 -0.1987 -0.2579
  467TMC3     C 7006   2.495   0.334  13.694 -0.1878  0.0438 -0.4984
  467TMC3     O 7007   2.540   0.223  13.675  0.0606 -0.3031 -0.2735
  467TMC3     H 7008   2.462   0.578  13.565  3.2637  0.0623 -1.2787
  467TMC3    H1 7009   2.335   0.172  13.614 -1.9128  0.5827  0.8442
  467TMC3    H2 7010   2.322   0.354  13.222 -0.2876  0.3498 -0.3089
  467TMC3    C7 7011   2.210   0.154  13.363  0.1016 -1.2361 -0.4935
  467TMC3    C8 7012   2.504   0.543  13.320 -0.2332  0.8506  0.5050
  467TMC3    O1 7013   2.236   0.108  13.252  0.4227  0.0230  0.6307
  467TMC3    O2 7014   2.533   0.648  13.372 -0.7256  0.2453  0.3407
  468MPD2     C 7015   1.042   3.063  10.564 -0.0361 -0.4553 -0.1243
  468MPD2    C1 7016   1.150   3.076  10.642 -0.1411  0.1272  0.2339
  468MPD2    C2 7017   1.177   2.962  10.719  0.3296 -0.0930 -0.3013
  468MPD2    C3 7018   1.096   2.845  10.722 -0.3147 -1.1552 -0.1417
  468MPD2    C4 7019   0.984   2.840  10.645  0.0590  0.4203  0.0764
  468MPD2    C5 7020   0.961   2.949  10.567 -0.0140 -0.2355 -0.2549
  468MPD2     H 7021   1.255   2.981  10.792  0.4966 -0.8241 -0.2812
  468MPD2    H1 7022   0.909   2.762  10.647  0.1048  0.4377  2.3190
  468MPD2    H2 7023   1.012   3.135  10.489  2.4322 -0.1633 -0.8551
  468MPD2    H3 7024   0.881   2.940  10.495 -0.8648 -0.6441  0.7536
  468MPD2     N 7025   1.116   2.740  10.816  0.0692  0.6016 -0.1021
  468MPD2    H5 7026   1.046   2.667  10.828 -1.6803  2.3581  0.3044
  468MPD2    N1 7027   1.211   3.200  10.678  0.2335  0.9021 -0.1410
  468MPD2    H7 7028   1.278   3.192  10.754 -1.2229 -0.8823  0.9514
  469TMC3    C1 7029   1.241   3.442  10.687 -0.0982 -0.1804 -0.5913
  469TMC3    C2 7030   1.363   3.424  10.741  0.2780  0.3233 -0.4600
  469TMC3    C3 7031   1.410   3.536  10.809  0.5746 -0.3061  0.1500
  469TMC3    C4 7032   1.171   3.561  10.693  0.4854 -0.4771  0.7700
  469TMC3    C5 7033   1.217   3.668  10.769  0.3020  0.2245 -0.1881
  469TMC3    C6 7034   1.349   3.659  10.816  0.2854  0.2841 -0.4179
  469TMC3     C 7035   1.175   3.322  10.627  0.4089  0.3493  0.1978
  469TMC3     O 7036   1.084   3.345  10.548 -0.0708 -0.0886  0.1598
  469TMC3     H 7037   1.420   3.331  10.742  1.7467  1.2001 -1.4676
  469TMC3    H1 7038   1.082   3.570  10.632  1.1580  0.7487 -0.0451
  469TMC3    H2 7039   1.387   3.726  10.893 -1.1147 -2.5530  2.7544
  469TMC3    C7 7040   1.133   3.776  10.819  0.2052  0.1021 -1.1641
  469TMC3    C8 7041   1.527   3.513  10.888  0.8371 -0.0595  0.7956
  469TMC3    O1 7042   1.187   3.876  10.863 -0.4973 -0.2535  0.0679
  469TMC3    O2 7043   1.610   3.422  10.854 -0.2526  0.5146 -0.0898
  470TMC3    C1 7044   3.602   3.828   0.162 -0.0058  1.0581 -0.2602
  470TMC3    C2 7045   3.670   3.934   0.224 -0.0581  1.1330  0.2486
  470TMC3    C3 7046   3.684   3.928   0.356  0.0104  0.0033  0.1357
  470TMC3    C4 7047   3.552   3.725   0.229  0.3415 -0.5249  0.3212
  470TMC3    C5 7048   3.568   3.725   0.368  0.2511 -0.7893  0.6259
  470TMC3    C6 7049   3.614   3.831   0.428 -0.1867  0.0825  0.7740
  470TMC3     C 7050   3.574   3.844   0.022 -0.1908 -0.3246  0.2114
  470TMC3     O 7051   3.577   3.960  17.739  0.1849  0.2214 -0.4086
  470TMC3     H 7052   3.694   4.024   0.168  1.6934  1.0896  0.9163
  470TMC3    H1 7053   3.472   3.667   0.186  0.5012 -0.6449  0.1892
  470TMC3    H2 7054   3.619   3.840   0.536 -0.4949 -0.1581  0.8080
  470TMC3    C7 7055   3.462   3.650   0.432 -0.4259  0.5241  0.0883
  470TMC3    C8 7056   3.711   4.045   0.432  0.0398 -0.3900 -0.6488
  470TMC3    O1 7057   3.409   3.554   0.374 -0.0149 -0.0956 -0.1642
  470TMC3    O2 7058   3.665   4.051   0.547  0.4734  0.1372  0.3198
  471MPD2     C 7059   4.341   0.375  16.842  0.0138  0.1417 -0.2214
  471MPD2    C1 7060   4.409   0.267  16.783  0.4963 -0.2896 -0.0383
  471MPD2    C2 7061   4.505   0.198  16.861  0.1594 -0.2843  0.2550
  471MPD2    C3 7062   4.516   0.220  16.995  0.1555  0.1615  0.4994
  471MPD2    C4 7063   4.444   0.326  17.049 -0.3720  0.4957 -0.0703
  471MPD2    C5 7064   4.357   0.398  16.976 -0.5346 -0.5422  0.1645
  471MPD2     H 7065   4.562   0.119  16.815 -2.5447 -1.9171 -0.3043
  471MPD2    H1 7066   4.450   0.349  17.155  1.6891 -2.0258  0.3555
  471MPD2    H2 7067   4.264   0.432  16.793  0.1618  0.6730  0.1684
  471MPD2    H3 7068   4.289   0.469  17.023 -0.7213  0.4047 -1.5429
  471MPD2     N 7069   4.579   0.130  17.092  0.2504  0.6407 -0.2844
  471MPD2    H5 7070   4.558   0.134  17.191 -1.0702  1.3156 -0.5846
  471MPD2    N1 7071   4.394   0.230  16.643 -0.0227 -0.0832 -0.1193
  471MPD2    H7 7072   4.433   0.141  16.613  0.4312  0.6267 -1.6168
  472TMC3    C1 7073   4.290   0.215  16.436  0.5879 -0.1273  0.2213
  472TMC3    C2 7074   4.193   0.271  16.361 -0.2929  0.6164 -0.1262
  472TMC3    C3 7075   4.122   0.180  16.279 -0.0266  0.3058  0.1154
  472TMC3    C4 7076   4.309   0.080  16.430  0.7446  0.0781 -0.1856
  472TMC3    C5 7077   4.239   4.740  16.343 -0.4244 -0.1449 -0.5047
  472TMC3    C6 7078   4.129   0.046  16.279 -0.1691 -0.9936  0.0001
  472TMC3     C 7079   4.314   0.290  16.555  0.5711 -0.2011 -0.7099
  472TMC3     O 7080   4.248   0.393  16.570  0.5115 -0.0728  0.4844
  472TMC3     H 7081   4.186   0.379  16.356 -0.7061  0.6499  1.2849
  472TMC3    H1 7082   4.389   0.038  16.490 -0.6241 -3.6969 -0.9889
  472TMC3    H2 7083   4.047   4.731  16.236 -1.4404 -0.5292  1.7864
  472TMC3    C7 7084   4.238   4.606  16.377 -0.1864  0.5510  0.3740
  472TMC3    C8 7085   3.990   0.230  16.246  0.0091  0.2422 -0.5032
  472TMC3    O1 7086   4.273   4.575  16.489 -0.0392 -0.4362 -0.2624
  472TMC3    O2 7087   3.983   0.314  16.156 -0.1555 -0.1255 -0.0146
  473MPD2     C 7088   4.088   2.121  14.264 -0.3477  1.1011 -0.2452
  473MPD2    C1 7089   3.997   2.228  14.272 -0.6705 -0.0549 -0.6413
  473MPD2    C2 7090   4.029   2.323  14.365  0.5072  0.2566  0.8847
  473MPD2    C3 7091   4.138   2.322  14.446  0.1321  0.1205  0.5431
  473MPD2    C4 7092   4.226   2.218  14.429 -0.6380 -0.5485 -0.7162
  473MPD2    C5 7093   4.203   2.136  14.330 -0.1026  0.0655  0.4019
  473MPD2     H 7094   3.964   2.409  14.359  1.4957  1.0168  0.9681
  473MPD2    H1 7095   4.321   2.204  14.481  1.2354  1.3778 -3.6033
  473MPD2    H2 7096   4.077   2.040  14.193  0.8180 -1.1882  2.1742
  473MPD2    H3 7097   4.285   2.069  14.306  0.3959  1.0365 -0.6093
  473MPD2     N 7098   4.158   2.427  14.533 -0.0081  0.4770  0.1163
  473MPD2    H5 7099   4.249   2.437  14.578  0.6040  1.3947 -1.3393
  473MPD2    N1 7100   3.874   2.234  14.195 -0.0198  0.2012  0.4170
  473MPD2    H7 7101   3.804   2.302  14.222 -1.0001 -0.8416  0.4948
  474TMC3    C1 7102   4.118   2.643  14.637  0.2524 -0.5289 -0.2778
  474TMC3    C2 7103   4.035   2.744  14.660  0.2142 -0.0224  0.3943
  474TMC3    C3 7104   4.091   2.864  14.713  0.6714  0.3587 -0.7864
  474TMC3    C4 7105   4.260   2.657  14.648  0.0557  0.2139 -0.0202
  474TMC3    C5 7106   4.304   2.781  14.689  0.5952  0.2542 -0.2599
  474TMC3    C6 7107   4.225   2.882  14.727  0.0393 -0.2922  0.5435
  474TMC3     C 7108   4.063   2.520  14.577 -0.4751 -0.3915 -0.3410
  474TMC3     O 7109   3.944   2.521  14.542  0.6350 -0.0736  0.4169
  474TMC3     H 7110   3.928   2.736  14.647  0.4082 -0.3986 -0.9762
  474TMC3    H1 7111   4.331   2.575  14.643  0.9141  0.9740 -0.1115
  474TMC3    H2 7112   4.266   2.975  14.764  0.2561  0.5152 -1.7160
  474TMC3    C7 7113   4.441   2.784  14.726  0.3280  0.0906  0.3910
  474TMC3    C8 7114   4.007   2.985  14.697 -0.1993  0.2380 -0.4799
  474TMC3    O1 7115   4.519   2.713  14.660  0.0584  0.1094  0.5874
  474TMC3    O2 7116   3.890   2.970  14.703 -0.0354 -0.1309  0.4727
  475MPD2     C 7117   2.512   1.091  11.202 -0.3148 -0.0040 -0.1523
  475MPD2    C1 7118   2.481   1.214  11.238 -0.4577 -0.2910  0.0642
  475MPD2    C2 7119   2.363   1.271  11.194 -0.0106  0.2763 -0.1914
  475MPD2    C3 7120   2.271   1.198  11.127  0.4194  0.5765 -0.1650
  475MPD2    C4 7121   2.304   1.068  11.093 -0.0817 -0.6154 -0.6503
  475MPD2    C5 7122   2.425   1.015  11.130 -0.4832  0.0126  0.6829
  475MPD2     H 7123   2.344   1.377  11.210 -1.7663  0.2332 -2.1059
  475MPD2    H1 7124   2.239   1.005  11.033 -2.0731  0.4946  0.3302
  475MPD2    H2 7125   2.594   1.034  11.244  0.5195  1.2094 -0.1612
  475MPD2    H3 7126   2.435   0.908  11.116  0.9599  0.1015  1.0377
  475MPD2     N 7127   2.150   1.252  11.092 -0.1907 -0.5525  0.3346
  475MPD2    H5 7128   2.131   1.348  11.120 -0.7244 -1.0030  1.5258
  475MPD2    N1 7129   2.570   1.286  11.322  0.1629  0.0124 -0.2055
  475MPD2    H7 7130   2.541   1.377  11.356  0.1082  0.8852 -2.5867
  476TMC3    C1 7131   2.780   1.356  11.407  0.2817  0.4471  0.2134
  476TMC3    C2 7132   2.827   1.453  11.317 -0.0936  0.1779 -0.7333
  476TMC3    C3 7133   2.795   1.581  11.344  0.3363 -0.4015 -0.4472
  476TMC3    C4 7134   2.720   1.391  11.521 -0.1845 -0.1012  0.2430
  476TMC3    C5 7135   2.721   1.518  11.563  0.7956 -0.3402 -0.3025
  476TMC3    C6 7136   2.751   1.617  11.471  0.3896  0.5751 -0.3770
  476TMC3     C 7137   2.710   1.253  11.336 -0.5916  0.0780 -0.1753
  476TMC3     O 7138   2.785   1.177  11.273  0.6969 -0.0073 -0.5082
  476TMC3     H 7139   2.862   1.425  11.218  0.3613 -0.4884 -0.3894
  476TMC3    H1 7140   2.679   1.309  11.580  1.9654  0.3060  2.3245
  476TMC3    H2 7141   2.727   1.720  11.495 -0.2854  0.1588  0.7336
  476TMC3    C7 7142   2.628   1.553  11.672 -0.3241 -0.0505 -0.1822
  476TMC3    C8 7143   2.703   1.643  11.251  0.2728 -0.4426 -0.7285
  476TMC3    O1 7144   2.540   1.468  11.700 -0.0225  0.0949 -0.1160
  476TMC3    O2 7145   2.666   1.755  11.278  0.9003 -0.1404 -1.2420
  477MPD2     C 7146   0.056   2.460  11.830 -0.2628  0.2033 -0.3782
  477MPD2    C1 7147   0.018   2.338  11.770  0.6472  0.5947 -0.4143
  477MPD2    C2 7148   0.038   2.216  11.831  0.5455 -0.0826  0.1881
  477MPD2    C3 7149   0.095   2.209  11.957  0.2693 -0.0647 -0.8265
  477MPD2    C4 7150   0.122   2.329  12.020  0.8760  0.9021 -1.1816
  477MPD2    C5 7151   0.112   2.453  11.952  0.1092  0.0225 -0.2364
  477MPD2     H 7152   0.013   2.122  11.782  0.8170  0.8236 -1.6848
  477MPD2    H1 7153   0.167   2.337  12.119  1.8375 -1.0535 -1.4584
  477MPD2    H2 7154   0.043   2.555  11.780  1.8445  0.5094 -0.3308
  477MPD2    H3 7155   0.161   2.535  12.001  0.1098  0.8912 -1.6766
  477MPD2     N 7156   0.101   2.083  12.018 -0.0427 -0.2424  0.2583
  477MPD2    H5 7157   0.057   2.006  11.970 -1.4300  0.7636 -0.0685
  477MPD2    N1 7158   4.690   2.354  11.650 -0.3380 -0.3064 -0.0153
  477MPD2    H7 7159   4.651   2.444  11.626 -1.6872 -1.2881 -1.5781
  478TMC3    C1 7160   4.563   2.288  11.461 -0.5077 -0.0537 -0.2305
  478TMC3    C2 7161   4.487   2.394  11.482  0.2911 -0.5372 -0.4587
  478TMC3    C3 7162   4.404   2.426  11.377 -0.1508 -0.1636  0.1214
  478TMC3    C4 7163   4.557   2.216  11.344  0.1443  0.2880 -0.0301
  478TMC3    C5 7164   4.477   2.265  11.244 -0.0988 -0.2371 -0.4531
  478TMC3    C6 7165   4.405   2.376  11.254 -0.5814  0.1508 -0.3364
  478TMC3     C 7166   4.663   2.250  11.562 -0.1360  0.2127 -0.1922
  478TMC3     O 7167   4.706   2.134  11.551 -0.3026 -0.3899  0.2341
  478TMC3     H 7168   4.465   2.427  11.583 -2.0328  0.8959 -1.4235
  478TMC3    H1 7169   4.612   2.125  11.325 -3.3231 -1.8813  0.4020
  478TMC3    H2 7170   4.322   2.397  11.188  0.6392 -0.4538 -2.0708
  478TMC3    C7 7171   4.521   2.229  11.115 -0.5410  0.7468 -0.1165
  478TMC3    C8 7172   4.286   2.488  11.426  0.2310 -0.8456  0.4373
  478TMC3    O1 7173   4.613   2.149  11.104 -0.2615  0.3536 -0.6447
  478TMC3    O2 7174   4.261   2.479  11.544 -0.0134 -0.0444  0.4271
  479MPD2     C 7175   3.797   4.334  15.614  0.1980  0.4232 -0.2293
  479MPD2    C1 7176   3.705   4.332  15.714 -0.0348 -0.2231 -0.0075
  479MPD2    C2 7177   3.736   4.369  15.846 -0.6400  0.3639 -0.3585
  479MPD2    C3 7178   3.855   4.435  15.867 -0.6560 -0.7876 -0.2895
  479MPD2    C4 7179   3.951   4.440  15.766 -0.2340  0.2657  0.3520
  479MPD2    C5 7180   3.923   4.380  15.643 -0.2747  0.0196 -0.4846
  479MPD2     H 7181   3.657   4.367  15.920 -0.8624  0.0039 -0.6046
  479MPD2    H1 7182   4.042   4.498  15.778 -0.1493  0.1592  0.2256
  479MPD2    H2 7183   3.766   4.315  15.512  0.2931  0.9701 -0.3649
  479MPD2    H3 7184   3.995   4.393  15.562 -1.4886  1.1232 -1.3878
  479MPD2     N 7185   3.901   4.502  15.984 -0.8464 -0.3330 -0.5242
  479MPD2    H5 7186   4.000   4.527  15.989 -1.4542  2.0264 -0.0933
  479MPD2    N1 7187   3.574   4.301  15.673 -0.5910 -0.5233  0.2290
  479MPD2    H7 7188   3.554   4.297  15.573 -0.2595 -0.1334  0.1494
  480TMC3    C1 7189   3.481   4.500  16.113  0.0939 -0.3173  0.7061
  480TMC3    C2 7190   3.427   4.546  15.991 -1.2161 -0.3069  0.4748
  480TMC3    C3 7191   3.512   4.619  15.911 -0.0739  1.1557 -0.2307
  480TMC3    C4 7192   3.607   4.523  16.150  0.4500 -0.1968 -0.2219
  480TMC3    C5 7193   3.686   4.582  16.063 -0.8352  0.7050 -0.5003
  480TMC3    C6 7194   3.642   4.644  15.954 -0.6151  0.5341 -0.3241
  480TMC3     C 7195   3.424   4.391  16.182  0.1210  0.8832 -0.1700
  480TMC3     O 7196   3.482   4.346  16.277 -0.2097 -0.8001 -0.0060
  480TMC3     H 7197   3.328   4.514  15.961 -0.9785  0.3719 -0.9934
  480TMC3    H1 7198   3.649   4.467  16.233  3.8622  3.4107  0.4864
  480TMC3    H2 7199   3.713   4.701  15.896 -0.7898  1.6677  0.5750
  480TMC3    C7 7200   3.825   4.550  16.086  0.0917  0.0503 -0.6613
  480TMC3    C8 7201   3.467   4.645  15.780  0.6060  0.8535  0.3825
  480TMC3    O1 7202   3.874   4.587  16.191  0.4932 -0.4073 -0.1618
  480TMC3    O2 7203   3.347   4.641  15.764  0.0745  0.9340  0.1402
  481MPD2     C 7204   0.750   4.071  14.596 -0.5723 -0.2898  0.6443
  481MPD2    C1 7205   0.620   4.036  14.632  0.0462  0.5822  0.0423
  481MPD2    C2 7206   0.591   4.009  14.767  0.0316 -0.7163  0.6817
  481MPD2    C3 7207   0.685   4.022  14.869 -0.0252 -0.4288 -0.6376
  481MPD2    C4 7208   0.812   4.026  14.824  0.2302 -0.3017  0.2466
  481MPD2    C5 7209   0.848   4.050  14.691  0.4076  0.2787 -0.4588
  481MPD2     H 7210   0.485   3.996  14.788 -0.5653  0.1926 -1.7394
  481MPD2    H1 7211   0.896   4.018  14.892 -0.1164  1.7593  0.9397
  481MPD2    H2 7212   0.781   4.094  14.494 -1.9185  0.3803  0.3867
  481MPD2    H3 7213   0.953   4.054  14.665  0.8994 -0.1706  1.4246
  481MPD2     N 7214   0.659   4.018  15.011 -0.0166  0.0603 -0.4179
  481MPD2    H5 7215   0.734   4.005  15.078 -0.9786 -1.0209  0.4498
  481MPD2    N1 7216   0.525   4.039  14.529  0.8165  0.3543  0.0963
  481MPD2    H7 7217   0.571   4.082  14.449  2.7657 -2.3308 -0.2171
  482TMC3    C1 7218   0.306   4.050  14.428  0.8713  0.2298  0.0034
  482TMC3    C2 7219   0.173   4.022  14.448 -0.4022  0.0118 -0.0592
  482TMC3    C3 7220   0.084   4.059  14.354  0.4669 -0.4340  0.9074
  482TMC3    C4 7221   0.354   4.121  14.322 -0.0657  0.0503 -0.1406
  482TMC3    C5 7222   0.250   4.178  14.250 -0.2025 -0.2959  0.0580
  482TMC3    C6 7223   0.121   4.141  14.254  0.0293  0.2575  0.6670
  482TMC3     C 7224   0.393   3.992  14.530  0.4554  0.1171 -0.5624
  482TMC3     O 7225   0.348   3.907  14.605  0.0508 -0.2640 -0.1876
  482TMC3     H 7226   0.137   3.957  14.527 -1.3181 -0.5613 -0.9460
  482TMC3    H1 7227   0.460   4.134  14.302 -0.4708  1.9678 -1.0000
  482TMC3    H2 7228   0.051   4.185  14.183  1.1748  1.8942  0.5352
  482TMC3    C7 7229   0.281   4.240  14.124  0.9558 -0.0397 -0.1882
  482TMC3    C8 7230   4.726   3.958  14.332  0.4505 -0.6310  0.2256
  482TMC3    O1 7231   0.194   4.231  14.042 -0.6282  0.1611 -0.0463
  482TMC3    O2 7232   4.718   3.856  14.403  0.0579 -0.1544 -0.7065
  483TMC3    C1 7233   3.385   2.979   1.096  0.0564  0.3020 -0.5355
  483TMC3    C2 7234   3.439   3.104   1.093 -0.3784  0.0663  0.1722
  483TMC3    C3 7235   3.555   3.130   1.161 -0.0548 -0.1180 -0.0076
  483TMC3    C4 7236   3.435   2.885   1.187 -0.5091 -0.1639  0.3271
  483TMC3    C5 7237   3.549   2.920   1.262 -0.4012  0.2821  0.4205
  483TMC3    C6 7238   3.602   3.044   1.256  0.4586 -0.1438 -0.5132
  483TMC3     C 7239   3.276   2.943   1.002 -0.4421 -0.4834 -0.8845
  483TMC3     O 7240   3.219   3.039   0.951  0.6568 -0.0856 -0.5516
  483TMC3     H 7241   3.402   3.177   1.022 -1.7633 -1.5086 -0.7213
  483TMC3    H1 7242   3.383   2.794   1.213  0.8922 -1.5230 -1.6300
  483TMC3    H2 7243   3.688   3.077   1.313  0.0021  0.9959 -0.4880
  483TMC3    C7 7244   3.616   2.820   1.342  0.4003  0.0260 -0.3451
  483TMC3    C8 7245   3.631   3.244   1.105 -0.1885 -0.4516 -0.1549
  483TMC3    O1 7246   3.581   2.705   1.326  0.7240 -0.1207  0.5889
  483TMC3    O2 7247   3.607   3.276   0.992  0.3364  0.1219  0.2528
  484MPD2     C 7248   0.633   0.690  12.356  0.5059  0.3091 -0.2220
  484MPD2    C1 7249   0.634   0.716  12.492  0.3506 -0.0140 -0.0069
  484MPD2    C2 7250   0.748   0.777  12.543  0.2856  0.8740 -0.4875
  484MPD2    C3 7251   0.858   0.793  12.462  0.1455  0.0641  0.1128
  484MPD2    C4 7252   0.858   0.761  12.331  0.3011  0.9430  0.0102
  484MPD2    C5 7253   0.745   0.715  12.283 -0.0298 -0.3266 -0.0726
  484MPD2     H 7254   0.747   0.800  12.649  1.1088  2.2237 -0.7731
  484MPD2    H1 7255   0.946   0.773  12.269  0.8043 -3.1430 -0.0154
  484MPD2    H2 7256   0.547   0.636  12.317 -1.1611  3.0972 -0.4073
  484MPD2    H3 7257   0.736   0.690  12.178  1.9561 -1.1053 -0.0634
  484MPD2     N 7258   0.982   0.843  12.508 -0.4585 -0.2782  0.2857
  484MPD2    H5 7259   1.065   0.830  12.452 -0.2368  0.6387  0.3990
  484MPD2    N1 7260   0.530   0.687  12.583  0.1265 -0.1978  0.3723
  484MPD2    H7 7261   0.549   0.707  12.680 -1.4225 -2.5284  1.1588
  485TMC3    C1 7262   1.133   0.930  12.668  0.1044 -0.3811 -0.3780
  485TMC3    C2 7263   1.194   0.812  12.699 -0.4246 -0.4029  0.2827
  485TMC3    C3 7264   1.306   0.823  12.773 -0.1501 -0.0653 -0.0723
  485TMC3    C4 7265   1.164   1.050  12.723 -0.4451  1.0731 -0.2648
  485TMC3    C5 7266   1.284   1.054  12.789  0.5783 -0.4348 -0.2209
  485TMC3    C6 7267   1.353   0.941  12.819 -0.2715  0.5147 -0.0564
  485TMC3     C 7268   0.996   0.909  12.627 -0.3226 -0.3720 -0.8400
  485TMC3     O 7269   0.913   0.971  12.696 -0.5576  0.0295  0.6077
  485TMC3     H 7270   1.177   0.726  12.635  0.7345  0.8856 -1.7677
  485TMC3    H1 7271   1.109   1.141  12.705 -1.5871  0.2576 -0.9262
  485TMC3    H2 7272   1.443   0.934  12.880  0.4188 -1.5052 -1.2787
  485TMC3    C7 7273   1.383   1.164  12.759 -0.1052 -0.1291  0.0351
  485TMC3    C8 7274   1.404   0.731  12.723  0.3142  0.2917  0.3746
  485TMC3    O1 7275   1.492   1.144  12.809  0.5422  0.3049 -0.3310
  485TMC3    O2 7276   1.373   0.613  12.705 -0.2832  0.3988 -0.1028
  486MPD2     C 7277   2.870   4.641  12.744 -0.9963 -0.2395  0.5102
  486MPD2    C1 7278   2.782   4.551  12.692 -0.1872  0.5179 -0.2402
  486MPD2    C2 7279   2.690   4.598  12.596  0.4690 -0.5458  0.4515
  486MPD2    C3 7280   2.700   4.731  12.557  0.2200  0.9039  0.2077
  486MPD2    C4 7281   2.793   0.075  12.611 -0.0472 -0.1496 -1.1344
  486MPD2    C5 7282   2.875   0.032  12.713  0.1302  0.1762  0.0699
  486MPD2     H 7283   2.611   4.531  12.564 -1.3428  0.5827  2.5641
  486MPD2    H1 7284   2.801   0.180  12.585 -0.3657  0.0440 -0.4602
  486MPD2    H2 7285   2.935   4.593  12.817 -3.4789 -1.5959  1.8170
  486MPD2    H3 7286   2.934   0.100  12.772  1.8812 -0.0908 -1.3789
  486MPD2     N 7287   2.612   0.034  12.452 -0.5140 -0.7323  0.4605
  486MPD2    H5 7288   2.553   4.709  12.401  0.5491 -0.6774 -0.8308
  486MPD2    N1 7289   2.783   4.414  12.733 -0.0848 -0.0137 -0.1435
  486MPD2    H7 7290   2.853   4.380  12.798  0.2917 -0.5601 -0.8340
  487TMC3    C1 7291   2.750   4.178  12.727  0.4043 -0.5120  0.4715
  487TMC3    C2 7292   2.735   4.069  12.643 -0.0407  0.0028 -0.7294
  487TMC3    C3 7293   2.801   3.959  12.673 -0.6408  0.1798 -0.3281
  487TMC3    C4 7294   2.823   4.172  12.843  0.2478  0.4611  0.3577
  487TMC3    C5 7295   2.900   4.060  12.867  0.4262  0.1014  0.0183
  487TMC3    C6 7296   2.898   3.963  12.771  0.3109 -0.3028 -0.1918
  487TMC3     C 7297   2.711   4.311  12.678  0.2765 -0.0195  0.5332
  487TMC3     O 7298   2.643   4.308  12.574  0.0101 -0.8604  0.2282
  487TMC3     H 7299   2.659   4.077  12.566  0.4570  2.1021 -1.0104
  487TMC3    H1 7300   2.839   4.255  12.912 -1.4918  1.7317 -0.7836
  487TMC3    H2 7301   2.948   3.870  12.793  1.1272  0.0880 -0.3952
  487TMC3    C7 7302   2.921   4.019  13.005  0.0084 -0.3332  0.7362
  487TMC3    C8 7303   2.790   3.845  12.593  0.3856 -0.0615 -0.8691
  487TMC3    O1 7304   2.886   4.102  13.088 -0.1307 -0.0714 -0.6747
  487TMC3    O2 7305   2.805   3.877  12.472  0.5165 -0.5552 -0.4058
  488MPD2     C 7306   3.624   1.318  16.551 -0.3795 -0.3654  0.2618
  488MPD2    C1 7307   3.685   1.421  16.613  0.1400  0.2702 -0.0795
  488MPD2    C2 7308   3.692   1.428  16.756 -0.2644  0.8474 -1.1708
  488MPD2    C3 7309   3.645   1.319  16.824  0.0244  0.3525 -0.5849
  488MPD2    C4 7310   3.595   1.209  16.760 -0.1509 -0.0829  0.0214
  488MPD2    C5 7311   3.579   1.210  16.624 -0.0954  0.6833 -0.0740
  488MPD2     H 7312   3.738   1.513  16.805  0.7885 -1.0450  1.1208
  488MPD2    H1 7313   3.560   1.120  16.812 -1.8372  0.3035 -0.4316
  488MPD2    H2 7314   3.625   1.305  16.443  0.8379  1.2627  0.0669
  488MPD2    H3 7315   3.550   1.122  16.568 -1.2799 -0.1297  1.8130
  488MPD2     N 7316   3.623   1.341  16.966  0.4340  0.0669 -0.5910
  488MPD2    H5 7317   3.625   1.436  17.001 -0.5865  0.9404 -2.9124
  488MPD2    N1 7318   3.735   1.535  16.551  0.6193  0.6719  0.3949
  488MPD2    H7 7319   3.770   1.603  16.618 -0.3820  0.3721  1.2321
  489TMC3    C1 7320   3.593   1.306  17.198 -0.5099  0.2534 -0.0055
  489TMC3    C2 7321   3.623   1.438  17.214  0.0435  0.7040 -0.0627
  489TMC3    C3 7322   3.580   1.498  17.329  0.4356 -0.6049 -0.2898
  489TMC3    C4 7323   3.522   1.233  17.290 -0.0897  0.2581  0.1190
  489TMC3    C5 7324   3.469   1.303  17.398  0.1300  0.2537  0.6463
  489TMC3    C6 7325   3.497   1.433  17.414  1.1633  0.5247  0.6518
  489TMC3     C 7326   3.585   1.249  17.060 -0.1056 -0.0692  0.5812
  489TMC3     O 7327   3.544   1.134  17.040  0.5268  0.5796 -0.2750
  489TMC3     H 7328   3.686   1.491  17.143 -0.8638  1.0004 -0.6434
  489TMC3    H1 7329   3.502   1.127  17.281  2.0104 -0.0745 -0.7081
  489TMC3    H2 7330   3.458   1.481  17.503 -0.2986  2.1083 -0.8617
  489TMC3    C7 7331   3.409   1.233  17.503  0.1607 -0.0456 -0.4542
  489TMC3    C8 7332   3.603   1.641  17.322 -0.3802  0.3859  0.2392
  489TMC3    O1 7333   3.426   1.274  17.617 -0.0054 -0.3730  0.2309
  489TMC3    O2 7334   3.690   1.690  17.249 -0.3227 -0.2714 -0.3871
  490MPD2     C 7335   4.348   1.488  17.436  0.1592 -0.6985  0.5681
  490MPD2    C1 7336   4.359   1.380  17.355  0.4088  0.1758 -0.4985
  490MPD2    C2 7337   4.429   1.392  17.237 -0.1049 -0.2013 -1.0640
  490MPD2    C3 7338   4.497   1.504  17.203  0.1979  0.0273 -0.2783
  490MPD2    C4 7339   4.481   1.611  17.284  0.3126  0.8158  0.0882
  490MPD2    C5 7340   4.403   1.608  17.397 -0.7773  0.0269 -0.7432
  490MPD2     H 7341   4.427   1.313  17.163 -1.3429  1.6013 -2.9545
  490MPD2    H1 7342   4.534   1.704  17.268  0.1650  0.6145 -1.5723
  490MPD2    H2 7343   4.302   1.490  17.535  0.2764 -0.9283  0.6291
  490MPD2    H3 7344   4.399   1.697  17.458 -0.4504 -0.7570  0.4172
  490MPD2     N 7345   4.574   1.526  17.081  0.0685  0.5144  0.4399
  490MPD2    H5 7346   4.608   1.619  17.061 -0.9497  0.1176 -3.0039
  490MPD2    N1 7347   4.301   1.256  17.389  0.2549  0.1114 -0.0204
  490MPD2    H7 7348   4.325   1.189  17.316 -0.5230  0.9676 -1.0518
  491TMC3    C1 7349   4.223   1.074  17.511  0.3848 -0.0197 -0.3703
  491TMC3    C2 7350   4.217   1.008  17.631  0.0412  0.0414  0.5007
  491TMC3    C3 7351   4.198   0.877  17.622 -0.4813 -0.0947 -0.3588
  491TMC3    C4 7352   4.188   1.019  17.387 -0.6390 -0.8576  0.9346
  491TMC3    C5 7353   4.155   0.884  17.395 -0.0257  0.0533 -0.3050
  491TMC3    C6 7354   4.162   0.811  17.515 -0.3774 -0.2828  0.2000
  491TMC3     C 7355   4.242   1.217  17.510  0.2941  0.1846  0.3411
  491TMC3     O 7356   4.203   1.269  17.614  0.0750  0.2320  0.4464
  491TMC3     H 7357   4.239   1.054  17.726  0.0336  0.2438  0.4060
  491TMC3    H1 7358   4.181   1.087  17.303 -0.0300 -2.3835 -0.3391
  491TMC3    H2 7359   4.124   0.710  17.521  2.1522 -1.3257 -1.2852
  491TMC3    C7 7360   4.119   0.807  17.275  0.4413 -0.3700 -0.2576
  491TMC3    C8 7361   4.193   0.794  17.745 -0.6406  0.6442  0.6730
  491TMC3    O1 7362   4.052   0.705  17.292  0.4000  0.5686 -0.0047
  491TMC3    O2 7363   4.129   0.833   0.075 -0.3408 -0.1832 -0.3944
  492MPD2     C 7364   4.257   0.868  11.888 -0.4500  0.3599 -0.5029
  492MPD2    C1 7365   4.182   0.789  11.811  0.7124 -0.7061  0.1061
  492MPD2    C2 7366   4.098   0.689  11.854 -0.1086 -0.2425 -0.2310
  492MPD2    C3 7367   4.081   0.669  11.987  0.6631  0.1581  0.5467
  492MPD2    C4 7368   4.145   0.757  12.067  0.7017  0.8898  0.3676
  492MPD2    C5 7369   4.238   0.850  12.025  0.0618  0.5974 -0.0434
  492MPD2     H 7370   4.049   0.618  11.788  0.5543 -1.4190  0.5290
  492MPD2    H1 7371   4.122   0.765  12.172 -0.0684  0.9576  0.1931
  492MPD2    H2 7372   4.334   0.937  11.855 -0.1706  1.2167  1.9157
  492MPD2    H3 7373   4.277   0.921  12.097  0.3127 -0.2415  0.6451
  492MPD2     N 7374   3.998   0.570  12.052 -0.4453 -0.0038  0.7070
  492MPD2    H5 7375   4.011   0.562  12.152 -0.5868  0.7464  0.7863
  492MPD2    N1 7376   4.213   0.808  11.672  0.1689 -0.0690  0.0847
  492MPD2    H7 7377   4.273   0.888  11.653 -0.7919  0.9953  1.4515
  493TMC3    C1 7378   4.166   0.814  11.439  0.3379 -0.7480  0.3261
  493TMC3    C2 7379   4.275   0.895  11.418  0.4629  0.0384 -0.0848
  493TMC3    C3 7380   4.288   0.951  11.294  0.4034  0.2273 -0.0596
  493TMC3    C4 7381   4.058   0.815  11.354 -0.1545  0.4682  0.2851
  493TMC3    C5 7382   4.081   0.859  11.226  0.1187  0.8159 -0.6738
  493TMC3    C6 7383   4.196   0.937  11.192 -0.3456  0.0951  0.2193
  493TMC3     C 7384   4.145   0.749  11.566 -0.3459 -0.1701 -0.2517
  493TMC3     O 7385   4.060   0.662  11.560  0.4788 -0.3943  0.0227
  493TMC3     H 7386   4.353   0.893  11.493  1.0900 -1.3042 -0.7543
  493TMC3    H1 7387   3.966   0.763  11.380 -0.0940 -1.4774 -3.4539
  493TMC3    H2 7388   4.209   0.963  11.088  2.4515 -0.8153  0.3396
  493TMC3    C7 7389   3.966   0.837  11.132  0.3372  0.1515 -0.4871
  493TMC3    C8 7390   4.418   1.003  11.261 -0.2199  0.7383 -0.3543
  493TMC3    O1 7391   3.877   0.759  11.156 -0.0745 -0.3281  0.5345
  493TMC3    O2 7392   4.506   0.985  11.336 -0.5303  0.2323 -0.0572
  494TMC3    C1 7393   0.765   3.044   0.535  0.4001  0.6962 -0.2678
  494TMC3    C2 7394   0.795   2.916   0.505  0.1480 -0.1269 -0.0376
  494TMC3    C3 7395   0.746   2.860   0.392 -0.1864 -0.5990 -0.2909
  494TMC3    C4 7396   0.678   3.117   0.461  0.1507  0.3076  0.0535
  494TMC3    C5 7397   0.619   3.056   0.354  0.0428  0.1136  1.0202
  494TMC3    C6 7398   0.649   2.929   0.317 -0.2328 -0.4790 -0.5755
  494TMC3     C 7399   0.800   3.089   0.668  0.7629  0.5320 -0.5196
  494TMC3     O 7400   0.882   3.024   0.726  0.6581 -0.0614  0.2852
  494TMC3     H 7401   0.861   2.862   0.572  0.5727 -0.0735 -0.4096
  494TMC3    H1 7402   0.672   3.223   0.482 -0.8938  0.4636 -1.0621
  494TMC3    H2 7403   0.586   2.870   0.251 -1.2294 -0.4772  0.3811
  494TMC3    C7 7404   0.569   3.132   0.245  0.3130 -0.1825 -0.5125
  494TMC3    C8 7405   0.769   2.718   0.376  0.3008 -0.6657  0.0805
  494TMC3    O1 7406   0.537   3.073   0.142  0.0332 -0.3494 -0.0219
  494TMC3    O2 7407   0.816   2.661   0.471  0.1470  0.3614 -0.0136
  495TMC3    C1 7408   4.107   4.466  15.034  0.2740 -0.1353 -0.3171
  495TMC3    C2 7409   4.074   4.544  14.929  0.2277  0.3652 -0.1764
  495TMC3    C3 7410   4.008   4.663  14.946  0.1992  0.2965 -0.2151
  495TMC3    C4 7411   4.070   4.509  15.161 -0.1690  0.4706  0.1104
  495TMC3    C5 7412   3.997   4.623  15.177  0.8287  0.2305  0.5740
  495TMC3    C6 7413   3.973   4.706  15.078 -0.2217  0.2912  0.3089
  495TMC3     C 7414   4.102   4.326  15.002  0.1112 -0.1853 -0.4252
  495TMC3     O 7415   4.104   4.300  14.882 -0.2388  0.3460  0.2408
  495TMC3     H 7416   4.068   4.497  14.832  0.7166  0.1175 -0.0819
  495TMC3    H1 7417   4.064   4.438  15.243  2.2287 -1.8707 -1.7305
  495TMC3    H2 7418   3.906   0.049  15.089 -0.4487  0.1611 -0.0823
  495TMC3    C7 7419   3.899   4.608  15.284  1.0133 -0.1247  0.1898
  495TMC3    C8 7420   3.897   4.683  14.853 -0.3360  0.2610 -0.0137
  495TMC3    O1 7421   3.951   4.581  15.392 -0.8619  0.0721 -0.0584
  495TMC3    O2 7422   3.859   4.590  14.789 -0.1587  0.0560 -0.4527
  496MPD2     C 7423   0.634   4.734  14.931  0.2627  0.0576 -0.4216
  496MPD2    C1 7424   0.727   4.724  15.028  0.4886  0.7955 -1.1296
  496MPD2    C2 7425   0.685   4.735  15.160 -0.6472 -0.1695  0.1461
  496MPD2    C3 7426   0.553   0.007  15.184  0.0466 -0.3169  0.3886
  496MPD2    C4 7427   0.458   0.000  15.084  0.2360  0.1051  0.5684
  496MPD2    C5 7428   0.502   4.739  14.954  0.1958 -0.1755  0.9376
  496MPD2     H 7429   0.767   4.727  15.231  0.1057 -0.0245 -0.7081
  496MPD2    H1 7430   0.349   0.005  15.085  0.2154 -0.3469  0.4709
  496MPD2    H2 7431   0.651   4.738  14.824  0.7392  2.7381 -0.2522
  496MPD2    H3 7432   0.436   4.733  14.868 -0.1981  0.1862  1.2146
  496MPD2     N 7433   0.501   0.022  15.318  0.0300 -0.1658 -0.2115
  496MPD2    H5 7434   0.399   0.017  15.323  0.1798 -1.3176  1.6182
  496MPD2    N1 7435   0.863   4.709  15.000  0.4917  0.0725  0.9479
  496MPD2    H7 7436   0.930   4.716  15.077  0.1652  2.2927  1.0341
  497TMC3    C1 7437   0.497   0.035  15.556  0.4570  0.0372  0.5435
  497TMC3    C2 7438   0.384   0.109  15.546  0.0709  0.1395 -0.0542
  497TMC3    C3 7439   0.316   0.146  15.658  0.5897  0.1707 -0.4891
  497TMC3    C4 7440   0.530   4.712  15.671 -0.0721  0.5513  0.8721
  497TMC3    C5 7441   0.456   0.004  15.782 -0.0750 -0.4760 -0.2075
  497TMC3    C6 7442   0.359   0.100  15.786 -0.1790  0.6303  0.3187
  497TMC3     C 7443   0.573   0.017  15.434  0.2525  0.1254  0.0390
  497TMC3     O 7444   0.691   0.012  15.444 -0.5129 -0.5126 -0.0869
  497TMC3     H 7445   0.359   0.154  15.451  1.6610  1.9971  0.4196
  497TMC3    H1 7446   0.614   4.644  15.669  0.6184  1.5592 -4.9023
  497TMC3    H2 7447   0.336   0.134  15.886 -0.2721  2.3923 -0.2979
  497TMC3    C7 7448   0.477   4.674  15.904 -0.4172 -0.2743  0.3738
  497TMC3    C8 7449   0.238   0.263  15.659 -0.0011  0.2385 -0.4909
  497TMC3    O1 7450   0.375   4.648  15.967  0.0420  0.2328 -0.0239
  497TMC3    O2 7451   0.203   0.317  15.556 -0.1562  0.3097  0.9150
  498MPD2     C 7452   1.500   1.354  10.616 -0.7557 -0.3062  0.6375
  498MPD2    C1 7453   1.628   1.302  10.605  1.0916 -0.3185  0.1103
  498MPD2    C2 7454   1.646   1.164  10.641  0.7340  0.3072  0.1071
  498MPD2    C3 7455   1.541   1.085  10.676  0.1006 -0.1519  0.1120
  498MPD2    C4 7456   1.414   1.139  10.675  0.6261  0.1926  0.0486
  498MPD2    C5 7457   1.394   1.265  10.640  0.3353  0.3650 -1.2688
  498MPD2     H 7458   1.741   1.113  10.631  1.8452  2.8401 -2.1983
  498MPD2    H1 7459   1.322   1.085  10.691 -0.0624  1.3287 -0.1183
  498MPD2    H2 7460   1.470   1.455  10.593  3.0414  0.9083  1.0138
  498MPD2    H3 7461   1.295   1.308  10.630 -0.4428 -0.9643  0.7159
  498MPD2     N 7462   1.568   0.949  10.716  0.6132 -0.3502  0.3948
  498MPD2    H5 7463   1.666   0.927  10.707  0.6853 -0.3593  1.2433
  498MPD2    N1 7464   1.743   1.385  10.571 -0.2255 -0.7820  0.0733
  498MPD2    H7 7465   1.826   1.328  10.561 -0.1788 -0.4297 -1.5302
  499TMC3    C1 7466   1.845   1.570  10.478  0.2903  0.1302  0.2045
  499TMC3    C2 7467   1.943   1.485  10.433 -0.1317 -0.6910  0.3392
  499TMC3    C3 7468   2.031   1.544  10.345  0.7752  0.3405  0.2052
  499TMC3    C4 7469   1.827   1.694  10.433 -0.4902 -0.4563  0.4540
  499TMC3    C5 7470   1.915   1.744  10.339  0.3922 -0.0339  0.0543
  499TMC3    C6 7471   2.018   1.669  10.290  0.8024 -0.4923  0.2331
  499TMC3     C 7472   1.736   1.522  10.553  0.1947 -0.0042  0.8205
  499TMC3     O 7473   1.646   1.597  10.592  0.1376  0.2208  0.5986
  499TMC3     H 7474   1.961   1.382  10.461 -1.3162 -0.4801  1.8451
  499TMC3    H1 7475   1.747   1.748  10.483 -0.2620  1.0137 -0.7741
  499TMC3    H2 7476   2.094   1.709  10.223 -0.1913  3.9704  1.8245
  499TMC3    C7 7477   1.901   1.875  10.277  0.4126 -0.2305  0.4060
  499TMC3    C8 7478   2.131   1.456  10.294 -0.3358 -0.1355 -0.5235
  499TMC3    O1 7479   1.991   1.921  10.208  0.0388  0.3925  0.3521
  499TMC3    O2 7480   2.170   1.363  10.363 -0.0515  0.4467  0.6446
  500MPD2     C 7481   3.106   1.539  11.128  0.6421 -0.2335 -0.9628
  500MPD2    C1 7482   3.081   1.673  11.127  0.8022  0.0638 -0.3672
  500MPD2    C2 7483   2.993   1.730  11.039  0.4116 -0.3237 -0.6274
  500MPD2    C3 7484   2.919   1.641  10.955  0.1996 -0.1175 -0.7895
  500MPD2    C4 7485   2.947   1.507  10.955 -0.1988 -0.5968  0.0424
  500MPD2    C5 7486   3.044   1.462  11.037  0.2372 -0.4627 -0.0495
  500MPD2     H 7487   2.981   1.838  11.031  0.4821 -0.2319  0.5033
  500MPD2    H1 7488   2.895   1.441  10.885 -1.2908 -0.8876  1.1221
  500MPD2    H2 7489   3.174   1.496  11.200  0.7142  3.4219  1.1730
  500MPD2    H3 7490   3.079   1.359  11.038 -1.0602 -0.9032  0.5361
  500MPD2     N 7491   2.828   1.686  10.859  0.1883 -0.3973 -0.1722
  500MPD2    H5 7492   2.753   1.626  10.827 -0.8121  1.0802 -0.5792
  500MPD2    N1 7493   3.159   1.764  11.208  0.3835  0.3325  0.9473
  500MPD2    H7 7494   3.134   1.862  11.204 -2.0653 -0.2559  1.7224
  501TMC3    C1 7495   3.349   1.856  11.306  1.0836  0.2187  0.0858
  501TMC3    C2 7496   3.341   1.944  11.200 -0.4197 -0.5118 -0.6470
  501TMC3    C3 7497   3.434   2.044  11.210 -0.6754  0.5724  0.0750
  501TMC3    C4 7498   3.449   1.851  11.394  0.3131 -0.3865 -0.4097
  501TMC3    C5 7499   3.536   1.956  11.407  0.7841 -0.2924  0.2775
  501TMC3    C6 7500   3.519   2.055  11.318  0.2972  0.2159  0.7441
  501TMC3     C 7501   3.274   1.730  11.277  0.7284 -0.0732  0.6242
  501TMC3     O 7502   3.307   1.627  11.333  0.3009  0.0941  0.6884
  501TMC3     H 7503   3.289   1.936  11.106 -1.8075  1.1999 -0.0172
  501TMC3    H1 7504   3.447   1.772  11.468  0.8332 -0.6652 -0.6920
  501TMC3    H2 7505   3.595   2.132  11.317  1.7073 -1.1897 -1.0737
  501TMC3    C7 7506   3.652   1.945  11.497  0.2559 -0.3345  0.6982
  501TMC3    C8 7507   3.458   2.118  11.089  0.1713 -1.3020  0.6662
  501TMC3    O1 7508   3.661   1.837  11.559  0.5148 -0.2904  0.0930
  501TMC3    O2 7509   3.568   2.170  11.079 -0.2633  0.1034 -0.6261
  502TMC3    C1 7510   3.145   0.883  14.937 -0.3616 -0.3581  0.5072
  502TMC3    C2 7511   3.120   1.019  14.932 -0.4809 -0.1161 -0.0522
  502TMC3    C3 7512   2.992   1.055  14.944 -0.2017  0.0617  0.2776
  502TMC3    C4 7513   3.040   0.799  14.943 -0.2028  0.1493 -0.4556
  502TMC3    C5 7514   2.908   0.841  14.950  0.1772 -0.2074 -0.3128
  502TMC3    C6 7515   2.884   0.972  14.946 -0.4265  0.0467  1.0595
  502TMC3     C 7516   3.273   0.856  15.003 -0.0620 -0.3673 -0.3615
  502TMC3     O 7517   3.370   0.910  14.955 -0.4163 -0.2753 -0.6088
  502TMC3     H 7518   3.204   1.085  14.951 -0.2930 -0.8023  1.5608
  502TMC3    H1 7519   3.069   0.695  14.956  0.8450  0.1094 -3.0282
  502TMC3    H2 7520   2.781   1.005  14.941 -0.1783  0.7109  0.0744
  502TMC3    C7 7521   2.805   0.738  14.942  0.8794 -0.2469 -0.7103
  502TMC3    C8 7522   2.975   1.201  14.965  0.1200 -0.8890 -0.0371
  502TMC3    O1 7523   2.843   0.622  14.938 -0.3548  0.2321  0.1928
  502TMC3    O2 7524   3.066   1.274  14.926 -0.8692 -0.4852 -0.6908
  503MPD2     C 7525   0.757   1.775  16.652  0.1661 -0.0014  0.2975
  503MPD2    C1 7526   0.730   1.766  16.783  0.7069  0.0756  0.0430
  503MPD2    C2 7527   0.738   1.645  16.847 -0.1899 -0.2700  0.4004
  503MPD2    C3 7528   0.773   1.531  16.776  0.5107 -0.1463 -0.4360
  503MPD2    C4 7529   0.796   1.541  16.638 -0.2393 -0.7349 -0.2011
  503MPD2    C5 7530   0.795   1.663  16.585 -0.2285  0.4435 -0.1294
  503MPD2     H 7531   0.712   1.644  16.953  3.5906  0.2332  1.3229
  503MPD2    H1 7532   0.817   1.455  16.575  2.2125 -0.2286 -0.0747
  503MPD2    H2 7533   0.749   1.865  16.593  0.9698 -0.0006  0.1909
  503MPD2    H3 7534   0.820   1.679  16.481  2.1488  0.5413  0.4700
  503MPD2     N 7535   0.773   1.396  16.830 -0.4027 -0.3404  0.1715
  503MPD2    H5 7536   0.788   1.323  16.762 -0.0278 -0.6154  0.5531
  503MPD2    N1 7537   0.704   1.880  16.864 -0.0345 -0.2641  0.0889
  503MPD2    H7 7538   0.660   1.859  16.952 -0.1758 -1.9225 -0.3827
  504TMC3    C1 7539   0.773   1.219  16.983 -0.2575  0.4609  0.0533
  504TMC3    C2 7540   0.725   1.164  17.102 -0.3364 -0.4250 -0.0586
  504TMC3    C3 7541   0.792   1.052  17.145 -0.3444 -0.1384  0.1586
  504TMC3    C4 7542   0.857   1.156  16.897  0.2390 -0.0032  0.4412
  504TMC3    C5 7543   0.896   1.029  16.936 -0.7806 -0.6375 -0.0580
  504TMC3    C6 7544   0.879   0.982  17.065  0.6374 -0.2383  0.3892
  504TMC3     C 7545   0.748   1.361  16.959 -0.1673  0.0912 -0.4900
  504TMC3     O 7546   0.712   1.425  17.058 -1.0044  0.1340 -0.4472
  504TMC3     H 7547   0.665   1.220  17.173 -0.0024 -0.4763  0.2622
  504TMC3    H1 7548   0.888   1.187  16.798 -1.8982 -1.8527 -0.8050
  504TMC3    H2 7549   0.904   0.880  17.092 -0.0930 -0.4740  0.1782
  504TMC3    C7 7550   1.024   1.009  16.874  0.1755  0.0305  0.2966
  504TMC3    C8 7551   0.729   0.986  17.257  0.2196  0.0482  1.0021
  504TMC3    O1 7552   1.035   1.006  16.753 -0.4702  0.1870  0.2010
  504TMC3    O2 7553   0.605   0.977  17.250  0.2891 -0.1228  0.1818
  505MPD2     C 7554   0.750   0.291  11.229 -0.7207  0.4858 -0.4398
  505MPD2    C1 7555   0.816   0.171  11.254 -0.4496  0.2715 -0.1855
  505MPD2    C2 7556   0.896   0.165  11.362  0.3715 -0.2462  0.6150
  505MPD2    C3 7557   0.914   0.271  11.453 -0.0014  0.2578  0.5504
  505MPD2    C4 7558   0.858   0.392  11.422  0.7955 -0.2986  0.0178
  505MPD2    C5 7559   0.770   0.397  11.308 -0.4948 -0.1302 -0.1170
  505MPD2     H 7560   0.922   0.064  11.390 -0.7015 -0.9263 -0.8393
  505MPD2    H1 7561   0.862   0.472  11.494 -2.2962  1.7581 -2.0996
  505MPD2    H2 7562   0.685   0.301  11.143 -3.4628  0.0716  1.5890
  505MPD2    H3 7563   0.726   0.493  11.283 -2.0710 -0.5464  1.0437
  505MPD2     N 7564   0.994   0.249  11.566  0.1575  0.0131  0.0896
  505MPD2    H5 7565   1.031   0.155  11.574 -1.5094 -0.6529  0.0097
  505MPD2    N1 7566   0.795   0.061  11.166 -1.2701 -0.0176 -0.1761
  505MPD2    H7 7567   0.738   0.079  11.083 -2.4564  0.1192  0.6692
  506TMC3    C1 7568   0.831   4.584  11.066 -0.0917 -0.6545  0.0812
  506TMC3    C2 7569   0.897   4.636  10.953 -1.0115  0.7876 -0.3054
  506TMC3    C3 7570   0.963   4.540  10.876 -1.1639 -0.0564 -0.2020
  506TMC3    C4 7571   0.843   4.456  11.103  0.0475 -0.5032 -0.4776
  506TMC3    C5 7572   0.918   4.366  11.032  0.5654  0.6511 -0.2540
  506TMC3    C6 7573   0.968   4.406  10.909 -0.0578 -0.4682 -0.0727
  506TMC3     C 7574   0.836   4.671  11.188  0.0316 -0.2449  0.3988
  506TMC3     O 7575   0.886   4.616  11.285 -0.1190  0.2363  0.4575
  506TMC3     H 7576   0.905   0.001  10.932  0.8048  0.7217  0.1123
  506TMC3    H1 7577   0.792   4.417  11.190 -0.6765 -2.3018 -1.6993
  506TMC3    H2 7578   1.034   4.334  10.863 -1.7263 -1.5005 -0.8635
  506TMC3    C7 7579   1.021   4.309  11.114 -0.0501  0.1263  0.1631
  506TMC3    C8 7580   1.065   4.571  10.785 -0.7608 -0.3425 -0.1246
  506TMC3    O1 7581   1.085   4.212  11.072  0.1177 -0.6673 -0.3080
  506TMC3    O2 7582   1.106   4.478  10.719 -0.0972 -0.1588 -0.4950
  507TMC3    C1 7583   1.003   0.652  14.744 -0.3427  0.4675  0.1764
  507TMC3    C2 7584   0.881   0.616  14.704  0.7884 -0.3482 -0.2174
  507TMC3    C3 7585   0.857   0.635  14.571  0.6742  0.0153 -0.4435
  507TMC3    C4 7586   1.106   0.687  14.665 -0.5467 -0.5289  0.5181
  507TMC3    C5 7587   1.081   0.694  14.532  0.2100 -0.3809 -0.0340
  507TMC3    C6 7588   0.952   0.673  14.481  0.1947  0.4259  0.0154
  507TMC3     C 7589   1.045   0.603  14.876 -0.2633 -0.1129 -0.5429
  507TMC3     O 7590   1.162   0.630  14.903 -0.2108  0.1654  0.2158
  507TMC3     H 7591   0.797   0.607  14.773  0.1054 -0.3357 -1.0425
  507TMC3    H1 7592   1.201   0.715  14.709  0.1965 -3.2289  0.6659
  507TMC3    H2 7593   0.933   0.667  14.375  0.4671 -2.1371  0.1248
  507TMC3    C7 7594   1.142   0.805  14.459  0.0443  0.0617 -1.3622
  507TMC3    C8 7595   0.735   0.703  14.555  0.3885  0.2452 -0.4789
  507TMC3    O1 7596   1.057   0.864  14.396  0.4246 -0.5675  0.1133
  507TMC3    O2 7597   0.628   0.674  14.613  0.2151 -0.5619 -0.2098
  508MPD2     C 7598   2.291   3.198  16.575 -0.0099  0.0120  0.0297
  508MPD2    C1 7599   2.313   3.329  16.549 -0.0699 -0.2238  0.2731
  508MPD2    C2 7600   2.284   3.375  16.420  0.1914  0.5424 -0.3117
  508MPD2    C3 7601   2.250   3.288  16.320 -0.4542 -0.3646 -0.0332
  508MPD2    C4 7602   2.246   3.158  16.348  0.2122 -0.5860 -0.0160
  508MPD2    C5 7603   2.260   3.109  16.477  1.2110 -0.8229  0.3394
  508MPD2     H 7604   2.292   3.481  16.397  0.5634  0.5874  0.0274
  508MPD2    H1 7605   2.233   3.087  16.268  1.1093 -0.1933 -0.5038
  508MPD2    H2 7606   2.293   3.170  16.680 -1.0122 -0.4969 -0.0900
  508MPD2    H3 7607   2.277   3.003  16.489  0.7139 -0.8251  1.0115
  508MPD2     N 7608   2.253   3.343  16.190 -0.6919 -0.0995  0.2647
  508MPD2    H5 7609   2.281   3.440  16.183  1.8000 -0.8103  0.4696
  508MPD2    N1 7610   2.355   3.406  16.656 -0.0885 -0.1850  0.5372
  508MPD2    H7 7611   2.410   3.365  16.731  3.0664  1.5206 -0.8102
  509TMC3    C1 7612   2.294   3.409  15.733 -0.1318  0.0363 -0.9825
  509TMC3    C2 7613   2.402   3.493  15.749  0.0239  0.0300  0.2772
  509TMC3    C3 7614   2.452   3.489  15.879  0.2197 -0.0167  0.3955
  509TMC3    C4 7615   2.228   3.343  15.838  0.1127 -0.4384 -0.1415
  509TMC3    C5 7616   2.282   3.346  15.964 -0.2239 -0.5353 -0.4097
  509TMC3    C6 7617   2.389   3.428  15.984 -0.1245 -0.0623  0.4890
  509TMC3     C 7618   2.195   3.451  15.632  0.3402 -0.1464  0.3420
  509TMC3     O 7619   2.084   3.399  15.632 -0.1668  0.4668  0.6688
  509TMC3     H 7620   2.455   3.535  15.665 -1.9428  2.5997  0.3377
  509TMC3    H1 7621   2.144   3.276  15.825  0.8956 -1.1894 -1.3141
  509TMC3    H2 7622   2.431   3.443  16.082 -0.3774 -2.0208  0.8886
  509TMC3    C7 7623   2.227   3.272  16.071 -0.6741  0.0008 -0.6075
  509TMC3    C8 7624   2.567   3.559  15.910 -0.1439  0.4793  0.0689
  509TMC3    O1 7625   2.192   3.158  16.037  0.3157 -0.4290  0.0791
  509TMC3    O2 7626   2.625   3.518  16.005 -0.1151 -0.3411 -0.0788
  510MPD2     C 7627   4.619   0.403  14.806  0.3115  0.7284 -0.2612
  510MPD2    C1 7628   4.739   0.357  14.860 -0.0816 -0.5308  0.0976
  510MPD2    C2 7629   0.107   0.352  14.774 -0.3899 -0.0129 -0.8270
  510MPD2    C3 7630   0.095   0.377  14.637  0.7277 -0.3377  0.4319
  510MPD2    C4 7631   4.709   0.405  14.592  0.0466  0.1050 -0.3816
  510MPD2    C5 7632   4.603   0.433  14.673 -0.1160  0.2464  0.1210
  510MPD2     H 7633   0.207   0.344  14.814 -0.7813  1.2142  0.4053
  510MPD2    H1 7634   4.691   0.427  14.488  1.2176 -1.6135 -0.9550
  510MPD2    H2 7635   4.534   0.381  14.870  2.0254  1.4030  2.2609
  510MPD2    H3 7636   4.506   0.445  14.626  0.1500  2.0412  0.0521
  510MPD2     N 7637   0.203   0.356  14.550  0.0153 -0.7575 -0.3769
  510MPD2    H5 7638   0.297   0.356  14.587 -0.4295  0.7069  0.7426
  510MPD2    N1 7639   4.741   0.333  14.998 -0.3266  0.3647 -0.4935
  510MPD2    H7 7640   4.654   0.349  15.047 -0.2392 -0.3331 -0.1131
  511TMC3    C1 7641   0.085   0.235  15.202  0.0843 -0.5766 -0.4238
  511TMC3    C2 7642   0.010   0.313  15.280 -0.4579  0.1559  0.3258
  511TMC3    C3 7643   4.692   0.256  15.396  0.2589  0.2805 -0.3703
  511TMC3    C4 7644   0.134   0.109  15.240 -0.2633  1.3809 -0.5357
  511TMC3    C5 7645   0.073   0.056  15.349  0.4002 -0.3697 -0.1149
  511TMC3    C6 7646   4.736   0.128  15.432  0.4272 -0.1356 -0.0573
  511TMC3     C 7647   0.104   0.267  15.062  0.2574  0.3475  0.3289
  511TMC3     O 7648   0.207   0.237  15.011  0.1264 -0.3919 -0.0304
  511TMC3     H 7649   4.713   0.411  15.251 -2.2899 -0.7128 -0.1941
  511TMC3    H1 7650   0.192   0.043  15.177 -1.9171 -0.8938  0.3584
  511TMC3    H2 7651   4.699   0.068  15.514  1.3986 -2.0980 -1.0611
  511TMC3    C7 7652   0.124   4.668  15.394 -0.0096 -0.8664 -0.0186
  511TMC3    C8 7653   4.626   0.352  15.485  0.6206 -0.0424 -1.0410
  511TMC3    O1 7654   0.233   4.641  15.347  0.2235  0.0731 -0.3087
  511TMC3    O2 7655   4.601   0.461  15.444 -0.7317  0.3038 -0.1412
  512TMC3    C1 7656   3.598   4.005  13.674 -0.7151 -0.0316  0.0169
  512TMC3    C2 7657   3.698   4.029  13.767  0.1458 -0.3749  0.4704
  512TMC3    C3 7658   3.802   4.113  13.729  0.3884  0.2011 -0.0948
  512TMC3    C4 7659   3.611   4.066  13.548  0.3925 -0.1302 -0.1725
  512TMC3    C5 7660   3.728   4.134  13.518  0.1963  0.5820 -0.2207
  512TMC3    C6 7661   3.828   4.162  13.608  0.0364  0.0273 -0.1704
  512TMC3     C 7662   3.475   3.937  13.715 -0.2065  0.2538  0.3150
  512TMC3     O 7663   3.384   3.943  13.638  0.1134 -0.1013  0.2874
  512TMC3     H 7664   3.693   3.996  13.870  2.1826  1.5420  1.1971
  512TMC3    H1 7665   3.535   4.048  13.471  0.3934 -0.7945 -0.0192
  512TMC3    H2 7666   3.921   4.209  13.576  0.0020  0.1619 -0.0727
  512TMC3    C7 7667   3.768   4.124  13.379  0.0041  0.3905 -0.9088
  512TMC3    C8 7668   3.900   4.146  13.834  0.3078  0.1681  0.2070
  512TMC3    O1 7669   3.863   4.196  13.346 -0.1578  0.5279  0.3088
  512TMC3    O2 7670   3.911   4.066  13.929  0.3792  0.5261  0.0765
  513MPD2     C 7671   0.877   4.315  13.605 -0.5516 -0.3384 -0.0306
  513MPD2    C1 7672   0.887   4.340  13.472 -0.8576  0.3375 -0.3400
  513MPD2    C2 7673   1.013   4.377  13.429  0.1833 -0.3252  0.0472
  513MPD2    C3 7674   1.125   4.385  13.511 -0.8116 -1.2024 -0.2274
  513MPD2    C4 7675   1.107   4.362  13.645 -0.1464 -0.6139  1.3037
  513MPD2    C5 7676   0.983   4.335  13.689 -0.0653 -0.0158  0.5161
  513MPD2     H 7677   1.023   4.400  13.324 -0.3469  0.8783  0.2654
  513MPD2    H1 7678   1.185   4.367  13.720 -0.1648  0.3622  1.2508
  513MPD2    H2 7679   0.784   4.274  13.641 -1.2868  0.7608 -0.6579
  513MPD2    H3 7680   0.970   4.321  13.796 -1.5130  0.2798  0.3733
  513MPD2     N 7681   1.252   4.396  13.456  0.1601 -0.4123  1.2155
  513MPD2    H5 7682   1.258   4.400  13.354 -1.7637 -1.6495  1.0530
  513MPD2    N1 7683   0.780   4.325  13.385  0.4158 -0.4847 -0.0980
  513MPD2    H7 7684   0.696   4.285  13.425 -0.2207 -0.4324 -1.4012
  514TMC3    C1 7685   0.643   4.357  13.197  0.4733 -0.1663  0.7273
  514TMC3    C2 7686   0.613   4.454  13.104 -0.0669 -0.0381  0.4446
  514TMC3    C3 7687   0.572   4.417  12.977  0.4636  0.5387  0.0735
  514TMC3    C4 7688   0.648   4.226  13.152 -0.3955 -0.1733 -0.7487
  514TMC3    C5 7689   0.625   4.192  13.020  0.1169  0.6312 -0.3835
  514TMC3    C6 7690   0.581   4.284  12.929 -0.5358  0.1253  0.0290
  514TMC3     C 7691   0.770   4.389  13.260 -0.2055  0.1952  0.2805
  514TMC3     O 7692   0.848   4.454  13.194 -0.1079 -0.2372  0.2518
  514TMC3     H 7693   0.632   4.558  13.127 -2.3539  0.4304  0.2375
  514TMC3    H1 7694   0.701   4.159  13.218 -1.0651  0.2342  0.2075
  514TMC3    H2 7695   0.545   4.253  12.831 -0.6789 -0.1393  0.1636
  514TMC3    C7 7696   0.734   4.114  12.956 -0.5631 -0.3330  0.2645
  514TMC3    C8 7697   0.596   4.518  12.877  0.6388  0.0996 -0.3609
  514TMC3    O1 7698   0.705   4.054  12.855  0.2068  0.5776 -0.2802
  514TMC3    O2 7699   0.543   4.631  12.892 -0.3675 -0.2487  0.5953
  515MPD2     C 7700   4.347   1.068  14.583  0.1959 -1.0574 -0.2433
  515MPD2    C1 7701   4.231   1.137  14.625 -0.5241  0.2760 -0.0892
  515MPD2    C2 7702   4.222   1.277  14.629 -0.3378  0.7719 -0.3724
  515MPD2    C3 7703   4.337   1.346  14.591  1.0888 -0.0843  0.3815
  515MPD2    C4 7704   4.450   1.287  14.551 -0.1312  0.1369  0.1373
  515MPD2    C5 7705   4.452   1.150  14.546  0.1881  0.7369  0.0738
  515MPD2     H 7706   4.138   1.328  14.673 -0.3417 -0.9985  1.6722
  515MPD2    H1 7707   4.537   1.347  14.527  0.0505 -1.3556 -2.9295
  515MPD2    H2 7708   4.341   0.960  14.582  0.8490 -1.1149  1.6323
  515MPD2    H3 7709   4.548   1.107  14.520 -0.3151 -0.9222  0.9897
  515MPD2     N 7710   4.352   1.485  14.613 -0.3938 -0.1696  0.5221
  515MPD2    H5 7711   4.435   1.531  14.575 -1.9751  1.6195 -0.7972
  515MPD2    N1 7712   4.111   1.073  14.670  0.2824 -0.5923  0.3927
  515MPD2    H7 7713   4.030   1.134  14.675  0.0218 -0.8163 -1.0499
  516TMC3    C1 7714   3.930   0.917  14.652  0.5201  0.8752 -0.0993
  516TMC3    C2 7715   3.859   1.019  14.592  0.7318  0.0622 -0.6648
  516TMC3    C3 7716   3.728   1.006  14.578  0.1567 -0.1655  0.2422
  516TMC3    C4 7717   3.869   0.794  14.681 -0.3015 -0.9248 -0.2377
  516TMC3    C5 7718   3.733   0.796  14.680 -0.8582 -0.3787 -0.4038
  516TMC3    C6 7719   3.662   0.906  14.642  0.5683  0.5763 -0.4811
  516TMC3     C 7720   4.080   0.934  14.673  0.1797  0.4084  0.2957
  516TMC3     O 7721   4.143   0.833  14.694  0.0286 -0.2637 -0.0158
  516TMC3     H 7722   3.911   1.095  14.535  0.3498 -0.9035 -2.3131
  516TMC3    H1 7723   3.930   0.712  14.717 -0.6823 -0.2849  1.8684
  516TMC3    H2 7724   3.553   0.908  14.648  0.7019  1.5586  1.7708
  516TMC3    C7 7725   3.662   0.700  14.756 -0.4382 -0.2909  0.4624
  516TMC3    C8 7726   3.636   1.087  14.504  1.4329  0.1893  0.0760
  516TMC3    O1 7727   3.732   0.640  14.838 -0.2951  0.1596 -0.1553
  516TMC3    O2 7728   3.539   1.032  14.454  0.0148  0.6639 -0.4344
  517MPD2     C 7729   3.711   3.035   0.255  0.0102  0.3037 -0.0264
  517MPD2    C1 7730   3.844   3.039   0.214 -0.2834 -0.6840 -1.2870
  517MPD2    C2 7731   3.926   3.140   0.262  0.5655 -0.0703  0.2231
  517MPD2    C3 7732   3.880   3.223   0.362  0.0929  0.9233  0.0992
  517MPD2    C4 7733   3.751   3.210   0.407 -0.0999 -0.0197 -0.7453
  517MPD2    C5 7734   3.667   3.120   0.356  0.6967  0.1538 -0.0760
  517MPD2     H 7735   4.025   3.144   0.217  0.1012  2.0343 -0.6259
  517MPD2    H1 7736   3.703   3.281   0.474  0.6960 -1.3712  1.2669
  517MPD2    H2 7737   3.640   2.961   0.219  0.1201 -0.5748  1.5567
  517MPD2    H3 7738   3.561   3.113   0.378  0.4315  1.1842 -1.0150
  517MPD2     N 7739   3.964   3.319   0.425 -0.1750 -0.0344  0.4081
  517MPD2    H5 7740   3.916   3.382   0.488  0.2734  1.4548 -0.7365
  517MPD2    N1 7741   3.897   2.946   0.122  0.0738  0.0534  0.2659
  517MPD2    H7 7742   3.989   2.971   0.087 -0.2965 -1.3967 -1.7733
  518TMC3    C1 7743   3.888   2.787  17.712 -0.2705  1.1517 -0.4740
  518TMC3    C2 7744   3.871   2.652  17.686 -0.9609 -0.5306  0.0095
  518TMC3    C3 7745   3.963   2.576  17.628  0.1951 -0.6628 -0.6499
  518TMC3    C4 7746   4.004   2.845  17.657 -0.0399  0.2309  0.4356
  518TMC3    C5 7747   4.098   2.760  17.609  0.6953  0.1050 -0.3591
  518TMC3    C6 7748   4.083   2.623  17.592 -0.1411 -0.3838  0.3111
  518TMC3     C 7749   3.823   2.843   0.065  0.0093  0.4767 -0.5573
  518TMC3     O 7750   3.728   2.791   0.116  0.2616  0.1119 -0.1655
  518TMC3     H 7751   3.777   2.602  17.708 -0.7737 -0.9281 -0.0830
  518TMC3    H1 7752   4.029   2.947  17.684  0.6443 -0.4616  2.4360
  518TMC3    H2 7753   4.157   2.557  17.547  0.2789 -0.4032  1.0399
  518TMC3    C7 7754   4.224   2.821  17.578  0.0629  0.1056  0.1144
  518TMC3    C8 7755   3.938   2.437  17.606 -0.0944  0.0183 -0.2761
  518TMC3    O1 7756   4.232   2.940  17.558  0.2452  0.0417  0.6474
  518TMC3    O2 7757   4.012   2.388  17.522 -0.4933  0.7970 -0.4569
  519MPD2     C 7758   0.539   0.945  14.133 -0.2698  0.2347  0.1031
  519MPD2    C1 7759   0.551   0.982  14.003  0.0377 -0.7352 -0.2819
  519MPD2    C2 7760   0.673   0.963  13.938  0.2464  0.7563 -0.3516
  519MPD2    C3 7761   0.780   0.891  13.999 -0.4653  0.0979  0.5613
  519MPD2    C4 7762   0.759   0.858  14.130  0.5306 -0.1491  0.0407
  519MPD2    C5 7763   0.638   0.879  14.193 -0.2450 -0.4361  0.4254
  519MPD2     H 7764   0.684   0.990  13.834 -0.4067 -0.5254 -0.7405
  519MPD2    H1 7765   0.842   0.810  14.180  0.4652 -0.6865 -0.3593
  519MPD2    H2 7766   0.444   0.965  14.182 -0.2663 -0.5530  0.4251
  519MPD2    H3 7767   0.618   0.852  14.297  2.3292  2.2075  1.6091
  519MPD2     N 7768   0.902   0.861  13.938  0.0392 -0.5179 -0.3891
  519MPD2    H5 7769   0.969   0.815  13.999  0.1258 -1.0397 -0.8856
  519MPD2    N1 7770   0.442   1.043  13.939  0.9877 -0.8925  0.1150
  519MPD2    H7 7771   0.357   1.058  13.994  1.8734  0.3794  1.1442
  520TMC3    C1 7772   1.054   0.812  13.760 -0.1250 -1.0885 -0.3659
  520TMC3    C2 7773   1.073   0.828  13.628 -0.0146  0.5387 -0.2743
  520TMC3    C3 7774   1.142   0.730  13.561  0.2659  0.1582 -0.0099
  520TMC3    C4 7775   1.103   0.702  13.826 -0.8371 -0.7652 -0.1342
  520TMC3    C5 7776   1.174   0.604  13.757  0.7475  0.0807  0.3106
  520TMC3    C6 7777   1.197   0.627  13.627  0.5301  0.2005  0.1051
  520TMC3     C 7778   0.925   0.861  13.804  0.2698  0.6171  0.6362
  520TMC3     O 7779   0.850   0.882  13.706  0.3653 -0.6462  0.3448
  520TMC3     H 7780   1.030   0.913  13.575 -1.3557 -0.0561 -0.1542
  520TMC3    H1 7781   1.084   0.679  13.930 -0.6639 -2.6366 -0.5286
  520TMC3    H2 7782   1.285   0.577  13.588  0.8595  0.0919  0.9851
  520TMC3    C7 7783   1.242   0.488  13.829  0.2598 -0.4990 -0.5554
  520TMC3    C8 7784   1.130   0.715  13.422  0.7813  0.3951  0.6399
  520TMC3    O1 7785   1.251   0.504  13.954  0.3182 -0.1124  0.4263
  520TMC3    O2 7786   1.213   0.650  13.360  0.8320 -0.5384  0.1115
  521MPD2     C 7787   1.716   4.473  17.395  0.1594  0.1554 -0.1068
  521MPD2    C1 7788   1.735   4.371  17.302 -0.3376 -0.1213 -0.2386
  521MPD2    C2 7789   1.799   4.388  17.184 -0.4657  0.1049 -0.4104
  521MPD2    C3 7790   1.849   4.512  17.149 -0.1236  0.5844 -0.6706
  521MPD2    C4 7791   1.821   4.617  17.235  0.1534  0.4966 -0.7433
  521MPD2    C5 7792   1.759   4.592  17.357  0.5191  0.5734  0.1353
  521MPD2     H 7793   1.789   4.305  17.115 -0.4739  0.8578 -1.3187
  521MPD2    H1 7794   1.832   4.721  17.207  2.6081  0.5283  0.3004
  521MPD2    H2 7795   1.661   4.457  17.486  0.7021  1.3591  0.4249
  521MPD2    H3 7796   1.731   4.677  17.418 -1.4304 -1.2194  1.7570
  521MPD2     N 7797   1.907   4.535  17.023  0.1636 -0.3686 -0.0572
  521MPD2    H5 7798   1.949   4.453  16.980 -0.0779 -0.5287  0.0104
  521MPD2    N1 7799   1.678   4.249  17.349  0.5586  0.5765 -0.6281
  521MPD2    H7 7800   1.620   4.260  17.431  0.2125  0.8518 -0.9110
  522TMC3    C1 7801   1.984   4.653  16.836  0.3969 -0.2570  0.0448
  522TMC3    C2 7802   2.114   4.609  16.828  0.4148 -0.4001  0.0410
  522TMC3    C3 7803   2.186   4.657  16.723  0.0659 -0.2347 -0.2450
  522TMC3    C4 7804   1.925   4.724  16.735  0.0773  0.4992 -0.3474
  522TMC3    C5 7805   1.995   0.009  16.620 -0.6761  0.1879 -0.0854
  522TMC3    C6 7806   2.129   4.717  16.613  0.3985  0.6845  0.3147
  522TMC3     C 7807   1.915   4.654  16.959  0.2953 -0.7357  0.2001
  522TMC3     O 7808   1.838   0.005  16.981 -0.1584  0.3357 -0.2473
  522TMC3     H 7809   2.161   4.564  16.915  0.1274 -1.3920 -0.3180
  522TMC3    H1 7810   1.825   0.017  16.760  0.2138  1.3977 -1.0182
  522TMC3    H2 7811   2.181   4.729  16.519 -0.3429 -0.1577 -0.2127
  522TMC3    C7 7812   1.924   0.052  16.503  0.5500 -0.3741  0.1426
  522TMC3    C8 7813   2.322   4.614  16.701 -0.3237 -1.0023  0.1023
  522TMC3    O1 7814   1.989   0.066  16.402 -0.0919 -0.1138  0.4808
  522TMC3    O2 7815   2.393   4.684  16.624 -0.1562  0.5291 -0.1478
  523MPD2     C 7816   3.994   4.015  10.189  0.3629  0.0914  0.5127
  523MPD2    C1 7817   3.922   3.928  10.109  0.2668 -0.2002  0.2449
  523MPD2    C2 7818   3.833   3.984  10.017  0.3542 -0.0151 -0.1373
  523MPD2    C3 7819   3.826   4.123  10.001  0.0185 -0.4891 -0.4249
  523MPD2    C4 7820   3.910   4.216  10.075 -0.4755 -0.1255  0.0791
  523MPD2    C5 7821   3.987   4.152  10.167 -0.9653  0.8966  0.8148
  523MPD2     H 7822   3.760   3.926   9.962 -1.5712  1.8478  0.4809
  523MPD2    H1 7823   3.909   4.322  10.054 -0.7283  0.1029  1.2350
  523MPD2    H2 7824   4.064   3.977  10.262 -0.3304 -1.6266  0.2599
  523MPD2    H3 7825   4.047   4.210  10.236  0.5378  0.1405  0.1625
  523MPD2     N 7826   3.729   4.179   9.912  0.4549  0.5578  0.1329
  523MPD2    H5 7827   3.710   4.279   9.914  2.0159  0.8632 -0.7040
  523MPD2    N1 7828   3.951   3.789  10.122  0.3389 -0.3063 -0.1207
  523MPD2    H7 7829   4.020   3.765  10.192  0.4516 -1.4229 -0.6210
  524TMC3    C1 7830   3.563   4.181   9.746 -0.4007 -0.2658  0.0146
  524TMC3    C2 7831   3.524   4.122   9.630  0.6862  0.2594  0.1700
  524TMC3    C3 7832   3.427   4.187   9.561 -0.5857  0.0923 -0.0581
  524TMC3    C4 7833   3.518   4.304   9.786 -0.5861  0.4420  0.3444
  524TMC3    C5 7834   3.421   4.366   9.710 -0.7740 -0.2387  0.3722
  524TMC3    C6 7835   3.375   4.308   9.594 -0.1004 -0.5132 -0.0271
  524TMC3     C 7836   3.667   4.106   9.813  0.4461  0.3266  0.0413
  524TMC3     O 7837   3.705   4.004   9.757 -0.2240  0.1534  0.5555
  524TMC3     H 7838   3.545   4.017   9.610 -1.1025 -0.3512  1.4360
  524TMC3    H1 7839   3.556   4.350   9.876  1.5615 -1.1852  0.2800
  524TMC3    H2 7840   3.302   4.362   9.535  0.5918  0.3884 -0.0647
  524TMC3    C7 7841   3.364   4.489   9.762 -0.0641 -0.9178 -0.4448
  524TMC3    C8 7842   3.383   4.144   9.431  0.4703  0.3447 -0.3352
  524TMC3    O1 7843   3.249   4.512   9.729 -0.4720  0.0990  0.6308
  524TMC3    O2 7844   3.289   4.201   9.382  0.3945  0.8305 -0.0707
  525MPD2     C 7845   1.812   0.694  14.392 -0.2348 -0.2002 -0.4323
  525MPD2    C1 7846   1.934   0.704  14.458  0.6624  0.1184 -0.1036
  525MPD2    C2 7847   2.002   0.820  14.455  0.0342 -0.1033  0.3943
  525MPD2    C3 7848   1.949   0.930  14.393 -0.1214  0.8879  0.7186
  525MPD2    C4 7849   1.827   0.921  14.337 -0.1754 -0.2205  0.0177
  525MPD2    C5 7850   1.754   0.806  14.337 -0.2257  0.2068  0.1846
  525MPD2     H 7851   2.099   0.815  14.504  0.9767 -0.9714 -1.5573
  525MPD2    H1 7852   1.782   1.006  14.287 -0.1481 -1.6555 -2.4423
  525MPD2    H2 7853   1.757   0.601  14.387  1.1771 -1.1564  1.8501
  525MPD2    H3 7854   1.657   0.803  14.289 -0.7507 -2.0973  1.3611
  525MPD2     N 7855   2.006   1.054  14.380 -0.2436 -0.5710  0.2470
  525MPD2    H5 7856   1.956   1.134  14.342  0.8655 -0.6550 -1.4062
  525MPD2    N1 7857   1.994   0.593  14.519 -0.1270 -0.8980 -0.5153
  525MPD2    H7 7858   2.080   0.604  14.571 -1.1833 -0.2140  1.0714
  526TMC3    C1 7859   2.046   0.377  14.586 -0.2627 -0.1783 -0.8487
  526TMC3    C2 7860   2.002   0.292  14.683  0.7491 -0.2592 -0.1185
  526TMC3    C3 7861   2.103   0.225  14.750 -0.1399  0.2960  0.0597
  526TMC3    C4 7862   2.177   0.407  14.556  1.5400  0.1335 -0.1027
  526TMC3    C5 7863   2.269   0.344  14.633 -0.3702  0.4719 -0.5289
  526TMC3    C6 7864   2.232   0.256  14.738  0.5384 -0.1779 -0.2760
  526TMC3     C 7865   1.943   0.464  14.533 -0.7488  0.2908 -0.5048
  526TMC3     O 7866   1.827   0.427  14.533 -1.1645  0.5507  0.4824
  526TMC3     H 7867   1.899   0.294  14.717  0.7922  1.8149 -0.1091
  526TMC3    H1 7868   2.206   0.472  14.473 -0.5157  1.4503  0.2150
  526TMC3    H2 7869   2.305   0.225  14.812  1.5458 -0.5750 -1.4529
  526TMC3    C7 7870   2.411   0.373  14.605 -0.4491 -0.3115 -0.2530
  526TMC3    C8 7871   2.075   0.183  14.884 -0.3963 -0.1519  0.0914
  526TMC3    O1 7872   2.438   0.467  14.535  0.1602 -0.1614 -0.9933
  526TMC3    O2 7873   2.141   0.233  14.974 -0.1094  0.2305  0.7356
  527MPD2     C 7874   0.517   3.512   1.492 -0.0881  0.5570 -0.0512
  527MPD2    C1 7875   0.517   3.546   1.360 -1.0228 -0.2113 -0.3017
  527MPD2    C2 7876   0.627   3.511   1.280 -0.2123  0.1573 -0.4782
  527MPD2    C3 7877   0.732   3.441   1.333  0.1936 -0.3045 -0.1166
  527MPD2    C4 7878   0.732   3.406   1.468 -0.8950  0.5092  0.2162
  527MPD2    C5 7879   0.622   3.438   1.538 -0.2689  0.1485  0.0386
  527MPD2     H 7880   0.619   3.512   1.172 -0.6121  0.7522 -0.4411
  527MPD2    H1 7881   0.811   3.354   1.520 -0.3627  0.4982 -0.6093
  527MPD2    H2 7882   0.432   3.520   1.559 -0.1526 -0.4025 -0.0243
  527MPD2    H3 7883   0.634   3.411   1.643  0.7763  0.0437 -0.1102
  527MPD2     N 7884   0.847   3.415   1.246  0.0113 -0.5977 -0.3958
  527MPD2    H5 7885   0.842   3.436   1.147 -0.6234  1.4817  0.0830
  527MPD2    N1 7886   0.419   3.622   1.296 -0.1888 -0.2003 -0.0594
  527MPD2    H7 7887   0.445   3.651   1.203 -1.5620 -0.2592 -0.4704
  528TMC3    C1 7888   0.186   3.676   1.239 -0.1979 -0.1617  0.2358
  528TMC3    C2 7889   0.223   3.718   1.113 -0.0138  0.6123 -0.1385
  528TMC3    C3 7890   0.129   3.773   1.032  0.1676 -0.3427 -0.8997
  528TMC3    C4 7891   0.060   3.682   1.287  0.5405  0.3754 -0.5173
  528TMC3    C5 7892   4.705   3.726   1.195  0.1330  0.0347 -0.2464
  528TMC3    C6 7893   4.736   3.778   1.073 -0.2308 -0.1856  0.6677
  528TMC3     C 7894   0.288   3.629   1.338 -0.8581 -0.1110 -0.1466
  528TMC3     O 7895   0.245   3.567   1.435 -0.4490  0.3481  0.0806
  528TMC3     H 7896   0.317   3.713   1.060  0.1540 -1.4281  0.3270
  528TMC3    H1 7897   0.031   3.639   1.382 -1.5082  0.5835 -1.0463
  528TMC3    H2 7898   4.652   3.793   1.007 -0.6668 -0.2315  1.2070
  528TMC3    C7 7899   4.568   3.751   1.238  0.1687  0.3264 -0.7354
  528TMC3    C8 7900   0.172   3.839   0.914  1.1004  0.5290  0.1524
  528TMC3    O1 7901   4.506   3.823   1.165  0.0049  0.2098 -0.1078
  528TMC3    O2 7902   0.279   3.806   0.870 -0.6234 -0.0526  0.3047
  529MPD2     C 7903   2.044   1.863   0.713  0.6822 -0.2256  0.1055
  529MPD2    C1 7904   2.180   1.877   0.723 -0.4766 -0.5878 -0.9533
  529MPD2    C2 7905   2.236   2.005   0.686  0.5514 -0.2720  0.4109
  529MPD2    C3 7906   2.151   2.113   0.651 -0.2490 -0.4112  0.0329
  529MPD2    C4 7907   2.012   2.092   0.651 -0.2977  0.1246  0.3901
  529MPD2    C5 7908   1.963   1.968   0.669 -0.0624  0.3137  0.7252
  529MPD2     H 7909   2.342   2.027   0.688  0.2051  1.4723  0.2675
  529MPD2    H1 7910   1.943   2.174   0.634 -2.3587 -1.9088 -1.0669
  529MPD2    H2 7911   1.996   1.768   0.731 -0.0536 -0.4026 -2.7052
  529MPD2    H3 7912   1.855   1.958   0.669 -0.3996  4.0306 -0.6594
  529MPD2     N 7913   2.198   2.244   0.617  0.0570  0.3003  0.0875
  529MPD2    H5 7914   2.127   2.312   0.594 -0.2645  0.1759  0.7163
  529MPD2    N1 7915   2.261   1.770   0.767 -0.2864  0.1928  0.2106
  529MPD2    H7 7916   2.359   1.790   0.787 -0.2846 -0.2589  0.6754
  530TMC3    C1 7917   2.317   1.558   0.850  0.1121 -0.1200 -0.0217
  530TMC3    C2 7918   2.398   1.628   0.935 -0.2009 -0.3758  0.1268
  530TMC3    C3 7919   2.502   1.557   0.991  0.2178  0.6210  0.2776
  530TMC3    C4 7920   2.321   1.426   0.824  0.3861 -0.1704 -0.2964
  530TMC3    C5 7921   2.429   1.364   0.871 -0.2721  0.1783  0.3718
  530TMC3    C6 7922   2.520   1.421   0.960 -0.1385  0.4677 -0.0539
  530TMC3     C 7923   2.219   1.639   0.786 -0.5192 -0.3932 -0.1778
  530TMC3     O 7924   2.109   1.589   0.756 -0.1706  0.3096  0.8039
  530TMC3     H 7925   2.382   1.731   0.964 -1.0062  0.0632 -1.8474
  530TMC3    H1 7926   2.241   1.387   0.763  1.1307 -1.7303 -0.2784
  530TMC3    H2 7927   2.618   1.379   0.981 -0.9307 -1.1922  0.3235
  530TMC3    C7 7928   2.472   1.241   0.813  0.6412 -0.1790 -0.0836
  530TMC3    C8 7929   2.602   1.637   1.041  0.1858 -0.0241  0.3254
  530TMC3    O1 7930   2.590   1.224   0.798  0.4167  0.8393  0.6230
  530TMC3    O2 7931   2.611   1.747   0.986 -0.9317  0.1772  0.1152
  531MPD2     C 7932   1.236   4.078  12.853 -0.8049  0.2052 -0.3502
  531MPD2    C1 7933   1.222   4.172  12.955  0.7687  0.1285  0.5142
  531MPD2    C2 7934   1.091   4.205  12.994 -0.4411 -0.3517  0.2458
  531MPD2    C3 7935   0.983   4.140  12.939  0.1579 -0.6073  0.1108
  531MPD2    C4 7936   0.999   4.039  12.851 -0.0357 -0.5609 -0.5612
  531MPD2    C5 7937   1.123   4.010  12.807 -0.6155 -0.7962  0.2016
  531MPD2     H 7938   1.070   4.290  13.057 -0.4855 -0.2657  0.1164
  531MPD2    H1 7939   0.915   3.996  12.799 -0.6024 -0.1049 -0.0254
  531MPD2    H2 7940   1.328   4.031  12.820  0.4932  3.2693 -1.1859
  531MPD2    H3 7941   1.135   3.927  12.739  1.4628 -0.7571  0.4993
  531MPD2     N 7942   0.854   4.161  13.003 -0.0648 -0.2775  0.4886
  531MPD2    H5 7943   0.851   4.226  13.081  0.2752 -0.3978  0.6023
  531MPD2    N1 7944   1.334   4.221  13.010 -0.7820 -0.9479  0.0405
  531MPD2    H7 7945   1.423   4.180  12.986 -0.9824 -0.5708 -1.3971
  532TMC3    C1 7946   1.462   4.326  13.189 -0.2324  0.2123 -0.3097
  532TMC3    C2 7947   1.430   4.410  13.291  0.4110  0.0827  0.5932
  532TMC3    C3 7948   1.473   4.373  13.419  0.2313 -0.2988  0.4899
  532TMC3    C4 7949   1.533   4.212  13.220 -0.9841  0.4994 -0.8743
  532TMC3    C5 7950   1.575   4.191  13.349 -0.2918 -0.2487 -0.3814
  532TMC3    C6 7951   1.550   4.271  13.448  0.8332  0.3695 -0.0147
  532TMC3     C 7952   1.342   4.325  13.102  0.4551 -0.1453 -0.3329
  532TMC3     O 7953   1.250   4.398  13.141  0.1938  0.8002 -0.6357
  532TMC3     H 7954   1.377   4.504  13.277  1.9027  1.1601  2.1406
  532TMC3    H1 7955   1.544   4.130  13.150  0.2856  0.3493 -0.4789
  532TMC3    H2 7956   1.556   4.243  13.553  2.3614 -0.9258 -0.4505
  532TMC3    C7 7957   1.644   4.067  13.394  0.0748 -0.4814  0.4633
  532TMC3    C8 7958   1.369   4.384  13.518 -0.5253 -0.9362  0.2991
  532TMC3    O1 7959   1.682   4.062  13.512  0.0650  0.0606 -0.5316
  532TMC3    O2 7960   1.407   4.392  13.632  0.1711  0.0875 -0.0408
  533TMC3    C1 7961   2.165   1.236  14.429  0.3951  0.1842  0.0490
  533TMC3    C2 7962   2.294   1.271  14.414 -0.3612 -0.2347  0.0427
  533TMC3    C3 7963   2.342   1.373  14.490 -0.0802  0.4444 -0.5386
  533TMC3    C4 7964   2.092   1.300  14.526  0.2051 -0.0121 -0.1731
  533TMC3    C5 7965   2.142   1.396  14.606 -0.7102 -0.3571  0.1315
  533TMC3    C6 7966   2.268   1.439  14.588 -0.2113  0.3319 -0.2516
  533TMC3     C 7967   2.130   1.092  14.433  0.1172 -0.6135  0.4543
  533TMC3     O 7968   2.203   1.032  14.511  0.2622 -0.0478  0.1709
  533TMC3     H 7969   2.363   1.225  14.343  0.3831 -0.1509  0.7159
  533TMC3    H1 7970   1.996   1.266  14.563 -0.2208  0.3533 -0.9392
  533TMC3    H2 7971   2.323   1.506  14.654 -0.6333  0.8984 -0.4734
  533TMC3    C7 7972   2.111   1.366  14.749  0.2970 -0.3973 -0.4811
  533TMC3    C8 7973   2.481   1.402  14.469  0.4507 -0.3970 -0.3508
  533TMC3    O1 7974   2.191   1.302  14.812  0.1986  0.4133 -0.0823
  533TMC3    O2 7975   2.503   1.523  14.460 -0.2644 -0.2509 -0.6725
  534MPD2     C 7976   0.895   1.663   1.037  0.3638 -0.0531  0.1705
  534MPD2    C1 7977   0.854   1.754   1.128  0.3988 -0.1868 -0.6604
  534MPD2    C2 7978   0.728   1.805   1.112  0.1391  0.1872 -0.2555
  534MPD2    C3 7979   0.657   1.784   0.991  0.2459  0.3541 -0.4907
  534MPD2    C4 7980   0.709   1.703   0.895 -0.5631  0.5220 -0.1688
  534MPD2    C5 7981   0.829   1.635   0.920  0.0782 -0.5287 -0.7036
  534MPD2     H 7982   0.686   1.871   1.187  1.5806 -0.3196  1.0193
  534MPD2    H1 7983   0.659   1.699   0.799 -0.9469 -1.8787  0.1257
  534MPD2    H2 7984   0.992   1.614   1.045 -0.5162 -1.7121  0.5191
  534MPD2    H3 7985   0.872   1.566   0.849 -0.1248 -1.1815 -0.1957
  534MPD2     N 7986   0.534   1.847   0.965 -0.4115  0.2565  0.3729
  534MPD2    H5 7987   0.500   1.844   0.869  0.9458 -1.4026 -0.0553
  534MPD2    N1 7988   0.922   1.772   1.249 -0.7671 -0.0330  0.0534
  534MPD2    H7 7989   0.872   1.823   1.321 -0.2525  0.6959 -0.0990
  535TMC3    C1 7990   0.318   1.939   0.989 -0.6114 -0.3034  0.1797
  535TMC3    C2 7991   0.199   1.904   1.046  0.1395  0.2456 -0.4977
  535TMC3    C3 7992   0.087   1.921   0.963  0.2131  0.3962 -0.3102
  535TMC3    C4 7993   0.333   1.991   0.863  0.2534  0.5185 -0.0866
  535TMC3    C5 7994   0.218   2.010   0.799 -0.5043 -0.2138  0.5800
  535TMC3    C6 7995   0.092   1.978   0.843 -0.6250  0.0255 -0.1721
  535TMC3     C 7996   0.448   1.900   1.055 -0.6817 -0.4485 -0.3144
  535TMC3     O 7997   0.469   1.896   1.174 -0.2545 -0.2610 -0.4406
  535TMC3     H 7998   0.203   1.875   1.150  0.7367  0.6778 -0.4009
  535TMC3    H1 7999   0.432   2.017   0.827  0.3788  0.7019  0.3901
  535TMC3    H2 8000   0.000   1.988   0.786  0.2857  2.7261 -1.1456
  535TMC3    C7 8001   0.235   2.068   0.668 -0.6728  0.1392  0.0248
  535TMC3    C8 8002   4.710   1.856   1.010 -0.1264 -0.4462 -0.1435
  535TMC3    O1 8003   0.335   2.022   0.612 -1.0310 -0.1408  0.1259
  535TMC3    O2 8004   4.601   1.876   0.960  0.6787  0.3775  0.1723
  536MPD2     C 8005   3.827   0.548  16.237 -0.6832  0.3109  0.2204
  536MPD2    C1 8006   3.711   0.517  16.303  0.6798 -0.1252 -0.6998
  536MPD2    C2 8007   3.587   0.531  16.233  0.6526  0.2141  0.4703
  536MPD2    C3 8008   3.585   0.577  16.100 -0.7744  0.6412  0.1993
  536MPD2    C4 8009   3.705   0.613  16.044 -0.6647 -0.2225  0.2935
  536MPD2    C5 8010   3.829   0.594  16.113  0.2164 -0.6005 -0.4162
  536MPD2     H 8011   3.498   0.503  16.288  1.5476 -2.1824  0.7055
  536MPD2    H1 8012   3.695   0.652  15.944 -0.8553 -0.7279  0.1123
  536MPD2    H2 8013   3.924   0.528  16.280 -0.6624 -2.3652 -1.0485
  536MPD2    H3 8014   3.922   0.621  16.064  1.1783 -1.0099  1.2092
  536MPD2     N 8015   3.467   0.594  16.028  0.0193  0.1058  0.1479
  536MPD2    H5 8016   3.479   0.650  15.944 -0.3971  0.9958  0.6803
  536MPD2    N1 8017   3.719   0.476  16.439 -0.5518  0.2385  0.7316
  536MPD2    H7 8018   3.811   0.466  16.480  0.5610  0.8199 -1.6339
  537TMC3    C1 8019   3.663   0.397  16.642 -0.7430  0.2176  0.5487
  537TMC3    C2 8020   3.783   0.437  16.687 -0.2294  0.0676 -0.0441
  537TMC3    C3 8021   3.806   0.405  16.822 -0.3240 -0.0431 -0.2265
  537TMC3    C4 8022   3.589   0.312  16.717  0.9242 -0.1336 -0.0051
  537TMC3    C5 8023   3.627   0.269  16.842 -0.1169 -0.0431 -0.3064
  537TMC3    C6 8024   3.738   0.321  16.898  0.2421  0.2797 -0.2042
  537TMC3     C 8025   3.617   0.441  16.515 -0.3648  0.6236  0.0007
  537TMC3     O 8026   3.499   0.419  16.489 -0.1050  0.3809  0.2909
  537TMC3     H 8027   3.825   0.527  16.646 -0.8388  1.7970  3.1031
  537TMC3    H1 8028   3.495   0.282  16.671  0.6359  1.5628 -0.5270
  537TMC3    H2 8029   3.768   0.292  16.998  0.0047  2.0560  0.3884
  537TMC3    C7 8030   3.529   0.190  16.910  0.1061 -0.4448 -0.8348
  537TMC3    C8 8031   3.897   0.488  16.897 -0.0205 -0.3906  0.1758
  537TMC3    O1 8032   3.422   0.232  16.874  0.4737  0.4970  0.3088
  537TMC3    O2 8033   3.910   0.462  17.015 -0.0713  0.5120 -0.3428
  538TMC3    C1 8034   4.514   3.040  10.937 -0.1648  0.4088 -1.0666
  538TMC3    C2 8035   4.622   3.035  10.852 -0.1058 -0.1069 -0.3138
  538TMC3    C3 8036   4.624   3.126  10.749  1.1491 -0.1218 -0.2276
  538TMC3    C4 8037   4.406   3.114  10.910  0.3196  0.4872  0.0188
  538TMC3    C5 8038   4.426   3.215  10.818  0.9805  0.0549  1.1847
  538TMC3    C6 8039   4.528   3.221  10.724  0.5805  0.1694  0.3682
  538TMC3     C 8040   4.522   2.955  11.054 -0.2015  0.0688 -0.3342
  538TMC3     O 8041   4.604   2.865  11.059  0.0149  0.3670  0.1277
  538TMC3     H 8042   4.705   2.969  10.874 -0.9105 -1.0101  0.0694
  538TMC3    H1 8043   4.308   3.101  10.956  0.1352  0.4642 -0.3781
  538TMC3    H2 8044   4.535   3.291  10.641 -0.6854  0.2880  0.3638
  538TMC3    C7 8045   4.332   3.319  10.811  0.3001 -0.3950 -0.4634
  538TMC3    C8 8046   0.002   3.125  10.663 -0.3608  0.1383 -0.1056
  538TMC3    O1 8047   4.224   3.280  10.859  0.0648  0.6511 -0.4323
  538TMC3    O2 8048   0.058   3.015  10.642 -0.0159  0.3553  0.5524
  539MPD2     C 8049   4.026   2.637  11.474 -0.5289 -0.5209  0.1000
  539MPD2    C1 8050   4.105   2.655  11.362  0.7469 -0.4020  0.0350
  539MPD2    C2 8051   4.068   2.757  11.273 -0.1186 -0.5195 -0.3843
  539MPD2    C3 8052   3.960   2.841  11.305 -0.3417 -0.3403  0.2752
  539MPD2    C4 8053   3.878   2.814  11.412 -0.2710  0.5073 -0.2723
  539MPD2    C5 8054   3.918   2.716  11.499  0.6092 -0.0192  0.5667
  539MPD2     H 8055   4.121   2.777  11.180  0.1945 -4.0976 -0.9960
  539MPD2    H1 8056   3.798   2.880  11.443  2.1552  0.8625  5.2531
  539MPD2    H2 8057   4.044   2.557  11.545  0.0411 -0.2242  0.2924
  539MPD2    H3 8058   3.850   2.684  11.577 -1.1274  0.6544 -0.6582
  539MPD2     N 8059   3.928   2.961  11.229  0.1364  0.2076  0.2004
  539MPD2    H5 8060   3.847   3.017  11.253  1.8406  1.2086  3.7124
  539MPD2    N1 8061   4.218   2.568  11.333 -0.2856 -0.1087 -0.0792
  539MPD2    H7 8062   4.254   2.577  11.238 -0.0268  1.5916  0.1813
  540TMC3    C1 8063   3.947   3.146  11.094 -0.0279 -0.6183 -0.1312
  540TMC3    C2 8064   3.940   3.177  10.963  0.1732 -0.5648  0.1904
  540TMC3    C3 8065   3.881   3.298  10.931  0.2344 -0.1350  0.0362
  540TMC3    C4 8066   3.914   3.222  11.198  0.0737 -0.1599  0.0889
  540TMC3    C5 8067   3.876   3.351  11.171  0.0784  0.3855  0.6430
  540TMC3    C6 8068   3.846   3.382  11.040 -0.5196 -0.6461  1.1711
  540TMC3     C 8069   4.004   3.018  11.131  0.2339 -0.1336  0.6237
  540TMC3     O 8070   4.075   2.959  11.055  0.0263  0.9189 -0.2188
  540TMC3     H 8071   3.978   3.107  10.890  3.8681 -0.3868  1.8972
  540TMC3    H1 8072   3.935   3.192  11.301  0.8262 -1.5139 -0.4618
  540TMC3    H2 8073   3.779   3.467  11.027 -0.5939 -0.4874  2.6051
  540TMC3    C7 8074   3.812   3.432  11.280  0.7376 -1.1947  0.1798
  540TMC3    C8 8075   3.794   3.302  10.815 -0.1783 -0.7001 -0.4136
  540TMC3    O1 8076   3.768   3.370  11.373 -0.1375  0.1913  0.4109
  540TMC3    O2 8077   3.681   3.348  10.839 -0.3326  0.5266 -0.3194
  541MPD2     C 8078   2.686   4.490  13.116 -0.2698 -0.0429  0.0860
  541MPD2    C1 8079   2.589   4.397  13.082  0.6623 -0.1819 -0.9789
  541MPD2    C2 8080   2.501   4.416  12.977 -0.2221  0.1223 -0.0259
  541MPD2    C3 8081   2.496   4.535  12.916  0.2135  0.1175  0.3784
  541MPD2    C4 8082   2.589   4.628  12.953 -0.5166 -0.5205  0.1855
  541MPD2    C5 8083   2.680   4.603  13.046  0.1297 -0.1842  0.4946
  541MPD2     H 8084   2.434   4.333  12.957  0.0234  0.5197 -2.5900
  541MPD2    H1 8085   2.604   4.714  12.889  2.8437 -1.4310 -0.2297
  541MPD2    H2 8086   2.761   4.468  13.191 -0.8464  1.5231  1.1375
  541MPD2    H3 8087   2.747   4.686  13.066  0.5354  0.4334 -3.5222
  541MPD2     N 8088   2.403   4.547  12.803 -0.3489  0.2645 -0.3458
  541MPD2    H5 8089   2.350   4.462  12.787 -0.9522  0.6271 -0.2438
  541MPD2    N1 8090   2.582   4.276  13.156 -0.1799 -0.2715 -0.0818
  541MPD2    H7 8091   2.507   4.214  13.129 -0.0913 -1.0411  1.4379
  542TMC3    C1 8092   2.278   4.653  12.639 -0.4402 -0.6814 -0.6562
  542TMC3    C2 8093   2.272   4.536  12.575 -0.6152  0.3327  0.2734
  542TMC3    C3 8094   2.167   4.532  12.486 -0.0364  0.1630  0.3079
  542TMC3    C4 8095   2.192   0.020  12.637  0.0089  0.1954 -0.5093
  542TMC3    C5 8096   2.084   0.005  12.548  0.0527  0.6691  0.0201
  542TMC3    C6 8097   2.068   4.633  12.467 -0.1703 -0.6223  0.0366
  542TMC3     C 8098   2.384   4.664  12.736 -0.4298  0.6852  0.1284
  542TMC3     O 8099   2.437   0.031  12.755  0.1525 -0.1370  0.0155
  542TMC3     H 8100   2.359   4.471  12.569  0.0013  1.2429 -0.5284
  542TMC3    H1 8101   2.211   0.104  12.703  3.3232 -1.5880  0.7880
  542TMC3    H2 8102   1.986   4.604  12.403 -1.4008  0.7040  1.0027
  542TMC3    C7 8103   2.026   0.130  12.494 -0.2173  0.2372  1.0000
  542TMC3    C8 8104   2.171   4.431  12.381 -0.7622 -0.1489  0.3156
  542TMC3    O1 8105   2.100   0.228  12.486  0.1819 -0.8338  0.6503
  542TMC3    O2 8106   2.089   4.438  12.288  0.0888  0.0146 -0.3230
  543TMC3    C1 8107   2.691   1.461  17.550  0.4350 -0.5633 -0.0752
  543TMC3    C2 8108   2.611   1.368  17.612 -0.3028 -0.1905 -0.2371
  543TMC3    C3 8109   2.538   1.405  17.717 -1.0654 -0.2169  0.4212
  543TMC3    C4 8110   2.698   1.593  17.603 -0.0603  0.0702  0.2561
  543TMC3    C5 8111   2.623   1.629  17.712  0.5215 -0.6118 -0.3212
  543TMC3    C6 8112   2.547   1.532   0.015 -0.1625 -0.7315  0.4443
  543TMC3     C 8113   2.709   1.426  17.404 -0.3172 -0.2504 -0.2638
  543TMC3     O 8114   2.708   1.308  17.375 -0.4341 -0.1988  0.3440
  543TMC3     H 8115   2.594   1.267  17.575  0.6670 -0.0217 -1.1197
  543TMC3    H1 8116   2.740   1.671  17.540 -1.4451  1.1569  0.6692
  543TMC3    H2 8117   2.495   1.546   0.110  1.0517 -2.0804  1.3137
  543TMC3    C7 8118   2.601   1.765  17.746 -0.2092  0.2935  0.3018
  543TMC3    C8 8119   2.427   1.320  17.750  0.2235  0.2365  0.3285
  543TMC3    O1 8120   2.520   1.774   0.075  0.3371 -0.5391  0.3048
  543TMC3    O2 8121   2.322   1.377   0.013  0.6158  0.4445  0.7898
  544MPD2     C 8122   2.196   0.876   0.104  0.7964 -0.0215 -0.3257
  544MPD2    C1 8123   2.329   0.852   0.093 -0.3450  0.2129 -0.0577
  544MPD2    C2 8124   2.413   0.954   0.053 -0.6079 -0.8059 -0.1793
  544MPD2    C3 8125   2.375   1.088   0.049  0.1630 -0.7755  0.3858
  544MPD2    C4 8126   2.237   1.110   0.068  1.2012  0.0101 -0.0129
  544MPD2    C5 8127   2.152   1.008   0.092  0.0465  0.3631  0.0562
  544MPD2     H 8128   2.518   0.931   0.038 -0.6085 -0.4445 -0.7292
  544MPD2    H1 8129   2.187   1.204   0.049  0.1992 -0.8288 -1.5522
  544MPD2    H2 8130   2.122   0.797   0.108  1.3745 -0.5577 -0.2224
  544MPD2    H3 8131   2.050   1.037   0.115  0.6415  1.1242  1.8097
  544MPD2     N 8132   2.465   1.198   0.015  0.0138 -0.1034 -0.0596
  544MPD2    H5 8133   2.560   1.171  17.757  0.7848  1.8596  1.0050
  544MPD2    N1 8134   2.371   0.722   0.118 -0.1374 -0.1553  0.0546
  544MPD2    H7 8135   2.305   0.645   0.113  1.1426 -1.2142 -0.6766
  545TMC3    C1 8136   2.500   0.536   0.188  0.8759  0.7596 -0.0028
  545TMC3    C2 8137   2.422   0.447   0.123 -0.7689 -0.3504  0.0077
  545TMC3    C3 8138   2.426   0.314   0.150 -0.2175 -0.2444 -0.3630
  545TMC3    C4 8139   2.606   0.490   0.261  0.0007  0.0464 -0.2111
  545TMC3    C5 8140   2.611   0.355   0.288  0.3454 -0.5594 -0.1305
  545TMC3    C6 8141   2.523   0.262   0.237 -0.2825  0.0517  0.4882
  545TMC3     C 8142   2.492   0.674   0.167 -0.0657 -0.0866  0.0612
  545TMC3     O 8143   2.583   0.745   0.205  0.0418 -0.2267  0.0936
  545TMC3     H 8144   2.343   0.485   0.059 -1.3819 -1.5960  0.0302
  545TMC3    H1 8145   2.675   0.561   0.305  0.3055 -0.0453 -0.5310
  545TMC3    H2 8146   2.525   0.157   0.264  0.9383  0.4743  2.0623
  545TMC3    C7 8147   2.713   0.322   0.389  0.5185 -0.4594  0.4182
  545TMC3    C8 8148   2.344   0.231   0.067 -0.1171 -0.2884  0.5731
  545TMC3    O1 8149   2.750   0.412   0.464  0.7467 -0.5226  0.9286
  545TMC3    O2 8150   2.259   0.293   0.005 -0.0407 -0.6207  0.1468
  546MPD2     C 8151   3.748   0.914  17.511 -0.7031 -0.5367 -0.0528
  546MPD2    C1 8152   3.781   0.959  17.385  0.1644 -0.3124 -0.3336
  546MPD2    C2 8153   3.832   1.082  17.355  0.6914 -0.3730 -0.0385
  546MPD2    C3 8154   3.852   1.167  17.460 -0.0008 -0.3205 -0.2253
  546MPD2    C4 8155   3.812   1.135  17.588 -0.2778  0.4324  0.7233
  546MPD2    C5 8156   3.758   1.010  17.607  0.9329  0.2786  0.0676
  546MPD2     H 8157   3.846   1.111  17.251 -0.1510 -0.0109 -0.0545
  546MPD2    H1 8158   3.814   1.201  17.674  1.0077 -1.3643  2.0665
  546MPD2    H2 8159   3.706   0.816  17.527  1.8529 -1.7214 -0.5660
  546MPD2    H3 8160   3.726   0.983  17.707 -0.6718 -0.1423 -0.5732
  546MPD2     N 8161   3.906   1.293  17.446  0.5555 -0.0016 -0.2266
  546MPD2    H5 8162   3.924   1.338  17.536 -0.3816  0.1238 -0.0966
  546MPD2    N1 8163   3.744   0.861  17.284 -0.4459  0.1507 -0.4025
  546MPD2    H7 8164   3.697   0.779  17.321 -0.8726  0.6598  0.1738
  547TMC3    C1 8165   3.701   0.743  17.096  0.6769 -0.1927 -0.2930
  547TMC3    C2 8166   3.636   0.757  16.974 -0.3309  0.5737  0.6619
  547TMC3    C3 8167   3.543   0.656  16.942  0.6188 -0.6107  1.1824
  547TMC3    C4 8168   3.697   0.630  17.174 -0.0367  0.4999  0.3457
  547TMC3    C5 8169   3.606   0.538  17.129 -0.1798  0.9341  0.1863
  547TMC3    C6 8170   3.541   0.539  17.009 -0.0322 -0.0450  0.0040
  547TMC3     C 8171   3.772   0.859  17.150 -0.0691 -0.0005 -0.8149
  547TMC3     O 8172   3.825   0.938  17.075 -0.2756 -0.1441 -0.0239
  547TMC3     H 8173   3.652   0.846  16.915 -0.1882  0.3835  0.4149
  547TMC3    H1 8174   3.768   0.599  17.249 -0.1778  0.8273  0.6121
  547TMC3    H2 8175   3.476   0.459  16.975  0.2157 -0.5633  0.7396
  547TMC3    C7 8176   3.554   0.437  17.223 -0.0693  0.3852 -0.1973
  547TMC3    C8 8177   3.424   0.688  16.867  0.7356 -0.5521  0.0705
  547TMC3    O1 8178   3.440   0.391  17.198 -0.6212 -0.2210  0.4778
  547TMC3    O2 8179   3.388   0.804  16.895  0.3096 -0.0134 -0.0485
  548MPD2     C 8180   2.855   1.503  12.831  0.1796  0.5677 -0.1165
  548MPD2    C1 8181   2.820   1.386  12.778  0.3752 -0.2740 -0.4504
  548MPD2    C2 8182   2.906   1.313  12.701  0.9696  0.4913  0.4018
  548MPD2    C3 8183   3.026   1.365  12.657  0.5743 -0.4612  0.0228
  548MPD2    C4 8184   3.057   1.487  12.711  0.0078  0.0902  0.0078
  548MPD2    C5 8185   2.979   1.554  12.792 -0.2956  0.4301  0.0022
  548MPD2     H 8186   2.872   1.217  12.664  2.2577  0.4033 -0.5772
  548MPD2    H1 8187   3.154   1.534  12.694  0.0257  0.2363  0.5322
  548MPD2    H2 8188   2.789   1.564  12.891 -0.4916 -0.5542  0.2922
  548MPD2    H3 8189   3.006   1.651  12.832  0.6869  0.9355 -1.8940
  548MPD2     N 8190   3.113   1.288  12.579 -0.1631  0.0630  0.5922
  548MPD2    H5 8191   3.091   1.189  12.582 -0.9040  0.2127 -0.0859
  548MPD2    N1 8192   2.687   1.346  12.801  0.1451 -0.0003 -0.8547
  548MPD2    H7 8193   2.633   1.403  12.866  0.3817  1.4559 -1.9509
  549TMC3    C1 8194   2.475   1.250  12.760 -0.6445 -0.5386  0.3448
  549TMC3    C2 8195   2.415   1.376  12.768 -0.0842 -0.8093  0.7311
  549TMC3    C3 8196   2.281   1.375  12.790  0.2605 -0.1017  0.0643
  549TMC3    C4 8197   2.411   1.127  12.761 -0.5441 -0.1244  0.1100
  549TMC3    C5 8198   2.276   1.140  12.782 -0.2066  0.1375 -0.8555
  549TMC3    C6 8199   2.212   1.258  12.799 -0.0933  0.1574  0.4020
  549TMC3     C 8200   2.620   1.239  12.742 -0.5954  0.4853 -0.6369
  549TMC3     O 8201   2.651   1.160  12.652 -0.1803  0.3506 -0.7257
  549TMC3     H 8202   2.471   1.463  12.740 -0.0797  0.0625  3.4210
  549TMC3    H1 8203   2.464   1.034  12.745  1.6839  0.9570  1.2087
  549TMC3    H2 8204   2.105   1.269  12.817 -0.5396 -0.8520 -1.5931
  549TMC3    C7 8205   2.191   1.025  12.789  0.4452 -0.1772  0.5227
  549TMC3    C8 8206   2.212   1.507  12.770 -0.6944 -0.4153 -0.4577
  549TMC3    O1 8207   2.082   1.035  12.841  0.7811 -0.1170  0.2380
  549TMC3    O2 8208   2.093   1.502  12.747  0.2750  0.0819  0.1853
  550TMC3    C1 8209   1.896   3.737  12.442 -0.2153 -0.4694 -0.5461
  550TMC3    C2 8210   1.839   3.785  12.559 -0.1479 -0.3660  0.0635
  550TMC3    C3 8211   1.851   3.916  12.603 -0.9289 -0.0928 -0.3938
  550TMC3    C4 8212   1.983   3.821  12.375 -0.1865 -0.2921 -0.5289
  550TMC3    C5 8213   1.990   3.948  12.420 -0.2145 -0.5352  0.4238
  550TMC3    C6 8214   1.926   4.000  12.530  0.3398  0.3959 -0.2693
  550TMC3     C 8215   1.787   3.691  12.352  0.7064  0.0044 -0.3480
  550TMC3     O 8216   1.679   3.680  12.411  0.0748  0.0804 -0.4714
  550TMC3     H 8217   1.768   3.725  12.614  0.4820 -0.8015  0.3953
  550TMC3    H1 8218   2.034   3.795  12.282 -0.4523 -1.0721 -0.4587
  550TMC3    H2 8219   1.931   4.107  12.544  0.4363  0.1755  1.3954
  550TMC3    C7 8220   1.970   4.035  12.308 -0.4939 -0.1920  0.3279
  550TMC3    C8 8221   1.725   3.970  12.640  0.1295 -0.0987 -0.1296
  550TMC3    O1 8222   2.029   4.009  12.205 -0.8750  0.0412  0.1403
  550TMC3    O2 8223   1.724   4.067  12.717 -0.5870  0.3342 -0.1843
  551TMC3    C1 8224   3.823   1.951  13.522 -0.3914  0.1514 -0.0609
  551TMC3    C2 8225   3.902   1.850  13.546  0.1259  0.4652  0.3124
  551TMC3    C3 8226   4.009   1.859  13.627  0.2995 -0.4353 -0.1032
  551TMC3    C4 8227   3.839   2.070  13.587  0.5749  0.3338 -0.6844
  551TMC3    C5 8228   3.934   2.077  13.689  0.1972 -0.7264 -0.4417
  551TMC3    C6 8229   4.033   1.976  13.699 -0.4074 -0.1047  0.9905
  551TMC3     C 8230   3.729   1.934  13.415  0.3096  0.4204  0.0552
  551TMC3     O 8231   3.734   1.834  13.347  0.5772 -0.2259 -0.6720
  551TMC3     H 8232   3.894   1.756  13.492 -0.1817  0.6066  0.1146
  551TMC3    H1 8233   3.780   2.155  13.554  0.7570  0.7170 -0.0302
  551TMC3    H2 8234   4.115   1.981  13.770 -1.8835 -0.5937  2.7493
  551TMC3    C7 8235   3.982   2.209  13.733  0.1908 -0.1901  0.0750
  551TMC3    C8 8236   4.121   1.793  13.570  0.4037 -0.1443  0.2503
  551TMC3    O1 8237   4.099   2.211  13.779 -0.0857  0.3924 -0.6593
  551TMC3    O2 8238   4.101   1.718  13.478  0.3526 -0.7469  0.1129
  552MPD2     C 8239   1.546   4.071  14.369  0.0862  0.9802  0.8513
  552MPD2    C1 8240   1.662   4.032  14.317  0.6871 -0.1291  0.7639
  552MPD2    C2 8241   1.773   4.020  14.402  0.1277 -0.1909  0.3340
  552MPD2    C3 8242   1.767   4.060  14.534 -0.7074 -0.0730  0.0163
  552MPD2    C4 8243   1.646   4.089  14.583  0.0306 -0.5655  0.1712
  552MPD2    C5 8244   1.536   4.094  14.500 -0.2988  0.1966 -0.4984
  552MPD2     H 8245   1.867   3.984  14.361 -0.9799 -1.9160 -0.6611
  552MPD2    H1 8246   1.630   4.108  14.689 -0.4241  1.4794 -0.2726
  552MPD2    H2 8247   1.454   4.069  14.311  1.1645  1.2515 -0.8541
  552MPD2    H3 8248   1.440   4.129  14.537 -0.5645 -1.8006  0.6824
  552MPD2     N 8249   1.883   4.072  14.615 -0.3091 -0.0782  0.0083
  552MPD2    H5 8250   1.869   4.102  14.711  1.5026 -0.4671  0.3840
  552MPD2    N1 8251   1.673   3.983  14.189 -0.1064 -0.3023  0.8874
  552MPD2    H7 8252   1.755   3.927  14.170  0.6653  1.2407 -0.3020
  553TMC3    C1 8253   1.596   3.867  13.993 -0.6574 -1.1008  0.0039
  553TMC3    C2 8254   1.524   3.870  13.874 -0.0681  0.3199  0.0164
  553TMC3    C3 8255   1.523   3.751  13.800  0.3824  0.5359  0.1410
  553TMC3    C4 8256   1.656   3.756  14.035  0.0425  0.0715  0.5566
  553TMC3    C5 8257   1.651   3.647  13.961  0.5823 -0.3933 -0.4346
  553TMC3    C6 8258   1.588   3.640  13.842  0.0230 -0.1351 -0.3172
  553TMC3     C 8259   1.572   3.966  14.098  0.1560  0.4801  0.7290
  553TMC3     O 8260   1.473   4.040  14.077 -0.2096  0.0327  0.3404
  553TMC3     H 8261   1.490   3.967  13.840  1.3237  0.3796 -1.1902
  553TMC3    H1 8262   1.686   3.755  14.139  1.0076 -0.9494  0.2591
  553TMC3    H2 8263   1.593   3.547  13.786  0.3570  1.0122 -2.2270
  553TMC3    C7 8264   1.719   3.533  14.011 -0.3659  0.4283  0.6267
  553TMC3    C8 8265   1.503   3.743  13.657  0.5998 -0.4987  0.6089
  553TMC3    O1 8266   1.672   3.425  13.975 -0.4721 -0.5827 -0.2570
  553TMC3    O2 8267   1.538   3.645  13.594  0.3736 -0.0961  0.3134
  554TMC3    C1 8268   2.957   3.194  11.630  0.4104  0.2851 -0.2904
  554TMC3    C2 8269   2.873   3.185  11.527 -0.5549  0.5554  0.2077
  554TMC3    C3 8270   2.891   3.281  11.424  0.0359  0.4622  0.2810
  554TMC3    C4 8271   3.066   3.271  11.631  0.0126 -0.2019  0.8434
  554TMC3    C5 8272   3.092   3.348  11.516 -0.1629 -0.2728 -0.1649
  554TMC3    C6 8273   2.999   3.358  11.407 -0.3639 -0.3773  0.2224
  554TMC3     C 8274   2.925   3.092  11.734 -0.0435 -0.4903 -0.1041
  554TMC3     O 8275   2.808   3.055  11.740 -0.1958 -0.0269 -0.1325
  554TMC3     H 8276   2.785   3.122  11.536  0.1841 -0.6069 -0.7534
  554TMC3    H1 8277   3.126   3.269  11.721  0.7834 -0.0927  0.3311
  554TMC3    H2 8278   2.998   3.438  11.334  2.3370  0.9347  1.6357
  554TMC3    C7 8279   3.206   3.435  11.530 -0.0555 -0.3315 -0.0306
  554TMC3    C8 8280   2.821   3.271  11.297  0.6339  0.4281  0.5236
  554TMC3    O1 8281   3.256   3.455  11.639  0.3688  0.4591  0.2352
  554TMC3    O2 8282   2.889   3.291  11.198  0.1129  0.2812  1.2169
  555TMC3    C1 8283   2.497   2.351  14.750  0.0161 -0.1388 -0.9953
  555TMC3    C2 8284   2.463   2.449  14.843  0.0885  0.0437 -0.3991
  555TMC3    C3 8285   2.447   2.411  14.973 -0.4439  0.3750  0.1201
  555TMC3    C4 8286   2.501   2.217  14.782  0.6044  0.1488 -0.1526
  555TMC3    C5 8287   2.483   2.184  14.909 -0.0577 -0.4413 -0.0223
  555TMC3    C6 8288   2.461   2.278  15.004 -0.2447  0.2653 -0.5205
  555TMC3     C 8289   2.500   2.386  14.611  0.0259 -0.9523 -0.6134
  555TMC3     O 8290   2.590   2.335  14.545 -0.3025 -0.3490  0.1842
  555TMC3     H 8291   2.468   2.555  14.823  1.1268  0.1646  0.5127
  555TMC3    H1 8292   2.533   2.150  14.703 -0.4235 -0.6017  0.0770
  555TMC3    H2 8293   2.444   2.244  15.106 -0.4451  1.7038 -0.0615
  555TMC3    C7 8294   2.466   2.043  14.949  0.6072  0.6506 -0.5457
  555TMC3    C8 8295   2.434   2.511  15.074 -0.5292 -0.1259 -0.3952
  555TMC3    O1 8296   2.415   2.016  15.057 -0.0670 -0.2724  0.1899
  555TMC3    O2 8297   2.390   2.615  15.032 -0.1837 -0.3920  0.5424
  556MPD2     C 8298   0.591   4.366  10.827 -0.1742 -0.5727  0.7041
  556MPD2    C1 8299   0.473   4.304  10.871 -0.2192 -0.1217  0.3991
  556MPD2    C2 8300   0.408   4.216  10.784  0.7557  0.4185  0.0759
  556MPD2    C3 8301   0.446   4.203  10.651 -0.0458  0.4872 -1.1514
  556MPD2    C4 8302   0.562   4.262  10.603  0.0933  0.1058 -1.5668
  556MPD2    C5 8303   0.626   4.347  10.693  0.2365  0.0293  0.2553
  556MPD2     H 8304   0.319   4.168  10.823  1.1237 -1.7969 -1.7498
  556MPD2    H1 8305   0.602   4.255  10.503  1.3822  0.1342 -1.0531
  556MPD2    H2 8306   0.644   4.440  10.885  0.5240  0.1654 -0.8842
  556MPD2    H3 8307   0.705   4.406  10.647  0.9289 -1.3381 -0.2973
  556MPD2     N 8308   0.366   4.126  10.564  0.1214 -0.3907 -0.7297
  556MPD2    H5 8309   0.290   4.077  10.611 -0.2457  0.4071 -0.4800
  556MPD2    N1 8310   0.421   4.322  10.999  0.0060 -0.5047  0.2982
  556MPD2    H7 8311   0.341   4.265  11.025 -1.7311  1.7677 -0.1501
  557TMC3    C1 8312   0.279   4.031  10.359  1.1370  0.3370  0.9672
  557TMC3    C2 8313   0.259   4.051  10.224  0.2198  1.1396  0.8821
  557TMC3    C3 8314   0.219   3.963  10.132  0.0672 -0.1858 -0.2940
  557TMC3    C4 8315   0.272   3.907  10.405  0.6352  0.5670 -0.7113
  557TMC3    C5 8316   0.247   3.808  10.316 -0.5996 -0.1765 -0.0416
  557TMC3    C6 8317   0.215   3.829  10.183 -0.1597 -0.0844 -0.2373
  557TMC3     C 8318   0.369   4.124  10.426  0.2487  0.2083  0.1728
  557TMC3     O 8319   0.431   4.201  10.356  0.0488  0.2030 -0.0647
  557TMC3     H 8320   0.260   4.155  10.194  0.2866  1.3522  1.6133
  557TMC3    H1 8321   0.296   3.886  10.509  2.0472 -0.4273 -1.2355
  557TMC3    H2 8322   0.193   3.740  10.126  1.7274 -0.7222  0.0322
  557TMC3    C7 8323   0.213   3.674  10.369 -0.3331 -0.0381 -0.5463
  557TMC3    C8 8324   0.187   4.006   9.992 -0.3722  0.3446  0.5942
  557TMC3    O1 8325   0.189   3.679  10.484  0.1057 -0.7129 -0.5872
  557TMC3    O2 8326   0.173   4.125   9.971  0.5683 -0.2706 -0.7463
  558TMC3    C1 8327   2.710   1.829  10.717  0.6029  0.0100 -0.4995
  558TMC3    C2 8328   2.590   1.829  10.774 -0.0198  0.1500  0.2715
  558TMC3    C3 8329   2.493   1.905  10.714  0.3812 -0.2735  0.8167
  558TMC3    C4 8330   2.738   1.897  10.608 -0.0197 -0.0606  0.8742
  558TMC3    C5 8331   2.638   1.981  10.552 -0.3561  0.0760  0.2893
  558TMC3    C6 8332   2.514   1.975  10.600 -0.0036  0.6494 -0.5871
  558TMC3     C 8333   2.825   1.816  10.809  1.1381  0.4904  0.1184
  558TMC3     O 8334   2.906   1.906  10.817  0.1407  0.0992 -1.1735
  558TMC3     H 8335   2.562   1.767  10.859 -1.6646 -1.1834 -1.2306
  558TMC3    H1 8336   2.838   1.911  10.567 -0.2157  2.4942  1.2172
  558TMC3    H2 8337   2.426   2.027  10.562 -0.1475  1.1060  0.3919
  558TMC3    C7 8338   2.667   2.062  10.437  0.0271  0.0506  0.1801
  558TMC3    C8 8339   2.398   1.972  10.805  0.1940  0.3686 -0.2936
  558TMC3    O1 8340   2.773   2.027  10.382  0.2202 -0.2358  0.0347
  558TMC3    O2 8341   2.310   2.037  10.753 -0.2383 -0.3795 -0.3284
  559MPD2     C 8342   2.743   2.971  10.518  1.1053  1.0567  0.5141
  559MPD2    C1 8343   2.707   2.885  10.616 -0.6056 -0.7534 -0.2075
  559MPD2    C2 8344   2.815   2.804  10.662 -0.2411  1.2071 -0.2034
  559MPD2    C3 8345   2.946   2.810  10.616 -0.4001 -0.0126 -0.3021
  559MPD2    C4 8346   2.976   2.898  10.513 -0.2376  0.5702  0.4650
  559MPD2    C5 8347   2.870   2.969  10.467 -0.0056  0.1222  1.1204
  559MPD2     H 8348   2.792   2.739  10.746  0.9026  0.4369 -0.4776
  559MPD2    H1 8349   3.076   2.917  10.474  0.2422 -0.6275  1.1245
  559MPD2    H2 8350   2.671   3.034  10.467  0.4548  1.0022  1.3648
  559MPD2    H3 8351   2.885   3.047  10.392 -0.4842 -0.3821  0.4967
  559MPD2     N 8352   3.049   2.739  10.690 -0.1563 -0.0375 -0.2505
  559MPD2    H5 8353   3.022   2.675  10.764  1.3078 -1.8736 -1.3275
  559MPD2    N1 8354   2.572   2.876  10.662 -0.4215 -0.2759  0.3647
  559MPD2    H7 8355   2.503   2.944  10.633  0.0051  0.6237  1.4440
  560TMC3    C1 8356   3.254   2.688  10.778  0.3908  0.7221  0.8872
  560TMC3    C2 8357   3.186   2.630  10.877  0.3356  0.5556  0.1696
  560TMC3    C3 8358   3.262   2.589  10.985  0.2577  0.3061 -0.3010
  560TMC3    C4 8359   3.385   2.706  10.781  0.3181  0.3388  0.5543
  560TMC3    C5 8360   3.457   2.653  10.878 -0.0148 -0.3263  0.1535
  560TMC3    C6 8361   3.398   2.599  10.990  0.7064 -0.0896 -0.3089
  560TMC3     C 8362   3.184   2.763  10.679 -0.4921  0.1687 -0.1366
  560TMC3     O 8363   3.241   2.849  10.615  0.3982  0.2897  0.3498
  560TMC3     H 8364   3.078   2.619  10.883  0.7642 -4.3205 -1.2707
  560TMC3    H1 8365   3.432   2.753  10.696 -3.0144  0.9804 -0.9376
  560TMC3    H2 8366   3.451   2.561  11.077  0.8787  1.5128  0.2922
  560TMC3    C7 8367   3.603   2.653  10.868 -0.0449  0.1850 -0.4402
  560TMC3    C8 8368   3.185   2.531  11.093  0.1889  0.4279 -0.3552
  560TMC3    O1 8369   3.650   2.738  10.792 -0.0395  0.2956  0.0957
  560TMC3    O2 8370   3.067   2.555  11.097  0.7747 -0.5979  0.4903
  561TMC3    C1 8371   0.654   1.563  11.187 -0.2391  0.0013  0.2646
  561TMC3    C2 8372   0.545   1.495  11.230  0.0316 -0.0484  0.0683
  561TMC3    C3 8373   0.437   1.561  11.288  0.2907 -0.5758 -0.0811
  561TMC3    C4 8374   0.655   1.700  11.193 -0.4165 -0.2410  0.2872
  561TMC3    C5 8375   0.546   1.769  11.248 -0.1280 -0.5705 -0.2625
  561TMC3    C6 8376   0.435   1.699  11.294  0.8145 -0.3586 -0.2579
  561TMC3     C 8377   0.771   1.487  11.204 -0.0778 -0.0748 -0.5120
  561TMC3     O 8378   0.764   1.364  11.198 -0.0605 -0.2555 -0.1057
  561TMC3     H 8379   0.556   1.387  11.235  0.0773 -0.1307 -1.6849
  561TMC3    H1 8380   0.733   1.755  11.142  0.5659 -2.2180 -0.3466
  561TMC3    H2 8381   0.341   1.742  11.324  1.4146 -1.4116  3.1450
  561TMC3    C7 8382   0.530   1.915  11.257 -0.3296  0.6374 -0.1157
  561TMC3    C8 8383   0.356   1.480  11.378  0.3292  0.1715  0.0697
  561TMC3    O1 8384   0.416   1.946  11.286  0.6611 -0.0187 -0.2794
  561TMC3    O2 8385   0.343   1.361  11.354 -0.2438 -0.2177 -0.1758
  562TMC3    C1 8386   2.290   2.277  15.744 -0.1866 -0.0492  0.5531
  562TMC3    C2 8387   2.206   2.289  15.635 -0.9740 -0.6804 -0.0971
  562TMC3    C3 8388   2.242   2.254  15.509 -1.2370  0.5941 -0.9191
  562TMC3    C4 8389   2.418   2.226  15.720 -0.0228  0.6530  0.4115
  562TMC3    C5 8390   2.443   2.178  15.590  0.4738 -0.3767 -0.1266
  562TMC3    C6 8391   2.363   2.199  15.478  0.6840  0.3380 -0.0288
  562TMC3     C 8392   2.269   2.314  15.884  0.2991  0.5674 -0.0962
  562TMC3     O 8393   2.348   2.268  15.965  0.0647 -0.0165 -0.0485
  562TMC3     H 8394   2.104   2.325  15.643 -0.4467  0.6387  0.6741
  562TMC3    H1 8395   2.475   2.195  15.807  0.1851  0.3724  0.1773
  562TMC3    H2 8396   2.398   2.162  15.383  0.6370  0.5421 -0.1272
  562TMC3    C7 8397   2.557   2.090  15.578 -0.0439  0.6303 -0.4220
  562TMC3    C8 8398   2.169   2.310  15.401 -0.5089  0.2254  0.1427
  562TMC3    O1 8399   2.604   2.081  15.463 -0.2967 -0.2901 -0.0406
  562TMC3    O2 8400   2.204   2.255  15.296 -0.6858 -0.2847 -0.1541
  563MPD2     C 8401   4.261   4.204  15.882 -0.7084  0.0089  0.9647
  563MPD2    C1 8402   4.362   4.129  15.949  0.3631  0.5673  0.0559
  563MPD2    C2 8403   4.486   4.189  15.965  0.4659  0.0457 -0.3135
  563MPD2    C3 8404   4.514   4.311  15.913 -0.4283 -0.0045 -0.5231
  563MPD2    C4 8405   4.422   4.377  15.838 -1.0450 -0.4193  0.2745
  563MPD2    C5 8406   4.289   4.325  15.841 -0.1526  0.5099 -0.3021
  563MPD2     H 8407   4.565   4.134  16.016  1.2469  1.6793  0.2397
  563MPD2    H1 8408   4.437   4.479  15.804 -0.1486 -0.2658  1.1005
  563MPD2    H2 8409   4.163   4.162  15.862 -0.7771 -0.2184  1.7511
  563MPD2    H3 8410   4.213   4.376  15.783  1.7073  2.0446 -1.4243
  563MPD2     N 8411   4.650   4.353  15.919 -0.1490 -0.4105  0.1458
  563MPD2    H5 8412   4.716   4.280  15.943 -0.4799 -0.7554  0.0178
  563MPD2    N1 8413   4.334   4.006  16.014 -0.1805 -0.1262 -0.0744
  563MPD2    H7 8414   4.407   3.966  16.072 -1.5856 -0.5482  1.4142
  564TMC3    C1 8415   4.214   3.823  16.106  0.7127  0.5651  0.6591
  564TMC3    C2 8416   4.103   3.737  16.106 -0.4628 -0.5604 -0.8728
  564TMC3    C3 8417   4.118   3.610  16.158 -0.0169 -0.1905 -0.9138
  564TMC3    C4 8418   4.322   3.787  16.175 -0.1269  0.1947 -0.3834
  564TMC3    C5 8419   4.333   3.662  16.230  0.0963  0.2965  0.7922
  564TMC3    C6 8420   4.232   3.569  16.225 -0.0937 -0.6831 -0.4495
  564TMC3     C 8421   4.218   3.934  16.014 -0.2478  0.1833 -0.2070
  564TMC3     O 8422   4.114   3.955  15.946  0.1199  0.7902  0.0097
  564TMC3     H 8423   4.009   3.778  16.071  0.7211  2.5807 -0.4188
  564TMC3    H1 8424   4.417   3.839  16.162 -0.5315  0.7859 -1.0303
  564TMC3    H2 8425   4.233   3.464  16.252 -2.9020 -1.1125 -1.9720
  564TMC3    C7 8426   4.460   3.635  16.301 -0.8742  0.5959  0.2342
  564TMC3    C8 8427   4.017   3.522  16.111 -0.1755  0.4415 -1.2268
  564TMC3    O1 8428   4.536   3.728  16.329 -0.2517  0.1469  0.0877
  564TMC3    O2 8429   3.998   3.418  16.175  0.0834  0.1479  0.0232
  565TMC3    C1 8430   0.019   1.400   9.603  0.2237  0.0810  0.1965
  565TMC3    C2 8431   0.042   1.285   9.674 -0.2045 -0.9593 -0.1592
  565TMC3    C3 8432   4.674   1.190   9.675  1.0105  0.4686  0.4721
  565TMC3    C4 8433   4.644   1.426   9.538 -0.2809 -0.3827 -0.5884
  565TMC3    C5 8434   4.541   1.330   9.535  0.4047 -0.0544 -0.0244
  565TMC3    C6 8435   4.558   1.216   9.604  0.8203  0.1179  0.7033
  565TMC3     C 8436   0.111   1.520   9.599  0.4968 -0.2562  0.1142
  565TMC3     O 8437   0.084   1.616   9.526  0.0307  0.5287 -0.3037
  565TMC3     H 8438   0.132   1.269   9.732  1.0801  0.1589 -1.8612
  565TMC3    H1 8439   4.641   1.505   9.464  1.6169 -0.2734 -0.5439
  565TMC3    H2 8440   4.492   1.131   9.594  0.5923  0.8227 -3.6194
  565TMC3    C7 8441   4.410   1.361   9.490 -0.0511 -0.5221  0.6758
  565TMC3    C8 8442   4.675   1.067   9.757 -0.0754  0.3331  0.1451
  565TMC3    O1 8443   4.399   1.479   9.465 -0.1259 -0.1106  0.3312
  565TMC3    O2 8444   4.572   1.007   9.767 -0.5585  0.1380  1.1120
  566MPD2     C 8445   1.731   2.360  14.190  0.2623 -0.6004  0.0324
  566MPD2    C1 8446   1.798   2.446  14.110  0.2873 -0.0324  0.3009
  566MPD2    C2 8447   1.727   2.524  14.025  0.1646 -0.1184 -0.2214
  566MPD2    C3 8448   1.589   2.503  14.008 -0.8081  0.2714  0.8055
  566MPD2    C4 8449   1.529   2.409  14.092 -1.1682 -0.2872  0.4577
  566MPD2    C5 8450   1.601   2.343  14.185  0.1064  0.5602  0.2783
  566MPD2     H 8451   1.785   2.593  13.966 -2.7449  0.6264 -2.2192
  566MPD2    H1 8452   1.421   2.398  14.093 -0.9952 -1.6614  3.3569
  566MPD2    H2 8453   1.790   2.302  14.261  0.5106 -0.4379 -0.0432
  566MPD2    H3 8454   1.564   2.264  14.250  0.6806 -1.3244 -1.6749
  566MPD2     N 8455   1.513   2.558  13.905 -0.2575  0.6243  0.4594
  566MPD2    H5 8456   1.414   2.558  13.926 -0.1225 -0.2151  1.1008
  566MPD2    N1 8457   1.933   2.441  14.123  0.0756  0.2617  0.6463
  566MPD2    H7 8458   1.965   2.382  14.199 -0.4865 -2.3851 -1.1575
  567TMC3    C1 8459   2.146   2.396  14.020 -0.0231  0.0685 -0.1571
  567TMC3    C2 8460   2.239   2.431  13.920  0.4494 -0.0542 -0.0759
  567TMC3    C3 8461   2.368   2.387  13.924  0.5887  0.2426 -1.3199
  567TMC3    C4 8462   2.186   2.329  14.130 -0.1233 -0.1481 -0.0982
  567TMC3    C5 8463   2.318   2.296  14.141  0.0919 -0.2239  0.0940
  567TMC3    C6 8464   2.409   2.320  14.038  0.6663 -0.8131  0.1064
  567TMC3     C 8465   2.016   2.466  14.013 -0.1878  0.3263  0.5109
  567TMC3     O 8466   1.992   2.524  13.910 -0.1992 -0.1804  0.6327
  567TMC3     H 8467   2.204   2.484  13.832 -1.6902  1.8103  1.9148
  567TMC3    H1 8468   2.108   2.290  14.194 -1.4473 -2.4485 -3.0775
  567TMC3    H2 8469   2.504   2.268  14.044  0.8802 -0.3156  1.1120
  567TMC3    C7 8470   2.359   2.197  14.242 -0.3827 -0.2619  1.2036
  567TMC3    C8 8471   2.451   2.416  13.805 -0.0598  0.4799 -0.1106
  567TMC3    O1 8472   2.474   2.157  14.249  0.5143  0.6068  0.4302
  567TMC3    O2 8473   2.393   2.400  13.697  0.0322 -0.2985  0.2853
  568MPD2     C 8474   4.479   2.821  16.161 -0.1049  0.2477  0.0762
  568MPD2    C1 8475   4.415   2.853  16.280 -1.2152 -0.3906  0.1707
  568MPD2    C2 8476   4.272   2.852  16.269  0.2660  0.0283  1.1396
  568MPD2    C3 8477   4.204   2.826  16.156 -0.1106 -0.2834 -0.2518
  568MPD2    C4 8478   4.272   2.798  16.037  0.4598 -0.4088 -0.5224
  568MPD2    C5 8479   4.408   2.800  16.045 -0.2270  0.0555  0.0477
  568MPD2     H 8480   4.222   2.861  16.365  0.5640 -0.3473  1.3287
  568MPD2    H1 8481   4.217   2.792  15.943 -0.0112  0.4496 -0.3019
  568MPD2    H2 8482   4.587   2.815  16.155 -0.0423  0.3229  1.1822
  568MPD2    H3 8483   4.470   2.779  15.958 -0.7782 -0.8836 -0.1160
  568MPD2     N 8484   4.060   2.835  16.164  0.3890 -0.1255 -0.5826
  568MPD2    H5 8485   4.021   2.878  16.247 -0.2844 -1.8887  0.0145
  568MPD2    N1 8486   4.484   2.860  16.404  0.1019  0.3987  0.7605
  568MPD2    H7 8487   4.579   2.825  16.400 -0.4150 -0.9119 -0.4871
  569TMC3    C1 8488   3.836   2.849  16.100  0.3358 -0.4585  0.3924
  569TMC3    C2 8489   3.807   2.908  16.218  0.6807  0.2462  0.2084
  569TMC3    C3 8490   3.693   2.989  16.214 -0.3931  0.9684 -0.0253
  569TMC3    C4 8491   3.751   2.865  15.991 -0.1857 -0.0516 -0.4878
  569TMC3    C5 8492   3.647   2.954  15.982  0.7988  0.3753 -0.0044
  569TMC3    C6 8493   3.628   3.025  16.100 -0.1333 -0.4384  0.1843
  569TMC3     C 8494   3.972   2.801  16.064  0.9068 -0.3266  0.4674
  569TMC3     O 8495   3.995   2.767  15.950  0.0913 -0.7735  0.0572
  569TMC3     H 8496   3.842   2.880  16.317 -1.6837 -1.2270  0.6113
  569TMC3    H1 8497   3.776   2.823  15.895 -2.0891 -1.8419 -0.2033
  569TMC3    H2 8498   3.533   3.076  16.116 -0.3004 -1.3776  2.1951
  569TMC3    C7 8499   3.661   3.047  15.873  1.1207 -0.0809  0.2648
  569TMC3    C8 8500   3.668   3.065  16.325  0.3775 -0.1247  0.0312
  569TMC3    O1 8501   3.707   3.003  15.772  0.2510 -0.3255  0.3349
  569TMC3    O2 8502   3.554   3.092  16.354  0.0909 -0.2127  0.1658
  570TMC3    C1 8503   3.788   1.693  16.387  0.2297  0.1314  0.0720
  570TMC3    C2 8504   3.808   1.725  16.254  1.1196 -0.3542 -0.3842
  570TMC3    C3 8505   3.820   1.859  16.222 -0.1276  0.6176  0.4156
  570TMC3    C4 8506   3.745   1.788  16.477 -1.1397 -0.1731  1.1461
  570TMC3    C5 8507   3.746   1.918  16.432 -0.4283  0.5569 -0.2061
  570TMC3    C6 8508   3.788   1.961  16.308 -0.1174  0.6427 -0.3643
  570TMC3     C 8509   3.749   1.558  16.417 -0.3492  1.2928 -0.2766
  570TMC3     O 8510   3.723   1.481  16.324 -0.2918 -0.5694 -1.0669
  570TMC3     H 8511   3.841   1.660  16.173  1.6854 -0.7563  0.1596
  570TMC3    H1 8512   3.715   1.767  16.578  3.2333  0.0831  2.5154
  570TMC3    H2 8513   3.812   2.064  16.281  1.1128  0.2841 -0.6499
  570TMC3    C7 8514   3.712   2.021  16.529 -0.9203 -0.2404  0.4149
  570TMC3    C8 8515   3.884   1.899  16.101 -0.0754 -0.1186 -0.3386
  570TMC3    O1 8516   3.714   1.986  16.648 -0.1761  0.3076  0.3749
  570TMC3    O2 8517   3.997   1.855  16.085 -0.0780 -0.4265 -0.0595
  571MPD2     C 8518   1.874   3.280  17.254  0.5350 -0.2087 -0.5494
  571MPD2    C1 8519   1.861   3.289  17.393 -0.6362  0.1809  0.3583
  571MPD2    C2 8520   1.869   3.422  17.448 -0.2798 -0.6402  0.9970
  571MPD2    C3 8521   1.890   3.538  17.373  0.0314 -0.5035  0.0897
  571MPD2    C4 8522   1.886   3.520  17.239  0.4503  0.1987  0.2078
  571MPD2    C5 8523   1.885   3.397  17.180 -0.0382  1.1280 -0.4617
  571MPD2     H 8524   1.872   3.428  17.556  0.6503  0.4646  0.9099
  571MPD2    H1 8525   1.889   3.605  17.172 -0.5050  1.0472  1.2415
  571MPD2    H2 8526   1.861   3.188  17.198  1.3840  0.1897 -1.3888
  571MPD2    H3 8527   1.891   3.400  17.072 -0.2949  0.1808 -0.5033
  571MPD2     N 8528   1.904   3.667  17.424 -0.3667  0.3739  0.2704
  571MPD2    H5 8529   1.915   3.743  17.357  0.3908 -0.1430 -0.1909
  571MPD2    N1 8530   1.816   3.173  17.465  0.0915  0.7375 -0.3072
  571MPD2    H7 8531   1.801   3.090  17.407  0.6645 -0.9542  1.9694
  572TMC3    C1 8532   1.904   3.840  17.586 -0.7499 -0.3769 -0.7390
  572TMC3    C2 8533   1.846   3.874  17.705  0.4309 -0.6121  0.0856
  572TMC3    C3 8534   1.811   4.006  17.722 -0.5540  0.0787  0.1658
  572TMC3    C4 8535   1.961   3.931  17.496 -1.4923  0.0277  0.2599
  572TMC3    C5 8536   1.933   4.060  17.528  0.9851  0.4553  0.6769
  572TMC3    C6 8537   1.860   4.100  17.637 -0.0272  0.2428  0.1398
  572TMC3     C 8538   1.899   3.694  17.560  1.0685 -0.9875  0.5373
  572TMC3     O 8539   1.887   3.617  17.654  0.1860  0.0590  0.0379
  572TMC3     H 8540   1.796   3.797   0.002  0.3406 -1.1765 -0.7452
  572TMC3    H1 8541   2.008   3.898  17.404 -3.0590 -1.4291 -0.0213
  572TMC3    H2 8542   1.849   4.207  17.650  0.3330  0.6016 -2.4689
  572TMC3    C7 8543   1.996   4.170  17.455 -0.1451  0.1739  0.1830
  572TMC3    C8 8544   1.748   4.052   0.077 -0.4236 -0.0599 -0.3284
  572TMC3    O1 8545   1.970   4.287  17.488  0.4337  0.1657 -0.2815
  572TMC3    O2 8546   1.706   4.165   0.071  0.0160 -0.6026 -0.2245
  573MPD2     C 8547   2.573   3.667   0.838  0.9566 -0.0584  0.4889
  573MPD2    C1 8548   2.546   3.800   0.855 -0.1576 -0.1155 -0.1865
  573MPD2    C2 8549   2.626   3.892   0.786  0.7068 -0.2903 -0.3273
  573MPD2    C3 8550   2.726   3.859   0.697  0.0658  0.5578 -0.1521
  573MPD2    C4 8551   2.753   3.720   0.686  0.5300 -0.1760  0.6589
  573MPD2    C5 8552   2.677   3.625   0.759  0.9694  0.1879  0.1032
  573MPD2     H 8553   2.600   3.994   0.812  1.0955 -0.8280  2.0996
  573MPD2    H1 8554   2.834   3.680   0.627 -0.5427  0.9320 -1.6065
  573MPD2    H2 8555   2.513   3.595   0.892  0.2012 -0.8195 -1.3766
  573MPD2    H3 8556   2.698   3.520   0.747 -0.4519 -0.0819 -0.1277
  573MPD2     N 8557   2.785   3.965   0.611  0.0089 -0.4112 -0.2458
  573MPD2    H5 8558   2.753   4.057   0.639 -0.6389 -0.2769 -1.4678
  573MPD2    N1 8559   2.439   3.847   0.941  0.2351  0.3480 -0.5968
  573MPD2    H7 8560   2.407   3.942   0.925 -1.9649 -0.6351 -2.0018
  574TMC3    C1 8561   2.898   4.055   0.437 -0.3194 -0.9360 -0.0886
  574TMC3    C2 8562   2.931   4.166   0.515 -0.2005  0.0659 -0.5334
  574TMC3    C3 8563   2.950   4.280   0.447 -0.0072 -0.0558 -0.2014
  574TMC3    C4 8564   2.884   4.053   0.304 -0.3346  0.2709  0.7094
  574TMC3    C5 8565   2.890   4.175   0.243  0.6871 -0.6821 -0.1604
  574TMC3    C6 8566   2.929   4.286   0.310 -0.3390  0.0563 -0.6195
  574TMC3     C 8567   2.877   3.938   0.508 -0.2831 -0.3297  0.3136
  574TMC3     O 8568   2.926   3.831   0.482  0.2362 -0.0016 -0.0354
  574TMC3     H 8569   2.948   4.169   0.622 -1.1255  0.2284 -0.3911
  574TMC3    H1 8570   2.863   3.962   0.249 -1.0044 -0.3636  2.0333
  574TMC3    H2 8571   2.939   4.378   0.254  1.2545 -0.2405 -0.8349
  574TMC3    C7 8572   2.835   4.194   0.112  0.4677  0.0864  0.2689
  574TMC3    C8 8573   2.978   4.402   0.526  0.0465 -0.3189 -0.4370
  574TMC3    O1 8574   2.878   4.291   0.051 -0.2772  0.1682  0.3055
  574TMC3    O2 8575   3.010   4.394   0.645  0.1444 -0.0438  0.6770
  575TMC3    C1 8576   4.453   0.599  10.509  0.0493  0.4715 -0.0036
  575TMC3    C2 8577   4.315   0.602  10.508  0.0089 -0.7003 -1.4209
  575TMC3    C3 8578   4.252   0.642  10.392  0.2286 -1.0084 -0.4911
  575TMC3    C4 8579   4.526   0.623  10.396  0.3838  0.1038  0.5758
  575TMC3    C5 8580   4.462   0.653  10.278 -0.0619  0.0017 -0.1561
  575TMC3    C6 8581   4.323   0.657  10.271  0.5780 -0.3277  0.3349
  575TMC3     C 8582   4.519   0.606  10.637  0.1155  0.2845  1.1906
  575TMC3     O 8583   4.621   0.665  10.637  0.6924 -0.4924  0.0231
  575TMC3     H 8584   4.264   0.582  10.602  0.1697  0.9860 -0.9727
  575TMC3    H1 8585   4.632   0.600  10.399  0.1379 -0.8602  2.0587
  575TMC3    H2 8586   4.278   0.690  10.178 -0.3557  0.8009  1.1840
  575TMC3    C7 8587   4.527   0.735  10.183  0.4436 -0.3004 -0.1299
  575TMC3    C8 8588   4.115   0.593  10.375  0.6664 -0.0376  0.6990
  575TMC3    O1 8589   4.458   0.798  10.102 -0.3538 -0.6611  0.1186
  575TMC3    O2 8590   4.080   0.496  10.442  0.1965  0.7998  0.3243
  576MPD2     C 8591   4.576   1.738  12.745  1.2526  0.2374  0.0819
  576MPD2    C1 8592   4.580   1.847  12.661  0.4645  0.3524 -0.7716
  576MPD2    C2 8593   4.487   1.948  12.685  0.1982  0.0649 -0.5463
  576MPD2    C3 8594   4.398   1.945  12.796 -0.3097  0.3339  0.1500
  576MPD2    C4 8595   4.404   1.832  12.876 -0.4831 -0.1389 -0.2850
  576MPD2    C5 8596   4.494   1.734  12.852  0.3726 -0.1148  0.4962
  576MPD2     H 8597   4.489   2.018  12.603  0.2125  2.8403  1.8471
  576MPD2    H1 8598   4.346   1.824  12.967  0.2682  1.6581  0.3623
  576MPD2    H2 8599   4.647   1.658  12.730  1.3362 -0.4575  4.0311
  576MPD2    H3 8600   4.505   1.649  12.919  0.2520 -0.2693  0.3213
  576MPD2     N 8601   4.299   2.049  12.798 -0.3887 -0.4628 -0.0812
  576MPD2    H5 8602   4.313   2.135  12.745  0.0740 -0.6616 -0.2796
  576MPD2    N1 8603   4.668   1.848  12.552  0.0955  0.3807  0.0811
  576MPD2    H7 8604   4.655   1.925  12.487 -3.0437 -0.4145 -0.2242
  577TMC3    C1 8605   0.056   1.777  12.369 -0.8015  0.4907  0.6931
  577TMC3    C2 8606   0.060   1.672  12.283 -0.3746  0.0684 -0.2452
  577TMC3    C3 8607   0.093   1.693  12.147  0.4885  0.4581  0.3056
  577TMC3    C4 8608   0.080   1.905  12.323  0.1901  0.2405 -0.0216
  577TMC3    C5 8609   0.118   1.920  12.195  0.3114 -0.1603 -0.2206
  577TMC3    C6 8610   0.126   1.820  12.102 -0.4949  0.8178  0.8218
  577TMC3     C 8611   0.005   1.750  12.502 -0.1924 -0.0002 -0.2387
  577TMC3     O 8612   0.031   1.640  12.548  0.1948  0.1179 -0.5370
  577TMC3     H 8613   0.050   1.570  12.320 -1.0322  0.3096  0.2396
  577TMC3    H1 8614   0.087   1.995  12.383 -1.0702  1.3397 -1.5478
  577TMC3    H2 8615   0.175   1.850  12.010  0.4468  2.6080  1.8967
  577TMC3    C7 8616   0.142   2.052  12.144 -0.3053  0.6947 -0.2131
  577TMC3    C8 8617   0.110   1.572  12.067 -0.2876 -0.4245  0.2346
  577TMC3    O1 8618   0.185   2.136  12.225 -0.3347 -0.0521 -0.6057
  577TMC3    O2 8619   0.076   1.465  12.119 -0.0627  0.1214 -0.0748
  578MPD2     C 8620   3.638   2.191   1.094 -0.3750 -0.6895  0.7205
  578MPD2    C1 8621   3.585   2.067   1.052 -0.5063  0.2118  0.6518
  578MPD2    C2 8622   3.637   1.950   1.098 -0.2706 -0.4054  0.6183
  578MPD2    C3 8623   3.738   1.950   1.186 -0.1670  0.3144 -0.1459
  578MPD2    C4 8624   3.795   2.069   1.221  0.0735  0.0430  0.3123
  578MPD2    C5 8625   3.742   2.186   1.176 -0.5165 -0.7550 -0.6983
  578MPD2     H 8626   3.579   1.860   1.081 -0.1189 -0.1310 -1.3944
  578MPD2    H1 8627   3.886   2.070   1.280 -0.2874 -2.0285  0.9132
  578MPD2    H2 8628   3.598   2.289   1.072 -1.3400 -1.8591 -2.7064
  578MPD2    H3 8629   3.779   2.285   1.199  2.2806 -1.7571 -0.7892
  578MPD2     N 8630   3.790   1.825   1.218 -0.0228  0.5130 -0.5726
  578MPD2    H5 8631   3.729   1.748   1.198  0.3685 -0.4402  1.8465
  578MPD2    N1 8632   3.475   2.089   0.960  0.0288  0.9856 -0.4912
  578MPD2    H7 8633   3.460   2.186   0.933  0.7881  0.3623 -3.1960
  579TMC3    C1 8634   3.943   1.660   1.263  0.1810 -0.2225  0.5856
  579TMC3    C2 8635   4.075   1.635   1.262 -0.0932 -0.5840 -0.0975
  579TMC3    C3 8636   4.105   1.500   1.244 -0.3734 -0.4825  0.4101
  579TMC3    C4 8637   3.848   1.566   1.274 -0.0733  0.3003 -0.5852
  579TMC3    C5 8638   3.884   1.436   1.271 -0.1757 -0.0492 -0.5252
  579TMC3    C6 8639   4.014   1.400   1.262  0.3306  0.8747 -0.8634
  579TMC3     C 8640   3.908   1.798   1.279  0.7671  0.1691 -0.2907
  579TMC3     O 8641   3.987   1.876   1.330  0.2623  0.2744 -0.0017
  579TMC3     H 8642   4.151   1.712   1.266  0.9223 -1.6223  0.9636
  579TMC3    H1 8643   3.744   1.587   1.297  0.9350  1.2094  3.2560
  579TMC3    H2 8644   4.046   1.298   1.243  0.6685  2.1248 -7.1274
  579TMC3    C7 8645   3.789   1.324   1.263 -0.1553 -0.6492  0.0007
  579TMC3    C8 8646   4.242   1.447   1.239 -0.5447  0.7071  0.3232
  579TMC3    O1 8647   3.844   1.224   1.294  0.0302  0.1426 -0.7274
  579TMC3    O2 8648   4.263   1.336   1.295  0.2438 -0.4120  0.0390
  580TMC3    C1 8649   2.739   1.348  12.377 -0.3109  0.3841  0.1112
  580TMC3    C2 8650   2.867   1.367  12.344  0.6506  0.6640  0.2088
  580TMC3    C3 8651   2.947   1.274  12.280 -0.5199  0.1384  0.9126
  580TMC3    C4 8652   2.685   1.226  12.338  0.5147 -0.1268  0.2050
  580TMC3    C5 8653   2.768   1.139  12.266 -0.2432 -0.0898  0.1160
  580TMC3    C6 8654   2.902   1.159  12.245 -0.0426 -0.4122 -0.0937
  580TMC3     C 8655   2.667   1.465  12.430 -1.0692  0.6865  0.6157
  580TMC3     O 8656   2.726   1.563  12.468  0.7963 -0.1555  0.2955
  580TMC3     H 8657   2.900   1.469  12.362 -1.4084  1.1636  1.1834
  580TMC3    H1 8658   2.582   1.197  12.353  0.1588  2.4865  2.8208
  580TMC3    H2 8659   2.965   1.079  12.207 -0.1318 -1.0546  1.0943
  580TMC3    C7 8660   2.700   1.023  12.212  0.3310 -0.2328  0.3851
  580TMC3    C8 8661   3.075   1.324  12.221 -0.5883  0.1170  0.7342
  580TMC3    O1 8662   2.619   0.969  12.280 -0.3216  0.6808  0.1618
  580TMC3    O2 8663   3.138   1.240  12.156 -0.0487 -0.4780 -0.1649
  581MPD2     C 8664   0.227   0.742  14.473 -1.0292 -0.1881  0.7267
  581MPD2    C1 8665   0.118   0.785  14.548  0.4310 -0.2536  0.0033
  581MPD2    C2 8666   0.015   0.856  14.494 -0.3095  0.2217 -0.2357
  581MPD2    C3 8667   0.019   0.891  14.360  0.6086  1.1384  0.6245
  581MPD2    C4 8668   0.129   0.855  14.286  0.2443 -0.2686 -0.2859
  581MPD2    C5 8669   0.224   0.778  14.342 -0.4762 -0.0737 -0.2202
  581MPD2     H 8670   4.661   0.876  14.543 -0.9626 -2.0255 -0.5407
  581MPD2    H1 8671   0.136   0.872  14.179 -1.8804 -0.7763 -0.5046
  581MPD2    H2 8672   0.322   0.699  14.500  0.7197  1.9338 -2.0814
  581MPD2    H3 8673   0.311   0.753  14.282 -0.8156 -0.8394 -0.3896
  581MPD2     N 8674   4.645   0.960  14.309 -0.0097 -0.4645  1.4703
  581MPD2    H5 8675   4.569   0.978  14.374 -2.0347  2.2262 -1.6328
  581MPD2    N1 8676   0.118   0.743  14.682 -0.2413 -0.4142 -0.2735
  581MPD2    H7 8677   0.187   0.673  14.709 -0.3095 -1.0540 -1.7912
  582TMC3    C1 8678   0.093   0.723  14.911 -0.2740  0.4117  0.4531
  582TMC3    C2 8679   0.233   0.720  14.933  0.3376 -0.1816  0.5157
  582TMC3    C3 8680   0.277   0.725  15.065 -0.9142  0.1830  0.1014
  582TMC3    C4 8681   0.009   0.738  15.020  0.2718  0.3426 -0.2455
  582TMC3    C5 8682   0.062   0.738  15.146 -0.0103 -0.3605 -0.2893
  582TMC3    C6 8683   0.196   0.741  15.175  0.4616  0.5512  0.7190
  582TMC3     C 8684   0.042   0.783  14.786 -0.0384  0.2387  0.0977
  582TMC3     O 8685   4.700   0.874  14.797 -0.4905  0.4254  0.0587
  582TMC3     H 8686   0.300   0.728  14.849 -0.9352 -2.8157 -0.7366
  582TMC3    H1 8687   4.643   0.748  15.007  0.1972 -1.8325 -1.3510
  582TMC3    H2 8688   0.239   0.773  15.269  1.4446  0.2659  0.3732
  582TMC3    C7 8689   4.716   0.812  15.228 -0.0555 -0.0185  0.0367
  582TMC3    C8 8690   0.425   0.744  15.074  0.9764 -0.5264 -0.4404
  582TMC3    O1 8691   4.606   0.764  15.247  0.5660 -0.2664  0.2936
  582TMC3    O2 8692   0.493   0.689  14.985  0.3041 -0.3598 -1.0989
  583MPD2     C 8693   0.997   2.433  16.924 -0.0405  0.3195  0.2379
  583MPD2    C1 8694   0.972   2.553  16.849  0.0780  0.5343  0.4069
  583MPD2    C2 8695   0.938   2.671  16.912  0.2483  0.0165  0.3838
  583MPD2    C3 8696   0.925   2.665  17.049 -0.2382 -0.8295  0.5737
  583MPD2    C4 8697   0.959   2.554  17.124  0.4443  0.1686 -0.1874
  583MPD2    C5 8698   0.995   2.437  17.060 -0.3495  0.1330  0.0572
  583MPD2     H 8699   0.914   2.761  16.857 -2.1775  0.0203  1.4573
  583MPD2    H1 8700   0.966   2.549  17.232  0.1268  0.4478 -0.1532
  583MPD2    H2 8701   1.023   2.341  16.874 -0.3851  0.8367 -0.9040
  583MPD2    H3 8702   1.009   2.348  17.120  3.9551 -0.3186 -1.5889
  583MPD2     N 8703   0.898   2.793  17.107 -0.4032  0.0894 -0.0183
  583MPD2    H5 8704   0.878   2.873  17.048  1.9917  0.5461 -0.2072
  583MPD2    N1 8705   0.982   2.560  16.710 -0.0387  0.4014  0.2583
  583MPD2    H7 8706   0.949   2.644  16.664 -3.7581 -1.0008  0.3780
  584TMC3    C1 8707   0.926   2.963  17.270  0.7515 -0.5982  0.1651
  584TMC3    C2 8708   0.936   3.054  17.164 -0.2081 -0.2558  0.5362
  584TMC3    C3 8709   0.926   3.186  17.200 -0.3578  0.7222  0.0768
  584TMC3    C4 8710   0.904   2.997  17.398 -0.0857  0.2705  0.7647
  584TMC3    C5 8711   0.889   3.132  17.426  0.1171 -0.3457 -0.8884
  584TMC3    C6 8712   0.894   3.228  17.328  0.1948 -0.1679 -0.3976
  584TMC3     C 8713   0.914   2.822  17.243  0.2333  0.4234 -0.4474
  584TMC3     O 8714   0.942   2.748  17.337 -0.2929 -0.1595 -0.5589
  584TMC3     H 8715   0.974   3.030  17.066 -2.1046  2.0032 -0.7407
  584TMC3    H1 8716   0.898   2.923  17.477 -3.5478 -1.7496 -1.3660
  584TMC3    H2 8717   0.877   3.335  17.335  0.1303 -0.1640 -0.6121
  584TMC3    C7 8718   0.835   3.158  17.555 -0.1275 -0.4410 -0.1934
  584TMC3    C8 8719   0.982   3.293  17.112 -0.4212 -0.5103  0.2349
  584TMC3    O1 8720   0.819   3.066  17.637  0.2555  0.3453  0.3008
  584TMC3    O2 8721   0.942   3.295  16.996 -0.2651 -0.1970 -0.0850
  585MPD2     C 8722   0.329   2.162  17.107  0.5146  1.0094  0.2453
  585MPD2    C1 8723   0.346   2.048  17.184 -0.0596 -0.0885  0.1362
  585MPD2    C2 8724   0.327   1.925  17.119  0.1581 -0.6112 -0.4583
  585MPD2    C3 8725   0.275   1.926  16.990 -0.0749  0.3941 -0.2183
  585MPD2    C4 8726   0.262   2.036  16.911 -0.3531 -0.0404  0.0208
  585MPD2    C5 8727   0.297   2.151  16.975  0.5174  0.3220 -0.1087
  585MPD2     H 8728   0.336   1.832  17.173  1.3678 -0.7610 -0.9196
  585MPD2    H1 8729   0.222   2.052  16.812 -1.4570  2.3646  0.8499
  585MPD2    H2 8730   0.350   2.257  17.154  2.2179 -0.9836  3.4883
  585MPD2    H3 8731   0.286   2.242  16.917  0.3614  1.3643  1.5356
  585MPD2     N 8732   0.235   1.802  16.939 -0.5631 -0.0086 -0.1332
  585MPD2    H5 8733   0.176   1.813  16.857 -1.1331 -0.8175  0.1721
  585MPD2    N1 8734   0.391   2.059  17.315  0.6673 -0.0034  0.5878
  585MPD2    H7 8735   0.380   2.151  17.356 -1.1129  0.3054 -0.6035
  586TMC3    C1 8736   0.195   1.574  16.909 -0.2043  0.2099  0.2776
  586TMC3    C2 8737   0.255   1.469  16.846  0.0059  0.0176  0.4156
  586TMC3    C3 8738   0.175   1.368  16.797 -0.1720 -1.0745  0.3845
  586TMC3    C4 8739   0.064   1.569  16.946 -1.1330  0.2744 -0.5756
  586TMC3    C5 8740   4.730   1.456  16.914 -0.3177  0.2498 -0.0154
  586TMC3    C6 8741   0.042   1.356  16.828 -0.2302 -0.0287  0.3122
  586TMC3     C 8742   0.280   1.670  16.980  0.0130  0.4367  0.1612
  586TMC3     O 8743   0.377   1.636  17.047 -0.1509  0.4619 -0.1221
  586TMC3     H 8744   0.362   1.463  16.828 -0.3108  0.6526 -1.6195
  586TMC3    H1 8745   0.028   1.648  17.011 -2.5778  0.2570 -1.3639
  586TMC3    H2 8746   4.720   1.274  16.797  0.0816 -0.4497  0.7828
  586TMC3    C7 8747   4.623   1.421  17.004  0.5223 -0.1924 -0.0760
  586TMC3    C8 8748   0.235   1.239  16.764  0.6045  0.5457  0.4749
  586TMC3    O1 8749   4.616   1.301  17.026 -0.7432 -0.1096  0.6840
  586TMC3    O2 8750   0.165   1.138  16.779 -0.5535 -0.9660 -0.1637
  587TMC3    C1 8751   2.235   0.304  16.611 -0.4552 -0.1338  0.2478
  587TMC3    C2 8752   2.223   0.359  16.494 -0.9582  0.4115 -0.2266
  587TMC3    C3 8753   2.340   0.390  16.434  0.0548  0.6566 -0.1327
  587TMC3    C4 8754   2.355   0.265  16.670  0.3091 -0.3620 -0.0128
  587TMC3    C5 8755   2.470   0.286  16.599 -0.8243 -0.2560  0.3330
  587TMC3    C6 8756   2.464   0.355  16.486  0.1624 -0.1799 -0.4220
  587TMC3     C 8757   2.125   0.308  16.705  0.4507  0.9001 -0.6378
  587TMC3     O 8758   2.147   0.251  16.809  0.5359 -0.2402 -0.4679
  587TMC3     H 8759   2.129   0.359  16.439 -0.7572  2.1569 -0.5916
  587TMC3    H1 8760   2.361   0.212  16.764 -0.5097 -1.7469 -0.7419
  587TMC3    H2 8761   2.559   0.370  16.436  0.3530  0.6523  0.1896
  587TMC3    C7 8762   2.596   0.273  16.668 -0.0007  0.1280 -0.4385
  587TMC3    C8 8763   2.340   0.484  16.324  0.3708 -0.5656  0.3218
  587TMC3    O1 8764   2.676   0.356  16.629  0.0289  0.2592 -0.2997
  587TMC3    O2 8765   2.432   0.473  16.246 -0.2907 -0.4460 -0.0276
  588TMC3    C1 8766   4.338   2.439   9.789 -0.3494 -0.6387 -0.3033
  588TMC3    C2 8767   4.324   2.308   9.760  0.1417  0.1078  0.1887
  588TMC3    C3 8768   4.415   2.223   9.813 -0.3676 -0.1390 -0.8578
  588TMC3    C4 8769   4.442   2.488   9.858  0.3172  0.0006 -0.1280
  588TMC3    C5 8770   4.536   2.395   9.909 -0.5551 -0.5565  0.3976
  588TMC3    C6 8771   4.523   2.260   9.883 -1.0339 -0.4254  0.3528
  588TMC3     C 8772   4.236   2.527   9.744  0.1392 -1.0233  0.0762
  588TMC3     O 8773   4.121   2.496   9.728  0.0035 -0.2425 -0.5043
  588TMC3     H 8774   4.235   2.284   9.703 -0.0952  1.9527 -0.2199
  588TMC3    H1 8775   4.440   2.583   9.911  1.1748 -0.8969  1.4823
  588TMC3    H2 8776   4.597   2.185   9.907 -0.7122 -0.3927 -0.5489
  588TMC3    C7 8777   4.666   2.442   9.950 -0.2593  0.4855 -0.4848
  588TMC3    C8 8778   4.369   2.077   9.819  0.0960  0.5250 -0.1844
  588TMC3    O1 8779   4.731   2.382  10.030  0.2402 -0.6260 -0.7066
  588TMC3    O2 8780   4.289   2.055   9.730  0.1700  0.6168 -0.6992
  589TMC3    C1 8781   3.424   4.628   0.999 -0.5287 -0.4029 -0.3023
  589TMC3    C2 8782   3.542   4.680   1.055 -0.3731 -0.2370 -0.1943
  589TMC3    C3 8783   3.666   4.651   1.004 -0.4653  0.4749 -0.1937
  589TMC3    C4 8784   3.430   4.553   0.889  0.5435 -0.5458  0.4643
  589TMC3    C5 8785   3.550   4.518   0.846  0.0505  0.3839 -0.2478
  589TMC3    C6 8786   3.665   4.566   0.900 -0.2568 -0.0285 -0.0516
  589TMC3     C 8787   3.312   4.722   1.015  0.3429 -0.3150  0.3175
  589TMC3     O 8788   3.235   4.738   0.921  0.0258 -0.1387  0.0623
  589TMC3     H 8789   3.543   4.735   1.148 -1.1440 -0.9301  0.2308
  589TMC3    H1 8790   3.339   4.535   0.833  1.0444  0.1696 -0.5868
  589TMC3    H2 8791   3.756   4.517   0.869 -0.5519 -1.8868  2.0201
  589TMC3    C7 8792   3.564   4.465   0.713 -0.7515 -0.2697  0.2276
  589TMC3    C8 8793   3.779   4.651   1.104 -0.5328  0.1815  0.4942
  589TMC3    O1 8794   3.496   4.364   0.695  0.4984  0.2561 -0.1914
  589TMC3    O2 8795   3.755   4.671   1.220 -0.0818 -0.2380 -0.2353
  590MPD2     C 8796   2.945   3.345  16.891 -0.5754  1.4171 -0.1140
  590MPD2    C1 8797   2.931   3.456  16.810 -0.5248 -0.1097 -0.4167
  590MPD2    C2 8798   3.038   3.496  16.731 -0.4065  0.1602  0.5560
  590MPD2    C3 8799   3.154   3.420  16.735  0.8790  0.4583  0.5921
  590MPD2    C4 8800   3.167   3.304  16.815 -0.6205  0.1707 -1.1512
  590MPD2    C5 8801   3.064   3.278  16.898 -0.1390  0.1441  0.2650
  590MPD2     H 8802   3.031   3.585  16.670  1.6394  2.0139  3.0626
  590MPD2    H1 8803   3.240   3.225  16.797 -0.8405 -0.3509  0.2736
  590MPD2    H2 8804   2.860   3.309  16.947  0.0918 -0.0220 -0.0307
  590MPD2    H3 8805   3.067   3.185  16.954  0.6179  0.0108  0.0045
  590MPD2     N 8806   3.246   3.457  16.636  0.1197 -0.7049  0.2048
  590MPD2    H5 8807   3.229   3.551  16.600 -0.5425 -0.9202 -0.0394
  590MPD2    N1 8808   2.804   3.524  16.813 -0.2789 -0.5707  0.4908
  590MPD2    H7 8809   2.737   3.475  16.871  1.3973 -2.5092  0.7741
  591TMC3    C1 8810   3.450   3.478  16.524  0.1467 -0.1580 -1.2725
  591TMC3    C2 8811   3.487   3.413  16.411  0.2797  0.2268 -0.8653
  591TMC3    C3 8812   3.503   3.490  16.295  0.0160  0.1035 -0.8880
  591TMC3    C4 8813   3.431   3.615  16.521  0.1389  0.4459 -0.4916
  591TMC3    C5 8814   3.441   3.681  16.406  0.1237 -0.0078 -0.4690
  591TMC3    C6 8815   3.485   3.623  16.290  0.1540  0.8673  0.2543
  591TMC3     C 8816   3.358   3.392  16.597  0.0601 -0.1947  0.0924
  591TMC3     O 8817   3.386   3.273  16.606  0.2895  0.3611 -0.0235
  591TMC3     H 8818   3.475   3.306  16.403  2.5579  0.1048 -2.5723
  591TMC3    H1 8819   3.399   3.665  16.612 -1.1999  0.3488 -0.9046
  591TMC3    H2 8820   3.475   3.684  16.201  1.1189 -0.8422 -1.0338
  591TMC3    C7 8821   3.342   3.781  16.389  0.1257  0.0787  0.2232
  591TMC3    C8 8822   3.493   3.418  16.168  0.9631  0.2590  0.2035
  591TMC3    O1 8823   3.236   3.753  16.441  0.1409  0.1776 -0.2102
  591TMC3    O2 8824   3.478   3.295  16.163 -0.6727  0.5549 -0.4578
  592MPD2     C 8825   3.551   0.464  11.594  0.0438 -0.3866  0.0882
  592MPD2    C1 8826   3.547   0.515  11.719  0.5444 -0.5119 -0.1229
  592MPD2    C2 8827   3.482   0.443  11.818 -0.2268  0.6769  0.3310
  592MPD2    C3 8828   3.415   0.327  11.795 -0.1054  0.2531  0.7805
  592MPD2    C4 8829   3.417   0.275  11.673 -0.9136 -0.0918 -0.6262
  592MPD2    C5 8830   3.489   0.341  11.582  0.4203 -0.0036 -0.3877
  592MPD2     H 8831   3.484   0.479  11.920  0.7887 -2.3459  1.3807
  592MPD2    H1 8832   3.366   0.182  11.651 -1.5989  0.2634 -0.5397
  592MPD2    H2 8833   3.606   0.515  11.516  1.1715 -1.6394  0.0587
  592MPD2    H3 8834   3.495   0.312  11.478 -0.9988  1.9186 -1.0124
  592MPD2     N 8835   3.339   0.275  11.906  0.2643 -0.1427  0.3911
  592MPD2    H5 8836   3.311   0.335  11.983  0.0192 -0.5684  0.6387
  592MPD2    N1 8837   3.598   0.647  11.731 -0.3233 -0.4755 -0.1709
  592MPD2    H7 8838   3.651   0.683  11.652 -0.9362 -0.2817 -0.4914
  593TMC3    C1 8839   3.663   0.848  11.842 -0.4364 -0.3507  0.5464
  593TMC3    C2 8840   3.643   0.938  11.947 -0.0566  0.4238  0.3637
  593TMC3    C3 8841   3.744   1.025  11.979  0.3170 -0.5123 -0.3706
  593TMC3    C4 8842   3.779   0.848  11.767  0.3980 -0.0966  0.6832
  593TMC3    C5 8843   3.873   0.949  11.795 -0.7098  0.0373 -0.4178
  593TMC3    C6 8844   3.864   1.024  11.911 -0.2393  0.5035 -0.5579
  593TMC3     C 8845   3.586   0.728  11.840  0.3109 -0.0406 -0.6246
  593TMC3     O 8846   3.518   0.711  11.939  0.0256 -0.3227  0.3471
  593TMC3     H 8847   3.548   0.938  11.999 -1.4139 -0.7661 -2.1228
  593TMC3    H1 8848   3.798   0.772  11.692 -0.5183  0.4686 -0.1147
  593TMC3    H2 8849   3.939   1.101  11.926  1.0341 -1.2899  2.4260
  593TMC3    C7 8850   3.942   1.017  11.684  0.6548  0.0975 -0.7245
  593TMC3    C8 8851   3.705   1.150  12.043  0.6228  0.2674  0.5940
  593TMC3    O1 8852   4.028   1.093  11.720  0.1616 -0.6416 -0.4046
  593TMC3    O2 8853   3.588   1.181  12.039 -0.3028  0.0072 -0.1785
  594MPD2     C 8854   2.771   3.896  14.840 -0.3160 -0.1504  0.6205
  594MPD2    C1 8855   2.702   4.000  14.782  0.1817 -0.0774  0.3148
  594MPD2    C2 8856   2.782   4.112  14.729 -0.3323 -0.0423 -0.5095
  594MPD2    C3 8857   2.917   4.115  14.735  0.3913 -0.6830 -0.2735
  594MPD2    C4 8858   2.981   4.009  14.802  0.6271 -0.7308  0.4046
  594MPD2    C5 8859   2.910   3.901  14.847  0.3779 -0.4470 -0.0081
  594MPD2     H 8860   2.736   4.202  14.691  1.1685  1.1031  0.4352
  594MPD2    H1 8861   3.088   4.004  14.817  0.5394  3.0162  2.4155
  594MPD2    H2 8862   2.721   3.806  14.875 -1.8012  1.4390  2.5945
  594MPD2    H3 8863   2.969   3.825  14.896  0.7083 -0.2005 -0.0272
  594MPD2     N 8864   2.981   4.222  14.675  0.5453 -0.7650 -0.4855
  594MPD2    H5 8865   2.913   4.278  14.624  0.0236 -0.7274  0.2590
  594MPD2    N1 8866   2.566   3.978  14.781 -0.1220  0.8506 -0.6507
  594MPD2    H7 8867   2.537   3.888  14.817 -1.6478  1.4645 -0.3325
  595TMC3    C1 8868   3.267   4.583  14.604 -0.4569  0.5541 -0.2708
  595TMC3    C2 8869   3.252   4.449  14.627 -0.1810 -0.0414 -0.0087
  595TMC3    C3 8870   3.127   4.395  14.635 -0.1040  0.0202 -0.1120
  595TMC3    C4 8871   3.166   4.669  14.594  0.3161 -0.0937  0.1019
  595TMC3    C5 8872   3.041   4.616  14.612 -0.5247  0.2050 -0.4132
  595TMC3    C6 8873   3.019   4.482  14.633  0.1753  0.2091  0.3251
  595TMC3     C 8874   3.403   4.638  14.642 -0.2036 -0.3194  0.3728
  595TMC3     O 8875   3.472   4.556  14.699  0.0558  0.7033 -0.4023
  595TMC3     H 8876   3.339   4.384  14.626  0.1441  0.4011 -0.6872
  595TMC3    H1 8877   3.177   0.032  14.566  0.2317  0.3692  1.7971
  595TMC3    H2 8878   2.916   4.448  14.641  0.2488 -0.0323  0.2279
  595TMC3    C7 8879   2.926   4.700  14.635  0.6029 -0.3194 -0.3835
  595TMC3    C8 8880   3.112   4.260  14.687  0.1188  0.0807 -0.2831
  595TMC3    O1 8881   2.815   4.650  14.636  0.1987  0.8276 -0.1758
  595TMC3    O2 8882   3.208   4.200  14.735  0.1275 -0.6494  0.8087
  596MPD2     C 8883   1.658   2.335  16.529 -0.4305 -0.0615 -0.6255
  596MPD2    C1 8884   1.617   2.446  16.454 -0.2308 -0.6732  0.1347
  596MPD2    C2 8885   1.592   2.424  16.325 -0.0778  0.2418  0.3021
  596MPD2    C3 8886   1.613   2.303  16.263  0.1034 -0.1821 -0.0973
  596MPD2    C4 8887   1.646   2.191  16.339  0.0991 -0.0279 -0.6580
  596MPD2    C5 8888   1.659   2.210  16.472  0.4887  0.6058  0.2839
  596MPD2     H 8889   1.562   2.513  16.272  1.5330  0.3222 -0.4774
  596MPD2    H1 8890   1.641   2.090  16.302 -0.4194 -0.2533  0.0262
  596MPD2    H2 8891   1.673   2.335  16.636 -1.6393 -4.0210 -0.4465
  596MPD2    H3 8892   1.679   2.131  16.543 -4.0087 -1.4979 -0.8162
  596MPD2     N 8893   1.576   2.288  16.125 -0.1381 -0.5741 -0.0154
  596MPD2    H5 8894   1.529   2.372  16.093  1.6121  0.3920 -0.0459
  596MPD2    N1 8895   1.606   2.587  16.500 -0.0965  0.8704  0.0502
  596MPD2    H7 8896   1.591   2.660  16.432 -0.2406 -0.5593 -1.4465
  597TMC3    C1 8897   1.598   2.758  16.664  0.2920  0.1348  0.4970
  597TMC3    C2 8898   1.580   2.859  16.573 -0.6517  0.6432  0.1851
  597TMC3    C3 8899   1.544   2.982  16.612  0.0046 -0.7109  0.5036
  597TMC3    C4 8900   1.589   2.783  16.796 -0.4911 -0.1613  0.0330
  597TMC3    C5 8901   1.561   2.908  16.836 -0.3251  0.2537 -0.1362
  597TMC3    C6 8902   1.539   3.007  16.745 -0.0590  0.0877  0.5664
  597TMC3     C 8903   1.624   2.620  16.632 -0.0716 -0.1951 -0.5835
  597TMC3     O 8904   1.637   2.539  16.725  0.1263 -0.7899 -0.6909
  597TMC3     H 8905   1.581   2.832  16.468  0.4782 -0.9637  0.6180
  597TMC3    H1 8906   1.630   2.710  16.866 -2.6872 -0.4656  1.0096
  597TMC3    H2 8907   1.501   3.101  16.784 -2.4413 -0.0559 -1.4027
  597TMC3    C7 8908   1.524   2.922  16.975  0.3066  0.8517  0.2729
  597TMC3    C8 8909   1.542   3.089  16.522  0.2245 -0.7578 -0.5862
  597TMC3    O1 8910   1.481   2.831  17.038  0.2064  0.5812 -0.3602
  597TMC3    O2 8911   1.478   3.190  16.547 -0.0804 -0.0987 -0.2179
  598TMC3    C1 8912   4.443   3.755  15.789 -0.7205  0.5980 -0.5223
  598TMC3    C2 8913   4.330   3.786  15.721  0.0752 -0.5020 -0.1077
  598TMC3    C3 8914   4.309   3.900  15.645  0.4053 -0.1051 -0.6790
  598TMC3    C4 8915   4.547   3.838  15.780  0.1923  0.0252  0.1822
  598TMC3    C5 8916   4.542   3.948  15.697  0.2930 -0.2844 -0.5880
  598TMC3    C6 8917   4.422   3.979  15.631  0.1856  0.1993  1.2528
  598TMC3     C 8918   4.458   3.633  15.870  0.3732  0.2453  0.6072
  598TMC3     O 8919   4.539   3.638  15.964  0.1162 -0.3244  0.1173
  598TMC3     H 8920   4.244   3.722  15.737  0.2666 -1.1314 -1.5978
  598TMC3    H1 8921   4.637   3.813  15.835  0.1817 -2.2938 -0.8382
  598TMC3    H2 8922   4.400   4.072  15.580  1.3107 -0.1731  0.1039
  598TMC3    C7 8923   4.666   4.029  15.691 -0.8205  0.0287 -0.2095
  598TMC3    C8 8924   4.175   3.939  15.600 -0.7388 -0.2596  0.5125
  598TMC3    O1 8925   0.025   3.976  15.745  0.7164  0.2101 -0.6848
  598TMC3    O2 8926   4.145   4.061  15.596  0.0729 -0.4672  0.4666
  599MPD2     C 8927   4.398   1.725  15.695  0.1433  0.3948 -0.2870
  599MPD2    C1 8928   4.427   1.601  15.751  0.9861  0.1295  0.2315
  599MPD2    C2 8929   4.361   1.564  15.868 -0.6440 -1.0409  0.1568
  599MPD2    C3 8930   4.268   1.654  15.925 -0.2278 -0.8475 -0.1757
  599MPD2    C4 8931   4.239   1.775  15.863  0.2386 -0.4813 -0.4414
  599MPD2    C5 8932   4.303   1.809  15.749  0.9075 -0.2496  0.1199
  599MPD2     H 8933   4.388   1.472  15.917  1.5423  0.5882  2.0338
  599MPD2    H1 8934   4.155   1.835  15.896  1.6150  1.4214 -0.3995
  599MPD2    H2 8935   4.446   1.742  15.599  2.4785  0.4139  0.8958
  599MPD2    H3 8936   4.270   1.894  15.691  3.5287  0.9295  0.3488
  599MPD2     N 8937   4.200   1.631  16.041 -0.0873  0.3671 -0.2895
  599MPD2    H5 8938   4.151   1.708  16.086  0.1946  0.1392  0.3984
  599MPD2    N1 8939   4.523   1.522  15.683  0.3803  0.6497 -0.2674
  599MPD2    H7 8940   4.587   1.565  15.617 -2.2732  3.0972 -1.2168
  600TMC3    C1 8941   4.148   1.541  16.246 -0.4635  0.3304 -0.5088
  600TMC3    C2 8942   4.147   1.431  16.315 -0.2919 -0.2883 -0.6477
  600TMC3    C3 8943   4.131   1.439  16.449 -0.5439  0.6039  0.1698
  600TMC3    C4 8944   4.144   1.668  16.299 -0.4474 -0.0122 -0.0815
  600TMC3    C5 8945   4.137   1.670  16.436  0.4316  0.2902  0.4493
  600TMC3    C6 8946   4.117   1.559  16.511  0.0869 -0.2511 -0.0291
  600TMC3     C 8947   4.204   1.519  16.118 -0.9331  0.0769 -0.0983
  600TMC3     O 8948   4.244   1.411  16.086  0.3355 -0.0334 -0.1016
  600TMC3     H 8949   4.183   1.336  16.276  0.0036  1.3877 -4.4335
  600TMC3    H1 8950   4.153   1.753  16.232 -1.0542  0.9968  1.0978
  600TMC3    H2 8951   4.121   1.567  16.619  0.7293  1.7512 -0.2030
  600TMC3    C7 8952   4.116   1.794  16.507  0.9589 -0.1969 -0.1147
  600TMC3    C8 8953   4.117   1.325  16.534  0.5622  0.5748  0.1152
  600TMC3    O1 8954   4.051   1.780  16.608  0.4702 -0.0796 -0.1929
  600TMC3    O2 8955   4.152   1.339  16.650 -0.3906  0.0504  0.3851
  601MPD2     C 8956   2.325   4.386  17.125 -0.5334 -0.0958  0.1531
  601MPD2    C1 8957   2.228   4.448  17.200 -0.4590 -0.3396 -0.3536
  601MPD2    C2 8958   2.144   4.363  17.271  0.1385 -0.3539 -0.4120
  601MPD2    C3 8959   2.170   4.226  17.281 -0.3083  0.5957 -0.2513
  601MPD2    C4 8960   2.280   4.176  17.219  0.6924 -0.5603  0.3976
  601MPD2    C5 8961   2.350   4.253  17.128  0.4073  0.9644 -0.0769
  601MPD2     H 8962   2.067   4.411  17.330  1.4147 -0.9071  1.7022
  601MPD2    H1 8963   2.312   4.073  17.229  2.0749 -0.3043 -1.4289
  601MPD2    H2 8964   2.403   4.447  17.080  1.0584 -1.9899  0.3323
  601MPD2    H3 8965   2.429   4.221  17.061  0.8679 -0.3906  1.1145
  601MPD2     N 8966   2.092   4.133  17.360  0.1960 -0.2280 -0.6138
  601MPD2    H5 8967   2.112   4.034  17.354  0.9153 -0.1630  0.7493
  601MPD2    N1 8968   2.209   4.590  17.205  0.4261  0.7261 -0.4453
  601MPD2    H7 8969   2.129   4.619  17.261 -1.5483 -1.0391 -2.3226
  602TMC3    C1 8970   2.235   0.088  17.158 -0.3058  0.4378 -0.1400
  602TMC3    C2 8971   2.317   0.186  17.106  0.6567  0.1127  0.8462
  602TMC3    C3 8972   2.281   0.315  17.125 -0.0186 -0.5903  0.2000
  602TMC3    C4 8973   2.129   0.117  17.240  0.6187 -0.1508  0.0435
  602TMC3    C5 8974   2.103   0.242  17.270  0.0267 -0.4752 -0.5122
  602TMC3    C6 8975   2.171   0.341  17.203  0.8188 -0.3390 -0.5918
  602TMC3     C 8976   2.274   4.689  17.132  0.1561 -0.1670  0.2360
  602TMC3     O 8977   2.367   4.682  17.054 -0.2399 -0.2944 -0.4905
  602TMC3     H 8978   2.380   0.160  17.022  0.8096 -1.9636  1.5841
  602TMC3    H1 8979   2.054   0.042  17.262 -0.4527  0.5773 -1.1155
  602TMC3    H2 8980   2.150   0.442  17.237  0.6106 -0.8890  0.9020
  602TMC3    C7 8981   1.958   0.255  17.296  0.3774  0.8393 -0.3677
  602TMC3    C8 8982   2.316   0.407  17.019  0.2891 -0.1079 -0.6238
  602TMC3    O1 8983   1.898   0.175  17.367  0.3173 -0.8589  0.1243
  602TMC3    O2 8984   2.420   0.393  16.955  0.2179 -0.2001  0.1804
  603TMC3    C1 8985   3.913   0.123  11.315  0.1722 -0.2917 -0.5740
  603TMC3    C2 8986   3.985   0.048  11.405 -0.3007  0.1206 -0.3249
  603TMC3    C3 8987   4.100   0.106  11.455 -0.2986 -0.1703  0.6818
  603TMC3    C4 8988   3.966   0.241  11.269  0.1966 -0.8543 -0.7050
  603TMC3    C5 8989   4.084   0.286  11.323 -0.9285  0.8477 -0.0784
  603TMC3    C6 8990   4.150   0.231  11.424 -0.6479  0.4283 -0.0339
  603TMC3     C 8991   3.785   0.077  11.268  0.0312 -0.5273  0.0878
  603TMC3     O 8992   3.755   0.102  11.152 -0.3524 -0.6315  0.1259
  603TMC3     H 8993   3.963   4.686  11.430 -0.5835  0.2388 -0.0945
  603TMC3    H1 8994   3.911   0.300  11.197 -0.1624 -1.1154 -0.6463
  603TMC3    H2 8995   4.250   0.255  11.459 -0.1602 -0.3608 -0.8776
  603TMC3    C7 8996   4.149   0.401  11.265 -0.2620  0.8587  0.4413
  603TMC3    C8 8997   4.150   0.045  11.570  0.4279 -0.7986 -0.7901
  603TMC3    O1 8998   4.233   0.450  11.333 -0.2063 -0.2705 -0.4920
  603TMC3    O2 8999   4.179   4.666  11.571  0.1241  0.3483 -0.1391
  604MPD2     C 9000   0.903   3.756  15.979 -0.8122 -0.7198 -0.3671
  604MPD2    C1 9001   0.825   3.645  15.997 -0.1699 -0.5736  0.2629
  604MPD2    C2 9002   0.823   3.546  15.901 -0.0160  0.6120  0.1693
  604MPD2    C3 9003   0.902   3.554  15.791 -0.1571 -0.9869  0.5679
  604MPD2    C4 9004   0.979   3.669  15.779 -0.0524 -0.7582  0.5461
  604MPD2    C5 9005   0.971   3.771  15.870  0.5231 -0.0085 -0.3758
  604MPD2     H 9006   0.759   3.459  15.912 -1.2151  1.3117 -1.4812
  604MPD2    H1 9007   1.053   3.684  15.700  0.6057 -0.7746  1.1619
  604MPD2    H2 9008   0.912   3.828  16.059  0.4816  0.0383 -1.2073
  604MPD2    H3 9009   1.031   3.858  15.845  1.1611 -0.4064 -0.2314
  604MPD2     N 9010   0.897   3.460  15.685  0.1236 -0.3100  0.2713
  604MPD2    H5 9011   0.819   3.396  15.681 -1.4474  1.5786  0.3225
  604MPD2    N1 9012   0.742   3.646  16.109  0.2098  0.2491 -0.2774
  604MPD2    H7 9013   0.744   3.727  16.170 -0.2376 -0.9342  1.3030
  605TMC3    C1 9014   0.602   3.570  16.280 -0.2911 -0.0436 -0.4738
  605TMC3    C2 9015   0.666   3.653  16.365  0.3064  0.4065 -0.1567
  605TMC3    C3 9016   0.602   3.714  16.468 -0.0525  0.2136 -0.2289
  605TMC3    C4 9017   0.467   3.551  16.292  0.0795 -0.0348 -0.1208
  605TMC3    C5 9018   0.403   3.606  16.401 -0.0635 -0.1281  0.1817
  605TMC3    C6 9019   0.468   3.697  16.488  0.3570  0.0023 -0.4146
  605TMC3     C 9020   0.649   3.549  16.145  0.0988  0.0917 -0.1695
  605TMC3     O 9021   0.620   3.444  16.087  0.7199  0.2509  0.2342
  605TMC3     H 9022   0.774   3.650  16.360  0.3770  2.0603  0.7520
  605TMC3    H1 9023   0.416   3.490  16.219 -0.5355 -0.1991  0.4528
  605TMC3    H2 9024   0.424   3.733  16.580  0.1308 -2.2174  0.3465
  605TMC3    C7 9025   0.258   3.587  16.416 -0.4730 -0.0144 -0.2487
  605TMC3    C8 9026   0.670   3.818  16.539  0.0015 -0.1512  0.4037
  605TMC3    O1 9027   0.192   3.683  16.453 -0.0866 -0.1382 -0.5754
  605TMC3    O2 9028   0.788   3.836  16.515  0.1509 -0.8624 -0.5474
  606TMC3    C1 9029   1.995   2.639  17.144  0.2156 -0.2498 -0.0340
  606TMC3    C2 9030   2.002   2.680  17.277 -0.4719 -0.2795  0.4169
  606TMC3    C3 9031   2.026   2.586  17.375  0.9014  0.0989 -0.3828
  606TMC3    C4 9032   1.998   2.503  17.112 -0.0802 -0.1057 -0.9803
  606TMC3    C5 9033   2.009   2.417  17.218 -0.8922 -0.3341 -0.2056
  606TMC3    C6 9034   2.034   2.452  17.350 -0.0930 -0.0292 -0.2241
  606TMC3     C 9035   1.982   2.748  17.042  0.4681 -0.3335 -0.1172
  606TMC3     O 9036   1.950   2.857  17.079  0.1809 -0.4962 -0.1024
  606TMC3     H 9037   2.010   2.786  17.296 -1.9997 -0.0204 -0.3486
  606TMC3    H1 9038   1.985   2.475  17.008 -1.0371 -1.5332 -0.4740
  606TMC3    H2 9039   2.061   2.386  17.431  2.3664 -0.3170 -1.2918
  606TMC3    C7 9040   2.025   2.279  17.178 -0.2572  0.1954  0.3769
  606TMC3    C8 9041   2.031   2.624  17.524 -0.1839 -0.1488  0.8576
  606TMC3    O1 9042   2.097   2.252  17.086 -0.1174 -1.0353  0.5517
  606TMC3    O2 9043   2.018   2.533  17.604 -0.3639  0.1928  0.0015
  607MPD2     C 9044   3.489   4.583  11.927 -0.1886 -0.6424 -0.3136
  607MPD2    C1 9045   3.497   4.648  12.050  0.4521  0.6761  0.4316
  607MPD2    C2 9046   3.425   4.594  12.154 -0.3161  0.2909  0.2822
  607MPD2    C3 9047   3.371   4.471  12.146 -0.0679  0.2260 -0.0585
  607MPD2    C4 9048   3.366   4.402  12.027 -0.3066  0.4391 -0.0177
  607MPD2    C5 9049   3.429   4.461  11.918 -0.5775 -0.4546 -0.1591
  607MPD2     H 9050   3.442   4.641  12.250  1.9660  0.8899 -0.4165
  607MPD2    H1 9051   3.315   4.308  12.012  0.6264 -0.1179  0.2931
  607MPD2    H2 9052   3.523   4.629  11.835  1.9138 -0.1569  0.6947
  607MPD2    H3 9053   3.429   4.421  11.818  2.7752  0.3655 -0.4892
  607MPD2     N 9054   3.368   4.405  12.273 -0.5125 -0.2190 -0.9099
  607MPD2    H5 9055   3.377   4.466  12.354  1.1753 -0.1321 -1.1532
  607MPD2    N1 9056   3.569   0.025  12.073  0.0049  0.1969  0.3854
  607MPD2    H7 9057   3.567   0.054  12.170  4.0510 -0.2799  0.6137
  608TMC3    C1 9058   3.755   0.159  12.049 -0.3935 -0.5151  0.6292
  608TMC3    C2 9059   3.768   0.140  12.182 -0.2200  0.2509 -0.1076
  608TMC3    C3 9060   3.843   0.233  12.247  0.5376 -0.1721 -0.5599
  608TMC3    C4 9061   3.801   0.268  11.981 -0.2305  0.3501  0.1210
  608TMC3    C5 9062   3.863   0.373  12.050  0.5147  0.5062  0.3816
  608TMC3    C6 9063   3.890   0.349  12.183 -0.1525  0.2399  0.2511
  608TMC3     C 9064   3.658   0.079  11.984  0.4376 -0.6354 -0.3488
  608TMC3     O 9065   3.673   0.065  11.866 -0.4302 -0.4114  0.1319
  608TMC3     H 9066   3.733   0.048  12.225 -0.7436  0.0394 -0.9860
  608TMC3    H1 9067   3.770   0.278  11.878 -0.5351 -1.4605  0.0442
  608TMC3    H2 9068   3.942   0.425  12.241 -2.6724  1.9697  0.2083
  608TMC3    C7 9069   3.924   0.479  11.977  0.4446 -0.3092 -0.9989
  608TMC3    C8 9070   3.855   0.219  12.393 -0.2173 -0.8744 -0.0880
  608TMC3    O1 9071   3.913   0.463  11.858  0.2517  0.1880 -0.5045
  608TMC3    O2 9072   3.941   0.276  12.462 -0.0390 -0.3776 -0.2154
  609TMC3    C1 9073   1.853   0.095  10.092 -0.0414  0.3034 -0.1458
  609TMC3    C2 9074   1.771   0.018  10.005 -0.0164  0.3189  0.3043
  609TMC3    C3 9075   1.818   4.723   9.879 -0.6021 -0.0825 -0.4779
  609TMC3    C4 9076   1.978   0.135  10.053 -0.3391 -0.5117 -0.8740
  609TMC3    C5 9077   2.017   0.104   9.922 -0.2010 -0.0544 -0.4260
  609TMC3    C6 9078   1.937   0.028   9.836 -0.5696 -0.3833 -1.1545
  609TMC3     C 9079   1.830   0.083  10.234 -0.1269  0.1786  0.3235
  609TMC3     O 9080   1.741   0.006  10.272  0.3444  0.4528  0.1662
  609TMC3     H 9081   1.670   4.725  10.028  0.0913 -0.1203  0.1319
  609TMC3    H1 9082   2.037   0.200  10.117  0.5311  1.3004 -3.4912
  609TMC3    H2 9083   1.976   0.004   9.738  2.1334  3.4427 -0.9878
  609TMC3    C7 9084   2.142   0.160   9.869  0.3767 -0.1359  0.2259
  609TMC3    C8 9085   1.759   4.606   9.819 -0.6601  0.1904 -0.1813
  609TMC3    O1 9086   2.170   0.132   9.752 -0.7468 -0.3592 -0.6673
  609TMC3    O2 9087   1.832   4.549   9.741 -0.3797  0.0172 -0.4029
  610TMC3    C1 9088   3.894   4.439  12.947 -0.1080 -0.3800  0.0137
  610TMC3    C2 9089   3.881   4.442  12.812 -0.0744  0.0309  0.7797
  610TMC3    C3 9090   3.984   4.514  12.747  0.4771  0.3608 -0.0553
  610TMC3    C4 9091   3.998   4.485  13.028 -0.1373  0.2062 -0.6914
  610TMC3    C5 9092   4.090   4.547  12.956 -0.2832  0.3256 -0.2097
  610TMC3    C6 9093   4.083   4.573  12.821  0.6458  0.2055 -0.4207
  610TMC3     C 9094   3.766   4.395  13.011 -0.3795  0.3564  0.0964
  610TMC3     O 9095   3.680   4.331  12.950  0.0214  0.4230  0.1275
  610TMC3     H 9096   3.789   4.413  12.763 -0.7762  1.4816  1.2246
  610TMC3    H1 9097   3.994   4.459  13.134 -1.3658 -0.2215 -0.8444
  610TMC3    H2 9098   4.150   4.643  12.773  1.3478  1.2674  2.1634
  610TMC3    C7 9099   4.205   4.602  13.032  0.2178  0.0942  1.2289
  610TMC3    C8 9100   4.000   4.513  12.603 -0.8091 -0.5368 -1.0689
  610TMC3    O1 9101   4.311   4.610  12.973  0.0104 -0.4163 -0.2607
  610TMC3    O2 9102   4.109   4.560  12.572  0.2231  0.5952  0.5364
  611MPD2     C 9103   3.278   0.427  10.784  0.2575  0.1104  0.0767
  611MPD2    C1 9104   3.246   0.533  10.708 -0.4187  0.0225 -0.2880
  611MPD2    C2 9105   3.339   0.622  10.659 -0.7099  0.8567  0.4850
  611MPD2    C3 9106   3.472   0.595  10.695 -0.6212  0.1776 -0.7234
  611MPD2    C4 9107   3.500   0.480  10.773 -0.4088 -0.0673  0.1091
  611MPD2    C5 9108   3.406   0.396  10.822 -0.2540 -0.1995  0.0556
  611MPD2     H 9109   3.314   0.717  10.612 -1.1904  0.5368  0.0966
  611MPD2    H1 9110   3.599   0.450  10.806 -0.2878 -2.0273 -1.9467
  611MPD2    H2 9111   3.192   0.373  10.823  0.5970 -0.1103  0.5131
  611MPD2    H3 9112   3.434   0.305  10.873 -0.2663 -0.7202 -0.8738
  611MPD2     N 9113   3.580   0.673  10.658 -0.1859  0.9731  0.8457
  611MPD2    H5 9114   3.671   0.642  10.690  0.3138  0.8552 -0.6872
  611MPD2    N1 9115   3.107   0.540  10.666  0.0672 -0.3721 -0.2185
  611MPD2    H7 9116   3.038   0.475  10.704 -1.5366  1.2969 -0.2996
  612TMC3    C1 9117   3.715   0.840  10.558 -0.4007 -0.0069  0.1584
  612TMC3    C2 9118   3.826   0.787  10.622 -0.3508 -0.7906  0.2108
  612TMC3    C3 9119   3.949   0.844  10.587  0.1633 -0.5880 -0.7354
  612TMC3    C4 9120   3.727   0.931  10.447  0.3746  0.3863 -0.0931
  612TMC3    C5 9121   3.858   0.979  10.426 -0.5200  0.4677  0.2948
  612TMC3    C6 9122   3.965   0.942  10.497 -0.4032 -0.6145 -0.9185
  612TMC3     C 9123   3.584   0.770  10.563  0.0666  0.5303  0.5873
  612TMC3     O 9124   3.489   0.817  10.501 -0.7752 -0.0166 -0.1093
  612TMC3     H 9125   3.811   0.718  10.704  0.4643 -0.3929  0.6958
  612TMC3    H1 9126   3.640   0.963  10.391  1.5504  1.4353 -1.3284
  612TMC3    H2 9127   4.060   0.984  10.467  0.3155 -0.4661  1.5264
  612TMC3    C7 9128   3.882   1.103  10.348 -0.4754  0.6398 -0.5862
  612TMC3    C8 9129   4.062   0.814  10.664 -0.3358 -0.5296 -0.1671
  612TMC3    O1 9130   3.992   1.152  10.342  0.3817  0.0814  0.6769
  612TMC3    O2 9131   4.163   0.874  10.631 -0.0800  0.0413  0.3208
  613MPD2     C 9132   2.495   2.186  16.452 -0.2829  0.4873 -0.0168
  613MPD2    C1 9133   2.557   2.161  16.336  1.1246 -1.0258 -0.2729
  613MPD2    C2 9134   2.603   2.035  16.310 -0.2111 -0.5862 -0.0672
  613MPD2    C3 9135   2.590   1.932  16.405  0.0915 -0.4434  0.3727
  613MPD2    C4 9136   2.520   1.961  16.519 -0.1834 -0.0602 -0.1235
  613MPD2    C5 9137   2.468   2.086  16.538 -0.7170 -0.4312  0.1872
  613MPD2     H 9138   2.649   2.008  16.215 -0.3788 -1.6886  0.1642
  613MPD2    H1 9139   2.511   1.888  16.599  3.9574 -0.3432  0.1052
  613MPD2    H2 9140   2.485   2.289  16.484  1.4348  0.6176  0.1166
  613MPD2    H3 9141   2.409   2.103  16.628  1.0879 -1.9746  1.6726
  613MPD2     N 9142   2.648   1.804  16.390 -0.2672  0.1673  0.0412
  613MPD2    H5 9143   2.641   1.743  16.471  1.7665  0.5849  0.5288
  613MPD2    N1 9144   2.583   2.263  16.244 -0.3920 -0.7827  0.4269
  613MPD2    H7 9145   2.633   2.229  16.163 -1.8675  0.2267 -0.9110
  614TMC3    C1 9146   2.591   2.470  16.137 -0.2204  0.4351 -0.3801
  614TMC3    C2 9147   2.729   2.451  16.118  0.2685  0.0143 -0.0072
  614TMC3    C3 9148   2.780   2.468  15.991 -0.2578  0.3311 -0.0128
  614TMC3    C4 9149   2.518   2.532  16.043  0.0514  0.1060  0.4218
  614TMC3    C5 9150   2.571   2.546  15.914 -0.7298 -0.5742 -0.1009
  614TMC3    C6 9151   2.702   2.524  15.894  0.0072  0.5166 -0.0607
  614TMC3     C 9152   2.531   2.394  16.244  0.3945 -0.1204 -0.2199
  614TMC3     O 9153   2.449   2.443  16.317  0.2966 -0.2816  0.0573
  614TMC3     H 9154   2.792   2.420  16.200 -0.6886 -1.5595  0.1357
  614TMC3    H1 9155   2.412   2.537  16.067 -0.1769 -1.1956 -0.3002
  614TMC3    H2 9156   2.752   2.552  15.802  0.7099 -0.6209 -0.0308
  614TMC3    C7 9157   2.475   2.577  15.808  0.5091  0.4779  0.0322
  614TMC3    C8 9158   2.898   2.393  15.946 -0.0751  0.2146  0.2568
  614TMC3    O1 9159   2.382   2.648  15.845 -0.3305  0.1647 -0.0428
  614TMC3    O2 9160   2.937   2.418  15.835 -0.2911 -0.6059  0.0188
  615MPD2     C 9161   2.113   3.643  15.965  0.9663 -0.5246 -0.1604
  615MPD2    C1 9162   2.186   3.758  15.958  0.5102 -0.8654 -0.2081
  615MPD2    C2 9163   2.154   3.851  15.857 -0.2579 -0.3345  0.1538
  615MPD2    C3 9164   2.062   3.820  15.764 -0.1807 -0.2456 -0.5897
  615MPD2    C4 9165   1.987   3.703  15.770 -0.3008  0.4423 -0.6277
  615MPD2    C5 9166   2.016   3.617  15.876 -0.9139 -0.4333  0.4210
  615MPD2     H 9167   2.208   3.945  15.862 -1.1527  0.2402 -0.8576
  615MPD2    H1 9168   1.917   3.680  15.690  0.8237  0.9119 -1.7563
  615MPD2    H2 9169   2.120   3.571  16.046 -1.6504 -0.0071  0.5362
  615MPD2    H3 9170   1.967   3.520  15.876 -0.0814 -0.8552 -2.8600
  615MPD2     N 9171   2.030   3.908  15.658  0.1695 -0.1194  0.1964
  615MPD2    H5 9172   1.956   3.885  15.592  1.2559  0.0850 -1.1017
  615MPD2    N1 9173   2.275   3.803  16.054  0.1993 -0.7939  0.5651
  615MPD2    H7 9174   2.325   3.890  16.037 -0.7689 -0.3432  0.0445
  616TMC3    C1 9175   2.454   3.765  16.215 -0.0878  0.3203 -0.9392
  616TMC3    C2 9176   2.467   3.899  16.235  0.6748 -0.3080 -0.2991
  616TMC3    C3 9177   2.593   3.935  16.275  0.3670  0.4582 -0.5872
  616TMC3    C4 9178   2.538   3.668  16.252 -0.1923 -0.0305 -0.7615
  616TMC3    C5 9179   2.663   3.708  16.289  0.0473  0.5148  0.8502
  616TMC3    C6 9180   2.696   3.841  16.299 -0.0723 -0.2330  0.2152
  616TMC3     C 9181   2.321   3.725  16.156  0.4094  0.6413 -0.6771
  616TMC3     O 9182   2.272   3.625  16.199  0.7446 -0.0374  0.0511
  616TMC3     H 9183   2.381   3.965  16.236  0.2333 -0.8820 -0.0465
  616TMC3    H1 9184   2.505   3.565  16.242 -4.5754  1.2872  0.1639
  616TMC3    H2 9185   2.800   3.861  16.321 -0.2774  1.7513 -0.5842
  616TMC3    C7 9186   2.756   3.603  16.331 -0.4677  0.0099  0.3696
  616TMC3    C8 9187   2.624   4.076  16.271  0.5601  0.3969  0.1062
  616TMC3    O1 9188   2.837   3.624  16.427 -0.0001  0.4279  0.8039
  616TMC3    O2 9189   2.536   4.150  16.226  0.0357  0.1882  0.2166
  617MPD2     C 9190   0.589   2.357  13.261  0.3883  0.8833 -0.2690
  617MPD2    C1 9191   0.616   2.280  13.368  0.2460 -0.1817 -0.1516
  617MPD2    C2 9192   0.535   2.171  13.397  0.3873  0.1267  0.5393
  617MPD2    C3 9193   0.436   2.134  13.309  1.0919 -1.1610 -0.3054
  617MPD2    C4 9194   0.420   2.209  13.197  0.0173  0.4890  0.0752
  617MPD2    C5 9195   0.490   2.323  13.171  0.5273  0.1687  0.3969
  617MPD2     H 9196   0.559   2.107  13.482 -0.8640  1.0307  1.5793
  617MPD2    H1 9197   0.339   2.194  13.126 -0.2899  1.1651  0.2816
  617MPD2    H2 9198   0.637   2.450  13.234 -0.3230  0.4255 -3.0692
  617MPD2    H3 9199   0.461   2.389  13.091 -0.0726  0.2285  0.6621
  617MPD2     N 9200   0.348   2.024  13.333  0.2068  0.4836 -0.5105
  617MPD2    H5 9201   0.290   2.008  13.251 -0.4565  1.1017 -0.1621
  617MPD2    N1 9202   0.732   2.318  13.441 -0.2970 -0.5261  0.0563
  617MPD2    H7 9203   0.793   2.381  13.389 -0.1720  1.3966  2.5522
  618TMC3    C1 9204   0.892   2.343  13.619 -0.2537 -0.3594 -0.3369
  618TMC3    C2 9205   0.978   2.276  13.707 -1.3262  0.2500  0.0281
  618TMC3    C3 9206   1.093   2.350  13.745 -0.8111 -0.0097  0.5065
  618TMC3    C4 9207   0.918   2.473  13.573 -0.4303 -0.1916  0.2011
  618TMC3    C5 9208   1.041   2.524  13.607  0.2297  0.2157  0.7826
  618TMC3    C6 9209   1.120   2.477  13.704 -0.0587 -0.3545  0.6312
  618TMC3     C 9210   0.779   2.264  13.558  0.8459  0.3615 -0.2393
  618TMC3     O 9211   0.730   2.170  13.621  0.3691  0.9702  0.0851
  618TMC3     H 9212   0.959   2.174  13.740 -0.6262 -0.5758 -2.1164
  618TMC3    H1 9213   0.859   2.530  13.502 -0.6095  0.3101  0.7477
  618TMC3    H2 9214   1.212   2.524  13.735  0.0392 -0.8538  1.0939
  618TMC3    C7 9215   1.091   2.650  13.539  0.3081 -0.2069  0.2728
  618TMC3    C8 9216   1.191   2.287  13.837 -0.0700 -0.4509 -0.2847
  618TMC3    O1 9217   1.015   2.744  13.562  0.1582  0.5472 -0.7016
  618TMC3    O2 9218   1.262   2.370  13.894 -0.4684  0.1716 -0.6880
  619MPD2     C 9219   1.520   3.060  13.304 -0.1866 -0.5407  0.1015
  619MPD2    C1 9220   1.432   3.164  13.290 -0.5394 -0.1696  0.7062
  619MPD2    C2 9221   1.322   3.163  13.378 -0.2148  0.4690  0.2928
  619MPD2    C3 9222   1.310   3.066  13.483  0.2072 -0.1770 -0.2407
  619MPD2    C4 9223   1.400   2.955  13.487 -0.1968  0.0762 -0.0290
  619MPD2    C5 9224   1.497   2.954  13.394 -0.1541 -0.1677 -0.6666
  619MPD2     H 9225   1.251   3.244  13.370 -1.4736 -0.5206  1.4380
  619MPD2    H1 9226   1.385   2.871  13.553 -0.9125  0.8554  0.8003
  619MPD2    H2 9227   1.607   3.051  13.239 -0.4518 -1.2228 -0.1614
  619MPD2    H3 9228   1.566   2.870  13.393  1.5689  1.2364  1.3548
  619MPD2     N 9229   1.202   3.069  13.573  0.2325  0.4142  0.6228
  619MPD2    H5 9230   1.189   2.988  13.633  2.5194 -1.6395 -1.6524
  619MPD2    N1 9231   1.453   3.271  13.205  0.4783 -0.0714  0.1501
  619MPD2    H7 9232   1.378   3.339  13.195  0.4029 -0.2669 -0.6507
  620TMC3    C1 9233   1.569   3.386  13.019  0.3012 -0.0620  0.3031
  620TMC3    C2 9234   1.460   3.470  13.017 -0.3768  0.6664 -0.1956
  620TMC3    C3 9235   1.471   3.579  12.935 -0.8629  0.2523 -0.3341
  620TMC3    C4 9236   1.680   3.421  12.950  0.2343  0.2527  0.0857
  620TMC3    C5 9237   1.690   3.536  12.876  0.0150 -0.3444  1.0201
  620TMC3    C6 9238   1.577   3.609  12.858 -0.3495  0.0528  0.2472
  620TMC3     C 9239   1.571   3.291  13.129  0.1295 -0.2328 -0.2766
  620TMC3     O 9240   1.681   3.244  13.144 -0.4035  0.1177 -0.7956
  620TMC3     H 9241   1.362   3.444  13.054 -0.5214  1.4597 -0.0199
  620TMC3    H1 9242   1.768   3.360  12.962 -1.3536 -1.9084  0.6972
  620TMC3    H2 9243   1.575   3.695  12.792  0.9410  0.5842  0.8954
  620TMC3    C7 9244   1.788   3.630  12.923 -0.0297 -0.0020  0.6199
  620TMC3    C8 9245   1.418   3.698  12.998  0.2406 -0.3475  0.0390
  620TMC3    O1 9246   1.799   3.738  12.867  0.8595  0.0011 -0.0770
  620TMC3    O2 9247   1.406   3.799  12.930  0.0802  0.5682  0.1019
  621MPD2     C 9248   1.605   3.439  10.505 -0.5311 -0.3741  0.6098
  621MPD2    C1 9249   1.530   3.436  10.390 -0.4546  0.3275 -0.1463
  621MPD2    C2 9250   1.519   3.553  10.313 -0.1978 -0.2131 -0.4604
  621MPD2    C3 9251   1.584   3.674  10.349  0.0245  0.9422 -0.2430
  621MPD2    C4 9252   1.652   3.674  10.472  0.3557  0.2509 -0.4389
  621MPD2    C5 9253   1.655   3.560  10.549 -0.7981 -0.2968  0.0880
  621MPD2     H 9254   1.467   3.540  10.219  0.3688  0.6155 -0.8878
  621MPD2    H1 9255   1.708   3.756  10.514 -1.2474  0.3198  1.5611
  621MPD2    H2 9256   1.627   3.352  10.566  0.0627 -0.6711 -0.0340
  621MPD2    H3 9257   1.701   3.560  10.647 -0.8137  1.8949  0.1129
  621MPD2     N 9258   1.574   3.784  10.267 -0.0415  0.5919 -0.0894
  621MPD2    H5 9259   1.524   3.778  10.179 -0.3239 -2.0658  0.2556
  621MPD2    N1 9260   1.457   3.328  10.348  0.4067  0.3737  0.9804
  621MPD2    H7 9261   1.403   3.341  10.263  0.6536 -1.8244  0.4739
  622TMC3    C1 9262   1.396   3.116  10.315  0.3200 -0.2938 -0.5941
  622TMC3    C2 9263   1.259   3.145  10.303  0.3897  0.0934 -0.3328
  622TMC3    C3 9264   1.175   3.059  10.231  0.6033 -0.0854  0.6080
  622TMC3    C4 9265   1.447   3.014  10.241 -0.4166  0.1779 -0.4542
  622TMC3    C5 9266   1.371   2.955  10.143 -0.2791 -0.3506  0.0853
  622TMC3    C6 9267   1.238   2.974  10.137  0.1021 -0.1991  0.4898
  622TMC3     C 9268   1.489   3.199  10.384 -0.2083 -0.2182 -0.0571
  622TMC3     O 9269   1.584   3.154  10.449 -0.4751  0.0151 -0.0811
  622TMC3     H 9270   1.227   3.212  10.381 -2.1005 -0.5767 -0.8031
  622TMC3    H1 9271   1.554   3.006  10.251 -0.6461 -1.7213  0.5340
  622TMC3    H2 9272   1.174   2.919  10.069 -2.1480  1.7240  1.0497
  622TMC3    C7 9273   1.442   2.872  10.051 -0.6987  0.2493  0.6334
  622TMC3    C8 9274   1.027   3.075  10.213  0.8114 -0.4258 -0.1040
  622TMC3    O1 9275   1.533   2.809  10.098 -0.1282  0.1911  0.1421
  622TMC3    O2 9276   0.966   2.977  10.173 -0.2808  0.2390 -0.1638
  623MPD2     C 9277   0.576   4.316  15.815  0.4160  0.3642 -0.4251
  623MPD2    C1 9278   0.532   4.316  15.939  0.0145  0.3969 -0.3532
  623MPD2    C2 9279   0.615   4.358  16.041 -0.1630 -0.1592  0.5102
  623MPD2    C3 9280   0.749   4.382  16.019  0.0377 -0.1768  0.0395
  623MPD2    C4 9281   0.800   4.377  15.891 -0.1693 -0.3643  0.0502
  623MPD2    C5 9282   0.709   4.342  15.790  0.2687  0.4394  0.4422
  623MPD2     H 9283   0.577   4.371  16.142 -2.4791 -0.4309 -0.3298
  623MPD2    H1 9284   0.904   4.391  15.862 -0.7667  0.3944 -1.7396
  623MPD2    H2 9285   0.521   4.273  15.732 -1.3600  0.4096  0.7345
  623MPD2    H3 9286   0.745   4.316  15.691  0.1218 -0.7857  0.7083
  623MPD2     N 9287   0.824   4.410  16.131 -0.4850  0.6636 -0.2423
  623MPD2    H5 9288   0.768   4.418  16.215  1.4644  0.2333  1.0837
  623MPD2    N1 9289   0.400   4.274  15.961  0.1200 -0.1978  0.0954
  623MPD2    H7 9290   0.333   4.263  15.885  0.3874 -1.9687  0.1223
  624TMC3    C1 9291   1.168   4.552  16.397  0.5832  0.5579  0.1610
  624TMC3    C2 9292   1.087   4.538  16.512 -0.0246 -0.6938 -0.2636
  624TMC3    C3 9293   0.963   4.499  16.488 -0.0208  0.3880 -0.2286
  624TMC3    C4 9294   1.135   4.521  16.269 -0.0239 -0.1787  0.0780
  624TMC3    C5 9295   0.999   4.500  16.255 -0.5987  0.8735  0.3233
  624TMC3    C6 9296   0.920   4.473  16.363  0.5442 -0.2485 -0.3792
  624TMC3     C 9297   1.294   4.605  16.431 -0.3542 -0.4899 -0.1106
  624TMC3     O 9298   1.325   4.601  16.551  0.1356 -0.3305 -0.6872
  624TMC3     H 9299   1.121   4.537  16.615  1.2361 -0.8010 -0.6803
  624TMC3    H1 9300   1.213   4.526  16.194  0.2577 -2.6093  0.2011
  624TMC3    H2 9301   0.815   4.449  16.353  0.1476  1.2556  0.1364
  624TMC3    C7 9302   0.956   4.463  16.125 -0.1932 -0.4068  0.6909
  624TMC3    C8 9303   0.872   4.458  16.590  0.4486  0.4665  0.2634
  624TMC3    O1 9304   1.030   4.472  16.031 -0.1355 -0.2266  0.3463
  624TMC3    O2 9305   0.837   4.539  16.675 -0.8843 -0.0930 -0.4131
  625MPD2     C 9306   1.844   0.312   0.117 -0.8117  0.8304 -0.4164
  625MPD2    C1 9307   1.773   0.431   0.121  0.0979 -0.5059 -0.2124
  625MPD2    C2 9308   1.824   0.547   0.171  0.4058 -0.1786  1.0310
  625MPD2    C3 9309   1.959   0.544   0.218  0.2778 -0.4418  0.0457
  625MPD2    C4 9310   2.034   0.429   0.207  0.0047  0.6857  0.3884
  625MPD2    C5 9311   1.977   0.317   0.157 -0.1955 -0.1111  0.3402
  625MPD2     H 9312   1.760   0.633   0.184 -2.2272 -1.6676 -2.1102
  625MPD2    H1 9313   2.136   0.417   0.240  1.1441 -0.7208 -3.5645
  625MPD2    H2 9314   1.791   0.223   0.087  2.1600 -1.4596  1.1375
  625MPD2    H3 9315   2.028   0.223   0.141 -2.0431 -0.9128 -0.7253
  625MPD2     N 9316   1.997   0.657   0.291  0.3913 -0.7905  0.2622
  625MPD2    H5 9317   1.934   0.735   0.299 -0.0125 -0.8306 -2.4710
  625MPD2    N1 9318   1.635   0.420   0.079 -0.5574  0.0552  0.0075
  625MPD2    H7 9319   1.599   0.329   0.051 -0.4082  0.2909 -0.9645
  626TMC3    C1 9320   1.407   0.476   0.049  0.6950  0.4702  0.1485
  626TMC3    C2 9321   1.324   0.556  17.738 -0.1755 -0.0247  0.3322
  626TMC3    C3 9322   1.195   0.519  17.731 -0.1179 -0.3469  0.1857
  626TMC3    C4 9323   1.367   0.355   0.102 -0.2053  0.1024 -0.2196
  626TMC3    C5 9324   1.238   0.310   0.087 -0.4578 -0.0045 -0.0907
  626TMC3    C6 9325   1.150   0.390   0.020 -0.4970 -0.7525 -1.4463
  626TMC3     C 9326   1.545   0.523   0.059  0.1026 -1.3953  0.0088
  626TMC3     O 9327   1.555   0.645   0.048  0.1182 -0.7739 -0.0384
  626TMC3     H 9328   1.362   0.649  17.697  0.8024 -0.4052  0.3690
  626TMC3    H1 9329   1.436   0.297   0.162  0.1105 -0.3679 -1.0304
  626TMC3    H2 9330   1.049   0.364  17.753 -0.8660 -0.0225 -0.7754
  626TMC3    C7 9331   1.191   0.192   0.152 -0.1079  1.0076 -0.5251
  626TMC3    C8 9332   1.108   0.618  17.674 -0.4484 -0.4210  0.5551
  626TMC3    O1 9333   1.268   0.128   0.218 -0.0160 -0.0505  0.0600
  626TMC3    O2 9334   1.158   0.721  17.638  0.1845  0.0699  0.5154
  627MPD2     C 9335   3.931   0.846  14.320  0.2029 -0.5047 -0.1555
  627MPD2    C1 9336   4.062   0.806  14.340  0.2074 -0.3662  0.0650
  627MPD2    C2 9337   4.085   0.675  14.376 -0.0957 -0.2697  0.0588
  627MPD2    C3 9338   3.982   0.594  14.413 -0.8111 -0.0551 -0.2432
  627MPD2    C4 9339   3.852   0.632  14.400  0.2974 -0.3476 -0.1189
  627MPD2    C5 9340   3.834   0.752  14.349  0.4367 -0.2721 -0.1233
  627MPD2     H 9341   4.186   0.642  14.397 -0.5804 -2.8669 -1.6440
  627MPD2    H1 9342   3.766   0.571  14.423  0.7899 -0.2831  1.8580
  627MPD2    H2 9343   3.895   0.941  14.283  0.1655 -0.2231  0.5979
  627MPD2    H3 9344   3.733   0.789  14.341  0.8377  1.5534  3.2078
  627MPD2     N 9345   4.020   0.467  14.461 -0.3216  0.0971 -0.3389
  627MPD2    H5 9346   4.118   0.450  14.479 -0.3182 -0.0358 -0.4722
  627MPD2    N1 9347   4.176   0.892  14.325  0.3407 -0.3104  0.5840
  627MPD2    H7 9348   4.265   0.855  14.358 -0.4581 -3.6753 -0.9953
  628TMC3    C1 9349   4.298   1.083  14.257 -0.0656 -0.2388  0.0934
  628TMC3    C2 9350   4.403   1.001  14.224 -0.1419 -0.0314  0.1180
  628TMC3    C3 9351   4.511   1.067  14.161  0.1489  0.1205 -0.0523
  628TMC3    C4 9352   4.294   1.213  14.225  0.6870  0.2518 -0.2001
  628TMC3    C5 9353   4.395   1.257  14.147 -0.1731  0.2499 -0.1161
  628TMC3    C6 9354   4.506   1.193  14.112 -0.4229  0.9317  0.3842
  628TMC3     C 9355   4.171   1.022  14.291 -0.2472  0.1116 -0.1459
  628TMC3     O 9356   4.075   1.101  14.291 -0.6340  0.5681 -0.1797
  628TMC3     H 9357   4.410   0.898  14.256  2.8390 -0.1515 -0.9096
  628TMC3    H1 9358   4.210   1.278  14.247 -0.7837 -1.5534 -0.4619
  628TMC3    H2 9359   4.598   1.234  14.073 -0.7044  0.2493 -1.0362
  628TMC3    C7 9360   4.386   1.391  14.097 -0.2562  0.1472 -0.0188
  628TMC3    C8 9361   4.643   1.013  14.185 -0.3471 -0.0300 -0.1953
  628TMC3    O1 9362   4.277   1.444  14.120  0.3146  0.3028  0.5678
  628TMC3    O2 9363   4.735   1.022  14.108  0.2305 -0.2153 -0.8134
  629MPD2     C 9364   2.913   4.495  16.343  0.3466  0.6041  0.2149
  629MPD2    C1 9365   2.978   4.393  16.396  0.2118 -0.2746 -0.6815
  629MPD2    C2 9366   2.919   4.262  16.393  0.3432  0.9314 -0.1076
  629MPD2    C3 9367   2.807   4.240  16.315 -0.6232  0.5196  0.3165
  629MPD2    C4 9368   2.749   4.349  16.256  0.3603 -0.0511 -1.0989
  629MPD2    C5 9369   2.806   4.475  16.271 -0.4967 -0.4747 -0.1578
  629MPD2     H 9370   2.961   4.181  16.451 -0.4697 -0.5682 -1.6148
  629MPD2    H1 9371   2.665   4.346  16.187  0.1973 -1.2814 -0.8411
  629MPD2    H2 9372   2.946   4.598  16.330 -0.1667  0.7784  0.2971
  629MPD2    H3 9373   2.758   4.561  16.227 -2.7166 -1.5887  0.1099
  629MPD2     N 9374   2.745   4.111  16.317  0.5277  0.2688 -0.1340
  629MPD2    H5 9375   2.796   4.037  16.365 -0.1016 -0.0316  0.0640
  629MPD2    N1 9376   3.101   4.419  16.457  0.2285  0.5343  0.1509
  629MPD2    H7 9377   3.134   4.514  16.443  0.0047  0.4547 -0.9175
  630TMC3    C1 9378   3.270   4.406  16.625  0.5501  0.5700 -0.2915
  630TMC3    C2 9379   3.346   4.506  16.568 -0.8947  0.5676  0.0833
  630TMC3    C3 9380   3.439   4.572  16.640  0.4646 -0.0318  0.9305
  630TMC3    C4 9381   3.299   4.363  16.752 -0.8596  0.1546  0.2167
  630TMC3    C5 9382   3.420   4.408  16.803 -0.1810  0.0443 -0.0541
  630TMC3    C6 9383   3.477   4.521  16.756 -0.9972  0.4345 -0.5736
  630TMC3     C 9384   3.166   4.334  16.547  0.1310 -0.0611  0.5390
  630TMC3     O 9385   3.113   4.249  16.612 -0.2624 -0.2626 -0.0708
  630TMC3     H 9386   3.330   4.533  16.464 -1.9817 -1.1902 -0.2033
  630TMC3    H1 9387   3.266   4.265  16.786 -0.2047 -0.5005 -1.0405
  630TMC3    H2 9388   3.550   4.582  16.808 -0.9718 -0.2653  0.2113
  630TMC3    C7 9389   3.488   4.317  16.882 -0.1101 -0.7745 -0.2162
  630TMC3    C8 9390   3.522   4.666  16.572  0.0418 -0.8744 -0.2347
  630TMC3    O1 9391   3.431   4.245  16.957  0.0023  0.7676  0.1004
  630TMC3    O2 9392   3.632   4.681  16.627 -0.0154 -0.3471 -0.2460
  631MPD2     C 9393   1.303   4.494  15.428 -0.5540 -0.4571 -0.1109
  631MPD2    C1 9394   1.371   4.499  15.309  0.0350  0.0724  0.3261
  631MPD2    C2 9395   1.483   4.418  15.290 -0.3301  0.7029 -0.7289
  631MPD2    C3 9396   1.526   4.336  15.388  0.2369  0.0317 -0.2066
  631MPD2    C4 9397   1.459   4.340  15.511  0.8588  0.2413 -0.3103
  631MPD2    C5 9398   1.350   4.418  15.533  0.8201  0.4672  0.2465
  631MPD2     H 9399   1.532   4.424  15.194  1.8848  1.0739  0.4151
  631MPD2    H1 9400   1.481   4.270  15.591 -0.9210  0.7870  0.6612
  631MPD2    H2 9401   1.204   4.535  15.444 -0.5063 -0.0379 -0.9103
  631MPD2    H3 9402   1.298   4.414  15.628  1.1895  2.0494  0.5090
  631MPD2     N 9403   1.648   4.270  15.360 -0.0831 -0.3349 -0.8336
  631MPD2    H5 9404   1.688   4.281  15.268 -0.2632  2.1989 -0.6051
  631MPD2    N1 9405   1.314   4.576  15.208  0.1051  0.1531  0.4936
  631MPD2    H7 9406   1.241   4.640  15.239  0.2526  0.3998  0.3334
  632TMC3    C1 9407   1.267   4.665  14.989 -0.1718  0.2977  0.0403
  632TMC3    C2 9408   1.132   4.637  14.991 -0.4007 -0.4260  0.3590
  632TMC3    C3 9409   1.059   4.631  14.882  0.4325 -0.3112 -0.5667
  632TMC3    C4 9410   1.324   4.672  14.865 -0.3468  0.2662  0.5354
  632TMC3    C5 9411   1.253   4.659  14.755 -0.0865  1.0657 -0.0928
  632TMC3    C6 9412   1.118   4.635  14.758  1.4048  0.0266 -0.0002
  632TMC3     C 9413   1.345   4.581  15.074  0.3195 -0.6020  0.3544
  632TMC3     O 9414   1.413   4.496  15.015 -0.4976 -0.0851 -0.1740
  632TMC3     H 9415   1.089   4.615  15.088  0.2698  1.4689  1.0794
  632TMC3    H1 9416   1.430   4.692  14.873 -0.2389 -0.2727  0.4983
  632TMC3    H2 9417   1.063   4.627  14.665  1.4640 -0.5244  0.0124
  632TMC3    C7 9418   1.322   4.584  14.656 -0.8161 -0.0780 -0.3078
  632TMC3    C8 9419   0.912   4.650  14.883  0.0682 -0.1321  0.0987
  632TMC3    O1 9420   1.287   4.592  14.541 -0.3693 -0.3889  0.3934
  632TMC3    O2 9421   0.858   4.632  14.774  0.0059  0.8008  0.1077
  633MPD2     C 9422   1.396   2.373  17.513  1.3536 -0.3281  0.2237
  633MPD2    C1 9423   1.366   2.282  17.410 -0.9450 -0.6739  0.4849
  633MPD2    C2 9424   1.368   2.142  17.436 -0.3546 -0.6457 -0.4121
  633MPD2    C3 9425   1.407   2.101  17.567  0.3641 -0.4229  0.2415
  633MPD2    C4 9426   1.431   2.194  17.666  0.1689  0.0409  0.5579
  633MPD2    C5 9427   1.428   2.325  17.638 -0.1660  0.2402 -0.3506
  633MPD2     H 9428   1.341   2.072  17.358 -0.8894  0.5976 -1.3508
  633MPD2    H1 9429   1.460   2.152   0.000  1.2517  1.2467  0.7547
  633MPD2    H2 9430   1.396   2.477  17.482  0.0895 -0.2980  0.3037
  633MPD2    H3 9431   1.448   2.385  17.726  0.7675 -2.1319  1.0270
  633MPD2     N 9432   1.421   1.964  17.602 -0.1653  0.1255 -0.7431
  633MPD2    H5 9433   1.458   1.953  17.696 -0.0008 -2.0095 -1.0490
  633MPD2    N1 9434   1.334   2.315  17.277 -0.1670 -0.8273 -0.4225
  633MPD2    H7 9435   1.325   2.243  17.206  0.0464 -0.4772 -0.7964
  634TMC3    C1 9436   1.327   2.442  17.072 -0.1126  0.1620  1.2691
  634TMC3    C2 9437   1.357   2.325  17.012 -0.0021 -0.1358 -0.0576
  634TMC3    C3 9438   1.378   2.339  16.878 -1.2283 -0.3543  0.4071
  634TMC3    C4 9439   1.321   2.563  17.010 -0.4324  0.6628  0.3862
  634TMC3    C5 9440   1.331   2.565  16.877 -0.3003 -0.8413  0.1465
  634TMC3    C6 9441   1.357   2.452  16.808 -0.1651  0.7529 -0.7199
  634TMC3     C 9442   1.329   2.446  17.223 -0.3950 -0.4997 -0.5581
  634TMC3     O 9443   1.329   2.557  17.272 -0.1455  0.1040  1.1621
  634TMC3     H 9444   1.357   2.228  17.061 -0.4019  0.1336  0.4714
  634TMC3    H1 9445   1.312   2.655  17.067 -0.9880 -0.2534  1.7922
  634TMC3    H2 9446   1.385   2.471  16.705  2.5109 -0.8645 -0.2982
  634TMC3    C7 9447   1.292   2.680  16.801 -0.6889  0.4707 -0.0900
  634TMC3    C8 9448   1.399   2.213  16.814 -0.0913  0.2978 -0.2209
  634TMC3    O1 9449   1.311   2.661  16.681  0.1215  0.1708  0.1046
  634TMC3    O2 9450   1.442   2.116  16.877  0.0396  0.1115  0.5177
  635TMC3    C1 9451   1.723   3.046  17.647 -1.1875  0.7703  0.5922
  635TMC3    C2 9452   1.710   2.939  17.568  0.2314  0.8177 -0.5095
  635TMC3    C3 9453   1.693   2.816  17.635 -0.1946  1.2331  0.6417
  635TMC3    C4 9454   1.753   3.039   0.020 -0.0325  0.3864 -0.5183
  635TMC3    C5 9455   1.754   2.912   0.081  1.1008 -0.4947 -0.0331
  635TMC3    C6 9456   1.710   2.799   0.011 -0.0254 -0.2854 -0.1323
  635TMC3     C 9457   1.771   3.172  17.592 -0.2960  0.0881  0.1143
  635TMC3     O 9458   1.772   3.265  17.672  0.3238  0.1828  0.0559
  635TMC3     H 9459   1.673   2.956  17.468 -1.5188 -0.9139 -0.1647
  635TMC3    H1 9460   1.772   3.120   0.089  2.4425 -0.8692  0.2687
  635TMC3    H2 9461   1.713   2.697   0.049 -1.2093  0.2419  1.3864
  635TMC3    C7 9462   1.805   2.913   0.218 -0.1439  0.3745 -0.6484
  635TMC3    C8 9463   1.669   2.692  17.561 -0.1457 -0.5362  0.2619
  635TMC3    O1 9464   1.843   3.016   0.274 -0.1677 -0.2756 -0.2875
  635TMC3    O2 9465   1.647   2.595  17.632  0.3266  0.5785 -0.0556
  636MPD2     C 9466   2.798   1.938  15.617 -0.1166 -0.1521  0.2040
  636MPD2    C1 9467   2.686   1.924  15.697 -0.7413  0.0856  0.5983
  636MPD2    C2 9468   2.699   1.844  15.806 -0.2105 -0.1077  0.1635
  636MPD2    C3 9469   2.809   1.755  15.820  0.3400 -0.3055  0.1353
  636MPD2    C4 9470   2.908   1.751  15.725  0.1753  0.5446 -0.0251
  636MPD2    C5 9471   2.905   1.853  15.627 -0.4619 -0.2093  0.1067
  636MPD2     H 9472   2.619   1.836  15.879 -1.4025 -0.6539 -1.1864
  636MPD2    H1 9473   2.998   1.694  15.739 -1.0120 -1.0607  1.1507
  636MPD2    H2 9474   2.801   2.016  15.542  0.9793  0.0601  0.4646
  636MPD2    H3 9475   2.997   1.866  15.572 -1.6116 -1.3884 -2.1103
  636MPD2     N 9476   2.827   1.676  15.933 -0.2437 -0.4086  0.6416
  636MPD2    H5 9477   2.758   1.682  16.007  0.3056 -0.5727  1.1774
  636MPD2    N1 9478   2.573   2.007  15.683  0.4207 -0.1664 -0.0841
  636MPD2    H7 9479   2.491   1.996  15.741  0.5714 -1.5215 -0.1421
  637TMC3    C1 9480   2.910   1.564  16.106 -0.2511 -0.8075 -0.4792
  637TMC3    C2 9481   2.787   1.587  16.161 -0.5009  0.5396 -0.0018
  637TMC3    C3 9482   2.778   1.644  16.283  0.5557  0.5516 -0.1410
  637TMC3    C4 9483   3.023   1.618  16.173  0.1564  0.0068  0.0404
  637TMC3    C5 9484   3.008   1.688  16.287 -0.0954 -0.2399  0.6923
  637TMC3    C6 9485   2.887   1.685  16.352 -0.1632 -0.0349 -0.2272
  637TMC3     C 9486   2.927   1.588  15.969  0.0448  0.0113  0.6007
  637TMC3     O 9487   3.043   1.584  15.925  0.4422  0.1138 -0.1519
  637TMC3     H 9488   2.692   1.558  16.118 -2.1605  3.7278  1.4822
  637TMC3    H1 9489   3.122   1.590  16.139  0.9280  0.6290  1.7681
  637TMC3    H2 9490   2.874   1.759  16.431 -0.2776 -0.8747  0.5405
  637TMC3    C7 9491   3.044   1.830  16.271 -0.2360 -0.3048  0.1702
  637TMC3    C8 9492   2.690   1.753  16.270 -0.0626 -0.2216  0.5602
  637TMC3    O1 9493   3.013   1.921  16.346  0.3333 -0.1882 -0.6077
  637TMC3    O2 9494   2.669   1.795  16.158  0.2089 -0.1889 -0.6331
  638MPD2     C 9495   1.811   1.464  14.949  0.0795 -0.4239 -0.6679
  638MPD2    C1 9496   1.914   1.381  14.902 -0.1458 -0.4418 -0.0836
  638MPD2    C2 9497   1.930   1.256  14.958 -0.1184  0.1908 -0.6419
  638MPD2    C3 9498   1.854   1.216  15.068  1.0252  0.1737  0.1645
  638MPD2    C4 9499   1.760   1.300  15.120  0.5134  0.4674 -0.5194
  638MPD2    C5 9500   1.742   1.424  15.058  0.6422  0.1173  0.5491
  638MPD2     H 9501   1.991   1.180  14.910 -0.4725 -0.2170 -0.4448
  638MPD2    H1 9502   1.695   1.284  15.205  0.2274  0.2043 -0.7888
  638MPD2    H2 9503   1.785   1.558  14.902 -2.7689 -0.9975 -0.2920
  638MPD2    H3 9504   1.666   1.492  15.094 -0.9792 -1.7955  0.7402
  638MPD2     N 9505   1.881   1.084  15.123 -0.2283 -0.0027  0.0045
  638MPD2    H5 9506   1.956   1.032  15.080  0.0231  1.5008 -1.3578
  638MPD2    N1 9507   1.988   1.418  14.785 -0.0978  0.3156 -0.3083
  638MPD2    H7 9508   1.946   1.500  14.741  0.2153  0.9555  0.5862
  639TMC3    C1 9509   1.837   0.868  15.200 -0.9508  0.5542 -0.3604
  639TMC3    C2 9510   1.729   0.781  15.224  0.1861  0.4607  0.1620
  639TMC3    C3 9511   1.764   0.656  15.201 -0.8640  0.7768 -1.0766
  639TMC3    C4 9512   1.966   0.834  15.169 -0.7059 -0.6586 -0.0183
  639TMC3    C5 9513   1.985   0.701  15.168  0.2581 -0.4122  1.4044
  639TMC3    C6 9514   1.889   0.608  15.174  0.4498  0.0461  0.0578
  639TMC3     C 9515   1.792   1.007  15.195 -0.0085 -0.3930 -0.3190
  639TMC3     O 9516   1.682   1.037  15.234 -0.1788 -0.3087  0.0351
  639TMC3     H 9517   1.624   0.807  15.226  0.3188  1.0904 -1.1575
  639TMC3    H1 9518   2.051   0.901  15.177  0.0886 -1.7346  0.5897
  639TMC3    H2 9519   1.904   0.502  15.159 -2.9141 -0.5187  0.5920
  639TMC3    C7 9520   2.117   0.647  15.152 -0.3246 -0.4772 -0.2471
  639TMC3    C8 9521   1.654   0.579  15.171 -0.0439 -0.2390  0.5944
  639TMC3    O1 9522   2.132   0.539  15.203  0.1939  0.5592 -0.0863
  639TMC3    O2 9523   1.552   0.585  15.233  0.0655 -0.0167 -0.6849
  640MPD2     C 9524   2.847   1.329  10.150  0.1181  0.2013 -1.0141
  640MPD2    C1 9525   2.828   1.200  10.181 -0.1640 -0.1633 -0.7436
  640MPD2    C2 9526   2.717   1.159  10.246  0.6436  0.1941 -0.2381
  640MPD2    C3 9527   2.632   1.253  10.295 -0.8473 -0.3582 -0.2200
  640MPD2    C4 9528   2.660   1.384  10.273 -0.3946 -0.2729  0.2536
  640MPD2    C5 9529   2.766   1.425  10.197 -0.0030  0.2935  0.6502
  640MPD2     H 9530   2.698   1.054  10.265  0.2721  0.4939  1.0812
  640MPD2    H1 9531   2.591   1.453  10.320  0.0548  0.1198  0.3377
  640MPD2    H2 9532   2.936   1.362  10.098  0.7019  1.0889  0.5290
  640MPD2    H3 9533   2.781   1.530  10.177  2.2958  0.0966  1.3137
  640MPD2     N 9534   2.523   1.223  10.377 -0.4565  0.6235  0.2853
  640MPD2    H5 9535   2.471   1.303  10.412 -0.7249  0.5460  0.0633
  640MPD2    N1 9536   2.916   1.111  10.123 -0.3401 -0.3110 -0.0290
  640MPD2    H7 9537   2.986   1.144  10.057  0.4703  0.9577  1.4436
  641TMC3    C1 9538   3.031   0.914  10.076  0.5671  0.6545  0.0639
  641TMC3    C2 9539   3.062   0.960   9.949 -0.2606  0.0528 -0.1328
  641TMC3    C3 9540   3.132   0.875   9.869  0.5393 -0.2940 -0.5509
  641TMC3    C4 9541   3.075   0.796  10.126 -0.6093  0.3807 -0.0628
  641TMC3    C5 9542   3.148   0.715  10.046  0.9868 -0.7938  0.3377
  641TMC3    C6 9543   3.171   0.751   9.918  0.0055  0.2200  0.1967
  641TMC3     C 9544   2.937   0.984  10.166 -0.0964 -0.0093  0.1385
  641TMC3     O 9545   2.903   0.921  10.268 -0.6248 -0.2057  0.4225
  641TMC3     H 9546   3.036   1.059   9.913 -1.1285 -0.2235 -0.2656
  641TMC3    H1 9547   3.029   0.757  10.217  0.3230  1.5340  0.8985
  641TMC3    H2 9548   3.224   0.685   9.850  2.3695  2.1291  0.1830
  641TMC3    C7 9549   3.172   0.575  10.072 -0.3090 -0.1970  0.2856
  641TMC3    C8 9550   3.081   0.874   9.737 -0.1966  0.0181 -0.0982
  641TMC3    O1 9551   3.186   0.495   9.984 -0.3703  0.2685  0.7532
  641TMC3    O2 9552   3.042   0.764   9.703  0.0832  0.1363  0.1773
  642TMC3    C1 9553   3.309   1.210  12.487 -0.0774  0.6313  0.1477
  642TMC3    C2 9554   3.442   1.236  12.467 -0.6675  0.2282 -0.0213
  642TMC3    C3 9555   3.513   1.146  12.391  0.6620  0.1325 -0.0067
  642TMC3    C4 9556   3.251   1.099  12.437  0.2347 -0.9696 -0.0067
  642TMC3    C5 9557   3.321   1.009  12.367  0.2364 -0.0765 -0.3524
  642TMC3    C6 9558   3.451   1.045  12.322 -0.0738 -0.3348 -0.1527
  642TMC3     C 9559   3.232   1.325  12.526  0.0397 -0.3955 -0.0294
  642TMC3     O 9560   3.272   1.442  12.520  0.1158 -0.2275 -0.4828
  642TMC3     H 9561   3.481   1.324  12.517  1.8193 -0.1622 -1.2277
  642TMC3    H1 9562   3.142   1.102  12.435  0.3218  2.1501 -0.8591
  642TMC3    H2 9563   3.506   0.973  12.263  1.1782 -0.2454  0.8941
  642TMC3    C7 9564   3.247   0.891  12.315  0.3614  0.0519 -0.3532
  642TMC3    C8 9565   3.663   1.142  12.403  0.5185 -0.8281 -0.2061
  642TMC3    O1 9566   3.305   0.824  12.230  0.4346  0.2929 -0.5906
  642TMC3    O2 9567   3.711   1.038  12.375 -0.2598 -0.2287  0.3816
  643TMC3    C1 9568   3.094   0.203   0.219  0.2618  0.0035  0.0754
  643TMC3    C2 9569   2.987   0.229   0.139 -0.0623  0.6833 -0.5302
  643TMC3    C3 9570   2.983   0.198   0.013  0.5780  0.4207 -0.7914
  643TMC3    C4 9571   3.205   0.154   0.156 -0.4315  0.4405  0.0802
  643TMC3    C5 9572   3.207   0.140   0.020 -0.2372 -0.1939  0.5657
  643TMC3    C6 9573   3.095   0.156  17.707  0.3078 -0.2918 -0.9715
  643TMC3     C 9574   3.111   0.306   0.321  0.0268 -0.1810 -0.3261
  643TMC3     O 9575   3.051   0.410   0.294  0.1286 -0.3848 -0.4336
  643TMC3     H 9576   2.898   0.256   0.193 -0.8698 -1.7704 -0.6368
  643TMC3    H1 9577   3.296   0.157   0.215  0.2641 -0.4220 -0.9656
  643TMC3    H2 9578   3.090   0.140  17.600 -0.7728  0.6708 -1.0608
  643TMC3    C7 9579   3.324   0.078  17.725 -0.5147  0.3448  0.0739
  643TMC3    C8 9580   2.907   0.294  17.698  0.5643 -0.5772 -0.3772
  643TMC3    O1 9581   3.394   4.740   0.028 -0.0153 -0.8495 -0.1736
  643TMC3    O2 9582   2.876   0.268  17.582 -0.4291 -0.2939  0.2188
  644MPD2     C 9583   3.841   0.999   9.767  0.2133  0.3369 -0.3084
  644MPD2    C1 9584   3.943   0.931   9.826  0.6169 -0.2032  0.5320
  644MPD2    C2 9585   4.062   1.009   9.845 -0.0420  0.3680  0.9315
  644MPD2    C3 9586   4.067   1.141   9.805  0.9923 -0.7862 -0.3777
  644MPD2    C4 9587   3.963   1.198   9.735  0.1490 -0.8923  0.0123
  644MPD2    C5 9588   3.852   1.122   9.715  0.0495 -0.7637  0.1824
  644MPD2     H 9589   4.130   0.970   9.920 -0.2638 -0.4884  0.6889
  644MPD2    H1 9590   3.966   1.302   9.705  0.1389 -1.6575 -2.5971
  644MPD2    H2 9591   3.744   0.952   9.755 -0.1302  0.5579  1.5253
  644MPD2    H3 9592   3.769   1.156   9.654  0.4842  1.3298  0.7575
  644MPD2     N 9593   4.183   1.206   9.836  0.2670  0.5236  0.2870
  644MPD2    H5 9594   4.255   1.154   9.884  1.7761  1.7634 -0.6435
  644MPD2    N1 9595   3.931   0.798   9.868 -0.1773  0.4621  0.3667
  644MPD2    H7 9596   3.839   0.757   9.860 -0.6980  1.8825 -0.8722
  645TMC3    C1 9597   4.327   1.391   9.878 -0.6596 -0.5128  0.9764
  645TMC3    C2 9598   4.375   1.501   9.820 -0.5861  0.0354  0.6456
  645TMC3    C3 9599   4.504   1.534   9.850  0.2943 -0.0507  0.0944
  645TMC3    C4 9600   4.399   1.317   9.964 -0.3011  0.6222  0.7162
  645TMC3    C5 9601   4.525   1.361   9.994 -0.9113  0.5420 -0.6729
  645TMC3    C6 9602   4.586   1.466   9.933 -0.0223 -0.5296 -0.2623
  645TMC3     C 9603   4.213   1.337   9.808 -0.1207  0.4654  0.5019
  645TMC3     O 9604   4.146   1.426   9.752  0.1589  0.4962  0.4855
  645TMC3     H 9605   4.313   1.559   9.753 -0.6630 -1.4762 -0.5844
  645TMC3    H1 9606   4.352   1.238  10.023 -1.1411  2.3105  2.3267
  645TMC3    H2 9607   4.683   1.505   9.959  0.4746 -0.1007 -2.7148
  645TMC3    C7 9608   4.601   1.292  10.097 -0.0470 -0.9124  0.2029
  645TMC3    C8 9609   4.557   1.652   9.791  0.5939  0.1943 -0.4395
  645TMC3    O1 9610   4.719   1.328  10.106 -0.4573  0.0788 -0.0716
  645TMC3    O2 9611   4.655   1.703   9.848  0.0825 -0.5294  0.0002
  646MPD2     C 9612   2.356   4.430  14.515 -0.6730 -0.5593 -0.0472
  646MPD2    C1 9613   2.266   4.453  14.618  0.5051  0.1710  0.0532
  646MPD2    C2 9614   2.149   4.525  14.588  0.3540  0.8214  0.3792
  646MPD2    C3 9615   2.134   4.586  14.461  0.2119  0.3062 -0.5893
  646MPD2    C4 9616   2.229   4.568  14.365  0.1802  0.1377  0.1976
  646MPD2    C5 9617   2.331   4.480  14.390  0.3441 -0.3633 -0.1822
  646MPD2     H 9618   2.072   4.542  14.662  0.3189 -0.3239  0.6034
  646MPD2    H1 9619   2.224   4.612  14.266  2.6625 -1.7753 -0.7723
  646MPD2    H2 9620   2.447   4.372  14.525 -1.5359 -1.7167  1.0030
  646MPD2    H3 9621   2.398   4.461  14.307 -0.2937  0.7228 -0.9372
  646MPD2     N 9622   2.024   4.673  14.423  0.0584 -0.4756 -0.0979
  646MPD2    H5 9623   2.014   4.685  14.323  1.3817  0.2639 -0.1391
  646MPD2    N1 9624   2.299   4.398  14.745 -0.5876 -0.0367  1.0176
  646MPD2    H7 9625   2.396   4.370  14.743 -0.0474  1.8735  0.4915
  647TMC3    C1 9626   2.271   4.280  14.940 -0.2653 -0.0916 -0.1072
  647TMC3    C2 9627   2.185   4.203  15.014  0.3692 -0.5626  0.7405
  647TMC3    C3 9628   2.241   4.118  15.107 -1.3840 -0.2008  0.1989
  647TMC3    C4 9629   2.407   4.283  14.960  0.6103 -0.8478 -0.6752
  647TMC3    C5 9630   2.456   4.192  15.050 -0.2075 -0.8385  0.3784
  647TMC3    C6 9631   2.375   4.115  15.124 -0.6941 -0.0601 -0.2275
  647TMC3     C 9632   2.208   4.364  14.841  0.0541  0.3228  0.1471
  647TMC3     O 9633   2.086   4.378  14.834 -0.5225 -1.1482  0.3009
  647TMC3     H 9634   2.078   4.193  14.999  0.6945 -1.5079 -0.9607
  647TMC3    H1 9635   2.468   4.365  14.923  1.3461 -1.5564 -1.0443
  647TMC3    H2 9636   2.422   4.034  15.180  0.5464  1.5873  1.1012
  647TMC3    C7 9637   2.598   4.193  15.102  0.5919  0.0882  0.1210
  647TMC3    C8 9638   2.148   4.012  15.155 -0.1520 -0.4721  0.4127
  647TMC3    O1 9639   2.625   4.125  15.200  0.5035  0.4367  0.0058
  647TMC3    O2 9640   2.034   4.012  15.114  0.9024 -0.2183  0.3213
  648TMC3    C1 9641   1.535   2.192  15.918 -0.5244  0.1247  0.3999
  648TMC3    C2 9642   1.555   2.101  15.824 -0.0222  0.0283  1.1524
  648TMC3    C3 9643   1.492   2.099  15.704  0.7198  0.6284  0.4528
  648TMC3    C4 9644   1.427   2.283  15.901 -0.0993 -0.3173  0.7339
  648TMC3    C5 9645   1.361   2.283  15.779 -0.1137 -0.3706 -0.8111
  648TMC3    C6 9646   1.390   2.192  15.681  0.3149 -0.0633  0.3639
  648TMC3     C 9647   1.606   2.183  16.040  0.6565 -0.4590  0.3897
  648TMC3     O 9648   1.671   2.080  16.061  0.1183  0.3276  0.2578
  648TMC3     H 9649   1.636   2.030  15.836 -0.5533 -0.8697 -0.6712
  648TMC3    H1 9650   1.406   2.356  15.978  2.3448  2.0501 -0.8791
  648TMC3    H2 9651   1.342   2.185  15.584  0.9397  1.6186 -0.0756
  648TMC3    C7 9652   1.293   2.399  15.733  0.3148 -0.4405 -0.3065
  648TMC3    C8 9653   1.509   1.993  15.607 -0.4612  0.1626  0.9827
  648TMC3    O1 9654   1.265   2.405  15.618 -0.3155  0.2111  0.2928
  648TMC3    O2 9655   1.413   1.978  15.529 -0.7829  0.1682  0.1448
  649TMC3    C1 9656   4.704   3.117  13.203  0.1669  0.2215  0.1634
  649TMC3    C2 9657   0.101   3.108  13.216 -0.2106 -0.1425 -0.0878
  649TMC3    C3 9658   0.141   3.054  13.336 -0.1061 -0.5881  0.4843
  649TMC3    C4 9659   4.617   3.082  13.305 -0.2243 -0.5240  0.8630
  649TMC3    C5 9660   4.665   3.013  13.418 -0.4562  0.4523 -0.3303
  649TMC3    C6 9661   0.059   3.006  13.436  0.5680  0.2544 -0.5372
  649TMC3     C 9662   4.651   3.173  13.073  0.7507  0.1217  0.8708
  649TMC3     O 9663   4.719   3.259  13.015 -0.0551  0.0384  0.0281
  649TMC3     H 9664   0.167   3.149  13.141  0.9008 -0.4134  0.7398
  649TMC3    H1 9665   4.510   3.099  13.304 -0.4768 -2.1116  0.8168
  649TMC3    H2 9666   0.103   2.951  13.519 -2.3389 -1.7863 -0.3501
  649TMC3    C7 9667   4.586   3.012  13.540 -0.5326 -0.3192 -0.0697
  649TMC3    C8 9668   0.279   3.057  13.382  0.6575 -0.4176 -0.7586
  649TMC3    O1 9669   4.644   3.051  13.639 -0.0523  0.4580  0.4043
  649TMC3    O2 9670   0.314   2.966  13.458 -0.4584 -0.0385  0.8557
  650TMC3    C1 9671   2.482   0.191  12.327  0.0027 -0.3243 -0.1754
  650TMC3    C2 9672   2.386   0.281  12.373  0.2051 -0.6615 -0.1116
  650TMC3    C3 9673   2.327   0.381  12.297 -0.2040 -0.6773 -0.6534
  650TMC3    C4 9674   2.527   0.222  12.200 -0.3374 -0.3167  0.1113
  650TMC3    C5 9675   2.476   0.325  12.128  0.6009  0.4138  0.3842
  650TMC3    C6 9676   2.372   0.403  12.169  0.1758  0.5356  0.1536
  650TMC3     C 9677   2.589   0.167  12.421  0.0738  0.1205 -0.1924
  650TMC3     O 9678   2.606   0.271  12.482 -0.0845  0.7472 -0.0991
  650TMC3     H 9679   2.361   0.285  12.478  0.3977 -1.3809 -0.0424
  650TMC3    H1 9680   2.627   0.188  12.175 -0.9263 -0.9621 -1.3675
  650TMC3    H2 9681   2.317   0.461  12.096  0.5980  0.3377 -0.3209
  650TMC3    C7 9682   2.562   0.395  12.040 -0.2932 -0.4204 -0.7883
  650TMC3    C8 9683   2.317   0.507  12.368 -0.3837 -0.4864 -0.0790
  650TMC3    O1 9684   2.634   0.335  11.970  0.1225  0.3833 -0.3503
  650TMC3    O2 9685   2.345   0.609  12.302 -0.2842 -0.2179  0.4661
  651MPD2     C 9686   1.755   2.213  10.983  0.1908 -0.6363  0.2243
  651MPD2    C1 9687   1.720   2.345  10.981  0.2320 -0.0076 -0.5740
  651MPD2    C2 9688   1.811   2.438  10.941 -0.4630 -0.3524  0.7798
  651MPD2    C3 9689   1.939   2.397  10.896  0.1557 -0.9986  0.5750
  651MPD2    C4 9690   1.970   2.265  10.889 -0.0769  0.6505 -0.7836
  651MPD2    C5 9691   1.876   2.172  10.933 -0.8180  0.3407 -0.0054
  651MPD2     H 9692   1.778   2.540  10.931  0.3303 -0.1558  0.1610
  651MPD2    H1 9693   2.065   2.222  10.860 -0.9735 -3.6178  2.5468
  651MPD2    H2 9694   1.680   2.140  11.009 -0.7860  0.8108  1.4405
  651MPD2    H3 9695   1.899   2.068  10.912  1.4426  0.8786 -0.1625
  651MPD2     N 9696   2.023   2.508  10.859  0.1215 -0.6343  0.7308
  651MPD2    H5 9697   1.981   2.598  10.877 -2.7600 -1.4359 -2.0963
  651MPD2    N1 9698   1.595   2.408  11.011  0.0016 -0.6795  0.1773
  651MPD2    H7 9699   1.597   2.510  11.006 -0.6450 -0.6717  0.0448
  652TMC3    C1 9700   2.392   2.770  10.779 -0.4517 -0.2104 -1.0772
  652TMC3    C2 9701   2.343   2.642  10.809  0.2544 -0.0077  0.7215
  652TMC3    C3 9702   2.211   2.620  10.787 -0.0710  1.1256  0.3755
  652TMC3    C4 9703   2.318   2.869  10.727  0.2566 -0.5055 -0.0338
  652TMC3    C5 9704   2.184   2.843  10.710 -0.3292 -0.4566 -0.0725
  652TMC3    C6 9705   2.132   2.717  10.734 -0.5909 -0.2099  0.2724
  652TMC3     C 9706   2.533   2.775  10.749 -0.3592  0.2013 -1.0504
  652TMC3     O 9707   2.595   2.674  10.786 -0.0130 -0.3945  0.0412
  652TMC3     H 9708   2.408   2.563  10.847  1.9577  1.2970  0.5423
  652TMC3    H1 9709   2.361   2.967  10.714 -3.5063  1.2745  0.9691
  652TMC3    H2 9710   2.031   2.688  10.704 -0.2257  0.2649 -1.4119
  652TMC3    C7 9711   2.090   2.943  10.669  0.3358 -0.4726  0.3490
  652TMC3    C8 9712   2.150   2.496  10.815 -0.7577  0.3263 -0.2752
  652TMC3    O1 9713   1.973   2.899  10.671  0.0923  0.4489 -0.3274
  652TMC3    O2 9714   2.213   2.387  10.802 -0.0727 -0.4880 -0.3979
  653MPD2     C 9715   1.063   2.371  17.621  0.0590 -0.1220 -0.1109
  653MPD2    C1 9716   0.997   2.475  17.563  0.5206  0.4317  0.1387
  653MPD2    C2 9717   0.908   2.445  17.464 -0.6478 -0.1349  0.6178
  653MPD2    C3 9718   0.877   2.316  17.428  0.2795 -0.1008 -0.0649
  653MPD2    C4 9719   0.932   2.210  17.492  0.9433 -0.2968  0.5096
  653MPD2    C5 9720   1.032   2.242  17.582 -0.9953 -0.6713  0.1514
  653MPD2     H 9721   0.867   2.519  17.397  0.2526  1.3461  1.7146
  653MPD2    H1 9722   0.907   2.107  17.469 -1.0304 -0.4300  3.1415
  653MPD2    H2 9723   1.138   2.395  17.696 -0.0744 -0.5664  0.1664
  653MPD2    H3 9724   1.089   2.165  17.634  1.5887  1.3872  0.3605
  653MPD2     N 9725   0.795   2.299  17.308  0.4069  0.1822  1.1344
  653MPD2    H5 9726   0.773   2.384  17.259  1.2980  1.0035  2.1686
  653MPD2    N1 9727   1.024   2.609  17.592  0.4241  0.4241  0.0700
  653MPD2    H7 9728   0.979   2.676  17.530  1.5385 -0.1412 -1.3629
  654TMC3    C1 9729   0.690   2.199  17.132 -0.3997  0.5069  0.5413
  654TMC3    C2 9730   0.644   2.321  17.092 -0.2479 -0.1632  0.3258
  654TMC3    C3 9731   0.605   2.334  16.961  0.2847 -0.1918 -0.3503
  654TMC3    C4 9732   0.696   2.094  17.042  0.3369  0.9297  0.3321
  654TMC3    C5 9733   0.666   2.110  16.913 -0.2022  1.1558  0.3483
  654TMC3    C6 9734   0.613   2.233  16.866  0.7211  0.4509 -0.5175
  654TMC3     C 9735   0.751   2.177  17.258 -0.0603 -0.0817  0.6387
  654TMC3     O 9736   0.781   2.063  17.294  0.4897 -0.2766 -0.0359
  654TMC3     H 9737   0.612   2.393  17.167 -0.5697 -0.1376  0.1633
  654TMC3    H1 9738   0.751   2.009  17.082 -0.1294  0.5534  0.1700
  654TMC3    H2 9739   0.576   2.230  16.764 -0.8100 -0.1158  0.0528
  654TMC3    C7 9740   0.719   2.008  16.819 -0.4910  0.1613 -0.4027
  654TMC3    C8 9741   0.549   2.458  16.921  0.5050  0.3930  1.0883
  654TMC3    O1 9742   0.755   2.048  16.708 -1.1321 -0.3636 -0.3198
  654TMC3    O2 9743   0.486   2.521  17.008 -0.2235  0.7647 -0.0014
  655MPD2     C 9744   1.933   2.099  15.383  0.0796  0.2671 -0.2824
  655MPD2    C1 9745   1.809   2.143  15.342 -0.2266  0.0544  0.3412
  655MPD2    C2 9746   1.756   2.081  15.233  0.5412  0.5697  0.0449
  655MPD2    C3 9747   1.822   1.985  15.159 -0.2020  0.1745  0.6548
  655MPD2    C4 9748   1.945   1.943  15.201 -0.3745 -0.1478  0.0013
  655MPD2    C5 9749   2.001   1.999  15.313  0.6099  0.3462 -0.0982
  655MPD2     H 9750   1.660   2.126  15.212 -0.4263 -0.9899  1.1381
  655MPD2    H1 9751   1.999   1.867  15.146 -1.3900 -1.3541  0.6577
  655MPD2    H2 9752   1.974   2.136  15.476  1.9106  0.1770 -1.0550
  655MPD2    H3 9753   2.099   1.963  15.343 -0.0357  0.0766  1.6951
  655MPD2     N 9754   1.767   1.930  15.042 -0.0933  0.9520  0.2311
  655MPD2    H5 9755   1.834   1.882  14.983 -0.9553 -2.2895  1.8326
  655MPD2    N1 9756   1.737   2.247  15.402 -0.6885  0.1884  0.5749
  655MPD2    H7 9757   1.661   2.289  15.350  0.0491  0.5813 -0.1817
  656TMC3    C1 9758   1.720   2.436  15.541 -0.1095  0.0370  0.1093
  656TMC3    C2 9759   1.701   2.474  15.675  0.3683  0.2417 -0.1930
  656TMC3    C3 9760   1.641   2.594  15.701 -0.4126  0.4444 -0.6363
  656TMC3    C4 9761   1.674   2.515  15.442  0.3690 -0.1774 -0.1573
  656TMC3    C5 9762   1.630   2.640  15.468 -0.0254 -0.1551 -0.6302
  656TMC3    C6 9763   1.611   2.682  15.598 -0.0460  0.1481 -0.0339
  656TMC3     C 9764   1.784   2.311  15.516  0.0934 -0.0831 -0.0995
  656TMC3     O 9765   1.860   2.271  15.605  0.2390  0.3294 -0.2421
  656TMC3     H 9766   1.712   2.402  15.755  2.1898  0.2800 -0.4135
  656TMC3    H1 9767   1.671   2.482  15.339  2.6932  0.1308 -0.3149
  656TMC3    H2 9768   1.553   2.772  15.615 -1.0470 -0.6305  0.6954
  656TMC3    C7 9769   1.587   2.720  15.355 -0.1649 -0.3561  0.2427
  656TMC3    C8 9770   1.616   2.627  15.846  0.7432 -0.3056 -0.2376
  656TMC3    O1 9771   1.615   2.673  15.247 -0.1740 -0.5373 -0.0070
  656TMC3    O2 9772   1.627   2.527  15.916  0.3084 -0.0680 -0.0794
  657TMC3    C1 9773   0.646   1.779  14.947 -0.1177 -0.3602  0.1436
  657TMC3    C2 9774   0.744   1.760  15.038 -0.0082 -0.2202 -0.2165
  657TMC3    C3 9775   0.815   1.865  15.084 -0.1252 -0.2862 -0.2423
  657TMC3    C4 9776   0.600   1.903  14.922  0.3703  0.0406  0.2651
  657TMC3    C5 9777   0.663   2.012  14.973  0.3760  0.5770 -0.6532
  657TMC3    C6 9778   0.774   1.993  15.054 -0.5871 -0.2049  0.2987
  657TMC3     C 9779   0.570   1.665  14.928  0.3146 -0.1291 -0.0344
  657TMC3     O 9780   0.449   1.665  14.955 -0.0133  0.2197  0.0545
  657TMC3     H 9781   0.772   1.659  15.066  1.3608  0.3814  0.6069
  657TMC3    H1 9782   0.524   1.909  14.844  4.0216  0.5611 -3.2154
  657TMC3    H2 9783   0.827   2.072  15.106 -0.3873  0.2638 -0.6268
  657TMC3    C7 9784   0.597   2.139  14.946 -0.2683 -0.3598 -0.0778
  657TMC3    C8 9785   0.944   1.856  15.141  0.0415  0.6885  0.3176
  657TMC3    O1 9786   0.489   2.139  14.889 -0.2804  0.0873  0.1361
  657TMC3    O2 9787   1.011   1.959  15.138 -0.1965  0.2040  0.1535
  658MPD2     C 9788   2.202   1.867  14.610  0.1042  0.2377 -0.6404
  658MPD2    C1 9789   2.106   1.954  14.574  0.2114 -0.0730  0.2834
  658MPD2    C2 9790   2.131   2.061  14.493  0.3991 -0.3843  1.1158
  658MPD2    C3 9791   2.249   2.074  14.420  0.6319  1.0557 -0.2234
  658MPD2    C4 9792   2.349   1.983  14.457  0.0523  0.2166  0.2313
  658MPD2    C5 9793   2.322   1.882  14.550  0.0425  0.0597 -0.0695
  658MPD2     H 9794   2.062   2.145  14.487  2.1637  1.0607  1.0718
  658MPD2    H1 9795   2.450   1.989  14.418  0.1726 -2.5865  0.1132
  658MPD2    H2 9796   2.187   1.776  14.667 -1.1990 -0.3002 -1.8451
  658MPD2    H3 9797   2.400   1.817  14.587  0.6341  1.1013  0.5184
  658MPD2     N 9798   2.251   2.174  14.326  0.0236 -0.8747  0.2015
  658MPD2    H5 9799   2.159   2.216  14.320  0.5939  0.3834  0.2698
  658MPD2    N1 9800   1.972   1.939  14.624 -0.8408  0.4000 -0.4193
  658MPD2    H7 9801   1.965   1.879  14.706  0.1165 -1.4440 -1.6791
  659TMC3    C1 9802   1.738   1.960  14.635 -0.2963  0.3626 -0.2476
  659TMC3    C2 9803   1.747   1.949  14.770 -0.2726 -0.0391 -0.6300
  659TMC3    C3 9804   1.631   1.938  14.840  0.1399  0.0078 -0.6804
  659TMC3    C4 9805   1.619   1.970  14.568  1.1333 -0.8934  0.2198
  659TMC3    C5 9806   1.500   1.980  14.649  0.3864 -0.3222  0.1531
  659TMC3    C6 9807   1.505   1.955  14.787 -0.7959  1.2015 -0.7352
  659TMC3     C 9808   1.856   1.991  14.564  0.1183 -0.0418  0.5163
  659TMC3     O 9809   1.845   2.065  14.470  0.1379 -0.1657  0.5559
  659TMC3     H 9810   1.841   1.958  14.822  0.7560  3.0842 -3.0101
  659TMC3    H1 9811   1.612   1.986  14.461 -1.9480 -2.5586  0.1765
  659TMC3    H2 9812   1.415   1.945  14.846 -0.2678 -1.5314 -0.3530
  659TMC3    C7 9813   1.367   1.969  14.591  0.4153 -0.3762  0.2791
  659TMC3    C8 9814   1.641   1.949  14.988 -0.5424 -0.0910  0.4270
  659TMC3    O1 9815   1.281   1.915  14.656 -0.2974 -0.7052  0.6307
  659TMC3    O2 9816   1.537   1.994  15.036  1.0029  0.1721 -0.3774
  660MPD2     C 9817   0.057   1.187  12.291 -0.6822  0.0703 -1.1220
  660MPD2    C1 9818   4.668   1.227  12.313 -0.8262 -0.2199  0.3583
  660MPD2    C2 9819   4.606   1.176  12.430  0.4683 -0.4748  0.4715
  660MPD2    C3 9820   4.677   1.098  12.519 -0.0532  0.2492  0.2115
  660MPD2    C4 9821   0.070   1.070  12.501 -0.7161 -0.4140  0.2816
  660MPD2    C5 9822   0.128   1.119  12.387  0.0193 -0.5664  0.2469
  660MPD2     H 9823   4.506   1.204  12.462  0.2455  1.5727 -1.9167
  660MPD2    H1 9824   0.122   1.016  12.579  1.6068  0.7120 -0.5130
  660MPD2    H2 9825   0.103   1.235  12.205  3.0673 -1.6736 -0.0896
  660MPD2    H3 9826   0.233   1.090  12.387 -0.3009 -1.7475  0.2589
  660MPD2     N 9827   4.622   1.052  12.645 -0.1304  0.4608 -0.0401
  660MPD2    H5 9828   4.688   1.010  12.710  1.2373  1.3555 -0.8594
  660MPD2    N1 9829   4.613   1.333  12.240  0.3240  0.2874 -0.2253
  660MPD2    H7 9830   4.686   1.378  12.186  1.2421 -0.0494  0.7201
  661TMC3    C1 9831   4.469   1.503  12.162 -0.3875 -0.4002 -0.6211
  661TMC3    C2 9832   4.506   1.507  12.027  0.5154 -0.4159 -0.3151
  661TMC3    C3 9833   4.454   1.592  11.941  0.8082 -0.2565 -0.4416
  661TMC3    C4 9834   4.359   1.579  12.191  0.7336  0.5721 -0.3319
  661TMC3    C5 9835   4.308   1.671  12.099 -0.2429  0.2521 -0.5611
  661TMC3    C6 9836   4.346   1.680  11.971 -0.2977  0.1281  0.4481
  661TMC3     C 9837   4.490   1.390  12.251  0.0513  0.0642 -0.0118
  661TMC3     O 9838   4.397   1.365  12.324 -0.6756 -0.6022 -0.7636
  661TMC3     H 9839   4.586   1.447  11.985  1.2797  0.6696 -0.3876
  661TMC3    H1 9840   4.320   1.584  12.292  0.3970 -1.4108 -0.3581
  661TMC3    H2 9841   4.300   1.742  11.894  1.5819  0.9307 -0.0389
  661TMC3    C7 9842   4.171   1.692  12.123 -0.3618  0.4818 -0.3019
  661TMC3    C8 9843   4.515   1.605  11.810  0.0614  0.4810  0.4791
  661TMC3    O1 9844   4.124   1.796  12.083  0.3002 -0.8001  0.7885
  661TMC3    O2 9845   4.499   1.713  11.755 -0.2374  0.1669  0.7710
  662MPD2     C 9846   0.649   0.947  16.687 -0.0977 -0.4350  0.2414
  662MPD2    C1 9847   0.537   0.920  16.757  0.8832 -0.0970  0.7873
  662MPD2    C2 9848   0.445   1.022  16.765  0.6575  0.1030  0.1308
  662MPD2    C3 9849   0.462   1.143  16.702 -0.3192 -0.5312  0.6184
  662MPD2    C4 9850   0.580   1.170  16.632  0.2909 -0.1157  0.0110
  662MPD2    C5 9851   0.672   1.066  16.623  0.3036  1.0601 -0.6020
  662MPD2     H 9852   0.357   1.010  16.827  0.2513 -0.4561 -0.5518
  662MPD2    H1 9853   0.596   1.267  16.585 -1.8332 -0.4959 -1.5287
  662MPD2    H2 9854   0.735   0.881  16.681  0.7325  0.5848  0.9269
  662MPD2    H3 9855   0.764   1.089  16.569  0.1189 -0.5098 -1.5897
  662MPD2     N 9856   0.360   1.246  16.706  0.2322 -0.1313  0.3234
  662MPD2    H5 9857   0.389   1.338  16.673 -1.3257  1.7228  4.0135
  662MPD2    N1 9858   0.511   0.793  16.810 -0.0854 -0.7172  0.2532
  662MPD2    H7 9859   0.427   0.788  16.866 -0.0268 -2.3342  0.2059
  663TMC3    C1 9860   0.534   0.573  16.907  0.0697 -0.4070  0.6076
  663TMC3    C2 9861   0.437   0.594  17.004  0.5048 -0.0409  0.8820
  663TMC3    C3 9862   0.396   0.482  17.075  0.6603 -0.0369 -0.7073
  663TMC3    C4 9863   0.609   0.454  16.900 -0.9447 -0.6807  0.6980
  663TMC3    C5 9864   0.569   0.355  16.987 -0.5769  0.0295  0.1840
  663TMC3    C6 9865   0.456   0.364  17.070 -0.1024 -0.2550 -0.1906
  663TMC3     C 9866   0.594   0.683  16.821  0.5215  0.4718  0.2040
  663TMC3     O 9867   0.704   0.673  16.763 -0.5855 -0.3396 -0.4557
  663TMC3     H 9868   0.359   0.663  16.975  0.9589  0.1594  0.1472
  663TMC3    H1 9869   0.695   0.436  16.838  1.1413 -0.0313  3.3823
  663TMC3    H2 9870   0.452   0.295  17.153  1.9007 -0.6523 -0.4111
  663TMC3    C7 9871   0.651   0.236  16.993  0.6330 -0.2341  0.6437
  663TMC3    C8 9872   0.324   0.511  17.202  0.6216  0.4258 -0.2525
  663TMC3    O1 9873   0.759   0.244  16.935  0.4075  0.3934  0.2275
  663TMC3    O2 9874   0.279   0.414  17.262  0.3014  0.5835 -0.0259
  664MPD2     C 9875   3.120   4.194  17.550  0.5274  0.1817  0.1860
  664MPD2    C1 9876   3.220   4.115  17.611 -0.0191 -0.4584  0.3516
  664MPD2    C2 9877   3.206   3.979  17.641 -0.8551 -0.3071  0.7141
  664MPD2    C3 9878   3.087   3.924  17.600 -0.3732 -0.1103  0.0796
  664MPD2    C4 9879   2.985   3.999  17.539 -0.2200 -0.0850  0.0588
  664MPD2    C5 9880   3.003   4.131  17.515  0.1604  0.0677  0.6292
  664MPD2     H 9881   3.287   3.926  17.690  0.9860  0.7261 -1.2135
  664MPD2    H1 9882   2.894   3.946  17.513 -0.8985  1.9347 -1.6789
  664MPD2    H2 9883   3.123   4.300  17.531 -0.1036  0.7133  3.1353
  664MPD2    H3 9884   2.916   4.182  17.473  0.2242 -0.4719 -0.1418
  664MPD2     N 9885   3.075   3.783  17.637 -0.5965 -0.5390  0.4265
  664MPD2    H5 9886   3.153   3.745  17.689 -0.0231  2.3068  1.6278
  664MPD2    N1 9887   3.349   4.165  17.634 -0.8049  0.3943  0.1532
  664MPD2    H7 9888   3.417   4.101  17.674 -0.4279  1.0263  0.5241
  665TMC3    C1 9889   2.971   3.595  17.719  0.0876 -0.1772 -0.0640
  665TMC3    C2 9890   2.860   3.581   0.034  0.3962  0.1124 -0.2213
  665TMC3    C3 9891   2.873   3.600   0.171 -0.3224 -0.6915 -0.7424
  665TMC3    C4 9892   3.093   3.587   0.026 -0.2300  0.0279  1.2012
  665TMC3    C5 9893   3.104   3.612   0.168 -0.3239 -0.8235 -0.0578
  665TMC3    C6 9894   2.994   3.608   0.238  0.4035  0.4917  0.1522
  665TMC3     C 9895   2.959   3.706  17.628 -0.4764 -0.3952  0.0798
  665TMC3     O 9896   2.852   3.722  17.575  0.0366  0.2111  0.1436
  665TMC3     H 9897   2.767   3.593  17.740  0.0106 -1.2894  0.1413
  665TMC3    H1 9898   3.182   3.597  17.726 -1.4407  1.4013 -0.3563
  665TMC3    H2 9899   2.997   3.608   0.347 -3.2071  1.4784  0.2497
  665TMC3    C7 9900   3.187   3.731   0.194 -0.1499 -1.0730 -0.0884
  665TMC3    C8 9901   2.772   3.542   0.254 -0.5633  0.3782  0.1803
  665TMC3    O1 9902   3.252   3.769   0.101  0.5363 -0.2545 -0.8684
  665TMC3    O2 9903   2.784   3.537   0.374 -0.0924  0.0573  0.2187
  666TMC3    C1 9904   1.637   3.993  10.161 -0.3274  0.3065 -0.1563
  666TMC3    C2 9905   1.664   3.934  10.043  0.3925 -0.4448  0.2854
  666TMC3    C3 9906   1.738   4.009   9.946 -0.3000 -0.2907 -0.1916
  666TMC3    C4 9907   1.672   4.125  10.180  0.0748 -0.3727  0.6562
  666TMC3    C5 9908   1.756   4.188  10.090  0.3814  0.5088  0.0024
  666TMC3    C6 9909   1.782   4.140   9.966 -0.5050  0.4326 -0.0642
  666TMC3     C 9910   1.648   3.902  10.278  0.5923 -0.1948  0.2913
  666TMC3     O 9911   1.712   3.943  10.375  0.0143 -0.2170  0.0544
  666TMC3     H 9912   1.639   3.833  10.013 -0.8326 -1.2891  4.1546
  666TMC3    H1 9913   1.646   4.181  10.270 -0.8772  0.6202 -0.2239
  666TMC3    H2 9914   1.846   4.199   9.900  0.3601 -1.6360 -1.0756
  666TMC3    C7 9915   1.809   4.318  10.125 -0.7364 -0.5150  0.9301
  666TMC3    C8 9916   1.835   3.929   9.887 -0.5988  0.2410 -0.0594
  666TMC3    O1 9917   1.745   4.377  10.214 -0.1021  0.0914 -0.0708
  666TMC3    O2 9918   1.845   3.813   9.919 -0.1104 -0.4738 -0.5707
  667MPD2     C 9919   3.911   3.847  14.588 -0.2369 -0.2259  0.1478
  667MPD2    C1 9920   3.886   3.782  14.705  0.0435 -0.1630  0.8365
  667MPD2    C2 9921   3.766   3.714  14.715 -0.3133 -0.8888 -0.3771
  667MPD2    C3 9922   3.687   3.701  14.602  0.0855  0.4046 -0.2934
  667MPD2    C4 9923   3.711   3.764  14.482  0.2750  0.3887 -0.1502
  667MPD2    C5 9924   3.826   3.836  14.481  0.7786  0.2418  0.3110
  667MPD2     H 9925   3.749   3.664  14.810 -0.8846 -2.5610 -1.3470
  667MPD2    H1 9926   3.639   3.764  14.401  0.5318  2.5880 -0.3794
  667MPD2    H2 9927   3.990   3.920  14.574 -0.4608 -0.6428 -3.1426
  667MPD2    H3 9928   3.842   3.893  14.389 -0.2132  0.1702  0.0989
  667MPD2     N 9929   3.570   3.626  14.605  0.1320 -1.1137 -0.0841
  667MPD2    H5 9930   3.513   3.639  14.522  3.5323  0.1297 -2.2025
  667MPD2    N1 9931   3.972   3.790  14.813  0.3019  0.1452 -0.0802
  667MPD2    H7 9932   3.937   3.745  14.897  2.1463  0.6096  0.9260
  668TMC3    C1 9933   4.158   3.831  14.944  0.0689 -0.5221 -0.4172
  668TMC3    C2 9934   4.228   3.944  14.981  0.7145  0.2246 -0.4381
  668TMC3    C3 9935   4.276   3.942  15.110  0.6038  0.4592  0.4035
  668TMC3    C4 9936   4.112   3.736  15.029  0.2470 -0.1285  0.1544
  668TMC3    C5 9937   4.158   3.741  15.153  0.1509 -0.4979  0.2971
  668TMC3    C6 9938   4.236   3.847  15.202  0.1326 -0.3547  0.3211
  668TMC3     C 9939   4.095   3.848  14.813  0.0871  0.9830  0.2939
  668TMC3     O 9940   4.158   3.904  14.719 -0.4537  0.9648 -0.2614
  668TMC3     H 9941   4.240   4.026  14.912  0.7416  0.7253  0.1569
  668TMC3    H1 9942   4.080   3.645  14.979 -0.3516  1.1181 -1.7407
  668TMC3    H2 9943   4.258   3.844  15.308  1.5030 -0.0952  0.0483
  668TMC3    C7 9944   4.168   3.619  15.238  0.0151 -0.0523  0.1386
  668TMC3    C8 9945   4.336   4.062  15.167  0.1097  0.3189  0.9157
  668TMC3    O1 9946   4.255   3.628  15.324 -0.4382 -0.0709  0.1276
  668TMC3    O2 9947   4.338   4.078  15.290 -0.1390  0.4730  0.0448
  669TMC3    C1 9948   2.168   3.877  14.837 -0.3032 -0.5370 -1.2790
  669TMC3    C2 9949   2.075   3.940  14.765 -0.0078  0.6933 -0.2598
  669TMC3    C3 9950   2.108   4.047  14.680 -0.1051 -0.1809 -0.4109
  669TMC3    C4 9951   2.299   3.917  14.825 -0.1795 -0.2826  0.0095
  669TMC3    C5 9952   2.334   4.015  14.729  0.1492 -0.6862 -0.8910
  669TMC3    C6 9953   2.241   4.076  14.649 -0.0578  0.5926  0.6316
  669TMC3     C 9954   2.125   3.744  14.889  0.2179  0.1198 -0.1278
  669TMC3     O 9955   2.006   3.715  14.888  0.9202  0.0794  0.3610
  669TMC3     H 9956   1.975   3.898  14.761 -0.2969  1.2738  0.7194
  669TMC3    H1 9957   2.381   3.868  14.876 -0.6135 -0.9995  0.0335
  669TMC3    H2 9958   2.264   4.143  14.567 -0.1778 -1.3134 -0.9379
  669TMC3    C7 9959   2.471   4.062  14.725 -0.1180  0.3353  0.2286
  669TMC3    C8 9960   2.016   4.058  14.571 -0.1235 -0.0180 -0.5725
  669TMC3    O1 9961   2.488   4.176  14.681 -0.4496 -0.7009 -0.2648
  669TMC3    O2 9962   2.067   4.053  14.460 -0.2795  0.0952 -0.6734
  670MPD2     C 9963   0.501   1.678  13.181  0.4971 -0.2071  0.3636
  670MPD2    C1 9964   0.532   1.709  13.310  1.0132  0.2962 -0.4421
  670MPD2    C2 9965   0.475   1.636  13.415  0.1159 -0.4881  0.2739
  670MPD2    C3 9966   0.397   1.526  13.382 -0.5485 -0.4996 -0.1360
  670MPD2    C4 9967   0.368   1.495  13.252  0.6615 -0.6984  0.5055
  670MPD2    C5 9968   0.417   1.572  13.148  0.3406 -0.0548 -0.1309
  670MPD2     H 9969   0.498   1.659  13.519 -0.2004  1.0645 -0.0012
  670MPD2    H1 9970   0.306   1.407  13.235 -1.3009  0.6501  0.7153
  670MPD2    H2 9971   0.563   1.724  13.105  2.7342 -1.8217  1.2124
  670MPD2    H3 9972   0.386   1.552  13.046 -1.3569  0.0175  0.3563
  670MPD2     N 9973   0.353   1.457  13.495 -0.4512  0.0889 -0.4952
  670MPD2    H5 9974   0.397   1.470  13.585 -0.4706 -1.7378 -0.2186
  670MPD2    N1 9975   0.620   1.812  13.348  0.0189 -0.0666  0.0885
  670MPD2    H7 9976   0.653   1.818  13.444 -0.1177  1.2025  0.0515
  671TMC3    C1 9977   0.227   1.307  13.627  0.3964 -0.5968 -0.4100
  671TMC3    C2 9978   0.337   1.274  13.696 -0.0737 -0.5080 -0.5156
  671TMC3    C3 9979   0.323   1.168  13.783  0.4045  0.3673 -0.3761
  671TMC3    C4 9980   0.101   1.259  13.658  0.9747  0.3091 -0.1322
  671TMC3    C5 9981   0.093   1.154  13.749 -0.4931  0.1472  0.2071
  671TMC3    C6 9982   0.210   1.099  13.803  0.3537 -0.0990 -0.6617
  671TMC3     C 9983   0.246   1.373  13.497  0.3316 -0.1619  0.6065
  671TMC3     O 9984   0.159   1.343  13.414 -0.2120  0.3673 -0.1121
  671TMC3     H 9985   0.432   1.290  13.646  1.8477 -1.5251  2.7457
  671TMC3    H1 9986   0.012   1.305  13.616  0.3688 -1.5190 -0.8487
  671TMC3    H2 9987   0.226   1.005  13.854  0.6453  0.4904  0.3244
  671TMC3    C7 9988   4.706   1.122  13.811  0.0889  0.1283 -0.0443
  671TMC3    C8 9989   0.446   1.100  13.810  0.0184 -0.4558 -0.2316
  671TMC3    O1 9990   4.624   1.209  13.834  0.1796  0.1615  0.1984
  671TMC3    O2 9991   0.534   1.127  13.734 -0.1153 -0.0452 -0.2013
  672MPD2     C 9992   0.813   2.178   1.145 -0.1719 -0.9713  0.0494
  672MPD2    C1 9993   0.899   2.139   1.050  0.3558  0.0098  0.2450
  672MPD2    C2 9994   1.042   2.147   1.074  0.0440  0.2340 -0.3879
  672MPD2    C3 9995   1.083   2.207   1.186  0.3943 -0.8286 -0.4685
  672MPD2    C4 9996   0.988   2.262   1.272  0.3462  0.2300 -0.3946
  672MPD2    C5 9997   0.855   2.251   1.248 -0.6440  1.2132  0.5734
  672MPD2     H 9998   1.111   2.114   0.998  0.1507 -0.8405  0.1768
  672MPD2    H1 9999   1.026   2.313   1.360 -1.4566  0.3792  0.2857
  672MPD2    H210000   0.708   2.151   1.142  0.0067 -1.6485  0.0097
  672MPD2    H310001   0.780   2.284   1.320 -1.0014  0.2309  0.6579
  672MPD2     N10002   1.215   2.229   1.216  0.0911  0.2727  0.1344
  672MPD2    H510003   1.228   2.297   1.289  1.5900  1.0456 -0.8651
  672MPD2    N110004   0.852   2.071   0.936 -0.1555  0.4461  0.2635
  672MPD2    H710005   0.930   2.039   0.879 -0.2008 -0.7243  0.8794
  673TMC3    C110006   0.715   2.046   0.754 -0.0964  0.4047 -0.2038
  673TMC3    C210007   0.794   1.943   0.712  1.1965 -0.1959  0.5463
  673TMC3    C310008   0.783   1.915   0.580 -0.5863  0.2392 -0.2364
  673TMC3    C410009   0.625   2.115   0.681  0.8451  0.3740 -0.3830
  673TMC3    C510010   0.625   2.094   0.546 -0.2486 -0.0141 -0.2579
  673TMC3    C610011   0.695   1.983   0.496  0.3599 -0.1403  0.1507
  673TMC3     C10012   0.729   2.093   0.891 -0.1146  0.5023 -1.1607
  673TMC3     O10013   0.638   2.164   0.935 -0.3895 -0.3254 -0.5530
  673TMC3     H10014   0.853   1.883   0.780  1.2068 -0.6553  0.1279
  673TMC3    H110015   0.585   2.205   0.725 -0.7469 -0.9099  0.7910
  673TMC3    H210016   0.692   1.966   0.389  1.2287 -0.0166  0.1125
  673TMC3    C710017   0.630   2.216   0.472 -0.0055  1.1223 -0.3870
  673TMC3    C810018   0.812   1.780   0.547 -0.1041 -0.3786  0.0021
  673TMC3    O110019   0.584   2.310   0.530  0.1438  0.8929  0.5213
  673TMC3    O210020   0.734   1.736   0.463 -0.3012  0.0476 -0.2423
  674MPD2     C10021   0.913   1.433   0.184  0.1030 -0.0152  0.8242
  674MPD2    C110022   0.860   1.420   0.057 -0.0073  0.3192 -0.7108
  674MPD2    C210023   0.807   1.528  17.761 -0.1359 -0.1401 -0.2861
  674MPD2    C310024   0.793   1.655   0.067 -0.1688 -0.4423  0.5280
  674MPD2    C410025   0.857   1.669   0.185  0.2393 -0.0660  0.6829
  674MPD2    C510026   0.915   1.557   0.242 -0.2874 -0.7119  0.5556
  674MPD2     H10027   0.764   1.517  17.662 -1.2554 -1.4253  0.3442
  674MPD2    H110028   0.864   1.763   0.239 -0.3631 -0.1355  0.8824
  674MPD2    H210029   0.961   1.347   0.229 -1.2700 -0.6851  1.0054
  674MPD2    H310030   0.962   1.577   0.338 -0.3561 -0.5973  0.5658
  674MPD2     N10031   0.722   1.757  17.758 -0.1083  0.3574 -0.2382
  674MPD2    H510032   0.688   1.719  17.670 -0.0128 -1.2228  0.3988
  674MPD2    N110033   0.863   1.287  17.761 -0.4423  0.1956  0.0258
  674MPD2    H710034   0.910   1.218   0.057 -3.5533  1.1207  3.6854
  675TMC3    C110035   0.809   1.101  17.616 -0.2092  0.2957 -0.3978
  675TMC3    C210036   0.688   1.047  17.605  0.3946 -0.3237  0.1984
  675TMC3    C310037   0.649   0.941  17.678  0.2148  0.3925 -0.0792
  675TMC3    C410038   0.899   1.046  17.707  0.2988  0.9788  0.1985
  675TMC3    C510039   0.863   0.931   0.013  0.3480 -1.2636 -0.2417
  675TMC3    C610040   0.735   0.880   0.006 -0.2240 -0.3154  0.1285
  675TMC3     C10041   0.807   1.245  17.640 -0.2310 -0.4878 -0.0037
  675TMC3     O10042   0.725   1.308  17.571 -0.2618 -0.6449 -0.1982
  675TMC3     H10043   0.605   1.093  17.552  3.0763  0.9666 -2.9132
  675TMC3    H110044   1.001   1.084  17.709  1.1881 -1.4218  0.4910
  675TMC3    H210045   0.708   0.798   0.070 -1.2452 -0.2230 -0.1944
  675TMC3    C710046   0.954   0.898   0.120 -0.0977  0.7658  0.1995
  675TMC3    C810047   0.515   0.959  17.731  0.1809  0.6009  0.6894
  675TMC3    O110048   1.036   0.984   0.148 -0.1887 -0.4998  0.2271
  675TMC3    O210049   0.479   1.072  17.750  0.0667  0.3731  0.1518
  676MPD2     C10050   3.155   0.160  11.044  0.8362  0.3321 -0.4756
  676MPD2    C110051   3.032   0.153  11.111  0.0848  0.3175  0.0935
  676MPD2    C210052   2.946   0.052  11.076  0.5839 -0.4261  0.3780
  676MPD2    C310053   2.970   4.707  10.975  0.2878  0.0549 -0.1996
  676MPD2    C410054   3.089   4.712  10.903 -0.1581  0.7944 -0.5557
  676MPD2    C510055   3.177   0.070  10.936  0.0485  0.1772 -0.8594
  676MPD2     H10056   2.859   0.051  11.140 -1.2285  0.1639 -2.0519
  676MPD2    H110057   3.109   4.644  10.821 -0.2585  0.1719 -0.0677
  676MPD2    H210058   3.226   0.240  11.056  0.7743  0.2408  0.4861
  676MPD2    H310059   3.267   0.071  10.876  0.8931  0.4610  0.4209
  676MPD2     N10060   2.883   4.596  10.943 -0.2631 -0.5490  0.4564
  676MPD2    H510061   2.914   4.530  10.872 -1.7508 -2.0111  1.1560
  676MPD2    N110062   2.990   0.245  11.219  0.0223  0.2265  0.4724
  676MPD2    H710063   2.905   0.234  11.273 -0.6635  0.8545 -0.4820
  677TMC3    C110064   3.001   0.418  11.388 -0.2844 -0.7776  0.8533
  677TMC3    C210065   2.884   0.368  11.440  0.2541 -0.6354  0.4612
  677TMC3    C310066   2.885   0.340  11.570 -0.5899  0.4839 -0.6204
  677TMC3    C410067   3.095   0.480  11.472 -0.1335 -0.7527  0.2484
  677TMC3    C510068   3.084   0.458  11.604 -0.1995 -0.3010 -0.4657
  677TMC3    C610069   2.982   0.374  11.656  0.1745  0.6134 -0.2483
  677TMC3     C10070   3.058   0.359  11.267 -0.7097 -0.6682 -0.6167
  677TMC3     O10071   3.159   0.410  11.223 -0.4148 -0.2203 -0.1847
  677TMC3     H10072   2.810   0.312  11.384 -0.5474  0.0577  0.8263
  677TMC3    H110073   3.175   0.539  11.429 -1.0872  1.2359  1.2461
  677TMC3    H210074   2.973   0.356  11.763 -0.7582  0.5453 -0.3436
  677TMC3    C710075   3.124   0.551  11.698  0.4397  0.3441  0.5217
  677TMC3    C810076   2.779   0.247  11.611 -0.1312  0.3129 -0.0417
  677TMC3    O110077   3.117   0.514  11.818 -0.3184  0.0022  0.0746
  677TMC3    O210078   2.668   0.262  11.557  0.7360  0.3351  0.5016
  678MPD2     C10079   4.257   4.509   1.235  0.4184  0.0286  0.8409
  678MPD2    C110080   4.252   4.527   1.098 -0.3509  0.3012  0.2175
  678MPD2    C210081   4.127   4.548   1.043 -0.7397 -0.1857 -0.5335
  678MPD2    C310082   4.014   4.568   1.121 -0.6155 -0.0619  0.0524
  678MPD2    C410083   4.022   4.551   1.261 -0.1633 -0.4919 -0.9898
  678MPD2    C510084   4.145   4.516   1.311  0.4776  0.5726  0.2459
  678MPD2     H10085   4.122   4.563   0.936 -2.0041  1.1134 -0.3017
  678MPD2    H110086   3.937   4.559   1.327  0.5079  0.7579 -0.2809
  678MPD2    H210087   4.343   4.479   1.293  1.2936 -2.2474 -1.6933
  678MPD2    H310088   4.161   4.517   1.418 -1.0216 -0.8096  0.4823
  678MPD2     N10089   3.894   4.608   1.046  0.0188  0.0001  0.5847
  678MPD2    H510090   3.903   4.617   0.945 -1.8773 -0.0231  0.4126
  678MPD2    N110091   4.365   4.496   1.018  0.7603  0.2846 -0.7242
  678MPD2    H710092   4.341   4.474   0.922 -2.3484 -1.3658  0.4375
  679TMC3    C110093   0.040   4.318   0.889  0.3511  0.7452  0.0388
  679TMC3    C210094   4.695   4.357   0.982 -0.2942  0.2728  0.0963
  679TMC3    C310095   4.581   4.420   0.949  0.3661 -0.1182 -0.3189
  679TMC3    C410096   0.011   4.339   0.753 -0.1517  0.3373 -0.0320
  679TMC3    C510097   4.637   4.414   0.718 -0.2632  0.1387 -1.0238
  679TMC3    C610098   4.556   4.454   0.818 -0.5547  0.1005  0.1219
  679TMC3     C10099   0.173   4.267   0.920 -0.0377  0.7188  0.2536
  679TMC3     O10100   0.261   4.275   0.836 -0.1184 -0.0394  0.3429
  679TMC3     H10101   4.720   4.350   1.087 -0.0876  0.9533  0.0955
  679TMC3    H110102   0.088   4.308   0.683 -0.2343 -0.3891  0.2012
  679TMC3    H210103   4.479   4.529   0.801 -2.3031 -1.6119  0.5041
  679TMC3    C710104   4.643   4.503   0.602  1.1513 -0.3213 -0.2110
  679TMC3    C810105   4.492   4.460   1.059  0.0214 -1.1876 -1.0477
  679TMC3    O110106   4.573   4.602   0.593  0.5788  0.3418 -0.3748
  679TMC3    O210107   4.533   4.460   1.171 -0.2397 -0.1110 -0.3386
  680MPD2     C10108   4.356   3.773  14.028  0.2776 -0.0525  0.5985
  680MPD2    C110109   4.434   3.709  14.121 -0.2269  0.6466 -0.1796
  680MPD2    C210110   4.529   3.784  14.187 -0.3793  0.0350  0.4766
  680MPD2    C310111   4.548   3.920  14.157 -0.9942 -0.2187 -0.0456
  680MPD2    C410112   4.467   3.983  14.065 -0.3665 -0.3369 -0.7378
  680MPD2    C510113   4.372   3.905  13.998 -0.0016 -0.2809  0.1386
  680MPD2     H10114   4.606   3.727  14.237  1.2980  1.2785 -0.6785
  680MPD2    H110115   4.483   4.087  14.041  1.5941 -0.6973 -0.9473
  680MPD2    H210116   4.271   3.734  13.972  0.7138 -0.4830  0.2401
  680MPD2    H310117   4.308   3.958  13.929  1.4067 -0.1989 -1.0888
  680MPD2     N10118   4.646   3.992  14.221 -0.5281  0.0675  0.8832
  680MPD2    H510119   4.651   4.083  14.178  0.9330 -1.0138 -1.2160
  680MPD2    N110120   4.428   3.572  14.147  0.2181 -0.2988 -0.0662
  680MPD2    H710121   4.491   3.534  14.218 -0.4111  1.5628  1.5058
  681TMC3    C110122   4.320   3.358  14.167 -1.0501 -0.2364 -0.3718
  681TMC3    C210123   4.376   3.346  14.287  0.5529 -0.0992  0.9938
  681TMC3    C310124   4.363   3.225  14.350  0.3068 -0.3180  0.1404
  681TMC3    C410125   4.254   3.254  14.106 -0.1295 -0.3674 -0.2029
  681TMC3    C510126   4.239   3.138  14.170 -0.3372 -0.3181 -0.4267
  681TMC3    C610127   4.288   3.125  14.302 -0.1142 -0.3655  1.0993
  681TMC3     C10128   4.325   3.489  14.096 -0.2511  0.2108  0.0515
  681TMC3     O10129   4.252   3.489  13.995 -0.3013  0.0548 -0.0491
  681TMC3     H10130   4.426   3.427  14.340  1.7223  0.1585 -0.5194
  681TMC3    H110131   4.224   3.266  14.002 -1.2668 -1.5089 -0.0033
  681TMC3    H210132   4.280   3.029  14.352 -2.2341  0.3292  2.1169
  681TMC3    C710133   4.209   3.025  14.084  0.8095 -0.8715 -0.2159
  681TMC3    C810134   4.394   3.211  14.486  0.2266 -0.1267  0.2925
  681TMC3    O110135   4.141   2.934  14.126 -0.3181 -0.4640 -0.2896
  681TMC3    O210136   4.336   3.119  14.544  0.0638 -0.6734  0.0117
  682MPD2     C10137   2.267   0.513  10.992 -0.5584 -0.4214  0.0097
  682MPD2    C110138   2.199   0.399  11.041  0.0643  0.1356  0.1438
  682MPD2    C210139   2.130   0.407  11.157 -0.1719 -0.4488 -0.5433
  682MPD2    C310140   2.116   0.528  11.228  0.1445  0.3984  0.4801
  682MPD2    C410141   2.173   0.646  11.170  0.2436 -0.1998  0.0365
  682MPD2    C510142   2.247   0.637  11.054 -0.5327 -1.1259 -0.0980
  682MPD2     H10143   2.084   0.319  11.199 -0.0782 -0.0166  0.4719
  682MPD2    H110144   2.161   0.737  11.227 -2.4975  0.6724 -1.9505
  682MPD2    H210145   2.326   0.511  10.901  0.8181  0.3122  0.8896
  682MPD2    H310146   2.282   0.730  11.011  1.1603 -0.8364  1.8619
  682MPD2     N10147   2.061   0.531  11.360  0.2347  0.0100  0.3964
  682MPD2    H510148   2.052   0.621  11.405 -0.6953 -1.1403  2.5058
  682MPD2    N110149   2.188   0.275  10.975 -0.0735  0.4830 -0.4775
  682MPD2    H710150   2.127   0.211  11.024  0.5830  0.9330  0.9399
  683TMC3    C110151   1.895   0.608  11.734 -0.6705  0.0176  0.1994
  683TMC3    C210152   1.810   0.522  11.796  0.3313  0.2640 -0.0355
  683TMC3    C310153   1.779   0.411  11.726  1.0172 -0.1496 -0.4470
  683TMC3    C410154   1.967   0.575  11.620  0.4830 -0.5406 -0.1109
  683TMC3    C510155   1.924   0.475  11.544 -0.5225  0.2231 -0.2955
  683TMC3    C610156   1.831   0.389  11.596 -0.0905  0.0673 -0.2375
  683TMC3     C10157   1.932   0.737  11.802  0.7172 -0.2100 -0.1327
  683TMC3     O10158   1.875   0.747  11.912  0.9251  0.1440 -0.3930
  683TMC3     H10159   1.771   0.541  11.895  0.9347  0.9698  0.0748
  683TMC3    H110160   2.045   0.636  11.577  0.7032 -0.4094  0.4710
  683TMC3    H210161   1.782   0.316  11.532  0.7852 -0.3602 -0.4176
  683TMC3    C710162   1.985   0.432  11.420  0.0446  0.2245 -0.4770
  683TMC3    C810163   1.715   0.302  11.801 -0.0360 -0.5321 -1.3208
  683TMC3    O110164   1.950   0.323  11.382 -0.3727 -0.1983 -0.0118
  683TMC3    O210165   1.617   0.345  11.859 -0.3837 -0.2125 -0.6869
  684MPD2     C10166   0.282   0.088  16.455  0.0855 -0.0371  0.2550
  684MPD2    C110167   0.279   0.073  16.314 -0.2868  0.0676 -0.0023
  684MPD2    C210168   0.358   0.161  16.245 -0.1230  0.3482 -0.5403
  684MPD2    C310169   0.455   0.247  16.307 -0.1389 -0.9860 -0.4413
  684MPD2    C410170   0.456   0.249  16.448 -0.0887 -0.4459  0.4364
  684MPD2    C510171   0.365   0.170  16.516 -0.6267 -0.4599 -0.1596
  684MPD2     H10172   0.355   0.152  16.137  2.0683 -0.6370 -0.5290
  684MPD2    H110173   0.518   0.318  16.503  0.2711 -0.2898 -0.1601
  684MPD2    H210174   0.208   0.037  16.516 -0.5873 -0.0475 -0.5759
  684MPD2    H310175   0.365   0.181  16.624 -0.4406  0.7293 -0.2716
  684MPD2     N10176   0.546   0.330  16.237  0.4849 -0.2866 -0.4968
  684MPD2    H510177   0.601   0.397  16.291 -0.0746 -0.8248  0.7476
  684MPD2    N110178   0.198   4.718  16.244 -0.0760 -0.0536 -0.5756
  684MPD2    H710179   0.190   4.739  16.145 -0.8192 -0.2387 -0.5561
  685TMC3    C110180   0.114   4.518  16.188 -0.4350  0.2318  0.6696
  685TMC3    C210181   0.075   4.574  16.068 -0.1441  0.0161 -0.9091
  685TMC3    C310182   0.089   4.491  15.957  0.0646  0.4390 -0.1710
  685TMC3    C410183   0.190   4.403  16.197 -0.5315 -0.4129  0.0346
  685TMC3    C510184   0.210   4.332  16.084  0.5031  0.2366 -0.0927
  685TMC3    C610185   0.158   4.376  15.965  0.1608  0.1870 -0.4595
  685TMC3     C10186   0.163   4.597  16.299  0.2929  0.0109 -0.2230
  685TMC3     O10187   0.193   4.543  16.405  0.0853  0.3464 -0.0485
  685TMC3     H10188   0.022   4.669  16.063  1.1992  0.9733  2.5810
  685TMC3    H110189   0.213   4.354  16.291 -2.0535 -0.1807  0.5404
  685TMC3    H210190   0.177   4.316  15.877 -0.1375 -1.7233  0.7764
  685TMC3    C710191   0.337   4.269  16.084  0.0486 -0.1546  0.1187
  685TMC3    C810192   4.706   4.480  15.894  0.5500  0.3033 -0.1637
  685TMC3    O110193   0.392   4.251  16.189  0.1055  0.3035 -0.2272
  685TMC3    O210194   4.642   4.586  15.878 -0.1880 -0.0533  0.0395
  686MPD2     C10195   1.694   4.516  15.684 -0.5355  0.1901  0.2316
  686MPD2    C110196   1.790   4.421  15.707 -0.3039 -0.2346 -0.3592
  686MPD2    C210197   1.908   4.428  15.629 -0.5503 -0.6401  0.6111
  686MPD2    C310198   1.917   4.519  15.533  0.4087  0.0455 -0.0683
  686MPD2    C410199   1.831   4.624  15.528  0.4230  0.4445  0.0122
  686MPD2    C510200   1.708   4.620  15.589  0.3849 -0.3276 -0.0133
  686MPD2     H10201   1.985   4.355  15.651  1.3408  1.0335 -0.3932
  686MPD2    H110202   1.847   4.704  15.457 -1.0447  0.3952 -0.3823
  686MPD2    H210203   1.604   4.508  15.742 -2.3077 -0.4383 -2.6035
  686MPD2    H310204   1.622   4.681  15.566  0.7921  0.6614  1.0803
  686MPD2     N10205   2.033   4.531  15.449  0.1829  0.5818  0.1417
  686MPD2    H510206   2.048   4.620  15.404  2.2848  0.5644  0.7808
  686MPD2    N110207   1.766   4.321  15.806  0.1471 -0.2286  0.1804
  686MPD2    H710208   1.672   4.316  15.845  0.4660 -1.0865  0.8272
  687TMC3    C110209   2.056   4.299  15.391  0.0757  0.4020  0.3448
  687TMC3    C210210   1.922   4.282  15.368  0.4656  0.1213 -0.6446
  687TMC3    C310211   1.856   4.165  15.397 -0.1702  0.1772 -0.6685
  687TMC3    C410212   2.117   4.200  15.466 -0.1576 -0.3647 -0.2731
  687TMC3    C510213   2.049   4.092  15.503  1.0417  0.2622  0.6726
  687TMC3    C610214   1.917   4.071  15.469  0.1702  0.2968  0.5048
  687TMC3     C10215   2.119   4.431  15.405 -1.0589 -0.5305  0.2623
  687TMC3     O10216   2.228   4.446  15.350 -0.8214  0.0504 -0.0202
  687TMC3     H10217   1.863   4.364  15.331  0.8095 -0.5435 -2.6774
  687TMC3    H110218   2.222   4.197  15.492 -0.2157  0.7948  0.0979
  687TMC3    H210219   1.866   3.978  15.492 -2.2500  1.2379 -1.0843
  687TMC3    C710220   2.105   4.019  15.618  0.7894  0.5511 -0.3300
  687TMC3    C810221   1.716   4.183  15.436 -0.2183  0.3014 -0.3026
  687TMC3    O110222   2.224   4.043  15.649  0.3820 -0.3551 -0.6764
  687TMC3    O210223   1.693   4.129  15.541 -0.2982 -1.1076 -0.2537
  688MPD2     C10224   1.437   3.247  17.373  0.6927 -0.1975  0.6393
  688MPD2    C110225   1.399   3.117  17.348  0.0618  0.4894 -0.7459
  688MPD2    C210226   1.442   3.048  17.231 -0.1424  0.8306 -0.4476
  688MPD2    C310227   1.510   3.117  17.131  0.6459 -0.6070 -0.1115
  688MPD2    C410228   1.540   3.244  17.156  0.2392 -0.6968 -0.2338
  688MPD2    C510229   1.509   3.306  17.276  0.3786  0.2687  0.1523
  688MPD2     H10230   1.411   2.946  17.218  1.9156 -0.0009  1.1479
  688MPD2    H110231   1.587   3.305  17.080  0.8260 -0.8831 -0.0253
  688MPD2    H210232   1.415   3.310  17.459 -0.8899  1.6072 -1.1057
  688MPD2    H310233   1.546   3.407  17.294 -1.4243  0.6340  1.7924
  688MPD2     N10234   1.549   3.051  17.017  0.2304  0.1450  0.1857
  688MPD2    H510235   1.604   3.104  16.949 -1.6735  4.2691  1.8569
  688MPD2    N110236   1.331   3.043  17.450  0.0553 -0.1194  0.0581
  688MPD2    H710237   1.308   2.946  17.433 -1.5446  0.1617  0.6136
  689TMC3    C110238   1.202   3.002  17.651  0.1326  0.3669 -0.2604
  689TMC3    C210239   1.147   3.067  17.759  0.1839 -0.5779  0.5168
  689TMC3    C310240   1.068   2.990   0.081 -0.0220  0.8473  0.3357
  689TMC3    C410241   1.169   2.875  17.620 -0.0201  0.3631 -0.5131
  689TMC3    C510242   1.097   2.803  17.709  0.2933 -0.1823 -0.2041
  689TMC3    C610243   1.050   2.857   0.059  0.7095  0.7545  0.4375
  689TMC3     C10244   1.289   3.091  17.575  1.0660  0.3913 -0.6138
  689TMC3     O10245   1.299   3.201  17.622 -0.2512  0.1800  0.2462
  689TMC3     H10246   1.162   3.170   0.030 -0.6299 -0.3673  0.2332
  689TMC3    H110247   1.229   2.829  17.542  0.1073 -1.2323  0.5395
  689TMC3    H210248   1.003   2.795   0.135 -1.4007  0.2230 -1.3166
  689TMC3    C710249   1.095   2.659  17.697  0.2242  0.5158 -0.3441
  689TMC3    C810250   1.036   3.051   0.212 -0.0814 -0.1874  0.5442
  689TMC3    O110251   1.107   2.606   0.048  0.0270 -0.0040  0.3805
  689TMC3    O210252   1.037   2.965   0.299 -0.2045  0.6734 -0.2957
  690MPD2     C10253   3.048   0.155  16.010 -0.4079  0.0699 -0.5073
  690MPD2    C110254   3.007   0.093  15.888 -0.3225 -0.0723 -0.7612
  690MPD2    C210255   3.084   0.108  15.775  0.4339 -0.4518 -0.4238
  690MPD2    C310256   3.202   0.180  15.777  0.0965 -0.1368  0.1960
  690MPD2    C410257   3.246   0.235  15.895  0.7811 -0.9271 -0.4952
  690MPD2    C510258   3.176   0.212  16.005 -0.1789  0.6739  0.2103
  690MPD2     H10259   3.055   0.061  15.681  1.8839 -1.9534 -0.1350
  690MPD2    H110260   3.340   0.288  15.903  0.6838 -0.6523 -1.1951
  690MPD2    H210261   2.992   0.147  16.102 -0.4884  2.1595 -0.3851
  690MPD2    H310262   3.217   0.250  16.098  2.5609 -1.6301 -0.0407
  690MPD2     N10263   3.276   0.196  15.661  0.0480  0.4260 -0.1115
  690MPD2    H510264   3.237   0.160  15.574 -0.0985 -2.0028  0.9502
  690MPD2    N110265   2.886   0.020  15.875 -0.5790  0.3291 -0.6206
  690MPD2    H710266   2.868   4.722  15.783 -0.0352  1.1988 -1.0851
  691TMC3    C110267   2.716   4.610  15.934  0.1113  0.3248  0.3118
  691TMC3    C210268   2.596   4.612  15.995 -0.0326 -0.7390  0.8578
  691TMC3    C310269   2.525   4.491  15.987  0.3445  0.6486  0.5099
  691TMC3    C410270   2.767   4.501  15.877  0.2093  0.5025 -1.0930
  691TMC3    C510271   2.695   4.385  15.867  0.4430  0.3223  0.5290
  691TMC3    C610272   2.582   4.376  15.936 -0.0810 -0.3589 -0.7076
  691TMC3     C10273   2.806   4.721  15.979 -0.1566  0.8899  0.1098
  691TMC3     O10274   2.796   0.016  16.095  0.5950  0.5988 -0.1009
  691TMC3     H10275   2.560   4.702  16.043  1.9646  0.0420  0.8815
  691TMC3    H110276   2.868   4.503  15.837  0.1586 -0.0007 -1.2516
  691TMC3    H210277   2.520   4.287  15.938 -3.0480  1.6935 -0.6322
  691TMC3    C710278   2.770   4.265  15.868  0.1670  0.0369  0.2241
  691TMC3    C810279   2.379   4.485  16.015  0.1428 -0.1265 -0.2044
  691TMC3    O110280   2.891   4.274  15.893  0.1185  0.7924 -0.0365
  691TMC3    O210281   2.335   4.371  16.039 -0.0021  0.1224 -0.2329
  692TMC3    C110282   4.698   1.353  15.680 -0.0826  0.4990  0.0680
  692TMC3    C210283   0.055   1.441  15.675  0.7936  0.3244 -0.4930
  692TMC3    C310284   0.185   1.397  15.652 -0.2796 -0.1829 -0.0033
  692TMC3    C410285   4.710   1.219  15.659  0.1482  0.5029 -0.1382
  692TMC3    C510286   0.099   1.177  15.635  0.3769  0.5244  0.3057
  692TMC3    C610287   0.206   1.266  15.645  0.1413  0.7964  0.4787
  692TMC3     C10288   4.565   1.395  15.719 -0.1372  0.2905  0.1235
  692TMC3     O10289   4.491   1.305  15.759  0.3355 -0.1608 -0.2414
  692TMC3     H10290   0.028   1.533  15.725  0.7132  0.7257 -1.2679
  692TMC3    H110291   4.622   1.158  15.649 -1.1227  2.0758  1.4489
  692TMC3    H210292   0.304   1.236  15.609  0.4003 -0.8720  2.5229
  692TMC3    C710293   0.113   1.036  15.615 -0.3073 -0.0408 -0.4306
  692TMC3    C810294   0.293   1.473  15.717 -0.9076 -0.3014  0.5732
  692TMC3    O110295   0.013   0.973  15.588 -0.1617  0.1137  0.2289
  692TMC3    O210296   0.390   1.409  15.754 -0.0008  0.2390  0.8964
  693MPD2     C10297   4.200   3.814  10.738  0.3439 -0.3645  0.3332
  693MPD2    C110298   4.127   3.705  10.746  0.0308 -0.0939 -0.1584
  693MPD2    C210299   4.183   3.582  10.773  0.1288 -0.3377 -0.3597
  693MPD2    C310300   4.321   3.572  10.784 -0.5757  0.9577  0.1443
  693MPD2    C410301   4.395   3.686  10.747 -0.0284  0.1669 -0.4628
  693MPD2    C510302   4.329   3.801  10.718 -0.1144 -0.2713 -1.0761
  693MPD2     H10303   4.120   3.494  10.780  0.6904 -0.6660  0.6379
  693MPD2    H110304   4.503   3.685  10.741 -0.1259 -1.3254 -1.8433
  693MPD2    H210305   4.163   3.914  10.715 -2.1445 -1.6153 -1.1984
  693MPD2    H310306   4.380   3.895  10.702 -1.5870  0.4304 -1.7377
  693MPD2     N10307   4.393   3.447  10.787  0.2997 -0.2722 -0.2274
  693MPD2    H510308   4.489   3.462  10.757  0.6554 -0.9393  0.5984
  693MPD2    N110309   3.991   3.722  10.749  0.1869  0.2730  0.7690
  693MPD2    H710310   3.954   3.812  10.778  0.5899  0.2450  1.3824
  694TMC3    C110311   3.756   3.674  10.765 -0.1162  0.2747  0.4851
  694TMC3    C210312   3.645   3.611  10.702 -0.2636 -0.1656 -0.2596
  694TMC3    C310313   3.523   3.657  10.738 -0.6949 -1.2614  0.5602
  694TMC3    C410314   3.753   3.757  10.874 -0.0601  0.0493 -0.3588
  694TMC3    C510315   3.628   3.791  10.918  0.0128  0.1782 -0.4931
  694TMC3    C610316   3.517   3.745  10.849  0.4382 -0.3164  0.5252
  694TMC3     C10317   3.893   3.629  10.729  0.0864 -0.1525  0.0501
  694TMC3     O10318   3.903   3.530  10.657 -0.7247  0.3986 -0.1868
  694TMC3     H10319   3.655   3.541  10.620 -0.4909  0.4496 -0.8158
  694TMC3    H110320   3.844   3.773  10.932  0.3573  0.0620 -1.0163
  694TMC3    H210321   3.419   3.778  10.881  0.5270  1.4587 -1.0824
  694TMC3    C710322   3.609   3.815  11.058  0.3850 -0.2827 -0.3491
  694TMC3    C810323   3.404   3.585  10.704  0.4802 -0.1732  0.4030
  694TMC3    O110324   3.621   3.932  11.096  0.2596 -0.6305  0.2861
  694TMC3    O210325   3.297   3.637  10.727  0.0626 -0.2988  0.0817
  695MPD2     C10326   1.037   0.716  13.143 -0.7111 -0.1330 -0.5130
  695MPD2    C110327   0.955   0.731  13.253 -0.5582  0.2172 -0.4114
  695MPD2    C210328   0.818   0.724  13.241 -0.0530 -0.2832 -0.2912
  695MPD2    C310329   0.763   0.722  13.114 -0.8401 -0.1419  0.2509
  695MPD2    C410330   0.843   0.709  13.005  0.1230  0.1733  0.1948
  695MPD2    C510331   0.981   0.700  13.018  0.0725  0.0885  0.6342
  695MPD2     H10332   0.762   0.729  13.335 -2.1235  0.0842 -1.5395
  695MPD2    H110333   0.807   0.701  12.903 -0.9096 -2.6780  0.8004
  695MPD2    H210334   1.145   0.725  13.137 -0.6239 -0.4303  0.7057
  695MPD2    H310335   1.033   0.699  12.923 -1.9907  2.0947 -0.5004
  695MPD2     N10336   0.626   0.715  13.108  0.3887 -0.3469 -0.5143
  695MPD2    H510337   0.581   0.706  13.198  3.0346 -0.7344  0.7604
  695MPD2    N110338   1.007   0.751  13.382  0.3511 -0.7894  0.3101
  695MPD2    H710339   0.936   0.774  13.451  0.1417  2.3248 -0.9633
  696TMC3    C110340   0.409   0.739  13.036 -0.3510 -0.1643 -0.2022
  696TMC3    C210341   0.372   0.708  13.161 -0.2691  0.6256 -0.7157
  696TMC3    C310342   0.261   0.767  13.213 -0.6929 -0.0407 -0.1566
  696TMC3    C410343   0.341   0.826  12.964  0.0918 -0.2707  0.4707
  696TMC3    C510344   0.224   0.874  13.010 -0.3507 -0.6760 -0.4404
  696TMC3    C610345   0.187   0.849  13.137  1.0304  0.3778  0.1415
  696TMC3     C10346   0.548   0.727  12.996  0.0647 -0.2535  0.2113
  696TMC3     O10347   0.576   0.751  12.880  0.4496 -0.2575  0.1622
  696TMC3     H10348   0.422   0.630  13.218  1.6147  3.4147  1.4343
  696TMC3    H110349   0.377   0.854  12.865  2.6253  1.2042  1.7951
  696TMC3    H210350   0.084   0.874  13.160  0.2444 -1.5420 -1.4083
  696TMC3    C710351   0.171   0.987  12.933 -0.3920 -0.1955  0.1753
  696TMC3    C810352   0.232   0.724  13.348  0.2149 -0.1965  0.2163
  696TMC3    O110353   0.198   0.988  12.814 -0.3667 -0.0766  0.1902
  696TMC3    O210354   0.308   0.652  13.402  0.1400  0.7192 -0.3058
  697MPD2     C10355   0.070   2.619  15.973  0.2741 -0.2522 -0.4842
  697MPD2    C110356   4.728   2.607  15.862  0.4912  0.6719 -0.2623
  697MPD2    C210357   4.693   2.720  15.801 -0.7965 -0.1363  0.6833
  697MPD2    C310358   4.738   2.846  15.829  0.1509  0.4942 -0.3099
  697MPD2    C410359   0.079   2.863  15.940  0.4811 -0.2897  0.9077
  697MPD2    C510360   0.115   2.748  16.011 -0.7186  0.8416  0.5095
  697MPD2     H10361   4.625   2.712  15.717  1.1660  0.3196 -0.9405
  697MPD2    H110362   0.120   2.956  15.978  0.0581 -0.0429  0.7615
  697MPD2    H210363   0.100   2.535  16.034  0.0957  1.4640  1.9821
  697MPD2    H310364   0.165   2.756  16.107 -1.9481  1.7889  1.0770
  697MPD2     N10365   4.698   2.952  15.747  0.1215  0.6039 -0.6539
  697MPD2    H510366   4.635   2.935  15.669 -0.8613  2.4565 -0.2580
  697MPD2    N110367   4.671   2.492  15.817  0.2268 -0.4523  0.3006
  697MPD2    H710368   4.608   2.494  15.738 -0.0746 -2.6447  0.5005
  698TMC3    C110369   4.715   3.152  15.630  0.3035  0.6419  0.1604
  698TMC3    C210370   4.672   3.282  15.639  0.3972 -0.0592 -0.2867
  698TMC3    C310371   4.570   3.314  15.552  0.4127 -1.0244  0.6893
  698TMC3    C410372   4.696   3.074  15.519  0.5395  0.2295  0.3975
  698TMC3    C510373   4.597   3.117  15.431 -0.2134 -0.2579 -0.2348
  698TMC3    C610374   4.533   3.234  15.443  0.0282  0.0545 -0.1558
  698TMC3     C10375   0.006   3.084  15.755 -0.0046  0.6258  0.1070
  698TMC3     O10376   0.059   3.139  15.846  0.0425  0.3961  0.4574
  698TMC3     H10377   4.686   3.337  15.732  0.4881  0.9411 -0.8906
  698TMC3    H110378   0.003   2.977  15.513 -0.7205 -0.4494  1.2797
  698TMC3    H210379   4.453   3.272  15.381 -1.1698 -0.2966  1.1758
  698TMC3    C710380   4.566   3.040  15.307 -0.1419  0.0602 -0.8867
  698TMC3    C810381   4.540   3.458  15.538 -0.5155  0.1638  0.6059
  698TMC3    O110382   4.456   3.064  15.257 -0.3368  0.1906  0.3590
  698TMC3    O210383   4.422   3.489  15.536  0.2757  0.1672 -0.1134
  699TMC3    C110384   4.477   1.013  12.826 -0.7892 -0.1126  0.3625
  699TMC3    C210385   4.529   0.886  12.850  0.4989 -0.5118 -0.3704
  699TMC3    C310386   4.491   0.828  12.973  0.1803  0.2102 -0.0384
  699TMC3    C410387   4.373   1.074  12.894 -0.3858  0.2313  0.2628
  699TMC3    C510388   4.338   1.006  13.010 -1.3129  0.6451 -0.7333
  699TMC3    C610389   4.398   0.890  13.052  0.3056  0.3367 -0.0468
  699TMC3     C10390   4.491   1.063  12.688  0.2874 -0.0205 -0.4149
  699TMC3     O10391   4.384   1.103  12.634  0.1482 -0.3786  0.5604
  699TMC3     H10392   4.605   0.837  12.790  1.7163  1.9253 -0.8461
  699TMC3    H110393   4.343   1.173  12.863  0.1946 -0.0785 -1.2791
  699TMC3    H210394   4.361   0.849  13.145  2.2866  1.7760  1.3938
  699TMC3    C710395   4.267   1.075  13.115 -0.2324  0.8489  0.0522
  699TMC3    C810396   4.590   0.726  13.036 -0.0263  0.5028 -0.1107
  699TMC3    O110397   4.292   1.035  13.228  0.3072 -0.4261  0.1390
  699TMC3    O210398   4.689   0.697  12.961 -0.0284 -0.0673 -0.4555
  700TMC3    C110399   3.614   3.119  17.231 -0.0480 -0.3585 -0.8696
  700TMC3    C210400   3.698   3.040  17.157  0.3634 -0.2767 -0.2014
  700TMC3    C310401   3.784   2.958  17.221 -0.4400  0.2165 -0.2416
  700TMC3    C410402   3.612   3.121  17.366  0.1792 -0.6475 -0.0169
  700TMC3    C510403   3.691   3.035  17.442  0.8606  0.4247  0.5317
  700TMC3    C610404   3.778   2.957  17.361 -0.0204 -0.6720  0.2733
  700TMC3     C10405   3.522   3.211  17.164  0.1699  0.4270 -0.3621
  700TMC3     O10406   3.418   3.239  17.228 -0.4261 -0.6003 -0.0892
  700TMC3     H10407   3.689   3.046  17.049 -2.4304 -3.7225 -0.1337
  700TMC3    H110408   3.557   3.197  17.419  2.6625  2.4019 -1.8141
  700TMC3    H210409   3.862   2.913  17.414  1.1218  1.7119  0.4570
  700TMC3    C710410   3.771   3.099  17.545 -1.0970 -0.0070  0.4699
  700TMC3    C810411   3.894   2.890  17.150  0.1396  0.0607  0.3520
  700TMC3    O110412   3.895   3.091  17.537 -0.2560 -0.2962  0.1873
  700TMC3    O210413   3.928   2.945  17.044 -0.4893 -0.0651  0.1589
  701TMC3    C110414   3.501   1.865  15.871  0.0573 -0.2722 -0.3454
  701TMC3    C210415   3.527   1.773  15.776 -0.0605  0.3768 -0.2271
  701TMC3    C310416   3.535   1.817  15.650 -0.2636 -0.2245  0.4051
  701TMC3    C410417   3.476   1.997  15.846  0.2397  0.3400 -0.5162
  701TMC3    C510418   3.486   2.040  15.714 -0.7876  0.5797 -0.3625
  701TMC3    C610419   3.508   1.948  15.617  0.3010  0.1199  0.0069
  701TMC3     C10420   3.487   1.820  16.011 -0.4130 -0.6152  0.4924
  701TMC3     O10421   3.521   1.910  16.090 -0.0107  0.5484 -0.0609
  701TMC3     H10422   3.546   1.670  15.800 -0.0254  0.3174 -0.5068
  701TMC3    H110423   3.445   2.062  15.927  0.3964  0.1197 -0.2841
  701TMC3    H210424   3.520   1.970  15.512  0.4436 -1.5650 -0.3411
  701TMC3    C710425   3.460   2.184  15.687  0.9909  0.4344  0.3472
  701TMC3    C810426   3.579   1.723  15.546 -0.3547 -0.2505  0.8512
  701TMC3    O110427   3.400   2.254  15.767  0.1711  0.5022 -0.3887
  701TMC3    O210428   3.635   1.623  15.587 -0.9606 -0.0473 -0.3409
  702MPD2     C10429   2.545   4.701  10.341  0.7626 -0.4888 -0.2590
  702MPD2    C110430   2.561   4.738  10.478  0.2796 -0.0547 -0.2323
  702MPD2    C210431   2.595   0.127  10.503  0.0658 -0.4389 -0.0752
  702MPD2    C310432   2.606   0.221  10.402 -0.5812 -0.8539  0.0682
  702MPD2    C410433   2.587   0.186  10.269  0.1489 -0.5825  0.1869
  702MPD2    C510434   2.561   0.054  10.240  0.3532 -0.4680 -0.0197
  702MPD2     H10435   2.608   0.159  10.606  1.2510  1.5934 -0.8415
  702MPD2    H110436   2.608   0.258  10.190 -4.7864 -0.1479 -0.7681
  702MPD2    H210437   2.514   4.601  10.310 -1.0203  0.1255 -0.4242
  702MPD2    H310438   2.541   0.035  10.135 -0.2859 -2.2979  0.4481
  702MPD2     N10439   2.631   0.353  10.443 -0.1859 -0.3560 -0.0283
  702MPD2    H510440   2.626   0.365  10.543 -0.9297  2.5006 -0.4084
  702MPD2    N110441   2.555   4.646  10.588 -0.6279  0.0688 -0.5558
  702MPD2    H710442   2.589   4.687  10.675  0.0807  0.9269 -1.2372
  703TMC3    C110443   2.700   0.578  10.450 -0.4010 -0.1815  0.1895
  703TMC3    C210444   2.640   0.572  10.572 -0.1968 -0.9251 -0.3272
  703TMC3    C310445   2.706   0.584  10.691  0.5071  0.2167  0.1994
  703TMC3    C410446   2.834   0.594  10.445  0.1338 -0.2803  0.2241
  703TMC3    C510447   2.905   0.607  10.569 -0.3761 -0.3837  0.7190
  703TMC3    C610448   2.844   0.587  10.694  0.7319 -0.0168 -0.1092
  703TMC3     C10449   2.652   0.467  10.367  0.4224  0.5214 -0.0160
  703TMC3     O10450   2.681   0.469  10.248  0.2240 -0.9429 -0.3403
  703TMC3     H10451   2.533   0.556  10.569 -0.4164  0.7141 -1.5114
  703TMC3    H110452   2.880   0.601  10.347  0.2245 -1.6553  0.1638
  703TMC3    H210453   2.892   0.588  10.791  0.5826  0.1740 -0.0372
  703TMC3    C710454   3.053   0.625  10.568 -0.7040  0.4838 -0.5139
  703TMC3    C810455   2.651   0.494  10.789  0.1541 -0.2785  0.3863
  703TMC3    O110456   3.113   0.689  10.485 -0.6241 -0.9346 -0.2401
  703TMC3    O210457   2.621   0.385  10.741 -0.5559  0.1264  0.0272
  704TMC3    C110458   0.334   2.819  12.557  0.0948  0.5836 -0.0674
  704TMC3    C210459   0.424   2.848  12.458 -0.0389 -0.0861 -0.0652
  704TMC3    C310460   0.557   2.864  12.486  0.2170 -0.0974  0.1692
  704TMC3    C410461   0.379   2.782  12.681 -0.7501  0.0011 -0.1611
  704TMC3    C510462   0.514   2.783  12.702 -0.0675  0.3901  0.2305
  704TMC3    C610463   0.606   2.839  12.615 -0.1288 -0.2075 -0.1520
  704TMC3     C10464   0.197   2.782  12.519 -0.2361  0.0313  0.0025
  704TMC3     O10465   0.134   2.700  12.584 -0.2229 -0.0587  0.0311
  704TMC3     H10466   0.399   2.865  12.354 -2.0851  0.3316  0.4962
  704TMC3    H110467   0.311   2.728  12.746 -0.5061  0.3699  0.3987
  704TMC3    H210468   0.712   2.847  12.638  0.0362 -0.8912 -0.7073
  704TMC3    C710469   0.556   2.676  12.781 -0.7420 -0.2443  0.4671
  704TMC3    C810470   0.648   2.847  12.374 -0.0288  0.5218  0.0706
  704TMC3    O110471   0.467   2.596  12.801 -0.3524 -0.4608  0.0249
  704TMC3    O210472   0.608   2.862  12.259 -0.5090 -0.0791  0.0666
  705MPD2     C10473   0.604   0.981  16.284  0.1582 -0.3934 -0.0411
  705MPD2    C110474   0.561   1.100  16.227 -0.6105  0.3743  0.0914
  705MPD2    C210475   0.438   1.146  16.261  0.4321 -0.9032 -0.0998
  705MPD2    C310476   0.359   1.067  16.349  0.5332 -0.5760 -0.2094
  705MPD2    C410477   0.390   0.944  16.392  0.0937  0.1574 -0.4528
  705MPD2    C510478   0.522   0.906  16.367  0.2989  0.0791 -0.2266
  705MPD2     H10479   0.390   1.231  16.213 -0.1700 -1.2024 -0.0275
  705MPD2    H110480   0.334   0.885  16.464  0.3727 -0.5786 -0.8437
  705MPD2    H210481   0.699   0.932  16.265  1.3088  1.2673  1.4486
  705MPD2    H310482   0.551   0.807  16.399 -0.4559 -0.7529 -2.1471
  705MPD2     N10483   0.233   1.109  16.399 -0.2618  0.2608  0.1818
  705MPD2    H510484   0.172   1.042  16.446 -2.6229  1.9158 -0.5154
  705MPD2    N110485   0.634   1.155  16.118 -0.5097  0.8682  0.7233
  705MPD2    H710486   0.592   1.232  16.066 -0.2372 -0.1476 -1.0070
  706TMC3    C110487   0.775   1.111  15.731  0.4513  0.2859  0.4371
  706TMC3    C210488   0.747   1.242  15.693  0.6797  0.6144  0.0925
  706TMC3    C310489   0.739   1.334  15.795 -0.3056  0.4325 -0.7825
  706TMC3    C410490   0.806   1.075  15.855  0.4872 -0.4819 -0.8746
  706TMC3    C510491   0.806   1.164  15.954 -0.6713  0.1181  0.6712
  706TMC3    C610492   0.780   1.298  15.928 -0.2005  0.5618  0.6466
  706TMC3     C10493   0.812   1.024  15.619  0.6584 -0.1402 -0.4129
  706TMC3     O10494   0.901   0.942  15.640 -0.1950  0.0999  0.2356
  706TMC3     H10495   0.740   1.276  15.590  1.3862  2.5715  0.6835
  706TMC3    H110496   0.807   0.970  15.884  2.3195 -0.0875  0.4351
  706TMC3    H210497   0.762   1.367  16.009  2.5836  1.3731  0.5924
  706TMC3    C710498   0.762   1.116  16.084  0.5777  0.1438  0.4608
  706TMC3    C810499   0.723   1.475  15.762 -0.6034 -0.5909  0.3085
  706TMC3    O110500   0.845   1.036  16.129  0.0885 -0.6137  1.0193
  706TMC3    O210501   0.670   1.504  15.659 -0.0575  0.3758 -0.0765
  707TMC3    C110502   1.832   4.345   0.648 -0.6656 -0.2684 -0.3515
  707TMC3    C210503   1.774   4.251   0.732 -0.2308  0.1611 -0.0061
  707TMC3    C310504   1.824   4.128   0.722  0.1762 -0.5881 -0.2079
  707TMC3    C410505   1.911   4.313   0.544  0.1352 -0.1214  0.7066
  707TMC3    C510506   1.948   4.183   0.530 -0.2026  0.1483 -0.1181
  707TMC3    C610507   1.904   4.089   0.622  0.7792 -0.1005  0.0529
  707TMC3     C10508   1.793   4.486   0.660 -0.0375  0.6756 -0.4910
  707TMC3     O10509   1.783   4.553   0.559 -0.0653  0.0627 -0.5997
  707TMC3     H10510   1.714   4.279   0.818 -1.1469  1.3474 -1.0300
  707TMC3    H110511   1.930   4.392   0.472  1.7576  1.1579  2.5445
  707TMC3    H210512   1.934   3.985   0.612  0.1126 -0.3250  0.4394
  707TMC3    C710513   2.057   4.139   0.447  0.7022  0.1383  0.3110
  707TMC3    C810514   1.797   4.038   0.834 -0.0577  0.5727  0.4406
  707TMC3    O110515   2.116   4.030   0.472 -0.3403 -0.5061  0.2723
  707TMC3    O210516   1.699   4.064   0.907 -0.0793 -0.3070  0.2458
  708MPD2     C10517   3.313   4.239  13.788  0.0327 -0.1408 -1.5589
  708MPD2    C110518   3.225   4.195  13.877 -0.0500  0.3323 -1.0374
  708MPD2    C210519   3.270   4.149  13.999 -0.4505  0.6787 -0.0963
  708MPD2    C310520   3.398   4.184  14.046  0.0917 -0.0342 -0.3974
  708MPD2    C410521   3.485   4.245  13.957  0.4800  0.0918 -0.2748
  708MPD2    C510522   3.446   4.265  13.831 -0.0253 -0.1582 -0.8126
  708MPD2     H10523   3.213   4.080  14.060  0.2166 -1.3017 -1.7046
  708MPD2    H110524   3.584   4.279  13.982  1.0679 -1.6458 -0.2199
  708MPD2    H210525   3.294   4.282  13.691 -1.5496 -0.5388 -1.4242
  708MPD2    H310526   3.520   4.299  13.759 -0.4085 -0.3717 -1.3089
  708MPD2     N10527   3.430   4.137  14.178  0.4890 -0.0276 -0.0317
  708MPD2    H510528   3.354   4.082  14.216  0.0113  0.8246  0.2350
  708MPD2    N110529   3.088   4.171  13.844  0.6611  0.3517 -0.6638
  708MPD2    H710530   3.061   4.194  13.749 -0.1099 -1.0337 -0.7926
  709TMC3    C110531   2.884   4.058  13.865 -0.3165  1.2447 -0.1170
  709TMC3    C210532   2.910   3.988  13.756 -0.0920  0.3063  0.2448
  709TMC3    C310533   2.855   3.866  13.739 -0.2809  0.3065 -0.1797
  709TMC3    C410534   2.799   4.011  13.961 -0.4426 -0.0889 -0.0775
  709TMC3    C510535   2.754   3.882  13.955  0.5711 -0.3918 -0.1545
  709TMC3    C610536   2.778   3.807  13.837 -0.1740  0.1254 -0.6440
  709TMC3     C10537   3.001   4.109  13.928 -0.0688 -0.3534  0.2973
  709TMC3     O10538   2.988   4.118  14.051  0.3877  0.0430  0.1445
  709TMC3     H10539   2.976   4.029  13.681  0.5128 -1.0057  0.0551
  709TMC3    H110540   2.752   4.078  14.032  1.0861  0.5101  0.3691
  709TMC3    H210541   2.763   3.700  13.843 -0.4722  0.0851 -2.2508
  709TMC3    C710542   2.767   3.813  14.082 -0.4753  0.3768  0.0724
  709TMC3    C810543   2.884   3.774  13.624  0.1195  0.2339  0.6193
  709TMC3    O110544   2.709   3.707  14.087 -0.2826  0.1253  0.5436
  709TMC3    O210545   2.876   3.656  13.650 -0.5662 -0.2594  0.3489
  710TMC3    C110546   4.566   0.532   0.223 -0.0633  0.0087  0.2753
  710TMC3    C210547   4.645   0.567   0.119  0.3982 -0.0603  0.0615
  710TMC3    C310548   4.707   0.471   0.039  0.4276  0.0327 -0.0013
  710TMC3    C410549   4.544   0.401   0.253  0.3431  0.3999 -0.0381
  710TMC3    C510550   4.620   0.308   0.180  0.3941  0.0857 -0.4943
  710TMC3    C610551   4.683   0.337   0.062 -0.5453  0.0108 -0.0665
  710TMC3     C10552   4.488   0.643   0.282 -0.1430  1.0762  0.2583
  710TMC3     O10553   4.479   0.752   0.228 -0.1142  0.0059 -0.1925
  710TMC3     H10554   4.662   0.673   0.105 -0.3796  0.1901  0.9718
  710TMC3    H110555   4.478   0.373   0.334 -0.5420  0.7233 -0.6349
  710TMC3    H210556   4.715   0.265  17.750 -1.6501 -2.1445  1.5886
  710TMC3    C710557   4.630   0.173   0.239  0.3721 -0.7857 -1.0111
  710TMC3    C810558   0.049   0.501  17.687  0.3750  0.6861 -0.0439
  710TMC3    O110559   4.552   0.148   0.330  0.1165  0.6794  0.4127
  710TMC3    O210560   0.115   0.411  17.637  0.4998  0.1111  0.1891
  711TMC3    C110561   4.302   1.701  14.707  0.2549  0.3148 -0.2445
  711TMC3    C210562   4.272   1.753  14.826  0.2470  0.6209 -0.0802
  711TMC3    C310563   4.329   1.875  14.842 -0.1841 -0.7163 -0.4373
  711TMC3    C410564   4.395   1.749  14.613 -0.2928 -0.2156 -0.3493
  711TMC3    C510565   4.454   1.870  14.641 -0.2899  0.0070  0.3196
  711TMC3    C610566   4.424   1.925  14.758 -0.2887 -0.5679 -0.0452
  711TMC3     C10567   4.268   1.559  14.698 -0.3735 -0.2019  0.1525
  711TMC3     O10568   4.195   1.516  14.789 -0.4616 -0.1507 -0.3950
  711TMC3     H10569   4.194   1.712  14.890  0.3525  0.7236  0.1130
  711TMC3    H110570   4.412   1.703  14.516  0.2392  1.7602 -1.1769
  711TMC3    H210571   4.459   2.026  14.776 -0.1794 -0.8165  1.1386
  711TMC3    C710572   4.486   1.950  14.530  0.0358  0.2094 -0.4112
  711TMC3    C810573   4.322   1.926  14.974  0.3425  0.0785 -0.3317
  711TMC3    O110574   4.428   1.920  14.427 -0.5850  0.3533  0.0561
  711TMC3    O210575   4.216   1.908  15.032  0.0040  0.0466 -0.1084
  712MPD2     C10576   0.815   2.456  14.021  0.0212  0.6322 -0.5946
  712MPD2    C110577   0.741   2.510  13.921  0.0864  0.0729 -0.4966
  712MPD2    C210578   0.770   2.641  13.888  0.0784  0.4009 -0.2276
  712MPD2    C310579   0.871   2.714  13.950  0.3181 -0.5987  0.0684
  712MPD2    C410580   0.948   2.648  14.041 -0.5913 -0.2177  0.1716
  712MPD2    C510581   0.912   2.525  14.083 -0.2601  0.1952  0.5490
  712MPD2     H10582   0.705   2.690  13.817  0.0510  1.0885  0.2670
  712MPD2    H110583   1.031   2.700  14.088 -1.7926 -0.0947  2.1476
  712MPD2    H210584   0.815   2.353  14.056  1.0405  0.6494 -0.5669
  712MPD2    H310585   0.967   2.481  14.166  0.3627  2.1062  1.1417
  712MPD2     N10586   0.899   2.846  13.924 -0.2537 -0.1749 -0.3308
  712MPD2    H510587   0.983   2.886  13.965  1.0014 -1.9193 -1.1861
  712MPD2    N110588   0.631   2.444  13.857 -0.3305 -0.2931 -0.2525
  712MPD2    H710589   0.582   2.495  13.784  2.4903 -0.1840 -2.0618
  713TMC3    C110590   0.855   3.051  13.813  0.1096 -0.6441  0.3813
  713TMC3    C210591   0.974   3.056  13.743 -0.1948 -0.1968  0.3261
  713TMC3    C310592   1.017   3.177  13.694 -0.5098 -0.5699 -0.0632
  713TMC3    C410593   0.774   3.162  13.830 -0.2787 -0.0208  0.0468
  713TMC3    C510594   0.821   3.277  13.777  1.0433 -0.2183  0.1600
  713TMC3    C610595   0.943   3.292  13.712  0.2115  0.3305 -0.6546
  713TMC3     C10596   0.812   2.927  13.861 -0.5451 -0.7233  0.0607
  713TMC3     O10597   0.690   2.929  13.868 -0.1470  0.3485  1.0169
  713TMC3     H10598   1.041   2.971  13.734 -0.7633 -0.8517  2.4335
  713TMC3    H110599   0.685   3.156  13.892  0.1911 -0.5217  0.6728
  713TMC3    H210600   0.972   3.392  13.682 -0.3512  1.4682  2.6487
  713TMC3    C710601   0.754   3.400  13.804 -0.1583 -0.0702  0.7183
  713TMC3    C810602   1.128   3.179  13.600  0.0388 -0.5446  0.0661
  713TMC3    O110603   0.825   3.491  13.847  0.7758  0.0406 -0.0707
  713TMC3    O210604   1.137   3.297  13.556  0.5064 -0.1998 -0.5804
  714MPD2     C10605   3.062   1.665   1.287 -0.3150  0.5025  0.2470
  714MPD2    C110606   3.021   1.537   1.288 -0.5883 -0.0905  0.6446
  714MPD2    C210607   2.900   1.499   1.231 -0.2602 -0.2556 -0.5750
  714MPD2    C310608   2.817   1.595   1.175  1.0058  0.3899 -0.4739
  714MPD2    C410609   2.867   1.722   1.168 -0.3827 -0.5907 -0.3137
  714MPD2    C510610   2.986   1.754   1.220 -0.7528 -0.6531 -1.2313
  714MPD2     H10611   2.867   1.396   1.226 -2.0306  0.3249 -0.8102
  714MPD2    H110612   2.813   1.801   1.117  3.0375 -0.0322 -3.0083
  714MPD2    H210613   3.157   1.699   1.326 -1.2794  3.3566  0.1589
  714MPD2    H310614   3.015   1.858   1.212  2.0886 -1.2837  1.1477
  714MPD2     N10615   2.688   1.560   1.121 -0.0393  0.2564  0.1472
  714MPD2    H510616   2.660   1.466   1.146  2.1960 -0.5466 -0.4031
  714MPD2    N110617   3.115   1.441   1.333  0.4605  0.2646 -0.1151
  714MPD2    H710618   3.207   1.480   1.353 -1.3399  3.2160  2.2884
  715TMC3    C110619   3.190   1.241   1.439  0.5571 -0.3155  0.5525
  715TMC3    C210620   3.173   1.111   1.458  0.6545  0.3169  0.4849
  715TMC3    C310621   3.283   1.038   1.507  0.1528 -0.0279  0.4222
  715TMC3    C410622   3.289   1.315   1.501  0.1379  0.2798 -0.5407
  715TMC3    C510623   3.395   1.237   1.551  0.5041 -0.2672  0.1490
  715TMC3    C610624   3.397   1.099   1.547  0.1629  0.3250 -0.5962
  715TMC3     C10625   3.085   1.310   1.370 -0.2661 -0.3696 -0.7913
  715TMC3     O10626   2.985   1.240   1.343  0.8328  0.7673  0.2359
  715TMC3     H10627   3.097   1.051   1.408  0.1284  2.5494 -1.3886
  715TMC3    H110628   3.296   1.423   1.497  1.5465  0.1694 -1.1999
  715TMC3    H210629   3.488   1.043   1.569 -0.9887 -1.5720 -0.6635
  715TMC3    C710630   3.517   1.300   1.594 -0.5335  0.0072 -0.2804
  715TMC3    C810631   3.279   0.895   1.483  0.0584 -0.2565 -0.3567
  715TMC3    O110632   3.619   1.235   1.584 -0.0527  0.3685 -0.2506
  715TMC3    O210633   3.207   0.853   1.393 -0.2322  0.6596  0.2769
  716MPD2     C10634   2.976   1.134   9.493 -0.9714 -0.1260  0.7493
  716MPD2    C110635   2.967   1.022   9.574  0.0433  0.1092  0.0027
  716MPD2    C210636   2.861   0.938   9.549  0.2392 -0.2831 -0.3572
  716MPD2    C310637   2.762   0.961   9.451 -0.3139 -0.0877  0.5512
  716MPD2    C410638   2.779   1.075   9.373  0.4420 -0.0509  0.1023
  716MPD2    C510639   2.889   1.158   9.395 -0.6800 -0.4226 -0.2174
  716MPD2     H10640   2.845   0.848   9.608 -0.9566 -1.2978 -2.2185
  716MPD2    H110641   2.710   1.113   9.298 -0.7924  0.7503  1.6422
  716MPD2    H210642   3.054   1.209   9.508 -0.5289 -0.3176 -0.6383
  716MPD2    H310643   2.910   1.241   9.328  0.7155  2.7946  4.2128
  716MPD2     N10644   2.654   0.872   9.432  0.0651 -0.5401  0.2500
  716MPD2    H510645   2.662   0.787   9.487  0.8180 -0.7437 -0.1716
  716MPD2    N110646   3.059   0.994   9.674 -0.6068 -0.2967 -0.5659
  716MPD2    H710647   3.114   1.070   9.711 -2.4766  0.8891 -0.2160
  717TMC3    C110648   2.484   0.766   9.311  0.0851 -0.6320  0.0363
  717TMC3    C210649   2.438   0.698   9.419 -0.7595  0.5868  0.5844
  717TMC3    C310650   2.360   0.591   9.418 -0.4309  0.2090 -0.5247
  717TMC3    C410651   2.447   0.727   9.184  0.2457  0.0888  0.4574
  717TMC3    C510652   2.336   0.638   9.186  0.7364 -0.3571 -0.3298
  717TMC3    C610653   2.290   0.575   9.303  0.1783  0.1063  0.0232
  717TMC3     C10654   2.561   0.882   9.332 -0.3882  0.4514  0.5159
  717TMC3     O10655   2.563   0.951   9.232 -0.4854 -0.8895  0.1412
  717TMC3     H10656   2.476   0.733   9.515  3.8526  1.2718 -1.5170
  717TMC3    H110657   2.484   0.774   9.093 -0.0830  1.9011  1.2647
  717TMC3    H210658   2.201   0.513   9.301 -0.0921  0.4980 -0.2050
  717TMC3    C710659   2.296   0.580   9.053  0.4596 -0.3435 -0.6461
  717TMC3    C810660   2.327   0.522   9.535 -0.3003 -0.3089 -0.4675
  717TMC3    O110661   2.188   0.522   9.048 -0.1987  0.2849  0.6572
  717TMC3    O210662   2.227   0.455   9.526 -1.0558  0.4538  0.1316
  718MPD2     C10663   2.525   2.701  12.618  0.3459  0.2494 -0.1839
  718MPD2    C110664   2.462   2.787  12.536 -0.7557 -0.0228  0.1125
  718MPD2    C210665   2.339   2.835  12.576 -0.5348  0.3691 -0.1722
  718MPD2    C310666   2.281   2.804  12.697  0.0245 -0.3311  0.0069
  718MPD2    C410667   2.345   2.721  12.783 -1.0602  0.3285  0.1511
  718MPD2    C510668   2.464   2.669  12.739  0.2201 -0.0700 -0.4114
  718MPD2     H10669   2.275   2.899  12.516 -0.2836  0.0037 -0.8228
  718MPD2    H110670   2.310   2.691  12.881 -0.9477  1.9924  0.7037
  718MPD2    H210671   2.619   2.653  12.593  0.1778 -1.0730  1.7292
  718MPD2    H310672   2.508   2.606  12.816 -0.2204  0.5247  0.3189
  718MPD2     N10673   2.158   2.863  12.725 -0.3005  0.0866 -0.0146
  718MPD2    H510674   2.110   2.919  12.655  0.7793 -1.3278 -1.8942
  718MPD2    N110675   2.503   2.813  12.405  0.4488 -0.4731 -1.1288
  718MPD2    H710676   2.431   2.860  12.352 -1.4660 -0.3762  1.5918
  719TMC3    C110677   2.632   2.868  12.224 -0.2922  0.2896  0.0374
  719TMC3    C210678   2.512   2.917  12.187 -0.5113 -0.5038  0.6837
  719TMC3    C310679   2.491   3.048  12.177 -0.2900 -0.0138  0.4302
  719TMC3    C410680   2.735   2.959  12.237 -0.1717 -0.1736 -0.7848
  719TMC3    C510681   2.713   3.086  12.217 -0.1114  0.1133 -0.1234
  719TMC3    C610682   2.593   3.140  12.183  0.1212  0.7581  0.6536
  719TMC3     C10683   2.621   2.778  12.341 -0.7171 -0.3328 -0.1136
  719TMC3     O10684   2.728   2.739  12.381 -0.6618 -0.7216  0.2429
  719TMC3     H10685   2.425   2.855  12.169 -1.9666  0.7062  3.7389
  719TMC3    H110686   2.834   2.919  12.251 -0.2137  0.2204  0.6591
  719TMC3    H210687   2.585   3.247  12.175  0.4030  0.7850  0.7229
  719TMC3    C710688   2.829   3.171  12.201  0.1735  0.2188 -0.2027
  719TMC3    C810689   2.360   3.076  12.225 -0.1522 -0.5428 -0.2111
  719TMC3    O110690   2.816   3.268  12.125  0.6585  0.2517 -0.1613
  719TMC3    O210691   2.298   2.988  12.286  0.5367 -0.1264  0.0973
  720MPD2     C10692   1.023   4.674  13.941 -0.9651 -0.0545 -0.4658
  720MPD2    C110693   1.084   4.661  13.818  0.4535 -0.2559 -0.5120
  720MPD2    C210694   1.211   4.599  13.813 -0.3901  0.5657 -0.9937
  720MPD2    C310695   1.277   4.550  13.924 -0.4795 -0.1182  0.3774
  720MPD2    C410696   1.230   4.589  14.048 -0.2138  0.3267  0.1223
  720MPD2    C510697   1.099   4.642  14.055 -0.8329 -0.7109 -0.1172
  720MPD2     H10698   1.255   4.597  13.714  0.8503 -2.4915 -0.3875
  720MPD2    H110699   1.275   4.552  14.139 -0.3797  0.0300  0.0818
  720MPD2    H210700   0.925   4.719  13.953 -0.5794  0.2366  1.7562
  720MPD2    H310701   1.058   4.646  14.155 -0.7623 -2.2192 -0.0240
  720MPD2     N10702   1.403   4.482  13.902 -0.0886  0.4891 -0.2262
  720MPD2    H510703   1.430   4.451  13.809 -1.0674 -0.3937 -0.2165
  720MPD2    N110704   1.021   4.688  13.692  0.0113  0.2613  0.5392
  720MPD2    H710705   1.067   4.660  13.606  1.3634 -0.7667  1.5950
  721TMC3    C110706   1.596   4.374  13.949 -0.8306  0.0394 -0.1797
  721TMC3    C210707   1.662   4.325  14.059  0.8520  0.2098 -0.3221
  721TMC3    C310708   1.787   4.368  14.094 -0.1885  0.4182 -0.1203
  721TMC3    C410709   1.666   4.453  13.854  0.2205  0.3668 -0.4153
  721TMC3    C510710   1.790   4.491  13.887  0.5100  0.8285  0.0353
  721TMC3    C610711   1.854   4.442  13.999 -0.3561  0.2777  0.5178
  721TMC3     C10712   1.476   4.435  14.002 -0.0176 -0.1332 -0.5181
  721TMC3     O10713   1.467   4.436  14.123 -0.0936  0.1554 -0.2000
  721TMC3     H10714   1.614   4.248  14.118 -0.2975  1.3715  0.2485
  721TMC3    H110715   1.621   4.502  13.768 -0.9894 -0.1808 -0.0959
  721TMC3    H210716   1.953   4.473  14.032 -0.9271  2.7818 -0.1422
  721TMC3    C710717   1.870   4.567  13.797  0.3125  0.1310  0.2376
  721TMC3    C810718   1.813   4.403  14.231  0.3825 -0.3108  0.8001
  721TMC3    O110719   1.970   4.620  13.844 -0.0089  0.2833  0.4388
  721TMC3    O210720   1.926   4.445  14.261 -0.4374  0.2266  0.0222
  722MPD2     C10721   4.283   3.260  13.362  0.9325  1.2470  0.2753
  722MPD2    C110722   4.318   3.362  13.277  0.9154  0.1963  0.2590
  722MPD2    C210723   4.245   3.375  13.162 -0.5477  0.3329  0.4430
  722MPD2    C310724   4.130   3.297  13.139 -0.0718 -0.3228 -0.1174
  722MPD2    C410725   4.095   3.204  13.228  0.1600  0.7557  0.3537
  722MPD2    C510726   4.176   3.183  13.339  0.1843  0.4366 -0.3727
  722MPD2     H10727   4.272   3.453  13.093 -0.7215 -1.6240 -1.8244
  722MPD2    H110728   4.004   3.145  13.223 -0.1941  1.1488  2.2504
  722MPD2    H210729   4.335   3.249  13.457 -1.3124 -2.2761  1.0761
  722MPD2    H310730   4.150   3.103  13.408  0.6219  0.5464 -0.0761
  722MPD2     N10731   4.051   3.333  13.030  0.6513  0.4790 -0.2284
  722MPD2    H510732   4.079   3.399  12.959 -0.8744  0.4492 -0.8637
  722MPD2    N110733   4.433   3.440  13.302 -1.0764  0.2499 -0.3637
  722MPD2    H710734   4.456   3.509  13.230  2.1847 -0.7470 -0.2577
  723TMC3    C110735   3.863   3.317  12.884 -0.2711  0.4223  0.2342
  723TMC3    C210736   3.792   3.230  12.801  0.0419 -0.0300 -0.8583
  723TMC3    C310737   3.682   3.296  12.741  0.6318 -0.5138 -0.2590
  723TMC3    C410738   3.844   3.451  12.894  0.2182  1.3550  0.1739
  723TMC3    C510739   3.749   3.504  12.812 -0.8272  0.5306 -0.8144
  723TMC3    C610740   3.669   3.430  12.730 -0.4803  0.1148  0.1069
  723TMC3     C10741   3.955   3.251  12.978 -0.4442  0.5951 -0.8505
  723TMC3     O10742   3.925   3.135  13.000 -0.7386  0.3587 -0.1974
  723TMC3     H10743   3.793   3.122  12.800 -0.2131 -0.0529  1.6528
  723TMC3    H110744   3.907   3.512  12.957  0.2611  1.6428 -0.1462
  723TMC3    H210745   3.600   3.483  12.665 -0.6847  0.4556  0.5989
  723TMC3    C710746   3.727   3.650  12.818 -0.5157 -0.1431 -0.6851
  723TMC3    C810747   3.657   3.237  12.613  0.4895  0.0264  0.0615
  723TMC3    O110748   3.686   3.698  12.716 -0.0398 -0.1375  0.3890
  723TMC3    O210749   3.662   3.311  12.520  0.4117  0.4744 -0.0065
  724TMC3    C110750   0.515   1.404  10.220  0.2555  0.3407 -0.0464
  724TMC3    C210751   0.418   1.497  10.196  0.6498  0.1329 -0.4306
  724TMC3    C310752   0.461   1.625  10.160 -0.2734 -0.1336 -1.2602
  724TMC3    C410753   0.651   1.435  10.223 -0.0045 -0.3940  0.1190
  724TMC3    C510754   0.683   1.562  10.195  0.4804  0.8425 -0.5647
  724TMC3    C610755   0.593   1.662  10.156 -0.0919 -0.0106  0.1823
  724TMC3     C10756   0.468   1.272  10.266  0.2254  0.3361  0.2632
  724TMC3     O10757   0.351   1.260  10.291  0.1601  0.1461 -0.3446
  724TMC3     H10758   0.320   1.455  10.177 -0.0364  2.9146 -3.1367
  724TMC3    H110759   0.727   1.361  10.243 -0.7034 -0.6064  1.9532
  724TMC3    H210760   0.627   1.749  10.101 -0.0943  0.5950  1.1445
  724TMC3    C710761   0.820   1.610  10.183 -0.3032 -0.5682 -0.1232
  724TMC3    C810762   0.363   1.711  10.084 -0.2626 -0.4091 -0.2553
  724TMC3    O110763   0.841   1.723  10.224  0.1297 -0.1257 -0.0421
  724TMC3    O210764   0.273   1.646  10.034 -0.1982 -0.0693 -0.0729
  725TMC3    C110765   1.484   0.022  12.621 -0.1991  0.3126  0.5695
  725TMC3    C210766   1.406   0.075  12.516 -0.6974  0.3058  0.3012
  725TMC3    C310767   1.317   4.722  12.470 -0.7163  0.6128  0.6842
  725TMC3    C410768   1.484   4.637  12.665 -0.3186  0.3294  0.0918
  725TMC3    C510769   1.388   4.550  12.617 -0.1055 -0.2806  0.4509
  725TMC3    C610770   1.308   4.590  12.515  0.2334 -0.0188 -0.2032
  725TMC3     C10771   1.570   0.115  12.691 -1.1126  0.4937  0.0668
  725TMC3     O10772   1.529   0.230  12.708  0.4390 -0.5819  1.1787
  725TMC3     H10773   1.407   0.180  12.489 -1.4304 -0.3867 -2.4139
  725TMC3    H110774   1.532   4.612  12.759 -0.7621  1.2206  0.5639
  725TMC3    H210775   1.243   4.519  12.464  2.7907 -0.6969 -2.5690
  725TMC3    C710776   1.430   4.408  12.616 -0.0407  0.4580  0.2774
  725TMC3    C810777   1.208   0.028  12.386 -0.6928  0.4156 -0.0532
  725TMC3    O110778   1.549   4.397  12.635 -0.4080 -0.6078 -0.2277
  725TMC3    O210779   1.125   4.688  12.354 -0.1434  0.0646  0.3445
  726MPD2     C10780   3.249   2.382  10.172  0.2320  0.2336  0.2379
  726MPD2    C110781   3.377   2.330  10.206  0.3493  0.3054 -0.3546
  726MPD2    C210782   3.386   2.237  10.312  0.4538 -0.1665 -0.0845
  726MPD2    C310783   3.269   2.178  10.363  0.1125  0.2589  0.3077
  726MPD2    C410784   3.145   2.225  10.316  0.0857 -0.1237  0.2724
  726MPD2    C510785   3.135   2.331  10.224  0.3605 -0.8842 -0.8089
  726MPD2     H10786   3.476   2.191  10.351  0.7564  0.5542  0.0761
  726MPD2    H110787   3.050   2.192  10.355  1.0925  0.8947  3.6125
  726MPD2    H210788   3.227   2.474  10.118  2.6191  0.6717  0.0306
  726MPD2    H310789   3.035   2.360  10.196  1.2530  1.5675 -1.4145
  726MPD2     N10790   3.276   2.085  10.468 -0.1690 -0.4905 -0.0508
  726MPD2    H510791   3.188   2.060  10.514 -0.6963 -0.6290 -1.1342
  726MPD2    N110792   3.487   2.396  10.151  0.4278  0.8757  0.4190
  726MPD2    H710793   3.465   2.448  10.067 -0.6004  1.2743  0.9347
  727TMC3    C110794   3.711   2.453  10.117  0.3646 -0.6450  0.5314
  727TMC3    C210795   3.847   2.430  10.132 -0.2990 -0.7623 -0.1018
  727TMC3    C310796   3.928   2.507  10.050 -0.4713 -0.0789  0.6758
  727TMC3    C410797   3.659   2.549  10.036 -0.3444  0.3492  0.0045
  727TMC3    C510798   3.746   2.621   9.950 -0.2398  0.3794 -0.1135
  727TMC3    C610799   3.881   2.599   9.961  0.1926 -0.1550  0.3967
  727TMC3     C10800   3.619   2.384  10.202  0.5940  0.4124 -0.4009
  727TMC3     O10801   3.666   2.312  10.286  0.0216  0.0567 -0.1662
  727TMC3     H10802   3.888   2.376  10.216 -2.8785 -0.0901  1.5628
  727TMC3    H110803   3.558   2.590  10.042 -0.8573 -0.8688 -0.3967
  727TMC3    H210804   3.948   2.652   9.894  0.0019  1.0522  1.1457
  727TMC3    C710805   3.694   2.710   9.852  0.4443  0.0791  0.4586
  727TMC3    C810806   4.063   2.519  10.104 -0.6430  0.4521  0.8935
  727TMC3    O110807   3.764   2.795   9.804  1.0176  0.4965 -0.3204
  727TMC3    O210808   4.107   2.420  10.168  0.1327 -0.3306 -0.2040
  728TMC3    C110809   3.439   0.264  15.506 -0.0933 -0.7670  0.4308
  728TMC3    C210810   3.573   0.237  15.493  0.0003  0.1948  0.3873
  728TMC3    C310811   3.625   0.230  15.369  0.0447 -0.4904  0.0957
  728TMC3    C410812   3.354   0.264  15.400  0.6361 -0.0607  0.0565
  728TMC3    C510813   3.402   0.265  15.273  0.3648 -0.1439  0.0053
  728TMC3    C610814   3.538   0.241  15.258 -0.4650 -0.2982 -0.7129
  728TMC3     C10815   3.392   0.267  15.639 -0.2135 -0.5393  0.3460
  728TMC3     O10816   3.460   0.322  15.722  0.1786  0.5135 -0.1219
  728TMC3     H10817   3.638   0.210  15.575  1.7760  0.6444 -0.8662
  728TMC3    H110818   3.247   0.276  15.408  0.5753  1.0818 -2.3321
  728TMC3    H210819   3.578   0.240  15.157 -0.2009  1.1490 -0.6201
  728TMC3    C710820   3.327   0.328  15.167 -0.3085  0.5233  0.0964
  728TMC3    C810821   3.766   0.213  15.337 -0.0495  0.1394  0.1454
  728TMC3    O110822   3.205   0.329  15.174 -0.4947 -0.4382  0.3326
  728TMC3    O210823   3.800   0.190  15.225  0.3753 -0.0031  0.0130
  729MPD2     C10824   1.183   1.500  16.937  0.1382 -0.5137  0.0990
  729MPD2    C110825   1.319   1.484  16.956  0.1785  0.3282  1.0713
  729MPD2    C210826   1.365   1.479  17.088  0.6189 -0.2676 -0.2413
  729MPD2    C310827   1.278   1.499  17.189 -0.2710  0.0541  0.0245
  729MPD2    C410828   1.145   1.525  17.167 -0.0229 -0.2626 -0.3536
  729MPD2    C510829   1.097   1.513  17.038 -0.4342  0.5461 -0.4445
  729MPD2     H10830   1.470   1.457  17.094  0.6072  0.0020  0.8669
  729MPD2    H110831   1.085   1.562  17.250 -1.4638 -0.0023 -1.5244
  729MPD2    H210832   1.135   1.490  16.840 -0.1782 -1.7233  0.3791
  729MPD2    H310833   0.995   1.539  17.010 -0.4625  0.3110 -0.5615
  729MPD2     N10834   1.320   1.518  17.325  0.7715 -0.5493  0.1319
  729MPD2    H510835   1.244   1.542  17.388  0.3382 -1.6166  0.0125
  729MPD2    N110836   1.402   1.476  16.840 -0.0469  0.0736  0.1617
  729MPD2    H710837   1.361   1.454  16.750  1.4956 -1.0808 -0.2691
  730TMC3    C110838   1.472   1.522  17.497  0.3453 -0.6474 -0.1661
  730TMC3    C210839   1.607   1.522  17.523 -0.3961 -0.2125 -0.0001
  730TMC3    C310840   1.660   1.644  17.554  0.4805  0.2041  0.2457
  730TMC3    C410841   1.387   1.631  17.533 -0.1376 -0.9018  0.1317
  730TMC3    C510842   1.445   1.739  17.575 -0.5746 -0.2205  0.1436
  730TMC3    C610843   1.583   1.753  17.581 -0.3182 -0.8168  0.1286
  730TMC3     C10844   1.446   1.475  17.369  0.0329 -0.0379  0.0917
  730TMC3     O10845   1.536   1.417  17.310  0.2891  0.1463 -0.3919
  730TMC3     H10846   1.666   1.431  17.517  2.3510  1.5636  0.0291
  730TMC3    H110847   1.279   1.634  17.539 -0.1328 -1.2750  0.3789
  730TMC3    H210848   1.629   1.841  17.623 -0.3713 -1.6833  2.0237
  730TMC3    C710849   1.372   1.857  17.539  0.1181 -0.0040  0.6987
  730TMC3    C810850   1.776   1.667  17.462  0.0442  0.4577  0.4203
  730TMC3    O110851   1.295   1.854  17.446 -0.0956 -0.0029 -0.2420
  730TMC3    O210852   1.824   1.571  17.401  0.3787  0.9787  0.3642
  731MPD2     C10853   0.740   4.651  12.408  0.1801  0.1891  0.2438
  731MPD2    C110854   0.818   4.548  12.445 -0.3703 -0.5857 -0.1177
  731MPD2    C210855   0.790   4.482  12.564 -0.0746 -0.4124 -0.6954
  731MPD2    C310856   0.689   4.529  12.647 -0.0760  0.3425  0.7135
  731MPD2    C410857   0.621   4.645  12.614 -0.6700  0.3504  1.0879
  731MPD2    C510858   0.638   4.697  12.487 -0.0675 -0.3272  0.7409
  731MPD2     H10859   0.843   4.391  12.589  0.6365  0.5384  1.2603
  731MPD2    H110860   0.531   4.679  12.664  1.1044  3.1743  2.4217
  731MPD2    H210861   0.744   4.689  12.306  2.4340  1.7964  0.9298
  731MPD2    H310862   0.577   0.035  12.444  0.4305 -0.1753  0.3130
  731MPD2     N10863   0.659   4.460  12.770 -0.3856 -0.3143  0.1062
  731MPD2    H510864   0.695   4.366  12.782 -0.8330 -0.1858  2.5789
  731MPD2    N110865   0.902   4.491  12.354 -0.4707 -0.1846 -0.7964
  731MPD2    H710866   0.903   4.522  12.258  0.5191 -0.0998 -0.7504
  732TMC3    C110867   1.046   4.340  12.261 -0.2196  0.5343  0.1226
  732TMC3    C210868   0.959   4.329  12.159 -0.4112  0.4048 -0.9858
  732TMC3    C310869   0.999   4.297  12.033  0.5556  0.0993 -0.2880
  732TMC3    C410870   1.181   4.343  12.223  0.4117 -0.7409 -0.5131
  732TMC3    C510871   1.213   4.320  12.093  0.9371 -0.4163 -0.0929
  732TMC3    C610872   1.124   4.294  11.995 -0.1662 -0.0874  1.5263
  732TMC3     C10873   0.993   4.397  12.388  0.1419 -0.7338 -0.5407
  732TMC3     O10874   1.049   4.366  12.491 -0.0277  0.6714 -0.6636
  732TMC3     H10875   0.856   4.353  12.180 -0.0297  1.5368 -0.3853
  732TMC3    H110876   1.259   4.384  12.285  0.4563 -0.5849 -0.6720
  732TMC3    H210877   1.146   4.268  11.892 -1.9558  0.9500  0.8922
  732TMC3    C710878   1.354   4.313  12.053  0.1659  0.6364 -0.4053
  732TMC3    C810879   0.893   4.291  11.929 -0.3219  0.1105 -0.7538
  732TMC3    O110880   1.366   4.333  11.933 -0.7106 -0.5306  0.1082
  732TMC3    O210881   0.923   4.333  11.817 -0.6698  0.7079 -0.2587
  733TMC3    C110882   1.754   3.002  12.861  0.4416  0.0580  0.5380
  733TMC3    C210883   1.853   2.908  12.873  0.0426 -0.6210 -0.3361
  733TMC3    C310884   1.976   2.947  12.828  0.0494 -0.1114 -0.0335
  733TMC3    C410885   1.780   3.129  12.804  0.1825  0.5859  0.4541
  733TMC3    C510886   1.906   3.161  12.766  0.7008 -0.6936  0.3325
  733TMC3    C610887   2.007   3.070  12.774 -0.1883  0.7498  0.7137
  733TMC3     C10888   1.620   2.973  12.901 -0.5222 -0.1877 -0.2670
  733TMC3     O10889   1.527   3.048  12.875 -1.0223  0.6503  0.5088
  733TMC3     H10890   1.835   2.805  12.899  0.7347 -0.5676  0.3763
  733TMC3    H110891   1.705   3.207  12.804 -1.7645 -1.2908  0.9055
  733TMC3    H210892   2.113   3.094  12.771 -0.3543  1.4102  0.1065
  733TMC3    C710893   1.927   3.261  12.670  0.1874 -0.4131 -0.0268
  733TMC3    C810894   2.076   2.838  12.832 -0.2854 -0.4403  0.2924
  733TMC3    O110895   1.884   3.375  12.684 -0.0570  0.6833 -0.4772
  733TMC3    O210896   2.062   2.732  12.894  0.2896 -0.0604 -0.2108
  734MPD2     C10897   3.685   4.711  12.809  0.1349  0.0236  0.7924
  734MPD2    C110898   3.612   4.675  12.699  0.5670  0.1114 -0.1527
  734MPD2    C210899   3.645   4.740  12.578  0.7296 -0.1360 -0.5984
  734MPD2    C310900   3.746   0.088  12.566  0.3567 -0.7914 -0.3650
  734MPD2    C410901   3.822   0.116  12.684 -0.1991 -0.0031  0.0715
  734MPD2    C510902   3.785   0.066  12.807  0.2279  0.4397 -0.4013
  734MPD2     H10903   3.588   4.722  12.488 -0.5431 -2.3343  0.6158
  734MPD2    H110904   3.903   0.187  12.678 -1.9650  1.8061 -2.0237
  734MPD2    H210905   3.660   4.667  12.905  1.2703 -0.5867  0.8061
  734MPD2    H310906   3.840   0.096  12.896 -1.0461 -0.1895  0.6139
  734MPD2     N10907   3.759   0.139  12.438  0.5925 -0.1757  0.2667
  734MPD2    H510908   3.688   0.111  12.371  1.8796 -1.1985 -0.6626
  734MPD2    N110909   3.523   4.574  12.706  0.1176  1.0918  0.1877
  734MPD2    H710910   3.527   4.516  12.790 -1.9199 -0.6455 -0.8857
  735TMC3    C110911   3.405   4.386  12.626  0.1760 -0.8843  0.8797
  735TMC3    C210912   3.320   4.347  12.531  0.3428 -0.7250 -0.0856
  735TMC3    C310913   3.357   4.252  12.443 -0.1885 -0.0992  0.2681
  735TMC3    C410914   3.517   4.310  12.646 -0.3337 -0.2599 -0.2923
  735TMC3    C510915   3.549   4.202  12.565  0.2246  0.0680  0.2583
  735TMC3    C610916   3.466   4.174  12.461 -0.1709  0.2262 -0.1731
  735TMC3     C10917   3.443   4.522  12.609 -0.7201  0.0084 -0.0982
  735TMC3     O10918   3.428   4.561  12.493 -0.0862 -0.9179  0.0847
  735TMC3     H10919   3.230   4.403  12.512  0.4339  0.3557  2.6547
  735TMC3    H110920   3.598   4.350  12.706 -0.1468 -0.4603 -0.4115
  735TMC3    H210921   3.491   4.090  12.396  0.3200  0.6966 -0.5926
  735TMC3    C710922   3.685   4.152  12.564 -0.3647 -0.4139  0.4223
  735TMC3    C810923   3.345   4.276  12.302 -0.0604  0.0095  0.0789
  735TMC3    O110924   3.770   4.229  12.609 -0.7400  0.4647 -0.0918
  735TMC3    O210925   3.340   4.182  12.228 -0.2968  0.1849 -0.3034
  736MPD2     C10926   3.812   3.851  12.404 -0.6991  0.5536 -1.1144
  736MPD2    C110927   3.819   3.977  12.458 -0.0675 -0.9704  0.1148
  736MPD2    C210928   3.933   4.049  12.430  0.1451 -0.1305 -0.1753
  736MPD2    C310929   4.031   3.994  12.353  0.0237 -0.9897 -0.0194
  736MPD2    C410930   4.023   3.869  12.303 -0.1843 -0.2875  0.5786
  736MPD2    C510931   3.911   3.796  12.330  0.0451  0.1316 -0.3278
  736MPD2     H10932   3.947   4.152  12.464  1.7637 -0.9549  1.6827
  736MPD2    H110933   4.100   3.822  12.242  0.9607  0.4628  1.4385
  736MPD2    H210934   3.724   3.787  12.404 -1.1163  1.1121  1.1322
  736MPD2    H310935   3.894   3.701  12.279  0.4108 -0.2806  0.3229
  736MPD2     N10936   4.134   4.073  12.307 -0.0148 -0.1880  0.2053
  736MPD2    H510937   4.176   4.032  12.224 -1.6228  1.6467 -1.4974
  736MPD2    N110938   3.703   4.029  12.514 -0.0135 -0.3364  0.8036
  736MPD2    H710939   3.624   3.966  12.511 -0.2740 -0.0320  1.3109
  737TMC3    C110940   4.294   4.255  12.290  0.1624  0.1604 -0.2757
  737TMC3    C210941   4.292   4.391  12.280 -0.9302  0.0823 -0.1859
  737TMC3    C310942   4.378   4.449  12.199 -0.2533 -0.4502 -0.5286
  737TMC3    C410943   4.373   4.171  12.214 -0.4634  0.1802 -0.5384
  737TMC3    C510944   4.448   4.238  12.121  0.6930  0.1468 -0.2849
  737TMC3    C610945   4.451   4.370  12.113  0.2456  0.8829 -0.0049
  737TMC3     C10946   4.183   4.194  12.364  0.1762  0.9691 -1.1466
  737TMC3     O10947   4.157   4.233  12.474 -0.1547  0.6725  0.4784
  737TMC3     H10948   4.232   4.438  12.357  2.4327  1.6865  1.4536
  737TMC3    H110949   4.385   4.066  12.238  0.5812  0.7781  1.6249
  737TMC3    H210950   4.511   4.426  12.042  0.5775  0.8346  0.2357
  737TMC3    C710951   4.539   4.156  12.035 -0.3610  0.8878  0.3717
  737TMC3    C810952   4.354   4.587  12.174 -0.4576  0.1345  0.8430
  737TMC3    O110953   4.555   4.041  12.072  0.3643  0.4098 -0.2964
  737TMC3    O210954   4.312   4.640  12.275  0.0425  0.2147  0.0048
  738MPD2     C10955   4.544   3.731  15.430 -0.1196 -0.2604  0.1487
  738MPD2    C110956   4.656   3.666  15.478  0.3680 -0.5563  0.0531
  738MPD2    C210957   0.041   3.725  15.469  0.6819  0.8911 -0.2493
  738MPD2    C310958   0.051   3.847  15.406  0.0654  0.1596 -0.5786
  738MPD2    C410959   4.684   3.916  15.353 -0.2944  0.3013  0.3983
  738MPD2    C510960   4.568   3.845  15.358 -0.0786 -0.4028 -0.1924
  738MPD2     H10961   0.127   3.675  15.511  1.0052  1.7697  0.1241
  738MPD2    H110962   4.683   4.017  15.314  2.6002 -0.0396 -0.5255
  738MPD2    H210963   4.441   3.702  15.449  0.0032 -1.0722 -0.4467
  738MPD2    H310964   4.477   3.890  15.320 -0.4072  1.6570  3.0350
  738MPD2     N10965   0.170   3.921  15.396  0.3900  0.0147  0.2193
  738MPD2    H510966   0.172   3.998  15.329 -1.8753  0.3536  0.5395
  738MPD2    N110967   4.654   3.535  15.541  0.3961 -0.1570  0.1948
  738MPD2    H710968   4.737   3.481  15.560  1.5308  1.0546 -1.2790
  739TMC3    C110969   0.404   3.973  15.399  0.0453  0.0206  0.0057
  739TMC3    C210970   0.415   4.007  15.263 -0.1883 -0.1295  0.0188
  739TMC3    C310971   0.535   4.048  15.206  0.1381  0.9138  0.8273
  739TMC3    C410972   0.505   3.994  15.482 -0.7171 -0.0090 -0.9547
  739TMC3    C510973   0.626   4.040  15.428  0.4754 -0.0839  0.2982
  739TMC3    C610974   0.645   4.055  15.287 -0.5159 -0.2860  0.0298
  739TMC3     C10975   0.298   3.886  15.450  0.7646 -0.0302  0.0474
  739TMC3     O10976   0.317   3.809  15.539 -0.5657  0.4002 -0.0429
  739TMC3     H10977   0.330   3.984  15.201 -1.3116 -0.0282  1.5170
  739TMC3    H110978   0.503   3.970  15.587 -2.6599 -0.8838 -1.1906
  739TMC3    H210979   0.728   4.112  15.247 -2.3433  0.5572 -2.5394
  739TMC3    C710980   0.733   4.070  15.519 -0.6706  0.7931  0.0069
  739TMC3    C810981   0.533   4.048  15.064 -0.0305  0.3253 -0.7053
  739TMC3    O110982   0.696   4.082  15.634 -1.2609  0.5092 -0.1508
  739TMC3    O210983   0.427   4.064  15.010 -0.0009  0.2163  0.4255
  740TMC3    C110984   0.312   0.335  14.338 -0.5780 -0.5762  0.4667
  740TMC3    C210985   0.437   0.374  14.385  0.5722  0.0289  0.0686
  740TMC3    C310986   0.542   0.377  14.303 -0.1291  0.0289 -0.6111
  740TMC3    C410987   0.297   0.324  14.203  0.4929 -0.1528 -0.3561
  740TMC3    C510988   0.409   0.328  14.122 -0.0767  1.1165  0.1484
  740TMC3    C610989   0.539   0.350  14.171 -0.3858 -0.2055  0.3641
  740TMC3     C10990   0.188   0.343  14.410 -0.3880  0.1195  0.2776
  740TMC3     O10991   0.091   0.309  14.343  0.2925 -0.3217 -0.0335
  740TMC3     H10992   0.452   0.395  14.490 -0.9114 -0.9336  0.4694
  740TMC3    H110993   0.198   0.307  14.162  0.6606 -2.1474  0.0756
  740TMC3    H210994   0.630   0.366  14.114 -1.3083 -0.5299 -1.2052
  740TMC3    C710995   0.373   0.351  13.981 -0.0018 -0.2963  0.1484
  740TMC3    C810996   0.667   0.377  14.363  0.4992  0.7954 -0.2778
  740TMC3    O110997   0.256   0.380  13.957 -0.1357 -0.1082 -0.3396
  740TMC3    O210998   0.745   0.461  14.317 -0.0868 -0.0742 -0.2672
  741TMC3    C110999   0.525   4.394  14.640  0.4131  0.6397 -0.1799
  741TMC3    C211000   0.395   4.358  14.638 -0.0740 -0.0496 -0.0453
  741TMC3    C311001   0.340   4.312  14.758 -0.0713 -0.0546  0.3808
  741TMC3    C411002   0.604   4.396  14.753 -0.1662 -0.5680  0.1615
  741TMC3    C511003   0.536   4.373  14.870 -0.1335  0.8327  0.0667
  741TMC3    C611004   0.408   4.323  14.875 -0.5389 -0.4183  0.2660
  741TMC3     C11005   0.599   4.377  14.513 -0.4909  0.3226 -0.3630
  741TMC3     O11006   0.537   4.348  14.413 -0.7844  0.3111  0.5292
  741TMC3     H11007   0.343   4.333  14.546 -0.9085  0.5268  0.2721
  741TMC3    H111008   0.698   4.449  14.757  0.5292 -1.7292 -0.7545
  741TMC3    H211009   0.375   4.285  14.971  2.7593 -1.1180  1.1325
  741TMC3    C711010   0.621   4.349  14.985 -0.2904  0.0054 -0.9738
  741TMC3    C811011   0.206   4.250  14.753 -0.3248 -0.2014  0.5776
  741TMC3    O111012   0.734   4.322  14.955  0.6813 -0.0529  0.3936
  741TMC3    O211013   0.134   4.292  14.662 -0.1347 -0.9595 -0.2022
  742TMC3    C111014   0.555   2.941  14.935  0.5713  0.4328  0.3904
  742TMC3    C211015   0.437   2.965  14.873  0.1564  0.2478  0.4472
  742TMC3    C311016   0.432   2.945  14.739 -0.1804  0.5335 -0.0936
  742TMC3    C411017   0.648   2.869  14.883  0.5016  0.2733  0.0375
  742TMC3    C511018   0.649   2.844  14.748  1.1396  0.7102  0.9150
  742TMC3    C611019   0.537   2.880  14.680 -0.5882  0.1908 -0.4276
  742TMC3     C11020   0.564   2.968  15.079 -0.2087  0.3452 -0.4497
  742TMC3     O11021   0.458   2.966  15.134  0.7089 -0.1270 -0.1731
  742TMC3     H11022   0.353   3.016  14.919  0.0278 -0.6916  1.2388
  742TMC3    H111023   0.727   2.834  14.948  1.1687 -0.2355 -1.0555
  742TMC3    H211024   0.516   2.854  14.577 -0.4389  0.2283 -0.4668
  742TMC3    C711025   0.735   2.748  14.685  0.2096  0.3567 -1.1253
  742TMC3    C811026   0.307   2.942  14.675 -0.2105 -0.1498  0.1979
  742TMC3    O111027   0.694   2.674  14.599  0.2091  0.0956 -0.4985
  742TMC3    O211028   0.267   2.830  14.660  0.2053  0.3628 -0.0635
  743MPD2     C11029   2.529   3.471   1.431 -0.5340  0.1764  0.1925
  743MPD2    C111030   2.570   3.486   1.302 -0.7182 -0.5516  0.0511
  743MPD2    C211031   2.683   3.558   1.277 -0.4273 -0.0866 -0.1383
  743MPD2    C311032   2.756   3.625   1.374  0.3531  0.3758  0.6476
  743MPD2    C411033   2.719   3.604   1.506 -0.6175 -0.6104  0.5813
  743MPD2    C511034   2.604   3.529   1.530 -0.1984 -0.1227  0.1468
  743MPD2     H11035   2.715   3.564   1.174  0.1009 -0.3231  0.0068
  743MPD2    H111036   2.767   3.654   1.589  1.0348 -1.4140  0.0991
  743MPD2    H211037   2.437   3.423   1.460  0.9864 -0.2185  4.2310
  743MPD2    H311038   2.560   3.519   1.629 -0.2710 -0.4779  0.0766
  743MPD2     N11039   2.873   3.703   1.336 -0.2195 -0.1070  0.3150
  743MPD2    H511040   2.904   3.696   1.240  1.5170 -2.6168  1.0753
  743MPD2    N111041   2.493   3.427   1.199  0.2666  0.3851 -0.1182
  743MPD2    H711042   2.396   3.401   1.213 -0.1704  0.9339 -2.1036
  744TMC3    C111043   2.436   3.344   0.990  0.1741 -0.3906 -0.2992
  744TMC3    C211044   2.304   3.375   1.010 -0.5033 -0.5877 -0.4009
  744TMC3    C311045   2.228   3.378   0.897 -0.6595 -0.6994  0.2162
  744TMC3    C411046   2.472   3.284   0.870 -0.3492 -0.4460  0.1905
  744TMC3    C511047   2.385   3.285   0.760  0.1844  0.0969  0.0746
  744TMC3    C611048   2.258   3.327   0.776 -0.1036  0.2044  0.5958
  744TMC3     C11049   2.538   3.399   1.074  0.0184 -0.3022  0.2359
  744TMC3     O11050   2.652   3.408   1.030  0.1223  0.1264 -0.8446
  744TMC3     H11051   2.287   3.439   1.096 -1.1227 -1.7594  0.3467
  744TMC3    H111052   2.573   3.249   0.856 -0.7299 -1.4566 -0.0550
  744TMC3    H211053   2.197   3.348   0.689 -0.3216 -1.7042  0.2839
  744TMC3    C711054   2.453   3.303   0.628  0.4705  0.2752  0.7563
  744TMC3    C811055   2.164   3.510   0.882 -0.2228 -0.4132 -0.6266
  744TMC3    O111056   2.574   3.287   0.625  0.3317 -0.1552  0.0454
  744TMC3    O211057   2.190   3.580   0.783  0.7430  0.6718 -0.5021
  745TMC3    C111058   0.466   2.274  13.800 -0.0373  0.0856  0.2220
  745TMC3    C211059   0.367   2.216  13.866  0.1244  0.3192 -0.4737
  745TMC3    C311060   0.244   2.213  13.817 -0.9282  1.1376  0.2922
  745TMC3    C411061   0.447   2.328  13.681 -0.4538 -0.4452  0.4143
  745TMC3    C511062   0.319   2.319  13.624  0.0955  0.5045  0.5885
  745TMC3    C611063   0.219   2.263  13.692 -0.2334 -0.4996  0.3339
  745TMC3     C11064   0.577   2.320  13.891 -0.0023 -0.6471  0.2127
  745TMC3     O11065   0.604   2.257  13.996 -0.6563 -0.2545  0.1132
  745TMC3     H11066   0.376   2.182  13.969 -1.4733 -1.6673 -0.9850
  745TMC3    H111067   0.530   2.383  13.638 -0.1669 -0.7344  0.5966
  745TMC3    H211068   0.117   2.270  13.658 -0.0947  0.8009  0.1910
  745TMC3    C711069   0.275   2.384  13.498 -0.0741 -0.2811  0.1926
  745TMC3    C811070   0.147   2.268  13.913 -0.0813  0.5353 -0.4423
  745TMC3    O111071   0.170   2.342  13.440  0.0747 -0.1237 -0.0179
  745TMC3    O211072   0.027   2.260  13.885 -0.3810 -0.6895  0.2942
  746TMC3    C111073   2.678   4.488  10.903 -0.2960  0.0347 -0.1435
  746TMC3    C211074   2.672   4.490  10.766  0.6127 -0.2220  0.1826
  746TMC3    C311075   2.564   4.446  10.694  0.4408 -0.2583  0.1404
  746TMC3    C411076   2.572   4.436  10.967 -0.7452 -0.7299 -0.6045
  746TMC3    C511077   2.461   4.388  10.897 -0.0047 -0.2801 -0.0854
  746TMC3    C611078   2.460   4.388  10.759 -0.4461  0.1543 -0.2884
  746TMC3     C11079   2.750   4.588  10.982  0.2182  0.0576  0.0233
  746TMC3     O11080   2.690   4.642  11.073 -0.1740  0.4372  0.1560
  746TMC3     H11081   2.743   4.550  10.710  0.0932  1.1414  0.9794
  746TMC3    H111082   2.572   4.429  11.075  0.7550  0.3742 -0.5380
  746TMC3    H211083   2.373   4.341  10.715 -1.3295  0.6840  0.9072
  746TMC3    C711084   2.358   4.302  10.958 -0.2668  0.2715 -0.1441
  746TMC3    C811085   2.535   4.508  10.576 -0.0759  0.1002 -0.5768
  746TMC3    O111086   2.248   4.292  10.904 -0.3570 -0.2584 -0.2241
  746TMC3    O211087   2.492   4.447  10.477 -0.0788  0.3798  0.0719
  747TMC3    C111088   0.406   4.406  11.218  0.0957  0.3997 -0.1954
  747TMC3    C211089   0.301   4.321  11.245  0.3335 -0.8801  0.5338
  747TMC3    C311090   0.216   4.350  11.347  0.9693  0.5520 -0.6515
  747TMC3    C411091   0.411   4.529  11.278  0.7267  0.0378 -0.4167
  747TMC3    C511092   0.316   4.560  11.367  0.3908  0.3715 -0.5130
  747TMC3    C611093   0.217   4.476  11.405  0.0926  0.1506  0.3846
  747TMC3     C11094   0.467   4.417  11.087  0.0058  0.4473 -0.4925
  747TMC3     O11095   0.546   4.507  11.069 -0.0789 -0.0019  0.2147
  747TMC3     H11096   0.301   4.218  11.211 -0.4459 -0.4356 -0.8226
  747TMC3    H111097   0.483   4.605  11.252 -1.1295  2.1166  0.5184
  747TMC3    H211098   0.145   4.505  11.481  0.6450  2.1564  0.1267
  747TMC3    C711099   0.291   4.704  11.383  0.2772 -0.3637 -0.1779
  747TMC3    C811100   0.168   4.234  11.419 -0.8409 -0.8736  0.7857
  747TMC3    O111101   0.240   4.739  11.491 -0.5925 -0.6574 -0.4287
  747TMC3    O211102   0.223   4.127  11.404  0.6541  0.1748  0.1675
  748MPD2     C11103   2.190   0.068   0.384  0.6622 -0.7679 -0.0942
  748MPD2    C111104   2.153   0.170   0.459  0.6994 -0.0292  0.1472
  748MPD2    C211105   2.248   0.226   0.541  0.8079  0.4938  0.0917
  748MPD2    C311106   2.376   0.173   0.561  0.1345 -0.3196  0.2201
  748MPD2    C411107   2.405   0.054   0.508 -0.1325  0.4165 -0.3133
  748MPD2    C511108   2.315   0.015   0.412 -0.7257  0.0897  0.1733
  748MPD2     H11109   2.214   0.303   0.609 -3.8907  1.2609 -3.0904
  748MPD2    H111110   2.494   4.734   0.521 -0.8413  0.0654  2.9403
  748MPD2    H211111   2.128   0.017   0.311 -0.2794 -0.3172  0.3951
  748MPD2    H311112   2.352   4.675   0.349  0.6781  0.7855  0.1032
  748MPD2     N11113   2.457   0.244   0.650 -0.3922  0.8772  0.3698
  748MPD2    H511114   2.423   0.336   0.679 -1.8764  0.1464  0.9204
  748MPD2    N111115   2.015   0.211   0.451 -0.3892  0.2565 -0.0571
  748MPD2    H711116   1.950   0.161   0.392 -0.8996 -0.3019  0.9884
  749TMC3    C111117   2.650   0.274   0.798  0.9670 -0.3523 -0.2527
  749TMC3    C211118   2.705   0.215   0.908 -0.1706  0.3878 -0.6292
  749TMC3    C311119   2.764   0.302   0.992  0.1141  0.9488 -0.4220
  749TMC3    C411120   2.664   0.405   0.764  0.4794  0.4446 -0.4590
  749TMC3    C511121   2.725   0.486   0.854  0.3250 -0.6236  0.7689
  749TMC3    C611122   2.781   0.430   0.965 -0.3386  0.4339  0.3666
  749TMC3     C11123   2.572   0.185   0.706  0.1051  0.0524  0.6864
  749TMC3     O11124   2.594   0.065   0.730 -0.0044 -0.2861  0.3277
  749TMC3     H11125   2.679   0.114   0.938  0.3923  0.4561  0.0809
  749TMC3    H111126   2.612   0.441   0.676  1.5486 -0.4884 -1.4695
  749TMC3    H211127   2.834   0.496   1.033  1.6883 -2.1993  1.3502
  749TMC3    C711128   2.769   0.620   0.814  0.6075  0.0164 -0.1600
  749TMC3    C811129   2.817   0.255   1.115  0.2856  0.3455 -0.0001
  749TMC3    O111130   2.800   0.694   0.908 -0.2620  0.7420 -0.2862
  749TMC3    O211131   2.849   0.336   1.201  0.0053 -0.4234  0.2674
  750MPD2     C11132   3.269   2.100  11.916 -0.5557 -0.2352 -0.8560
  750MPD2    C111133   3.138   2.052  11.921 -0.4126  0.5911 -0.3463
  750MPD2    C211134   3.104   1.949  11.844  0.4309  0.4128 -0.1680
  750MPD2    C311135   3.199   1.892  11.765 -0.3836 -0.2166 -0.1913
  750MPD2    C411136   3.325   1.943  11.758  0.8541 -0.0788 -0.5095
  750MPD2    C511137   3.364   2.052  11.831  0.6950  0.9127 -0.6425
  750MPD2     H11138   3.007   1.903  11.861  1.2664 -0.9617  0.9283
  750MPD2    H111139   3.404   1.896  11.700 -1.2634 -2.2622 -1.6596
  750MPD2    H211140   3.299   2.175  11.989 -3.7557 -1.0476  1.2788
  750MPD2    H311141   3.466   2.085  11.851  0.5829  0.7163  0.2799
  750MPD2     N11142   3.173   1.779  11.687 -0.0242 -0.4675  0.4439
  750MPD2    H511143   3.244   1.719  11.645 -0.3625  0.4371 -1.4440
  750MPD2    N111144   3.045   2.124  12.005 -0.1383  0.8962  0.0593
  750MPD2    H711145   3.079   2.210  12.047 -2.2959  1.3956  0.8067
  751TMC3    C111146   3.052   1.572  11.708  0.0071 -1.2654  0.0459
  751TMC3    C211147   2.969   1.524  11.806 -0.0902 -0.3039  0.5030
  751TMC3    C311148   2.998   1.410  11.870 -0.7988  0.3971 -0.3512
  751TMC3    C411149   3.150   1.498  11.646  0.0961  0.3290  0.3352
  751TMC3    C511150   3.157   1.369  11.692 -0.1640 -0.4680  0.6675
  751TMC3    C611151   3.105   1.332  11.819  0.0072 -0.3234 -0.4162
  751TMC3     C11152   3.052   1.720  11.688 -0.5239 -0.0802  0.5347
  751TMC3     O11153   2.936   1.764  11.711 -0.4729 -0.3760  0.1198
  751TMC3     H11154   2.892   1.590  11.844  0.4474  1.8217 -2.1547
  751TMC3    H111155   3.208   1.537  11.563  0.2300 -2.4857 -0.8590
  751TMC3    H211156   3.134   1.236  11.861 -1.0288 -1.0026 -1.2733
  751TMC3    C711157   3.147   1.263  11.595  0.2585  0.0551  0.1370
  751TMC3    C811158   2.885   1.331  11.916 -0.1367  0.7767 -0.4297
  751TMC3    O111159   3.226   1.261  11.502 -0.6203 -0.4603  0.6849
  751TMC3    O211160   2.900   1.211  11.897 -0.0456  0.6446 -1.3614
  752TMC3    C111161   2.415   1.082  17.048  0.1126  0.0363  0.0068
  752TMC3    C211162   2.435   0.965  17.100  0.2016  0.3347  0.1256
  752TMC3    C311163   2.436   0.959  17.235  0.3046  0.7321  0.5240
  752TMC3    C411164   2.405   1.200  17.116 -0.0303  0.3315 -0.1012
  752TMC3    C511165   2.403   1.191  17.248 -0.0244  0.3501 -0.5497
  752TMC3    C611166   2.431   1.071  17.315 -0.7894  0.0090  0.2535
  752TMC3     C11167   2.371   1.077  16.911 -0.1424 -0.3891  0.1864
  752TMC3     O11168   2.418   0.990  16.837  0.6954 -0.2787 -0.2056
  752TMC3     H11169   2.414   0.878  17.038  1.1054 -1.1440  1.8743
  752TMC3    H111170   2.391   1.298  17.070  0.3650  0.4923  0.1207
  752TMC3    H211171   2.432   1.049  17.421 -1.0462  3.9586  1.0684
  752TMC3    C711172   2.359   1.297  17.328 -0.1257  0.2822 -0.0837
  752TMC3    C811173   2.398   0.833  17.296 -0.0868  0.7312 -0.6897
  752TMC3    O111174   2.317   1.267  17.443  0.2053 -0.9631  0.6151
  752TMC3    O211175   2.324   0.839  17.395 -0.0952 -0.1255 -0.3109
  753TMC3    C111176   3.555   2.341  13.950 -0.0177  0.0621 -0.1725
  753TMC3    C211177   3.670   2.312  14.023  0.4333 -0.8928 -0.0488
  753TMC3    C311178   3.714   2.186  14.025  0.1349  0.1243 -0.2957
  753TMC3    C411179   3.491   2.244  13.871 -0.2329 -0.0519  0.2319
  753TMC3    C511180   3.545   2.118  13.866 -0.3879 -0.4400 -0.5063
  753TMC3    C611181   3.660   2.091  13.937 -0.3669 -0.9527 -0.6675
  753TMC3     C11182   3.510   2.479  13.948 -0.3155  1.1155  0.0155
  753TMC3     O11183   3.429   2.514  13.862  0.0820 -0.3705 -0.7208
  753TMC3     H11184   3.729   2.389  14.070 -2.0521  1.3977 -0.6577
  753TMC3    H111185   3.397   2.269  13.823 -1.4495  0.7762  3.0729
  753TMC3    H211186   3.694   1.988  13.938  2.6558  0.0359  0.4879
  753TMC3    C711187   3.500   2.016  13.776  0.4139  0.2793  0.0238
  753TMC3    C811188   3.836   2.147  14.093  0.2989 -0.2476 -0.3423
  753TMC3    O111189   3.533   1.907  13.812 -0.7468  0.4548  0.1229
  753TMC3    O211190   3.894   2.048  14.044 -0.4683  0.2359 -0.4063
  754MPD2     C11191   2.735   0.749  12.752 -0.1620 -0.3265 -0.0216
  754MPD2    C111192   2.705   0.843  12.854  0.1903 -0.0193  0.5824
  754MPD2    C211193   2.587   0.829  12.928 -0.1240  0.1865 -0.0801
  754MPD2    C311194   2.497   0.723  12.906 -0.3077  0.2938 -0.0320
  754MPD2    C411195   2.530   0.631  12.808 -0.4068 -0.2662  0.0425
  754MPD2    C511196   2.644   0.646  12.731 -0.0226  0.1035  0.1013
  754MPD2     H11197   2.567   0.906  13.002  0.1674 -0.9148  1.1494
  754MPD2    H111198   2.456   0.560  12.775 -2.0598  1.5624 -0.2119
  754MPD2    H211199   2.825   0.761  12.692 -0.5825  0.9452 -0.4048
  754MPD2    H311200   2.661   0.583  12.645 -0.9583 -0.3134  0.2282
  754MPD2     N11201   2.376   0.703  12.983 -0.4062  0.4901  0.4058
  754MPD2    H511202   2.330   0.617  12.956  1.7031 -0.3096 -0.5959
  754MPD2    N111203   2.801   0.937  12.885 -0.0720 -0.0613  0.1530
  754MPD2    H711204   2.882   0.930  12.824  1.5628 -1.2357  2.4542
  755MPD2     C11205   1.986   1.202  13.730  0.2313  0.1622 -0.3084
  755MPD2    C111206   1.873   1.155  13.672 -0.3739  0.2741 -0.2186
  755MPD2    C211207   1.876   1.037  13.592  0.1454  0.5236 -0.2158
  755MPD2    C311208   2.000   0.997  13.560  0.4320  0.0859 -1.5311
  755MPD2    C411209   2.116   1.055  13.610 -0.0924  0.1369  0.1565
  755MPD2    C511210   2.099   1.142  13.713 -0.2362 -0.1658  0.6515
  755MPD2     H11211   1.778   1.006  13.557  0.1380  0.4998 -0.1746
  755MPD2    H111212   2.218   1.030  13.583 -0.5268 -0.5439 -0.8695
  755MPD2    H211213   1.992   1.285  13.799 -0.1922  0.4626 -0.6326
  755MPD2    H311214   2.179   1.186  13.772 -0.2396  1.0646 -0.2450
  755MPD2     N11215   2.026   0.895  13.461 -0.4420  0.2807 -0.5720
  755MPD2    H511216   2.125   0.885  13.441 -0.0259  0.4310  1.3857
  755MPD2    N111217   1.740   1.204  13.698 -0.3360  0.1274  0.7240
  755MPD2    H711218   1.667   1.143  13.663  0.5608 -0.5153 -0.0344
  756MPD2     C11219   2.668   2.224  10.195 -0.5456  0.1544 -0.5460
  756MPD2    C111220   2.571   2.231  10.294  0.1671  0.7571 -0.0458
  756MPD2    C211221   2.465   2.315  10.279  0.4904 -0.5500  0.0170
  756MPD2    C311222   2.458   2.400  10.170 -0.0482  0.3620 -0.3553
  756MPD2    C411223   2.557   2.400  10.075 -0.2750  0.5519 -0.7758
  756MPD2    C511224   2.653   2.308  10.084  0.0315 -0.0362 -0.0161
  756MPD2     H11225   2.387   2.308  10.354  1.1965 -3.9758  0.4604
  756MPD2    H111226   2.552   2.474   9.996  1.2546 -0.2548 -1.6499
  756MPD2    H211227   2.749   2.152  10.204  0.3464  1.0334 -1.6116
  756MPD2    H311228   2.720   2.302   9.999  0.4930 -1.0846  0.4172
  756MPD2     N11229   2.337   2.472  10.155  0.4145 -0.8403  0.0231
  756MPD2    H511230   2.263   2.437  10.214 -0.2866 -0.4735 -0.6434
  756MPD2    N111231   2.569   2.151  10.411 -0.1862  0.3931 -0.2091
  756MPD2    H711232   2.505   2.170  10.487  1.3238  2.4393  0.5753
  757MPD2     C11233   1.599   2.077  10.279 -0.2993 -0.3947  0.2270
  757MPD2    C111234   1.733   2.052  10.266  0.2358 -0.5998 -0.0850
  757MPD2    C211235   1.814   2.160  10.232 -0.1492 -0.0470  1.0268
  757MPD2    C311236   1.761   2.284  10.203  0.2957  0.4659 -0.1417
  757MPD2    C411237   1.628   2.304  10.218  0.3534 -0.5856 -0.5130
  757MPD2    C511238   1.550   2.199  10.253 -0.4640 -0.6168 -0.1912
  757MPD2     H11239   1.921   2.144  10.218  0.3273  3.6040  0.4338
  757MPD2    H111240   1.574   2.396  10.204 -0.7025 -1.0575  0.4916
  757MPD2    H211241   1.532   1.993  10.293 -0.6225 -0.3012 -0.7559
  757MPD2    H311242   1.449   2.231  10.275 -0.1645  0.1556  0.0652
  757MPD2     N11243   1.856   2.383  10.169 -0.8888  0.3317 -0.9981
  757MPD2    H511244   1.953   2.354  10.161 -1.1805 -1.6700  2.5754
  757MPD2    N111245   1.777   1.923  10.298 -0.7394  0.4388  0.4393
  757MPD2    H711246   1.713   1.856  10.340 -0.5740  1.5812  2.5277
  758MPD2     C11247   2.841   1.128  15.975  0.3568  0.5698 -0.0682
  758MPD2    C111248   2.828   1.004  16.021 -0.2338  0.1295  0.0315
  758MPD2    C211249   2.741   0.985  16.131 -0.9114 -0.2557  0.2197
  758MPD2    C311250   2.676   1.093  16.193 -0.2199 -0.4069  0.3510
  758MPD2    C411251   2.673   1.207  16.124 -0.0596 -0.3821 -0.1617
  758MPD2    C511252   2.751   1.228  16.010 -0.0456 -0.0696  0.2928
  758MPD2     H11253   2.737   0.886  16.174  0.7609 -0.8987 -1.1172
  758MPD2    H111254   2.636   1.295  16.176 -0.5646 -0.6806 -0.0219
  758MPD2    H211255   2.905   1.150  15.891 -1.9552 -0.8216 -2.2228
  758MPD2    H311256   2.766   1.327  15.968 -1.7528  0.8621  1.8730
  758MPD2     N11257   2.619   1.083  16.322  0.5499 -0.0221 -0.5378
  758MPD2    H511258   2.594   1.165  16.376 -0.6369  0.0187 -1.1428
  758MPD2    N111259   2.913   0.908  15.963  0.5880  0.7502  0.5167
  758MPD2    H711260   2.968   0.932  15.881 -1.9346 -0.3442 -1.4793
  759MPD2     C11261   1.333   3.971  10.534 -0.6151  0.5871  0.1686
  759MPD2    C111262   1.220   4.056  10.546  0.4114 -0.1839  0.3240
  759MPD2    C211263   1.243   4.181  10.596  0.4925 -0.3389  0.0985
  759MPD2    C311264   1.373   4.213  10.644  0.0888 -0.1018 -0.8043
  759MPD2    C411265   1.478   4.121  10.645  0.8004  0.0942  0.7176
  759MPD2    C511266   1.455   4.002  10.582  0.1633 -0.6797 -0.1277
  759MPD2     H11267   1.160   4.249  10.610  0.7794 -0.4596  2.3749
  759MPD2    H111268   1.583   4.139  10.667  0.8661 -1.6037  1.8306
  759MPD2    H211269   1.333   3.882  10.473  0.3779  1.1284 -0.6076
  759MPD2    H311270   1.534   3.931  10.559  0.4495  0.6998 -3.4869
  759MPD2     N11271   1.391   4.338  10.711  0.2475  0.5474 -0.3374
  759MPD2    H511272   1.310   4.398  10.721  0.8456  1.0760  1.2627
  759MPD2    N111273   1.099   4.006  10.490 -0.8540 -0.6542 -0.1520
  759MPD2    H711274   1.099   3.907  10.466 -1.5555 -0.6368 -0.2329
  760MPD2     C11275   0.607   1.355  11.620 -0.1971  1.2347 -0.1423
  760MPD2    C111276   0.739   1.392  11.647  0.0147 -0.3288 -0.0815
  760MPD2    C211277   0.830   1.296  11.696  0.2389 -0.5154  0.1713
  760MPD2    C311278   0.782   1.170  11.732 -0.1183  0.3412  0.6266
  760MPD2    C411279   0.649   1.141  11.708 -0.0493 -0.2290 -0.1238
  760MPD2    C511280   0.560   1.230  11.661  0.5100  0.1010 -0.3845
  760MPD2     H11281   0.930   1.329  11.722  1.9086 -4.0238 -1.7265
  760MPD2    H111282   0.610   1.041  11.723 -0.4341  0.0320  0.6287
  760MPD2    H211283   0.532   1.423  11.581  1.3229  2.7274 -0.4681
  760MPD2    H311284   0.458   1.198  11.643  1.1803 -2.3916  0.1908
  760MPD2     N11285   0.862   1.073  11.796 -0.0609  0.0363 -0.1046
  760MPD2    H511286   0.819   0.990  11.836 -1.1514  0.8675  0.4500
  760MPD2    N111287   0.793   1.514  11.631  0.3758 -0.4061  0.0293
  760MPD2    H711288   0.889   1.527  11.664 -0.4277 -0.5205  2.4354
  761MPD2     C11289   2.403   1.249  12.044  0.0721 -0.1440  0.0810
  761MPD2    C111290   2.481   1.194  11.942  0.9261 -0.2917 -0.1038
  761MPD2    C211291   2.612   1.243  11.918 -0.6975 -0.2538  0.2839
  761MPD2    C311292   2.653   1.357  11.988 -0.6189 -0.2149  0.1456
  761MPD2    C411293   2.569   1.421  12.079 -0.3176 -1.1368 -0.1141
  761MPD2    C511294   2.446   1.365  12.108 -0.2565  0.5554  0.3153
  761MPD2     H11295   2.678   1.203  11.841  0.2100  1.6746  0.0777
  761MPD2    H111296   2.607   1.510  12.129 -1.4507 -1.5014  1.4154
  761MPD2    H211297   2.311   1.200  12.074 -0.8645 -0.4128 -3.2377
  761MPD2    H311298   2.375   1.403  12.180  0.1855  0.5644  0.7378
  761MPD2     N11299   2.782   1.406  11.967 -0.2196 -0.0447  0.0512
  761MPD2    H511300   2.796   1.502  11.994 -1.3468  0.4767 -1.2585
  761MPD2    N111301   2.426   1.081  11.867 -0.1534 -0.1826  0.2631
  761MPD2    H711302   2.333   1.052  11.898 -0.5146 -1.2242 -1.7720
  762MPD2     C11303   2.541   0.361  11.273  1.0638 -0.7692 -0.3491
  762MPD2    C111304   2.555   0.493  11.272 -0.2629 -0.0393  0.0323
  762MPD2    C211305   2.579   0.557  11.150 -0.8663  0.0497  0.3244
  762MPD2    C311306   2.600   0.479  11.031 -1.1171 -0.2672 -0.0671
  762MPD2    C411307   2.604   0.338  11.035 -0.6421 -0.3251 -0.2207
  762MPD2    C511308   2.569   0.284  11.157  0.6297 -0.2193 -0.3672
  762MPD2     H11309   2.565   0.664  11.144  1.7612  0.3732  0.0029
  762MPD2    H111310   2.629   0.277  10.949  1.0497 -1.7544  1.2835
  762MPD2    H211311   2.519   0.315  11.369 -2.7588 -1.2894 -1.4630
  762MPD2    H311312   2.579   0.176  11.160 -0.4752 -0.2724  1.2217
  762MPD2     N11313   2.630   0.550  10.916 -0.4749  0.3832 -0.0778
  762MPD2    H511314   2.644   0.650  10.919  0.7506  0.2716 -2.4962
  762MPD2    N111315   2.510   0.562  11.387 -0.1649  0.1892  0.1413
  762MPD2    H711316   2.491   0.504  11.468 -2.2615 -0.3803 -0.7733
  763MPD2     C11317   0.010   1.238  16.039 -0.2140  0.4842  0.1720
  763MPD2    C111318   4.621   1.274  16.068 -0.7529  0.3374  0.0385
  763MPD2    C211319   4.597   1.403  16.093  0.4166  0.1800  0.2380
  763MPD2    C311320   4.690   1.503  16.101  0.2173 -0.6401  0.0590
  763MPD2    C411321   0.076   1.460  16.077 -0.1924 -0.0466 -0.1531
  763MPD2    C511322   0.105   1.329  16.058  0.1243 -0.1525 -0.5722
  763MPD2     H11323   4.490   1.418  16.105  0.3903 -1.1706  1.6205
  763MPD2    H111324   0.161   1.526  16.081 -0.0066 -0.4379  2.8565
  763MPD2    H211325   0.044   1.139  16.009  2.1268  1.2430  0.2721
  763MPD2    H311326   0.210   1.302  16.050  0.1347  0.3976 -2.4215
  763MPD2     N11327   4.657   1.639  16.124  0.4719 -0.1801 -0.4487
  763MPD2    H511328   4.732   1.707  16.121 -1.9075  2.4559 -0.4051
  763MPD2    N111329   4.514   1.184  16.048 -0.0512  0.2256 -0.6576
  763MPD2    H711330   4.420   1.220  16.064  0.1685  1.2074 -1.6265
  764MPD2     C11331   2.949   2.872   0.139  0.0702  0.1573 -0.8939
  764MPD2    C111332   2.866   2.782   0.074  0.1126 -0.5080  0.6481
  764MPD2    C211333   2.769   2.722   0.146 -0.0483 -0.1644  0.6459
  764MPD2    C311334   2.766   2.713   0.285 -0.3534 -0.2291 -0.7483
  764MPD2    C411335   2.847   2.802   0.358  0.1268 -0.0104  0.4310
  764MPD2    C511336   2.931   2.883   0.283 -0.4678 -0.5913  0.9686
  764MPD2     H11337   2.699   2.667   0.085  1.7470 -1.4163 -0.2918
  764MPD2    H111338   2.857   2.807   0.466 -0.4924  2.1441  0.3710
  764MPD2    H211339   3.009   2.944   0.085  2.9399 -1.0139  0.7212
  764MPD2    H311340   2.994   2.951   0.338  1.9702 -0.1142 -2.4015
  764MPD2     N11341   2.658   2.648   0.344 -0.0440  0.2820  0.4622
  764MPD2    H511342   2.584   2.615   0.283  0.8290 -0.3051 -0.2711
  764MPD2    N111343   2.858   2.799  17.695  0.5010  0.0585  0.4379
  764MPD2    H711344   2.916   2.866  17.646  1.5099  0.2233  1.8532
  765MPD2     C11345   1.896   4.630  15.977  0.0492  0.0829  0.4681
  765MPD2    C111346   1.977   4.722  15.912  0.0610 -0.0403 -0.2846
  765MPD2    C211347   2.113   4.720  15.940 -0.0621  0.1867 -0.1781
  765MPD2    C311348   2.169   4.615  16.006  0.4942  0.2320  0.5165
  765MPD2    C411349   2.084   4.523  16.053  1.6403 -0.9672 -0.7567
  765MPD2    C511350   1.955   4.537  16.050  0.3053  0.1891  0.3759
  765MPD2     H11351   2.182   0.044  15.888  1.2875 -0.7717  0.4170
  765MPD2    H111352   2.121   4.439  16.110 -0.2934 -1.3346 -0.0274
  765MPD2    H211353   1.788   4.636  15.973 -0.0666 -0.9106  1.9194
  765MPD2    H311354   1.895   4.461  16.100  2.2232 -1.1362  0.6366
  765MPD2     N11355   2.306   4.600  16.005 -0.7841 -0.1236 -0.2898
  765MPD2    H511356   2.356   4.681  15.972  2.4390 -0.6706  3.2321
  765MPD2    N111357   1.914   0.092  15.844 -0.3782  0.6442  0.0219
  765MPD2    H711358   1.813   0.094  15.841 -0.3573  2.2958  0.3942
  766MPD2     C11359   1.665   0.088  15.206 -0.3302 -0.7663 -0.2623
  766MPD2    C111360   1.765   0.181  15.212 -0.1954 -0.1857 -0.0731
  766MPD2    C211361   1.862   0.192  15.112  0.1206  0.0588 -0.4978
  766MPD2    C311362   1.863   0.111  14.998  0.2675 -0.5282 -0.2931
  766MPD2    C411363   1.754   0.037  14.989 -0.7884 -0.1779  0.6486
  766MPD2    C511364   1.654   0.028  15.083 -1.2313 -0.4730  0.0345
  766MPD2     H11365   1.938   0.269  15.117  0.9364 -0.7952  0.2772
  766MPD2    H111366   1.740   4.716  14.902  2.5783  1.5617 -1.1633
  766MPD2    H211367   1.578   0.073  15.269  0.3219 -1.0352  0.5729
  766MPD2    H311368   1.583   4.690  15.062  0.0254 -1.5194 -0.3105
  766MPD2     N11369   1.955   0.114  14.890  0.6329  0.0374  0.0743
  766MPD2    H511370   1.936   0.066  14.802 -0.7524  3.6372 -1.5719
  766MPD2    N111371   1.769   0.272  15.318  0.5225  0.0613  0.0769
  766MPD2    H711372   1.852   0.330  15.321  1.1115 -0.7434 -0.5656
  767MPD2     C11373   1.470   0.397  15.035  0.5339 -0.0710  0.7208
  767MPD2    C111374   1.590   0.443  14.983  1.0295  0.7156  0.4073
  767MPD2    C211375   1.631   0.401  14.859  0.1008 -0.3337 -0.4606
  767MPD2    C311376   1.545   0.326  14.774 -0.0631  0.5340 -0.4545
  767MPD2    C411377   1.416   0.295  14.827  0.0976  0.0377 -0.3111
  767MPD2    C511378   1.383   0.327  14.952 -0.3999  0.2034  0.0649
  767MPD2     H11379   1.724   0.432  14.813  0.4679  2.5042  2.2113
  767MPD2    H111380   1.337   0.248  14.769  0.2004 -1.6823  0.9549
  767MPD2    H211381   1.435   0.424  15.134 -0.4161 -0.8701  0.6014
  767MPD2    H311382   1.284   0.294  14.982  0.0117  1.2599  2.6024
  767MPD2     N11383   1.588   0.275  14.644  0.0002  0.1299  0.2494
  767MPD2    H511384   1.677   0.308  14.608 -0.0922 -0.5721 -0.6242
  767MPD2    N111385   1.682   0.524  15.053 -0.2149 -0.3742 -0.7736
  767MPD2    H711386   1.772   0.551  15.016  1.3142 -0.9574  2.5534
  768MPD2     C11387   2.212   4.017  10.619  0.1002  0.0831 -0.9413
  768MPD2    C111388   2.220   3.916  10.713  0.9297 -0.1570 -0.2290
  768MPD2    C211389   2.344   3.902  10.774 -0.2313 -0.7460 -0.5984
  768MPD2    C311390   2.454   3.983  10.743 -1.1225 -0.2624  0.2925
  768MPD2    C411391   2.444   4.072  10.639 -0.8541 -0.4965 -0.5386
  768MPD2    C511392   2.324   4.081  10.575  1.1104 -0.6581 -0.3078
  768MPD2     H11393   2.346   3.839  10.862  1.1467 -0.8149 -0.6728
  768MPD2    H111394   2.525   4.136  10.605 -2.8240  0.6717 -3.0002
  768MPD2    H211395   2.122   4.040  10.563  1.0025  1.9631 -1.5986
  768MPD2    H311396   2.319   4.138  10.483  0.7284 -0.9453 -0.4652
  768MPD2     N11397   2.578   3.984  10.813  0.0759  0.3488  0.0896
  768MPD2    H511398   2.646   4.055  10.787 -0.9004  1.0757 -0.4609
  768MPD2    N111399   2.118   3.830  10.753  0.2333 -0.0376  0.3335
  768MPD2    H711400   2.132   3.770  10.834 -0.3369  0.5858  0.8821
  769MPD2     C11401   3.621   1.613  15.044 -0.3929  0.6256 -0.0906
  769MPD2    C111402   3.503   1.688  15.066  0.3219  0.3900  0.2251
  769MPD2    C211403   3.476   1.726  15.195 -0.1363 -0.3192  0.3368
  769MPD2    C311404   3.559   1.701  15.298  0.3230  0.5221  1.3864
  769MPD2    C411405   3.670   1.628  15.280 -0.5974  0.9476  0.4233
  769MPD2    C511406   3.701   1.593  15.152  0.1550 -0.0092 -0.8412
  769MPD2     H11407   3.394   1.793  15.220 -1.3200 -1.3815 -0.6392
  769MPD2    H111408   3.730   1.595  15.364 -1.1887 -3.5841 -0.9224
  769MPD2    H211409   3.646   1.579  14.944  1.2484 -1.3611  1.0041
  769MPD2    H311410   3.798   1.546  15.143 -0.4566 -1.8492  2.1222
  769MPD2     N11411   3.515   1.746  15.426  0.2125  0.0500  0.0212
  769MPD2    H511412   3.435   1.808  15.422 -0.4639 -0.8458 -0.3902
  769MPD2    N111413   3.421   1.723  14.952 -0.1920  0.0962  0.1347
  769MPD2    H711414   3.467   1.711  14.862  0.4746 -2.1020  0.7646
  770MPD2     C11415   2.696   1.389  15.126  0.0785  0.3276 -0.4038
  770MPD2    C111416   2.807   1.367  15.041  0.5579 -0.0230 -0.0353
  770MPD2    C211417   2.862   1.480  14.981  0.1427  0.0360  0.1750
  770MPD2    C311418   2.818   1.607  14.992 -0.8216  0.0785  0.2303
  770MPD2    C411419   2.720   1.634  15.082  0.0488 -0.9112  0.2454
  770MPD2    C511420   2.663   1.526  15.152 -0.2172 -0.0059  0.2820
  770MPD2     H11421   2.934   1.462  14.902 -0.3964  0.2991 -0.3739
  770MPD2    H111422   2.678   1.734  15.082  1.2113 -0.4293  1.2068
  770MPD2    H211423   2.641   1.302  15.161 -0.2693  0.8227  0.2843
  770MPD2    H311424   2.578   1.556  15.212 -0.8903 -1.0399 -0.1514
  770MPD2     N11425   2.891   1.697  14.908 -1.2914  0.0042 -0.1342
  770MPD2    H511426   2.951   1.655  14.837  0.4040  2.5086 -0.1902
  770MPD2    N111427   2.859   1.235  15.024 -0.1445 -0.6072 -0.2690
  770MPD2    H711428   2.809   1.155  15.062 -0.6271 -0.7328 -1.1684
  771MPD2     C11429   4.280   4.450  14.000 -0.8781 -0.3545  0.3535
  771MPD2    C111430   4.201   4.515  13.911  0.1577 -0.0483 -1.2714
  771MPD2    C211431   4.089   4.455  13.854  0.4936  0.7643  0.7274
  771MPD2    C311432   4.060   4.324  13.887 -0.3297 -0.2028  0.8856
  771MPD2    C411433   4.147   4.254  13.979 -0.1181 -0.2956 -0.0684
  771MPD2    C511434   4.253   4.319  14.026  0.2947  0.5676 -0.1981
  771MPD2     H11435   4.035   4.512  13.779 -0.7408  0.6635  1.5563
  771MPD2    H111436   4.140   4.147  13.990  1.2641 -0.4798 -1.0257
  771MPD2    H211437   4.369   4.491  14.046  1.0663 -1.7994 -2.1267
  771MPD2    H311438   4.331   4.272  14.083 -1.4087  1.0876  2.5717
  771MPD2     N11439   3.952   4.265  13.818 -0.1558  0.3074 -0.0334
  771MPD2    H511440   3.901   4.321  13.750 -1.8926 -0.8763  0.3031
  771MPD2    N111441   4.222   4.653  13.870  0.2014  0.3031 -0.0187
  771MPD2    H711442   4.138   4.692  13.830  0.1678 -0.6349 -0.8776
  772MPD2     C11443   3.858   0.451  13.628 -0.5966 -0.0753 -0.0670
  772MPD2    C111444   3.888   0.352  13.711 -0.6964  0.1980  0.0091
  772MPD2    C211445   3.783   0.294  13.777  0.0636  0.2198  0.0147
  772MPD2    C311446   3.652   0.335  13.764 -0.5805  0.1194 -0.5956
  772MPD2    C411447   3.626   0.447  13.685 -0.3939 -0.4076  0.4192
  772MPD2    C511448   3.726   0.494  13.611  0.0479 -0.1515 -0.2547
  772MPD2     H11449   3.815   0.207  13.833  0.6492  0.4441  0.0272
  772MPD2    H111450   3.528   0.492  13.675 -0.0540  0.5465  1.4137
  772MPD2    H211451   3.933   0.493  13.561 -1.6146  1.4558 -0.2448
  772MPD2    H311452   3.705   0.575  13.543  1.4950 -0.8926 -1.5654
  772MPD2     N11453   3.539   0.274  13.824 -0.7734  0.4597  0.5942
  772MPD2    H511454   3.447   0.315  13.811  0.0550  1.5146 -2.0832
  772MPD2    N111455   4.017   0.304  13.744 -0.2121 -0.3177 -0.4774
  772MPD2    H711456   4.024   0.246  13.827  0.6732 -0.0815 -0.3789
  773MPD2     C11457   3.235   1.003   0.586  0.3469 -0.5627 -0.0282
  773MPD2    C111458   3.276   0.957   0.463 -0.1488 -0.1303 -0.1133
  773MPD2    C211459   3.359   0.851   0.463  0.3554  0.3219 -0.1533
  773MPD2    C311460   3.404   0.784   0.576 -0.5900  0.0690 -0.3920
  773MPD2    C411461   3.356   0.829   0.696  0.6906  0.0686 -0.3930
  773MPD2    C511462   3.271   0.938   0.694  0.3266  0.5207  0.2133
  773MPD2     H11463   3.391   0.821   0.364 -0.6421  3.4405 -1.4331
  773MPD2    H111464   3.390   0.798   0.794 -2.7704  1.6495  1.3235
  773MPD2    H211465   3.161   1.081   0.599  3.1189  1.7708  1.9709
  773MPD2    H311466   3.217   0.958   0.786  1.7272 -0.4589  1.2520
  773MPD2     N11467   3.489   0.672   0.560 -0.2444  0.3562 -0.1186
  773MPD2    H511468   3.501   0.626   0.470 -0.6419  0.0837 -0.0312
  773MPD2    N111469   3.222   1.012   0.342 -0.5647 -0.5735 -0.4657
  773MPD2    H711470   3.221   0.952   0.260  0.0028  1.7374 -2.1382
  774MPD2     C11471   2.773   0.412  13.107 -0.1683 -0.4138 -1.4083
  774MPD2    C111472   2.697   0.511  13.172 -0.9023  0.4208  0.2055
  774MPD2    C211473   2.755   0.638  13.193 -0.4351  0.8360 -0.6179
  774MPD2    C311474   2.897   0.647  13.169 -0.5882 -0.3299  0.2520
  774MPD2    C411475   2.966   0.544  13.116 -0.1973 -0.6550 -0.4982
  774MPD2    C511476   2.904   0.433  13.073  0.0835  0.2255  0.1434
  774MPD2     H11477   2.701   0.715  13.247  0.4868  0.6384  0.5729
  774MPD2    H111478   3.072   0.553  13.098  0.0233  1.2723  1.8075
  774MPD2    H211479   2.729   0.317  13.078  0.6382 -1.7249  1.6769
  774MPD2    H311480   2.959   0.365  13.009 -0.0522 -0.1624  0.4442
  774MPD2     N11481   2.955   0.775  13.192  0.3778  0.5173  0.0330
  774MPD2    H511482   2.894   0.836  13.246 -0.6646 -2.7363  2.5359
  774MPD2    N111483   2.571   0.468  13.222 -0.3468 -0.0329  0.2676
  774MPD2    H711484   2.542   0.375  13.194  0.2574 -0.1065 -0.0939
  775MPD2     C11485   3.775   2.155  15.872  0.2130  0.1362 -0.5911
  775MPD2    C111486   3.870   2.077  15.924  0.5453 -0.1207 -0.0428
  775MPD2    C211487   4.006   2.095  15.889 -0.0793  0.0606 -0.0047
  775MPD2    C311488   4.036   2.183  15.795 -0.0078 -0.7867 -0.3257
  775MPD2    C411489   3.935   2.252  15.729  0.4105  0.1432  0.1229
  775MPD2    C511490   3.803   2.242  15.771 -0.3325  0.1066 -0.3181
  775MPD2     H11491   4.082   2.036  15.937  0.3776  2.5497  2.3656
  775MPD2    H111492   3.963   2.316  15.646  1.1065  2.2679  2.0058
  775MPD2    H211493   3.670   2.149  15.897  0.2387 -0.5849 -0.6612
  775MPD2    H311494   3.729   2.292  15.710  0.0006  1.8808  0.7310
  775MPD2     N11495   4.173   2.195  15.749 -0.1569 -0.3536 -0.1490
  775MPD2    H511496   4.188   2.263  15.675 -1.7313  0.1039 -0.0474
  775MPD2    N111497   3.820   1.997  16.031  0.2094  0.6437 -0.1312
  775MPD2    H711498   3.726   2.015  16.064 -0.3272 -0.6049 -0.9587
  776MPD2     C11499   2.380   2.623  11.916  0.1874  0.3177 -0.2769
  776MPD2    C111500   2.514   2.596  11.919 -0.1371  0.0738 -0.1509
  776MPD2    C211501   2.597   2.648  11.816 -1.0455  0.6270 -0.3168
  776MPD2    C311502   2.539   2.728  11.717  0.2548  0.6297  0.5192
  776MPD2    C411503   2.401   2.749  11.711 -0.1210  0.2697  0.9563
  776MPD2    C511504   2.325   2.699  11.819 -0.1327 -0.0437 -1.0179
  776MPD2     H11505   2.700   2.623  11.795 -1.0591 -1.3408  1.9492
  776MPD2    H111506   2.350   2.790  11.625  2.2277  0.7249 -0.2195
  776MPD2    H211507   2.314   2.576  11.988  1.7374 -0.6562  0.5034
  776MPD2    H311508   2.220   2.724  11.823  0.1564  1.0454 -0.3131
  776MPD2     N11509   2.618   2.779  11.611 -0.5334  1.0068 -0.3910
  776MPD2    H511510   2.569   2.842  11.548 -0.3627  0.9846 -0.5475
  776MPD2    N111511   2.558   2.503  12.023 -0.2628 -1.0485  0.7584
  776MPD2    H711512   2.491   2.459  12.085 -0.0032 -1.7053  0.5672
  777MPD2     C11513   3.369   4.169   0.409 -0.5347 -0.1999 -0.4485
  777MPD2    C111514   3.283   4.103   0.495 -0.0429 -0.2356  0.8052
  777MPD2    C211515   3.218   3.981   0.460  0.0806  0.7447 -0.0836
  777MPD2    C311516   3.225   3.934   0.329  0.1461  0.2330 -0.4249
  777MPD2    C411517   3.306   4.010   0.241  0.3576  0.2419 -0.4591
  777MPD2    C511518   3.375   4.121   0.281  0.3807  0.3084 -0.3457
  777MPD2     H11519   3.170   3.919   0.534 -3.0120  0.6396 -2.2065
  777MPD2    H111520   3.317   3.984   0.137 -0.2264 -0.9080 -0.2392
  777MPD2    H211521   3.406   4.268   0.433  0.0909 -0.5888  0.1729
  777MPD2    H311522   3.438   4.176   0.212  0.7679  1.8487  1.2214
  777MPD2     N11523   3.170   3.804   0.307 -0.1321  0.0401  0.4465
  777MPD2    H511524   3.110   3.770   0.382 -1.2229  1.5704  0.2798
  777MPD2    N111525   3.286   4.157   0.625  0.6270  0.5063  0.3662
  777MPD2    H711526   3.355   4.229   0.644 -0.4907  1.9252 -0.9011
  778MPD2     C11527   4.534   4.276  15.219  0.7148  0.1669  0.1624
  778MPD2    C111528   4.503   4.224  15.095 -0.2746  0.3321  0.1423
  778MPD2    C211529   4.556   4.293  14.987  0.3745 -0.2123  0.0971
  778MPD2    C311530   4.646   4.396  15.003 -0.1046 -0.0275 -0.6701
  778MPD2    C411531   4.684   4.434  15.124 -0.3987 -0.2952 -0.1502
  778MPD2    C511532   4.619   4.379  15.230  0.4287 -0.1668 -0.1899
  778MPD2     H11533   4.525   4.267  14.887 -1.3489 -1.1398  0.8745
  778MPD2    H111534   0.005   4.523  15.132 -2.4778  1.1372 -0.1591
  778MPD2    H211535   4.491   4.232  15.309  0.0747  0.4282 -0.0154
  778MPD2    H311536   4.646   4.422  15.326  2.1281 -3.0234  0.6333
  778MPD2     N11537   4.690   4.464  14.891 -0.3083 -0.7179  0.0487
  778MPD2    H511538   4.644   4.443  14.803  0.6607  2.6256 -1.2790
  778MPD2    N111539   4.418   4.119  15.073  0.4700  0.1753  0.2397
  778MPD2    H711540   4.401   4.076  14.983 -1.2716 -0.6409  0.9638
  779MPD2     C11541   3.878   3.229  14.596  0.3973 -0.2051 -0.3725
  779MPD2    C111542   4.012   3.223  14.622  0.3061  1.3159  0.1740
  779MPD2    C211543   4.094   3.333  14.601  0.2786 -0.5772 -0.9376
  779MPD2    C311544   4.038   3.451  14.549 -0.1127  0.2459  0.0616
  779MPD2    C411545   3.904   3.454  14.521 -0.6091 -0.1951  0.1629
  779MPD2    C511546   3.822   3.351  14.557  0.8084  0.7282 -0.2190
  779MPD2     H11547   4.202   3.322  14.601  0.3703  0.4845  3.0291
  779MPD2    H111548   3.857   3.537  14.468 -1.8274 -1.6743 -1.0837
  779MPD2    H211549   3.806   3.151  14.614 -1.2063  0.9630 -1.7645
  779MPD2    H311550   3.716   3.367  14.541  0.4258 -1.3270  0.2872
  779MPD2     N11551   4.103   3.567  14.519  0.7227 -0.1470  0.0477
  779MPD2    H511552   4.035   3.638  14.493 -0.5289 -0.9851  1.0003
  779MPD2    N111553   4.071   3.106  14.668 -0.4593 -0.0254 -0.4885
  779MPD2    H711554   4.172   3.107  14.672 -0.4597 -2.4888 -0.1571
  780MPD2     C11555   3.907   3.409   1.261 -1.0046 -0.1801  0.1518
  780MPD2    C111556   3.828   3.368   1.162  0.6912 -0.2322 -0.4732
  780MPD2    C211557   3.865   3.403   1.028 -0.7417  0.1838  0.0054
  780MPD2    C311558   3.982   3.472   1.001 -0.5236  0.1379 -0.3546
  780MPD2    C411559   4.066   3.505   1.107  0.4153  0.0355 -0.5280
  780MPD2    C511560   4.020   3.484   1.232 -0.0330  0.0761  0.0919
  780MPD2     H11561   3.797   3.385   0.946 -0.9853 -1.5788  0.6022
  780MPD2    H111562   4.150   3.572   1.093  1.6624 -1.4940 -0.2894
  780MPD2    H211563   3.898   3.365   1.359  0.3772 -0.0386  0.3453
  780MPD2    H311564   4.078   3.512   1.319 -3.2891  2.0802  1.6047
  780MPD2     N11565   4.009   3.504   0.863  0.4528  0.4063 -0.3621
  780MPD2    H511566   3.944   3.466   0.795  2.8651 -1.1875 -1.7693
  780MPD2    N111567   3.718   3.291   1.196  0.2249  0.4268 -0.7805
  780MPD2    H711568   3.706   3.263   1.293  1.9784  1.9674 -0.1041
  781MPD2     C11569   4.466   0.429  12.311 -0.0575 -0.7606  0.1958
  781MPD2    C111570   4.598   0.411  12.284 -0.1508 -0.7560  0.1840
  781MPD2    C211571   4.650   0.455  12.163  0.2087 -0.8636 -0.2763
  781MPD2    C311572   4.577   0.522  12.066 -0.4605  0.5487  0.1091
  781MPD2    C411573   4.443   0.518  12.093  0.1875  0.9036  0.1979
  781MPD2    C511574   4.391   0.486  12.217 -0.4628  0.3123  0.0933
  781MPD2     H11575   0.012   0.437  12.136  0.5878 -0.5013  0.9426
  781MPD2    H111576   4.367   0.536  12.018  0.6843  0.9232 -0.2978
  781MPD2    H211577   4.424   0.402  12.407  0.3191  1.6381  1.0324
  781MPD2    H311578   4.283   0.484  12.227 -0.4275 -0.2554  0.3184
  781MPD2     N11579   4.627   0.586  11.948 -0.1167 -0.0830 -0.3490
  781MPD2    H511580   4.570   0.648  11.893 -0.9407  0.4912  1.1601
  781MPD2    N111581   4.674   0.341  12.381 -0.1482  0.0899 -0.4501
  781MPD2    H711582   4.625   0.291  12.454 -0.8100 -0.1784 -1.0705
  782MPD2     C11583   2.892   1.195  10.651  0.4680 -0.3280  0.6878
  782MPD2    C111584   3.021   1.198  10.699  0.1087 -0.0083  0.5131
  782MPD2    C211585   3.093   1.310  10.696 -0.1881 -0.6383 -0.1454
  782MPD2    C311586   3.032   1.422  10.643  0.6603  0.4002 -0.5737
  782MPD2    C411587   2.908   1.416  10.579 -0.7598  0.2612 -0.2687
  782MPD2    C511588   2.836   1.303  10.592 -0.7782  0.6778 -0.1263
  782MPD2     H11589   3.192   1.314  10.740  0.2966 -1.2013 -1.1815
  782MPD2    H111590   2.859   1.500  10.530 -0.3383  0.6062 -0.1031
  782MPD2    H211591   2.832   1.108  10.674  0.2817  0.1753  2.1269
  782MPD2    H311592   2.742   1.294  10.539 -1.2974 -1.9529  1.2753
  782MPD2     N11593   3.120   1.533  10.647 -0.4737  0.0972  0.1079
  782MPD2    H511594   3.206   1.524  10.700 -1.9641  0.8863  2.6735
  782MPD2    N111595   3.086   1.085  10.752  0.3686  0.2614  0.1293
  782MPD2    H711596   3.180   1.094  10.791  0.0306  1.2160  0.7451
  783MPD2     C11597   2.887   0.993  11.609 -0.1450  0.3269  0.1288
  783MPD2    C111598   2.998   1.061  11.558  0.6674 -0.0703 -0.7346
  783MPD2    C211599   3.071   1.001  11.451  0.2765 -0.1564 -0.5166
  783MPD2    C311600   3.027   0.885  11.391 -0.1061 -0.0661  0.4399
  783MPD2    C411601   2.916   0.824  11.441  0.3614  0.4481 -0.3292
  783MPD2    C511602   2.848   0.875  11.548  0.1428 -0.2106 -0.3226
  783MPD2     H11603   3.162   1.049  11.419 -0.6427  0.9332 -1.4948
  783MPD2    H111604   2.871   0.729  11.413  0.2830  0.0856  1.0278
  783MPD2    H211605   2.827   1.034  11.689 -0.3069  1.7116 -0.7162
  783MPD2    H311606   2.758   0.824  11.580 -0.7075  0.8503 -0.9819
  783MPD2     N11607   3.094   0.831  11.274  0.8408 -0.2614 -0.0719
  783MPD2    H511608   3.181   0.871  11.241  0.8728 -2.5207 -2.6650
  783MPD2    N111609   3.042   1.179  11.621  0.3148  0.2551  0.0364
  783MPD2    H711610   2.979   1.202  11.698  0.0373  1.5223 -0.5751
  784MPD2     C11611   1.080   1.353   0.625 -0.0389  0.1322  0.1896
  784MPD2    C111612   1.144   1.460   0.687 -0.6912 -0.1265 -0.2010
  784MPD2    C211613   1.098   1.584   0.675  0.2563  0.0492  0.2599
  784MPD2    C311614   0.979   1.610   0.609  0.1585 -1.4551  0.2629
  784MPD2    C411615   0.900   1.497   0.564  0.2678 -0.9922 -0.1284
  784MPD2    C511616   0.950   1.369   0.576 -0.6968 -0.3164 -0.3197
  784MPD2     H11617   1.144   1.673   0.717 -0.3985  1.1119 -1.2394
  784MPD2    H111618   0.797   1.511   0.534  0.4078  2.1209  0.8476
  784MPD2    H211619   1.107   1.250   0.645 -0.2691  0.4968  2.3889
  784MPD2    H311620   0.897   1.280   0.544  2.1134 -2.3354  0.6530
  784MPD2     N11621   0.925   1.739   0.610  0.2199 -0.3519 -0.2539
  784MPD2    H511622   0.972   1.815   0.658 -1.7444  1.0195 -0.4887
  784MPD2    N111623   1.260   1.440   0.758  0.0742  0.1143  0.0675
  784MPD2    H711624   1.316   1.523   0.776 -3.4498  2.3486  0.8590
  785MPD2     C11625   1.361   4.394  11.493 -0.3279 -0.1484  0.2158
  785MPD2    C111626   1.269   4.503  11.495 -0.5777 -0.0307 -0.4969
  785MPD2    C211627   1.167   4.497  11.399 -0.6467  0.2112  0.2496
  785MPD2    C311628   1.150   4.390  11.311  0.6884 -0.2346 -0.3335
  785MPD2    C411629   1.244   4.289  11.307 -0.0224 -0.6641 -0.7389
  785MPD2    C511630   1.348   4.292  11.397  0.8867  0.0905 -0.3530
  785MPD2     H11631   1.100   4.582  11.405 -0.2830  0.7897 -3.9541
  785MPD2    H111632   1.238   4.199  11.247 -2.2093 -0.8839 -0.1660
  785MPD2    H211633   1.445   4.391  11.562 -0.8896 -1.0306  0.8456
  785MPD2    H311634   1.417   4.208  11.400  0.6256 -0.1543 -1.3388
  785MPD2     N11635   1.044   4.389  11.220  0.2541 -0.2621 -0.1674
  785MPD2    H511636   0.984   4.471  11.221  0.3810 -0.1634 -0.7716
  785MPD2    N111637   1.295   4.623  11.573 -0.1835  0.5934  0.0476
  785MPD2    H711638   1.386   4.638  11.614 -0.4500  0.2094  0.7807
  786MPD2     C11639   4.691   3.079  14.337 -0.7043  0.0770  0.4440
  786MPD2    C111640   4.714   2.958  14.409  0.1466 -0.4904  0.2065
  786MPD2    C211641   0.073   2.954  14.497  0.0025 -0.0487  0.2249
  786MPD2    C311642   0.159   3.063  14.522  0.2313  0.5664  0.1885
  786MPD2    C411643   0.143   3.179  14.448  0.4407  0.3732  1.1143
  786MPD2    C511644   0.041   3.183  14.356 -0.5288  0.2323  0.0389
  786MPD2     H11645   0.086   2.861  14.551 -1.6181 -0.6943 -0.5104
  786MPD2    H111646   0.211   3.263  14.459  1.0880  0.3024 -2.2174
  786MPD2    H211647   4.621   3.098  14.257  0.1693  0.3878 -0.2454
  786MPD2    H311648   0.033   3.275  14.299  0.2541  0.7030  0.6828
  786MPD2     N11649   0.270   3.056  14.614  0.2570 -0.2134  0.2292
  786MPD2    H511650   0.320   3.143  14.630 -2.2067  0.9347  1.7671
  786MPD2    N111651   4.627   2.845  14.394 -0.0680  0.4622  0.2603
  786MPD2    H711652   4.655   2.771  14.458 -1.2377  0.1454  0.4032
  787MPD2     C11653   0.221   2.341  14.336 -0.6669 -0.1435  0.2365
  787MPD2    C111654   0.093   2.293  14.322  0.1460 -0.5910  0.1149
  787MPD2    C211655   0.080   2.163  14.272 -0.1491  0.2472 -0.3703
  787MPD2    C311656   0.193   2.095  14.235  0.1311 -0.0223 -0.1367
  787MPD2    C411657   0.322   2.137  14.261  0.1851  0.3550 -0.8596
  787MPD2    C511658   0.332   2.263  14.307 -0.0096 -0.4853 -0.3864
  787MPD2     H11659   4.724   2.125  14.241  0.5444 -0.1219 -2.0437
  787MPD2    H111660   0.405   2.067  14.257  0.6592  0.9239 -0.8581
  787MPD2    H211661   0.247   2.439  14.374  0.5053 -0.2746 -0.2243
  787MPD2    H311662   0.424   2.308  14.343  0.2316 -0.6339 -0.8148
  787MPD2     N11663   0.163   1.977  14.159  0.1723  0.1678  0.0162
  787MPD2    H511664   0.069   1.940  14.163  0.6082 -0.7966  1.2550
  787MPD2    N111665   4.728   2.388  14.343 -0.7716 -0.1310 -0.2006
  787MPD2    H711666   0.017   2.482  14.366  3.8481 -1.8107  0.5797
  788MPD2     C11667   1.511   0.971   0.615 -0.9499 -0.9563  0.2736
  788MPD2    C111668   1.609   1.046   0.559  0.0961  0.4762  0.0547
  788MPD2    C211669   1.576   1.170   0.511 -0.4977 -0.3387  0.8213
  788MPD2    C311670   1.444   1.211   0.496  0.4909 -0.8676  0.7989
  788MPD2    C411671   1.347   1.120   0.528  0.3900 -0.1173  0.1865
  788MPD2    C511672   1.380   1.010   0.597 -0.3265 -0.5115  0.1283
  788MPD2     H11673   1.657   1.232   0.475 -2.0832  2.0956  1.4607
  788MPD2    H111674   1.245   1.137   0.498 -0.3120 -1.4645  1.8461
  788MPD2    H211675   1.531   0.874   0.661 -0.2773 -1.3203 -0.7909
  788MPD2    H311676   1.307   0.931   0.613  1.7341 -2.2020  1.2120
  788MPD2     N11677   1.404   1.326   0.424  0.1557  0.1424 -0.1269
  788MPD2    H511678   1.313   1.315   0.381 -0.0455  0.8715  0.1167
  788MPD2    N111679   1.743   1.011   0.558 -0.2042  0.4599 -0.1090
  788MPD2    H711680   1.797   1.084   0.513  0.7003 -0.0148  0.2023
  789MPD2     C11681   2.349   0.744  16.173  0.2734 -0.5007  0.0732
  789MPD2    C111682   2.243   0.697  16.254 -0.2711 -0.0259 -0.2638
  789MPD2    C211683   2.140   0.786  16.286  0.4876 -0.2454  1.2069
  789MPD2    C311684   2.145   0.921  16.249 -0.2835 -0.3862 -0.7745
  789MPD2    C411685   2.253   0.963  16.171 -0.5429 -0.7253 -0.1133
  789MPD2    C511686   2.356   0.879  16.137  0.6017 -0.5201 -0.1708
  789MPD2     H11687   2.058   0.752  16.348  1.1508 -0.7194  1.8243
  789MPD2    H111688   2.255   1.068  16.142  1.1412 -0.3944  1.1343
  789MPD2    H211689   2.438   0.692  16.139 -0.2782 -1.0828 -0.4865
  789MPD2    H311690   2.434   0.924  16.076  1.1606 -1.7431 -0.3637
  789MPD2     N11691   2.047   1.012  16.288  1.1950  0.0485 -0.2083
  789MPD2    H511692   2.052   1.107  16.254 -1.9609  0.3367  0.1417
  789MPD2    N111693   2.243   0.576  16.325  0.7017  0.5644  0.4793
  789MPD2    H711694   2.160   0.557  16.380 -0.1354  1.5688 -0.4194
  790MPD2     C11695   3.171   1.465  13.591  0.1366 -0.0784 -0.1781
  790MPD2    C111696   3.081   1.558  13.634  0.5828  0.5278 -0.0488
  790MPD2    C211697   2.986   1.592  13.540 -0.2466 -0.4952 -0.1709
  790MPD2    C311698   2.980   1.535  13.413  0.0879  0.1064  0.7805
  790MPD2    C411699   3.076   1.447  13.366 -0.7783  0.4127 -0.0794
  790MPD2    C511700   3.172   1.408  13.458 -0.4636 -0.5145 -0.5385
  790MPD2     H11701   2.914   1.667  13.570 -0.2696 -0.5801 -0.0158
  790MPD2    H111702   3.083   1.404  13.267 -1.8880  1.9026 -0.8012
  790MPD2    H211703   3.240   1.427  13.665  1.7198 -0.5403 -1.8884
  790MPD2    H311704   3.242   1.327  13.439  0.8271  0.1521  1.3612
  790MPD2     N11705   2.884   1.594  13.332  0.5444 -0.2659 -0.1824
  790MPD2    H511706   2.818   1.660  13.370 -0.8575 -2.3910  1.0653
  790MPD2    N111707   3.087   1.630  13.757 -0.1628  0.6028  0.1334
  790MPD2    H711708   3.020   1.705  13.772  0.1159  0.8242  0.2800
  791MPD2     C11709   2.257   2.074  13.040  0.0825  0.1927 -0.2946
  791MPD2    C111710   2.285   1.940  13.038 -0.5859  0.5518 -0.2016
  791MPD2    C211711   2.190   1.843  13.001 -0.1383 -0.0061  0.0995
  791MPD2    C311712   2.062   1.887  12.970  0.6489 -0.9522  0.4775
  791MPD2    C411713   2.038   2.021  12.971 -0.3602  0.5365 -0.1367
  791MPD2    C511714   2.130   2.115  12.997  0.2513  0.1052 -0.1717
  791MPD2     H11715   2.208   1.736  12.990  2.6842  0.4683 -0.0190
  791MPD2    H111716   1.939   2.055  12.945 -0.5194 -1.9210 -2.6798
  791MPD2    H211717   2.335   2.148  13.056  1.5972 -1.2348 -1.1084
  791MPD2    H311718   2.104   2.220  12.990 -1.4248 -0.4909 -2.8907
  791MPD2     N11719   1.965   1.790  12.920  0.3009  0.1058 -0.3055
  791MPD2    H511720   2.009   1.699  12.927  1.0571  0.4550 -0.6719
  791MPD2    N111721   2.416   1.897  13.081 -0.0191 -0.1034 -0.0710
  791MPD2    H711722   2.485   1.968  13.102 -0.9758  0.3722  1.4880
  792MPD2     C11723   3.307   2.331  11.380  0.3766 -0.7326  0.3387
  792MPD2    C111724   3.209   2.400  11.296 -0.1477 -0.1105 -0.2414
  792MPD2    C211725   3.085   2.417  11.351  0.3949 -0.2036  0.3892
  792MPD2    C311726   3.052   2.373  11.475  0.2951  0.1011  0.1723
  792MPD2    C411727   3.150   2.320  11.559  0.9134 -0.5145  0.7175
  792MPD2    C511728   3.275   2.304  11.512  0.0108  0.1079  0.0309
  792MPD2     H11729   3.010   2.472  11.295  2.5438  0.7889 -1.5112
  792MPD2    H111730   3.127   2.297  11.662  2.8285 -1.1031  1.0174
  792MPD2    H211731   3.407   2.311  11.345  0.9642  0.0068  1.6183
  792MPD2    H311732   3.342   2.245  11.574 -0.8818 -1.5359 -0.5761
  792MPD2     N11733   2.929   2.392  11.537  1.2664  0.4456 -0.2958
  792MPD2    H511734   2.919   2.357  11.632 -2.1011  0.1053 -0.7669
  792MPD2    N111735   3.260   2.444  11.173  0.0421 -0.4295  0.5795
  792MPD2    H711736   3.360   2.428  11.168 -0.0765 -1.2752  0.8539
  793MPD2     C11737   2.225   2.017  11.034 -0.1038 -0.4249  0.5499
  793MPD2    C111738   2.362   2.028  11.045 -1.0022  0.4465  0.7665
  793MPD2    C211739   2.429   2.088  11.151  0.1573  0.3094  0.5391
  793MPD2    C311740   2.352   2.147  11.252  0.5807 -0.6254  0.1542
  793MPD2    C411741   2.212   2.149  11.238 -0.4474 -0.4528 -0.3080
  793MPD2    C511742   2.153   2.070  11.139  0.7075 -1.0396  0.1201
  793MPD2     H11743   2.537   2.081  11.152  0.0404 -1.2890  1.0966
  793MPD2    H111744   2.149   2.194  11.314 -0.5526  0.1688 -0.7598
  793MPD2    H211745   2.180   1.952  10.959  0.1901 -1.4636  1.2781
  793MPD2    H311746   2.046   2.060  11.145  0.5038  0.9975 -0.2453
  793MPD2     N11747   2.424   2.221  11.345  0.0149 -0.0614 -0.5127
  793MPD2    H511748   2.525   2.212  11.347  0.2836  2.5187 -2.9647
  793MPD2    N111749   2.438   1.976  10.937 -0.9720 -0.2646  0.3871
  793MPD2    H711750   2.536   1.963  10.961 -1.1607 -3.6063 -0.6641
  794MPD2     C11751   2.999   1.725  17.720 -0.2701 -0.2906  0.2585
  794MPD2    C111752   3.007   1.612  17.640  0.2148 -0.0222  0.0071
  794MPD2    C211753   3.046   1.621  17.511  0.1155  0.4634 -0.5375
  794MPD2    C311754   3.075   1.741  17.452 -0.2991 -0.4353  0.4120
  794MPD2    C411755   3.051   1.860  17.525  0.5215 -0.4248 -0.1209
  794MPD2    C511756   3.023   1.852  17.659 -0.1807 -0.0923  0.8344
  794MPD2     H11757   3.031   1.535  17.447  1.3003  2.0742 -2.9806
  794MPD2    H111758   3.068   1.958  17.481 -0.2677 -1.0426 -1.7912
  794MPD2    H211759   2.978   1.727   0.066 -1.5127 -0.4541  0.0194
  794MPD2    H311760   3.033   1.945  17.715  1.2606 -1.0992  2.2367
  794MPD2     N11761   3.081   1.766  17.315  0.2602  0.1501 -0.6836
  794MPD2    H511762   3.072   1.860  17.278 -0.9887  0.3713  0.1785
  794MPD2    N111763   2.983   1.481  17.692 -0.1132 -0.0683 -0.2336
  794MPD2    H711764   3.005   1.401  17.634 -2.8120 -0.7461 -0.3348
  795MPD2     C11765   0.360   3.710  13.797 -0.2347  0.4593 -0.0659
  795MPD2    C111766   0.322   3.594  13.731 -0.6877  0.1415  0.1957
  795MPD2    C211767   0.413   3.490  13.731  0.2525  0.7032  0.0075
  795MPD2    C311768   0.539   3.508  13.785  0.5133 -0.6723  0.1394
  795MPD2    C411769   0.565   3.616  13.870 -0.4990  0.0277  0.3155
  795MPD2    C511770   0.470   3.712  13.873 -0.5944 -0.7934 -0.2124
  795MPD2     H11771   0.394   3.400  13.674  0.9036  0.4340  0.2159
  795MPD2    H111772   0.657   3.635  13.923 -0.8606  1.3671  0.4716
  795MPD2    H211773   0.302   3.801  13.806 -2.3844 -0.8666 -0.4459
  795MPD2    H311774   0.486   3.803  13.930  0.7450 -0.3173 -1.3496
  795MPD2     N11775   0.623   3.403  13.773 -0.1729 -0.5699  0.0208
  795MPD2    H511776   0.591   3.312  13.741 -0.1129 -1.4109  2.3608
  795MPD2    N111777   0.194   3.595  13.660 -0.6692  0.1737  0.5098
  795MPD2    H711778   0.155   3.510  13.619 -0.6637  0.2846  0.2774
  796MPD2     C11779   0.381   0.605  15.581 -0.3507  0.5983 -0.1056
  796MPD2    C111780   0.457   0.699  15.647  0.1771  0.6588 -0.5380
  796MPD2    C211781   0.416   0.833  15.649 -0.1617  0.4168  0.5965
  796MPD2    C311782   0.293   0.865  15.598  0.4926  0.1596  0.5518
  796MPD2    C411783   0.214   0.770  15.536  0.5998 -0.6217  0.0253
  796MPD2    C511784   0.263   0.643  15.526  0.4039 -0.2806  0.8597
  796MPD2     H11785   0.468   0.898  15.718  0.6517  1.5507 -1.0908
  796MPD2    H111786   0.116   0.794  15.495  1.1857 -0.9683 -1.6014
  796MPD2    H211787   0.403   0.501  15.599 -0.6737  0.3120 -1.3579
  796MPD2    H311788   0.202   0.561  15.489 -0.8966  2.5026 -3.2094
  796MPD2     N11789   0.244   0.997  15.626  0.7773 -0.0217 -0.0813
  796MPD2    H511790   0.314   1.062  15.659 -0.2238  2.8946 -3.6783
  796MPD2    N111791   0.566   0.636  15.714 -0.2893 -0.2492  0.4307
  796MPD2    H711792   0.566   0.535  15.718  0.4927 -0.3343 -1.7306
  797MPD2     C11793   1.668   0.289  17.242  0.1226  0.1931  0.2134
  797MPD2    C111794   1.757   0.390  17.217 -0.7443  0.1285  0.6444
  797MPD2    C211795   1.718   0.505  17.144  0.1421 -0.1761 -1.1061
  797MPD2    C311796   1.586   0.522  17.101  0.0473 -0.4726 -0.1699
  797MPD2    C411797   1.491   0.423  17.136 -1.0523 -0.1796 -0.1620
  797MPD2    C511798   1.535   0.317  17.219  0.2159 -0.1196  0.2398
  797MPD2     H11799   1.787   0.585  17.120  0.5571  0.2059  1.3588
  797MPD2    H111800   1.386   0.428  17.111 -1.4722 -0.0031  1.6222
  797MPD2    H211801   1.688   0.193  17.288 -2.8485 -1.3019 -1.6189
  797MPD2    H311802   1.476   0.231  17.245  1.3779 -1.8258 -2.7682
  797MPD2     N11803   1.560   0.626  17.005 -0.4020  0.0648  0.0994
  797MPD2    H511804   1.647   0.674  16.982 -0.8610 -0.5471 -2.8966
  797MPD2    N111805   1.899   0.371  17.246  0.2087 -0.3001 -0.4027
  797MPD2    H711806   1.962   0.439  17.204  0.7609 -1.1474 -0.9578
  798MPD2     C11807   2.165   0.751  16.659 -0.4034 -0.7756  0.3439
  798MPD2    C111808   2.062   0.718  16.744 -0.0757 -0.0650 -0.0717
  798MPD2    C211809   2.083   0.641  16.859 -0.3195 -0.6044  0.2922
  798MPD2    C311810   2.201   0.585  16.884  0.2026 -0.4182 -0.1501
  798MPD2    C411811   2.303   0.609  16.790  0.2183  0.1508 -0.3967
  798MPD2    C511812   2.285   0.692  16.687 -0.1824  0.4308 -0.4790
  798MPD2     H11813   2.010   0.630  16.939 -0.8983 -0.3456 -0.1995
  798MPD2    H111814   2.396   0.553  16.800 -0.0070 -0.4353 -1.6137
  798MPD2    H211815   2.153   0.803  16.564  0.9712 -3.0064 -1.0477
  798MPD2    H311816   2.356   0.691  16.605 -0.7422 -1.9234 -0.9432
  798MPD2     N11817   2.212   0.495  16.994  0.0872 -0.5502 -0.1550
  798MPD2    H511818   2.143   0.489  17.068 -0.0881 -0.4899 -0.3134
  798MPD2    N111819   1.932   0.775  16.714 -0.1445  0.6064  0.1217
  798MPD2    H711820   1.914   0.821  16.625 -1.1232 -0.3707 -0.1873
  799MPD2     C11821   4.432   1.671  14.026  0.3045 -0.5176  0.1998
  799MPD2    C111822   4.504   1.571  13.966 -0.0218 -0.3168 -0.0825
  799MPD2    C211823   4.585   1.593  13.857  0.4240  0.5897 -0.3566
  799MPD2    C311824   4.596   1.722  13.809 -0.0261 -0.1159 -0.8129
  799MPD2    C411825   4.542   1.829  13.870 -0.6187 -0.5693  0.0253
  799MPD2    C511826   4.448   1.799  13.971 -0.0555  0.5428  1.0319
  799MPD2     H11827   4.632   1.504  13.815 -2.2147  0.2948 -2.6590
  799MPD2    H111828   4.560   1.933  13.846 -1.0704 -0.1869  1.3589
  799MPD2    H211829   4.363   1.658  14.108 -0.7277  1.9595 -0.2845
  799MPD2    H311830   4.387   1.882  14.004  1.3667  2.3366 -0.8879
  799MPD2     N11831   4.679   1.748  13.697 -0.1162  0.1726 -0.5923
  799MPD2    H511832   4.704   1.846  13.687 -2.5071  0.8025 -0.3295
  799MPD2    N111833   4.490   1.432  14.012 -0.9254 -0.0341  1.2938
  799MPD2    H711834   4.552   1.363  13.973 -2.5175 -0.7503  0.0470
  800MPD2     C11835   0.110   2.728  14.146  0.3762 -0.0155  0.3279
  800MPD2    C111836   0.236   2.686  14.145 -0.0862  0.1109 -0.3036
  800MPD2    C211837   0.273   2.567  14.082 -0.4856 -0.4770 -0.3346
  800MPD2    C311838   0.176   2.482  14.036  0.2742 -0.1624  0.6041
  800MPD2    C411839   0.046   2.526  14.036  0.1154 -0.5020 -0.2099
  800MPD2    C511840   0.012   2.653  14.084  0.9858 -0.2559 -0.2889
  800MPD2     H11841   0.378   2.539  14.076 -1.3274 -3.8723  0.7846
  800MPD2    H111842   4.715   2.463  13.985 -0.0929  0.6950 -1.3992
  800MPD2    H211843   0.095   2.830  14.180  0.0798  1.0567 -3.0582
  800MPD2    H311844   4.650   2.687  14.083  0.6473 -1.2907 -0.8504
  800MPD2     N11845   0.218   2.358  13.983  0.1921 -0.3886  0.0579
  800MPD2    H511846   0.318   2.342  13.984  0.0109 -1.6816 -3.8314
  800MPD2    N111847   0.331   2.775  14.194 -0.6703 -0.0955  0.1807
  800MPD2    H711848   0.308   2.872  14.213 -0.9604 -0.0385 -0.4978
  801MPD2     C11849   0.543   3.486  14.202 -0.4966 -0.5053 -0.1685
  801MPD2    C111850   0.562   3.416  14.317 -0.4063  0.4094  0.2084
  801MPD2    C211851   0.550   3.468  14.444  0.3799 -0.2342  0.1845
  801MPD2    C311852   0.501   3.598  14.456 -0.0842 -0.6424  0.5115
  801MPD2    C411853   0.486   3.670  14.338 -0.4108  0.0580  0.5108
  801MPD2    C511854   0.506   3.616  14.219 -0.5225  0.2406 -0.2985
  801MPD2     H11855   0.563   3.408  14.533  1.1580 -1.4325 -0.7489
  801MPD2    H111856   0.440   3.768  14.345 -2.1228 -0.6442 -0.9924
  801MPD2    H211857   0.575   3.467  14.100  0.7682 -1.3016  0.3834
  801MPD2    H311858   0.471   3.675  14.134  1.7323  0.9710 -0.7138
  801MPD2     N11859   0.456   3.660  14.574 -0.4705 -0.8461  0.5283
  801MPD2    H511860   0.413   3.752  14.571 -1.4377 -1.2488  2.7637
  801MPD2    N111861   0.599   3.284  14.309  0.7540  0.4748  0.3575
  801MPD2    H711862   0.646   3.235  14.384 -0.6630  1.1083  1.6479
  802MPD2     C11863   0.451   4.137  17.550 -0.3358 -0.0718  0.1603
  802MPD2    C111864   0.333   4.085  17.597 -0.4142  0.0292  0.1915
  802MPD2    C211865   0.318   3.945  17.588 -0.1892  0.0863  0.0740
  802MPD2    C311866   0.400   3.864  17.511  0.0474 -0.5235  1.0346
  802MPD2    C411867   0.510   3.922  17.457  0.8418  0.5324  0.5944
  802MPD2    C511868   0.532   4.053  17.480 -0.0345 -0.0784  0.1386
  802MPD2     H11869   0.225   3.914  17.634 -0.9366  0.5114 -1.1432
  802MPD2    H111870   0.574   3.874  17.383 -3.5212 -1.6098 -1.7804
  802MPD2    H211871   0.471   4.244  17.553  2.0215 -0.5692  1.8652
  802MPD2    H311872   0.609   4.101  17.421  0.0125  0.9419  1.0072
  802MPD2     N11873   0.367   3.726  17.503  0.2324 -0.0695  0.7434
  802MPD2    H511874   0.279   3.706  17.549  1.3354 -2.0900  1.9563
  802MPD2    N111875   0.230   4.152  17.666  0.2379 -0.2482  0.5117
  802MPD2    H711876   0.163   4.091  17.711  1.6919 -0.8548  1.8809
  803MPD2     C11877   0.469   1.727  12.058  0.3441 -0.2576  0.1724
  803MPD2    C111878   0.480   1.855  12.111  0.2841 -0.3169 -0.2914
  803MPD2    C211879   0.491   1.869  12.248 -0.3982 -0.3707 -0.6029
  803MPD2    C311880   0.478   1.765  12.339  0.1649 -0.8995 -0.3491
  803MPD2    C411881   0.463   1.634  12.286  0.1005  0.7916 -0.7624
  803MPD2    C511882   0.462   1.615  12.147 -0.1771  0.1397  0.1000
  803MPD2     H11883   0.503   1.969  12.287  1.2791 -1.0960  0.7831
  803MPD2    H111884   0.452   1.541  12.339 -0.2730  1.2924  0.0382
  803MPD2    H211885   0.478   1.714  11.951 -0.2384 -3.2136  0.4925
  803MPD2    H311886   0.447   1.511  12.120  1.3269  0.2588 -1.2177
  803MPD2     N11887   0.490   1.779  12.477 -0.2436 -0.1630 -0.3172
  803MPD2    H511888   0.498   1.693  12.529 -2.7163 -0.1992  0.0220
  803MPD2    N111889   0.514   1.970  12.037  0.9401  0.4634 -0.1745
  803MPD2    H711890   0.545   2.047  12.096  0.6643  2.0550 -2.0917
  804MPD2     C11891   1.133   3.511  16.986  0.0968  0.2763  1.1932
  804MPD2    C111892   1.150   3.474  17.114  0.8288  0.6879 -0.1233
  804MPD2    C211893   1.247   3.540  17.183 -0.0716 -0.2280  0.0806
  804MPD2    C311894   1.324   3.642  17.130  0.3401 -0.0721  0.0683
  804MPD2    C411895   1.309   3.671  16.998 -0.1935  0.1142  0.4065
  804MPD2    C511896   1.209   3.614  16.928 -0.4826  1.1252 -0.0936
  804MPD2     H11897   1.258   3.509  17.286  1.4126 -1.4935 -0.4549
  804MPD2    H111898   1.378   3.742  16.953 -2.2057  1.2050 -0.9535
  804MPD2    H211899   1.059   3.469  16.918  0.5406 -0.1817  0.9898
  804MPD2    H311900   1.184   3.646  16.827  0.0147 -1.5331 -1.0456
  804MPD2     N11901   1.417   3.721  17.204 -0.4392  0.2059  0.2843
  804MPD2    H511902   1.464   3.792  17.149  3.3591 -0.3196  2.9014
  804MPD2    N111903   1.073   3.371  17.175  0.3928  0.1479 -0.7303
  804MPD2    H711904   1.091   3.351  17.273 -0.8290 -0.9701 -0.7478
  805MPD2     C11905   4.407   1.930  15.256  1.0362 -1.0436  0.0713
  805MPD2    C111906   4.489   1.973  15.147  0.3139 -0.2339 -0.6495
  805MPD2    C211907   4.617   2.021  15.176  0.3574  0.0272  0.3773
  805MPD2    C311908   4.663   2.021  15.313  0.6357 -0.2899 -0.0983
  805MPD2    C411909   4.579   1.984  15.416 -0.9637  0.4362  0.2943
  805MPD2    C511910   4.451   1.944  15.387 -0.1207  0.2718 -0.5951
  805MPD2     H11911   4.678   2.052  15.092 -0.5953  1.2256  0.1301
  805MPD2    H111912   4.612   1.965  15.518  0.4489 -2.0577 -0.6185
  805MPD2    H211913   4.314   1.876  15.241 -0.4978  1.5243  0.4386
  805MPD2    H311914   4.385   1.908  15.466  0.9064  0.1437  0.2036
  805MPD2     N11915   0.054   2.054  15.343 -0.2071 -0.0452  0.1276
  805MPD2    H511916   0.105   2.112  15.277  1.4243 -0.9489  0.5744
  805MPD2    N111917   4.442   1.972  15.014 -0.0311  0.4853  0.3841
  805MPD2    H711918   4.506   1.992  14.938 -1.8276 -1.0977 -1.5403
  806MPD2     C11919   0.154   0.718   0.267  0.3604 -0.1874  0.2762
  806MPD2    C111920   0.240   0.623   0.209 -0.1950  0.9573  0.3869
  806MPD2    C211921   0.331   0.669   0.109 -0.0568 -0.0037 -0.1781
  806MPD2    C311922   0.352   0.804   0.087  0.6679 -0.6000 -1.1123
  806MPD2    C411923   0.268   0.898   0.146 -0.6019 -0.5844  0.8262
  806MPD2    C511924   0.175   0.856   0.245 -0.4644 -0.7347  0.6810
  806MPD2     H11925   0.390   0.597   0.054 -1.6371 -1.0432 -0.5233
  806MPD2    H111926   0.268   1.007   0.141 -0.0846 -0.5399  1.7066
  806MPD2    H211927   0.082   0.690   0.343 -0.4825 -0.7679 -0.7360
  806MPD2    H311928   0.120   0.930   0.303  4.6532  3.6198 -0.1102
  806MPD2     N11929   0.455   0.840  17.758 -0.4911 -0.3365 -1.0039
  806MPD2    H511930   0.507   0.762  17.720 -0.3367 -0.2842 -0.9013
  806MPD2    N111931   0.239   0.488   0.267  0.8817 -0.4087 -0.4452
  806MPD2    H711932   0.175   0.481   0.345  0.1074 -1.6158 -1.1930
  807MPD2     C11933   0.001   0.044   0.854 -0.2844  0.1026  0.2813
  807MPD2    C111934   0.125   0.004   0.821 -0.8212  0.3455 -0.7835
  807MPD2    C211935   0.213   4.681   0.908 -0.6655 -0.8161  0.1075
  807MPD2    C311936   0.175   4.643   1.032  0.4888  0.5066 -0.5660
  807MPD2    C411937   0.044   4.677   1.065 -0.0550  0.0379 -0.2109
  807MPD2    C511938   4.701   0.007   0.977 -1.2481 -0.1116 -0.0180
  807MPD2     H11939   0.317   4.664   0.882 -1.1016 -4.5100  0.7648
  807MPD2    H111940   4.734   4.635   1.151 -0.3764  1.4908  0.3204
  807MPD2    H211941   4.674   0.086   0.781  1.9314  1.5392 -0.9671
  807MPD2    H311942   4.593   0.004   0.989 -1.2248 -0.4173  0.1275
  807MPD2     N11943   0.265   4.571   1.115  0.5027  0.0206  0.1488
  807MPD2    H511944   0.351   4.546   1.068  0.6928 -0.3173  0.6748
  807MPD2    N111945   0.185   0.032   0.692  0.1570 -0.2361 -0.1808
  807MPD2    H711946   0.276   4.734   0.668  0.9246  0.5957  1.4041
  808MPD2     C11947   0.298   2.850   9.494  0.5110  0.0996 -0.1755
  808MPD2    C111948   0.317   2.915   9.617 -0.4794 -0.0983 -0.3957
  808MPD2    C211949   0.315   3.055   9.620 -0.3595 -0.0318  0.2058
  808MPD2    C311950   0.308   3.127   9.498  0.1916 -0.0742  1.1706
  808MPD2    C411951   0.288   3.060   9.380  0.3595  0.2323  0.1031
  808MPD2    C511952   0.281   2.925   9.380 -0.2761 -0.3992 -0.0713
  808MPD2     H11953   0.326   3.091   9.721 -1.2672  0.5730  0.0870
  808MPD2    H111954   0.283   3.118   9.289 -0.6621  1.1142  0.7309
  808MPD2    H211955   0.274   2.746   9.477  1.6243 -0.4410  1.5965
  808MPD2    H311956   0.270   2.864   9.291  1.1098 -0.4338 -0.2143
  808MPD2     N11957   0.321   3.269   9.491 -0.0532  0.0108  0.0145
  808MPD2    H511958   0.303   3.318   9.405 -2.2940 -1.5089 -0.3778
  808MPD2    N111959   0.320   2.841   9.740 -0.0319 -0.2425  0.0386
  808MPD2    H711960   0.331   2.902   9.821 -2.4926 -1.4717  1.3013
  809MPD2     C11961   0.992   3.447   9.019  0.1130 -0.5774  0.0223
  809MPD2    C111962   0.966   3.371   9.128  0.3214  0.4074  0.6274
  809MPD2    C211963   0.872   3.404   9.222 -0.2597 -0.0103  0.3259
  809MPD2    C311964   0.796   3.517   9.207 -0.2924  0.2911  0.4637
  809MPD2    C411965   0.827   3.598   9.099  0.2103 -0.8161  0.3353
  809MPD2    C511966   0.920   3.560   9.009 -0.3602  1.1955 -0.9627
  809MPD2     H11967   0.844   3.335   9.301  3.4105  0.8791  2.3756
  809MPD2    H111968   0.779   3.692   9.075  1.6750 -0.0321  0.4606
  809MPD2    H211969   1.059   3.415   8.940  0.0750  0.4901 -0.4392
  809MPD2    H311970   0.948   3.611   8.917  0.4927  2.0871 -0.2141
  809MPD2     N11971   0.683   3.539   9.299  0.9966 -0.2289 -0.7257
  809MPD2    H511972   0.681   3.478   9.381 -0.8037 -2.4263 -2.4187
  809MPD2    N111973   1.044   3.246   9.145  0.0809  0.7282  0.5396
  809MPD2    H711974   1.030   3.198   9.233  0.4685  2.3002  1.4700
  810MPD2     C11975   0.353   1.732  10.485 -0.4281  0.1677  0.4113
  810MPD2    C111976   0.234   1.761  10.427 -0.2285  0.4492 -0.5144
  810MPD2    C211977   0.208   1.892  10.387 -0.0784  0.2697  0.9155
  810MPD2    C311978   0.292   1.992  10.420 -0.0149  0.2881 -0.3475
  810MPD2    C411979   0.413   1.959  10.481 -0.2226  0.3271 -0.2106
  810MPD2    C511980   0.441   1.827  10.511 -0.3486 -0.5921 -0.3605
  810MPD2     H11981   0.112   1.921  10.346  0.0279 -1.8052 -0.7937
  810MPD2    H111982   0.489   2.034  10.502 -0.9386  1.8765 -3.2767
  810MPD2    H211983   0.385   1.631  10.509  0.9159  0.2160 -1.1910
  810MPD2    H311984   0.534   1.793  10.555 -1.0780 -0.8928  0.9515
  810MPD2     N11985   0.271   2.133  10.418 -0.5136 -0.1634  0.2773
  810MPD2    H511986   0.352   2.191  10.437  1.2914 -1.4280 -3.6083
  810MPD2    N111987   0.132   1.664  10.402 -0.1803  0.9219 -0.4642
  810MPD2    H711988   0.046   1.706  10.370 -0.7448  0.1012 -0.0390
  811MPD2     C11989   4.255   1.663  10.080  0.2632 -0.4354  0.9487
  811MPD2    C111990   4.368   1.723  10.139  0.5709 -0.0767 -0.2499
  811MPD2    C211991   4.410   1.843  10.086 -0.2972 -0.6290 -0.5473
  811MPD2    C311992   4.350   1.890   9.969 -0.6231  0.2587  0.1656
  811MPD2    C411993   4.245   1.827   9.906 -0.1527  0.3318 -0.1734
  811MPD2    C511994   4.197   1.717   9.969 -0.8359  0.0716 -0.0891
  811MPD2     H11995   4.486   1.895  10.143 -0.0435  0.0212 -1.4788
  811MPD2    H111996   4.196   1.855   9.813 -0.5888  2.0247  0.5620
  811MPD2    H211997   4.219   1.569  10.120 -0.4340 -0.5485  0.0701
  811MPD2    H311998   4.123   1.658   9.916 -0.7035  0.3306 -0.5589
  811MPD2     N11999   4.408   2.005   9.925 -0.8584  0.7515 -0.0097
  811MPD2    H512000   4.480   2.046   9.984 -0.9242  1.0953 -0.1658
  811MPD2    N112001   4.442   1.669  10.248 -0.5532 -0.0190  0.1069
  811MPD2    H712002   4.518   1.726  10.283 -0.5536 -0.4777  0.8444
  812MPD2     C12003   3.754   1.968  12.252  0.1267 -0.0589  0.2311
  812MPD2    C112004   3.630   2.020  12.260 -0.3357 -0.1477 -0.5403
  812MPD2    C212005   3.541   1.952  12.348  1.4365  0.2416  0.4500
  812MPD2    C312006   3.579   1.849  12.427 -0.4882  0.1308  0.0252
  812MPD2    C412007   3.704   1.794  12.405  0.4361 -0.2874 -0.4384
  812MPD2    C512008   3.790   1.854  12.315 -0.5400 -0.0493  0.2652
  812MPD2     H12009   3.438   1.984  12.357  0.8866 -1.3378 -0.1450
  812MPD2    H112010   3.746   1.709  12.458 -2.7718 -1.0092  0.9139
  812MPD2    H212011   3.830   2.010  12.186 -0.9308  1.1617 -0.2033
  812MPD2    H312012   3.885   1.805  12.297  0.7820  2.4072  0.5678
  812MPD2     N12013   3.490   1.787  12.512  0.6154  0.9820 -0.0819
  812MPD2    H512014   3.404   1.836  12.535  1.1517  1.3811  1.1078
  812MPD2    N112015   3.606   2.144  12.195 -0.1504  0.1647 -0.1961
  812MPD2    H712016   3.677   2.168  12.127 -1.7980  1.2808 -1.5388
  813MPD2     C12017   2.728   3.538  12.800 -0.3507 -0.7735 -0.2456
  813MPD2    C112018   2.724   3.671  12.774 -1.0071  0.1099  0.0174
  813MPD2    C212019   2.659   3.753  12.866  0.7889  0.0902 -0.3330
  813MPD2    C312020   2.629   3.716  12.995  0.1132 -0.1111 -0.4272
  813MPD2    C412021   2.630   3.582  13.015 -0.3651 -0.9151 -1.0658
  813MPD2    C512022   2.674   3.499  12.917 -0.0618  0.2589  0.5776
  813MPD2     H12023   2.640   3.856  12.838 -0.7172 -0.0799  0.0513
  813MPD2    H112024   2.590   3.541  13.107 -0.6587  0.6235 -0.5059
  813MPD2    H212025   2.766   3.462  12.732  1.9095 -1.0178  1.3012
  813MPD2    H312026   2.670   3.393  12.937 -1.1271 -0.0024 -0.9794
  813MPD2     N12027   2.579   3.815  13.084  0.4570 -0.3714 -0.4764
  813MPD2    H512028   2.565   3.907  13.044 -0.0570 -0.8000 -1.2675
  813MPD2    N112029   2.775   3.717  12.646 -0.0617  0.2640  0.0323
  813MPD2    H712030   2.800   3.640  12.585  0.5142 -0.9891  1.8469
  814MPD2     C12031   2.823   0.593  12.315  0.2143 -0.0843  0.5167
  814MPD2    C112032   2.946   0.579  12.251 -0.1400 -0.2284  0.0801
  814MPD2    C212033   3.047   0.679  12.259  0.1894  0.0342  0.1955
  814MPD2    C312034   3.024   0.789  12.333  0.2346 -0.1031 -0.1763
  814MPD2    C412035   2.899   0.803  12.396  0.1132 -0.0854 -0.1973
  814MPD2    C512036   2.800   0.708  12.380  0.0231 -0.8727  0.9145
  814MPD2     H12037   3.134   0.672  12.195  0.3514  0.2544  0.3898
  814MPD2    H112038   2.870   0.888  12.456 -1.0072 -1.2553  0.9286
  814MPD2    H212039   2.740   0.523  12.312  2.5963 -2.9123 -0.1836
  814MPD2    H312040   2.702   0.729  12.422  0.4204  1.9789  0.4013
  814MPD2     N12041   3.122   0.880  12.370  0.2356  0.3726  0.3307
  814MPD2    H512042   3.098   0.954  12.436 -1.2290  0.0869  0.1113
  814MPD2    N112043   2.984   0.462  12.180 -0.1201  0.0052 -0.3992
  814MPD2    H712044   3.070   0.460  12.126 -1.4894 -0.2690 -2.5720
  815MPD2     C12045   3.869   3.786  11.348  0.2329 -0.2560 -0.6033
  815MPD2    C112046   3.817   3.663  11.368 -0.0209 -0.4178  0.2340
  815MPD2    C212047   3.739   3.641  11.479  0.2761  0.2029  0.1705
  815MPD2    C312048   3.707   3.734  11.575 -0.5038  0.5137  0.2931
  815MPD2    C412049   3.750   3.859  11.555 -0.6078 -0.0325 -0.2137
  815MPD2    C512050   3.830   3.885  11.439  0.0566  0.1568 -0.4230
  815MPD2     H12051   3.700   3.543  11.502 -0.3953  0.1807 -1.0468
  815MPD2    H112052   3.728   3.939  11.626  2.0087 -0.5544  1.1837
  815MPD2    H212053   3.928   3.817  11.262  2.2049 -0.2300  0.7612
  815MPD2    H312054   3.866   3.987  11.431 -0.7467  0.2899 -2.3630
  815MPD2     N12055   3.628   3.707  11.683  0.2919 -0.6095 -0.0780
  815MPD2    H512056   3.605   3.611  11.708 -2.4365  0.1282  0.2346
  815MPD2    N112057   3.842   3.563  11.268  0.0993  0.6243 -0.8559
  815MPD2    H712058   3.894   3.595  11.187  1.0312 -0.1254 -0.5568
  816MPD2     C12059   4.119   2.628  17.264  0.5000 -0.4932 -0.9170
  816MPD2    C112060   4.077   2.730  17.184 -0.4190  0.1047 -0.5784
  816MPD2    C212061   4.170   2.781  17.089 -0.4949  0.0658  0.4497
  816MPD2    C312062   4.296   2.727  17.077  0.2754  0.1211  0.3141
  816MPD2    C412063   4.335   2.618  17.159  0.0580 -0.0198 -0.3986
  816MPD2    C512064   4.244   2.569  17.251  0.7362  0.5770  0.4742
  816MPD2     H12065   4.143   2.873  17.037  0.0396  0.9248  1.6978
  816MPD2    H112066   4.435   2.577  17.160  0.6884  1.5170 -0.5875
  816MPD2    H212067   4.045   2.594  17.336  1.3311 -0.4725 -0.0526
  816MPD2    H312068   4.270   2.486  17.316 -0.1982  0.8498  1.1898
  816MPD2     N12069   4.380   2.800  16.991  0.2643 -0.1728  0.0263
  816MPD2    H512070   4.339   2.878  16.941  0.2785 -0.4051 -0.3421
  816MPD2    N112071   3.951   2.782  17.217  0.2320 -0.2233 -0.5199
  816MPD2    H712072   3.897   2.739  17.291 -2.4180  0.1815 -2.2308
  817MPD2     C12073   3.318   0.021   9.851 -0.3661  0.1963 -0.3927
  817MPD2    C112074   3.443   4.701   9.846  0.4830  0.2697  0.7756
  817MPD2    C212075   3.548   0.037   9.889  0.2477 -0.2600 -0.0044
  817MPD2    C312076   3.545   0.175   9.899 -0.4375  0.3582 -0.0423
  817MPD2    C412077   3.421   0.236   9.892 -1.0714  0.2056  0.1423
  817MPD2    C512078   3.313   0.160   9.869 -1.0490 -0.5453  0.1128
  817MPD2     H12079   3.645   4.728   9.883 -0.5088 -1.7439  0.1500
  817MPD2    H112080   3.405   0.341   9.911 -1.0705  0.0563  0.9416
  817MPD2    H212081   3.227   4.713   9.819  0.6474 -2.7968  1.3120
  817MPD2    H312082   3.218   0.213   9.868 -1.2328 -0.8613  0.6526
  817MPD2     N12083   3.661   0.252   9.921 -0.1379  0.0696  0.2973
  817MPD2    H512084   3.740   0.188   9.927  1.5282  2.1681  0.4722
  817MPD2    N112085   3.459   4.566   9.814  0.2640 -0.4731 -0.4547
  817MPD2    H712086   3.554   4.532   9.820  0.5175  0.6553  1.8339
  818MPD2     C12087   2.181   4.656  10.156 -0.6076 -0.3051 -0.6711
  818MPD2    C112088   2.084   4.607  10.254 -0.0003 -0.7191  0.9557
  818MPD2    C212089   2.008   4.508  10.223 -0.5206 -0.4809 -0.0198
  818MPD2    C312090   2.013   4.461  10.092 -0.4256  0.0319 -0.1164
  818MPD2    C412091   2.105   4.507  10.001 -0.2000 -0.2522 -0.0556
  818MPD2    C512092   2.197   4.602  10.033 -0.1629  0.0045  0.0438
  818MPD2     H12093   1.947   4.468  10.303  1.8186 -0.4041  1.7885
  818MPD2    H112094   2.110   4.455   9.906 -0.1320  0.6379 -0.5444
  818MPD2    H212095   2.246   4.741  10.173 -2.6400  0.4796  3.2196
  818MPD2    H312096   2.262   4.640   9.956 -0.9682 -0.6596 -0.9598
  818MPD2     N12097   1.916   4.365  10.048  0.4822 -0.4009  0.1270
  818MPD2    H512098   1.927   4.321   9.957 -1.1872 -0.0648 -0.2295
  818MPD2    N112099   2.073   4.652  10.387 -0.8633 -0.3434 -0.1627
  818MPD2    H712100   2.007   4.607  10.451  0.8441  0.8790  2.4585
  819MPD2     C12101   0.592   2.073  15.294 -0.0936  0.0384  0.0806
  819MPD2    C112102   0.551   1.941  15.333  0.9553  0.0959 -0.4924
  819MPD2    C212103   0.636   1.859  15.403 -0.5157  0.7564  0.6930
  819MPD2    C312104   0.757   1.904  15.435 -0.3867  0.6410 -0.8453
  819MPD2    C412105   0.792   2.030  15.405 -0.2551  0.2592 -0.3162
  819MPD2    C512106   0.714   2.116  15.335  0.3204  0.2630 -0.1956
  819MPD2     H12107   0.618   1.757  15.435  0.8238 -0.2427 -1.7447
  819MPD2    H112108   0.882   2.074  15.445 -0.7323  0.0202  1.0232
  819MPD2    H212109   0.531   2.145  15.241  1.4324 -0.1845 -1.9947
  819MPD2    H312110   0.755   2.209  15.298  2.6183 -0.4312  0.6147
  819MPD2     N12111   0.831   1.818  15.517 -0.2512 -0.4721  0.4557
  819MPD2    H512112   0.792   1.726  15.536 -0.6331 -0.4937 -0.4111
  819MPD2    N112113   0.426   1.893  15.291  0.0153  0.7472  0.2107
  819MPD2    H712114   0.378   1.941  15.215 -0.0568  0.9261  0.3682
  820MPD2     C12115   4.684   2.230  14.682 -0.5942  0.0278 -0.0696
  820MPD2    C112116   4.654   2.095  14.664  0.3854 -0.3487 -0.3784
  820MPD2    C212117   4.712   2.000  14.750 -0.2434 -0.8853 -0.1941
  820MPD2    C312118   0.056   2.041  14.844 -1.0491  0.6447  0.0301
  820MPD2    C412119   0.086   2.175  14.862 -0.1153 -0.6243 -0.7668
  820MPD2    C512120   0.032   2.268  14.777 -0.4130  0.1624 -0.0325
  820MPD2     H12121   4.689   1.897  14.725 -1.0540 -0.7581  0.0025
  820MPD2    H112122   0.147   2.211  14.944 -0.3005  1.2924 -1.4775
  820MPD2    H212123   4.636   2.301  14.615 -1.3366 -0.9068 -0.5293
  820MPD2    H312124   0.055   2.373  14.783  0.0482 -0.0462  1.8311
  820MPD2     N12125   0.109   1.946  14.936 -0.1776  0.8393 -0.3876
  820MPD2    H512126   0.182   1.986  14.995  0.0164  0.0310 -0.0883
  820MPD2    N112127   4.560   2.065  14.558 -0.1137 -0.3195 -0.4828
  820MPD2    H712128   4.552   2.138  14.488  2.5491 -1.1536 -1.6484
  821MPD2     C12129   0.216   2.590  13.291  0.2780 -0.3570  0.8833
  821MPD2    C112130   0.336   2.573  13.353 -0.3160  0.1551  0.3258
  821MPD2    C212131   0.443   2.642  13.305  0.0503 -0.0404  0.2991
  821MPD2    C312132   0.425   2.743  13.210  0.2231 -0.0951  0.0859
  821MPD2    C412133   0.299   2.760  13.152  0.7076  0.5942 -0.1270
  821MPD2    C512134   0.198   2.681  13.197  0.1837  0.2539 -0.2577
  821MPD2     H12135   0.542   2.625  13.345  0.2232 -1.5886 -0.7803
  821MPD2    H112136   0.289   2.831  13.072  1.7262  2.9264  1.8346
  821MPD2    H212137   0.132   2.530  13.326  0.4646 -0.2257  1.5586
  821MPD2    H312138   0.100   2.689  13.151  0.6084 -0.9659 -1.3999
  821MPD2     N12139   0.532   2.834  13.168 -0.8545 -0.2794  0.7594
  821MPD2    H512140   0.503   2.909  13.105 -2.3166 -1.2240  0.3021
  821MPD2    N112141   0.359   2.487  13.459 -0.9200 -0.5471  0.3315
  821MPD2    H712142   0.449   2.497  13.505 -0.8604 -0.0670  0.1093
  822MPD2     C12143   1.135   2.644  15.683  0.5636  1.1877  1.1895
  822MPD2    C112144   1.204   2.621  15.797 -0.6761  0.4123 -0.0079
  822MPD2    C212145   1.217   2.724  15.890 -0.2064 -0.0900 -0.5799
  822MPD2    C312146   1.163   2.851  15.862  0.0930  0.0560  0.5947
  822MPD2    C412147   1.088   2.860  15.740  0.7503 -0.2039  0.3311
  822MPD2    C512148   1.073   2.762  15.656  0.2608 -0.1693 -0.0296
  822MPD2     H12149   1.274   2.705  15.980  0.4236  2.0956 -0.5164
  822MPD2    H112150   1.027   2.947  15.723 -2.2478 -2.1779  0.9959
  822MPD2    H212151   1.117   2.568  15.608 -2.7254  1.8272  1.3517
  822MPD2    H312152   1.024   2.770  15.559 -1.0714  1.0860  0.7524
  822MPD2     N12153   1.163   2.951  15.958 -0.1703  0.5508 -0.1650
  822MPD2    H512154   1.221   2.927  16.038 -0.1621 -0.8077 -0.5702
  822MPD2    N112155   1.277   2.498  15.825 -0.1679  0.0154  0.4859
  822MPD2    H712156   1.321   2.489  15.916 -1.5676 -0.5072  1.1039
  823MPD2     C12157   1.193   3.165  16.745 -0.2083  0.2079 -0.0281
  823MPD2    C112158   1.165   3.062  16.653 -0.1571  0.6750 -0.9871
  823MPD2    C212159   1.187   2.935  16.700  0.5449  0.6402 -0.0009
  823MPD2    C312160   1.218   2.911  16.834  0.8681 -0.3205  0.3885
  823MPD2    C412161   1.217   3.010  16.928  0.0003 -0.4621 -0.0291
  823MPD2    C512162   1.215   3.137  16.879  0.0456  0.0440 -0.0020
  823MPD2     H12163   1.192   2.856  16.626 -1.0815  0.5605 -0.0111
  823MPD2    H112164   1.248   3.005  17.031  0.3720 -0.7767 -0.1574
  823MPD2    H212165   1.199   3.269  16.718 -1.0777 -0.1548 -1.5922
  823MPD2    H312166   1.242   3.215  16.950  0.9453 -0.7413  0.5221
  823MPD2     N12167   1.242   2.780  16.884  0.1689  0.4837 -0.9424
  823MPD2    H512168   1.256   2.761  16.983  2.0670  1.3866 -1.0262
  823MPD2    N112169   1.137   3.104  16.522 -0.1601 -0.5095 -0.2479
  823MPD2    H712170   1.145   3.203  16.499 -0.1110 -0.8217 -1.5564
  824MPD2     C12171   1.513   1.726  15.524  0.2010  0.3557  0.4327
  824MPD2    C112172   1.628   1.790  15.550  0.0772  0.2832 -0.2806
  824MPD2    C212173   1.745   1.734  15.519  0.3224 -0.2336 -0.4438
  824MPD2    C312174   1.757   1.605  15.475 -0.3753  0.1023  0.0549
  824MPD2    C412175   1.640   1.527  15.463 -0.1905 -0.1249 -0.7187
  824MPD2    C512176   1.514   1.593  15.491 -0.3583  0.1160 -0.1434
  824MPD2     H12177   1.820   1.811  15.533  1.9838 -1.8247 -0.6093
  824MPD2    H112178   1.626   1.429  15.419  1.2325 -1.0498  0.9280
  824MPD2    H212179   1.414   1.761  15.548 -0.1733 -2.0269  2.3450
  824MPD2    H312180   1.429   1.527  15.480  0.3283 -0.5949 -1.2876
  824MPD2     N12181   1.884   1.554  15.439 -0.6910  0.1938  0.3244
  824MPD2    H512182   1.962   1.616  15.420 -2.0229  1.3499 -1.4051
  824MPD2    N112183   1.626   1.921  15.613  1.2047 -0.2161  0.0143
  824MPD2    H712184   1.711   1.955  15.658  0.4501  0.5497  0.8516
  825MPD2     C12185   2.495   1.549  14.829 -0.8678  0.6124 -0.4023
  825MPD2    C112186   2.398   1.609  14.904 -0.7943  0.4718  0.5362
  825MPD2    C212187   2.402   1.751  14.918 -0.5208  0.7043 -0.2455
  825MPD2    C312188   2.494   1.826  14.843 -0.6181  0.3026 -0.0725
  825MPD2    C412189   2.589   1.758  14.763  0.7488  0.4696 -0.2266
  825MPD2    C512190   2.583   1.621  14.756  0.0963 -0.2437 -0.0553
  825MPD2     H12191   2.341   1.804  14.990  0.9239  0.8881  0.8274
  825MPD2    H112192   2.661   1.807  14.698  2.1893  0.1124  1.0904
  825MPD2    H212193   2.500   1.441  14.822 -1.3430  0.5512  0.1924
  825MPD2    H312194   2.650   1.573  14.686  0.2286 -1.4706  0.9078
  825MPD2     N12195   2.519   1.967  14.855  0.4941  0.0825  0.2550
  825MPD2    H512196   2.586   2.019  14.800  1.0470  1.4262  2.1875
  825MPD2    N112197   2.313   1.525  14.984 -0.4209  0.3872 -0.6893
  825MPD2    H712198   2.325   1.425  14.981 -1.5315  0.2313 -0.1806
  826MPD2     C12199   1.550   1.842  13.557  0.2005  0.0810  0.0035
  826MPD2    C112200   1.682   1.850  13.560  0.0811  0.8755 -0.2979
  826MPD2    C212201   1.734   1.976  13.577 -0.9121  0.1912  0.5043
  826MPD2    C312202   1.652   2.093  13.576  0.1240  0.4420 -0.0387
  826MPD2    C412203   1.514   2.074  13.564 -0.6063 -0.3412 -0.4954
  826MPD2    C512204   1.459   1.948  13.557 -0.0316  0.0241  0.4537
  826MPD2     H12205   1.840   1.997  13.593 -0.5323 -0.4959 -1.0572
  826MPD2    H112206   1.439   2.151  13.579  1.3455  1.7146 -1.3385
  826MPD2    H212207   1.494   1.749  13.565  1.1511 -0.3494  1.6013
  826MPD2    H312208   1.353   1.935  13.574 -0.0351  1.8278  1.8939
  826MPD2     N12209   1.690   2.225  13.598  0.4389 -0.1055  0.2509
  826MPD2    H512210   1.618   2.297  13.600  1.2848  0.7892 -2.2441
  826MPD2    N112211   1.743   1.733  13.535 -0.1590  0.2828 -0.2686
  826MPD2    H712212   1.678   1.657  13.517  1.1567 -0.4739 -1.7593
  827MPD2     C12213   2.613   3.538   9.945 -0.6419  0.2942 -0.0734
  827MPD2    C112214   2.560   3.435  10.024  0.3898 -1.2978 -0.3905
  827MPD2    C212215   2.476   3.347   9.961  0.2917  0.4724 -0.2286
  827MPD2    C312216   2.435   3.365   9.830  0.2696  0.0783 -1.3218
  827MPD2    C412217   2.481   3.473   9.758  0.6059  0.0721  0.4618
  827MPD2    C512218   2.574   3.561   9.815 -0.1806  0.2601  0.4314
  827MPD2     H12219   2.437   3.263  10.017  0.9519  0.7154  0.5890
  827MPD2    H112220   2.456   3.497   9.655  3.1983 -0.4828 -0.3023
  827MPD2    H212221   2.696   3.594   9.989 -0.8310  0.3120  0.2612
  827MPD2    H312222   2.609   3.642   9.752 -2.5181  0.3628 -0.7259
  827MPD2     N12223   2.335   3.277   9.772 -0.5456 -0.5848  0.5304
  827MPD2    H512224   2.332   3.182   9.807  0.4355 -1.1794 -1.0136
  827MPD2    N112225   2.604   3.421  10.154 -0.0003  0.1366 -0.5544
  827MPD2    H712226   2.690   3.470  10.177 -0.6818  1.1785 -0.2454
  828MPD2     C12227   0.554   3.211  12.668  0.1098 -0.5190 -0.6216
  828MPD2    C112228   0.481   3.200  12.555  0.5991 -0.7727 -0.2630
  828MPD2    C212229   0.551   3.207  12.431 -0.7403 -0.0501  0.3952
  828MPD2    C312230   0.690   3.223  12.430  0.1698  0.6228 -0.0180
  828MPD2    C412231   0.761   3.237  12.555  0.1552  0.6415  0.4559
  828MPD2    C512232   0.690   3.222  12.664 -0.1800 -0.1301  0.9048
  828MPD2     H12233   0.487   3.205  12.344 -1.7225 -1.1566  1.1386
  828MPD2    H112234   0.869   3.246  12.557  0.3927 -2.2982  1.0354
  828MPD2    H212235   0.512   3.199  12.767  1.0524  1.8565  0.0776
  828MPD2    H312236   0.746   3.216  12.756  0.2350  2.4776  0.8452
  828MPD2     N12237   0.768   3.232  12.305  0.0161  0.6077  0.0671
  828MPD2    H512238   0.867   3.257  12.311  0.0997 -0.2585  2.3289
  828MPD2    N112239   0.339   3.177  12.557 -0.2027 -1.0993  0.1327
  828MPD2    H712240   0.293   3.166  12.468  0.7286 -1.8546 -0.2576
  829MPD2     C12241   4.550   3.339  11.953 -0.4527 -0.4662  0.4143
  829MPD2    C112242   4.455   3.276  12.020  0.1536  0.6538 -0.0169
  829MPD2    C212243   4.493   3.218  12.141  0.2390 -0.1016 -0.3416
  829MPD2    C312244   4.619   3.227  12.184  0.4975  0.4490  0.2927
  829MPD2    C412245   4.713   3.275  12.110 -0.8128 -0.9348  0.6341
  829MPD2    C512246   4.681   3.335  11.988  0.6910  0.0757  0.0592
  829MPD2     H12247   4.417   3.176  12.205  0.9969 -0.0598  0.5790
  829MPD2    H112248   0.071   3.290  12.153 -0.9558  0.2200  0.5716
  829MPD2    H212249   4.530   3.395  11.862 -1.4934 -2.2767 -0.4471
  829MPD2    H312250   0.022   3.379  11.932  2.0427 -1.1455  1.0793
  829MPD2     N12251   4.661   3.178  12.310  0.1268 -0.2156  0.1024
  829MPD2    H512252   0.020   3.184  12.330  0.0178 -1.8274  1.1146
  829MPD2    N112253   4.332   3.273  11.958 -0.8087 -0.5684 -0.0395
  829MPD2    H712254   4.322   3.317  11.867  1.4829 -1.0667 -0.5235
  830MPD2     C12255   1.237   1.057  15.633 -0.8206 -0.1399 -0.2030
  830MPD2    C112256   1.161   1.134  15.553  0.9540 -0.3457  0.1740
  830MPD2    C212257   1.131   1.094  15.425  0.0740 -0.6432  0.1591
  830MPD2    C312258   1.183   0.973  15.382  0.0597 -0.0623  0.1062
  830MPD2    C412259   1.262   0.903  15.462 -0.0436 -0.3636 -0.7506
  830MPD2    C512260   1.297   0.943  15.583 -0.7364 -0.2390  0.8019
  830MPD2     H12261   1.076   1.168  15.366  0.5444  0.6893  1.3840
  830MPD2    H112262   1.287   0.804  15.426  1.4717 -0.0614 -0.5417
  830MPD2    H212263   1.271   1.090  15.730 -2.0499  0.7245 -0.0651
  830MPD2    H312264   1.354   0.890  15.660  1.5092  0.2919 -0.4837
  830MPD2     N12265   1.162   0.926  15.249 -0.8693 -0.5447 -0.2576
  830MPD2    H512266   1.205   0.841  15.213 -0.1674 -0.4992  0.4850
  830MPD2    N112267   1.130   1.261  15.607 -0.2474  0.1998 -0.4994
  830MPD2    H712268   1.156   1.270  15.704 -1.5398 -1.6271  0.0004
  831MPD2     C12269   1.558   2.947  16.003 -0.1635 -0.6926 -0.8095
  831MPD2    C112270   1.553   2.810  15.993 -0.0934 -0.0314  0.3532
  831MPD2    C212271   1.490   2.739  16.092  0.5106  0.1573 -0.5319
  831MPD2    C312272   1.408   2.800  16.188  0.2295 -0.3796 -0.4609
  831MPD2    C412273   1.412   2.940  16.198  0.2339 -0.0776 -0.9977
  831MPD2    C512274   1.494   3.009  16.108 -0.1457 -0.4286 -0.5129
  831MPD2     H12275   1.498   2.631  16.094  0.3129  0.1402 -0.6815
  831MPD2    H112276   1.350   2.993  16.270 -0.0099 -1.3182 -0.2801
  831MPD2    H212277   1.613   2.996  15.924  0.3352  1.0327  0.6057
  831MPD2    H312278   1.499   3.117  16.119 -1.8201 -0.5957  1.9377
  831MPD2     N12279   1.315   2.727  16.263  0.0180 -0.3377 -0.1049
  831MPD2    H512280   1.248   2.769  16.326  1.2252 -1.0412  1.6501
  831MPD2    N112281   1.613   2.762  15.877  0.2285 -0.8045  1.1516
  831MPD2    H712282   1.631   2.833  15.807  0.1123 -1.9892 -0.1009
  832MPD2     C12283   4.551   3.947  17.352 -0.1563 -0.1343 -0.5010
  832MPD2    C112284   4.577   3.981  17.220  0.1180  0.0515  0.2086
  832MPD2    C212285   4.490   3.945  17.118 -0.3601 -0.3257 -0.2789
  832MPD2    C312286   4.362   3.900  17.152 -0.3211  0.7746 -0.2374
  832MPD2    C412287   4.335   3.881  17.284 -0.3416  0.5820 -0.2057
  832MPD2    C512288   4.428   3.897  17.380 -0.1696 -0.8490  0.2863
  832MPD2     H12289   4.507   3.974  17.015 -0.1676  0.4684 -0.0238
  832MPD2    H112290   4.236   3.843  17.308  0.5915 -0.1000  2.5773
  832MPD2    H212291   4.624   3.966  17.429  1.9913 -4.4787 -1.4704
  832MPD2    H312292   4.392   3.867  17.478  1.0995 -0.9598  0.7329
  832MPD2     N12293   4.256   3.898  17.066 -0.1722  0.1045 -0.2113
  832MPD2    H512294   4.164   3.873  17.103 -1.1102  1.9530 -1.3108
  832MPD2    N112295   4.702   4.036  17.188 -0.3727 -0.4316 -0.2647
  832MPD2    H712296   4.735   4.017  17.093 -1.2294 -1.0731 -0.4381
  833MPD2     C12297   1.657   0.639  12.583 -0.1573  0.4282  0.3632
  833MPD2    C112298   1.627   0.767  12.607  0.0615 -0.5041  0.5846
  833MPD2    C212299   1.718   0.868  12.595  0.7740  0.0223 -0.9259
  833MPD2    C312300   1.836   0.846  12.525 -0.3722  0.6305 -0.0988
  833MPD2    C412301   1.859   0.718  12.484 -0.9981  0.4874  0.0419
  833MPD2    C512302   1.777   0.614  12.514  0.3116 -1.2933 -0.2634
  833MPD2     H12303   1.685   0.966  12.627  0.6500 -0.7175  1.1823
  833MPD2    H112304   1.951   0.695  12.433 -1.4135 -1.0864 -0.0097
  833MPD2    H212305   1.594   0.557  12.615 -1.1207  0.7461 -0.7130
  833MPD2    H312306   1.813   0.512  12.507 -0.9094 -1.6843 -0.8771
  833MPD2     N12307   1.928   0.943  12.485 -0.0454 -0.6546  0.7935
  833MPD2    H512308   2.012   0.906  12.441  0.0019 -0.2318  0.5246
  833MPD2    N112309   1.509   0.808  12.668  0.7078 -0.1867  0.2117
  833MPD2    H712310   1.497   0.907  12.687 -1.5489 -0.6876  1.4314
  834MPD2     C12311   2.046   1.061  11.668  0.0657 -0.0800  0.1842
  834MPD2    C112312   2.007   0.967  11.762  0.8862  0.2347  0.1123
  834MPD2    C212313   1.999   1.011  11.894  0.4493 -0.2616 -0.3306
  834MPD2    C312314   2.048   1.132  11.936  0.2585  0.2064 -0.4631
  834MPD2    C412315   2.095   1.216  11.837 -0.3784 -0.5763  0.3632
  834MPD2    C512316   2.087   1.184  11.705 -0.1929  0.0628  0.1438
  834MPD2     H12317   1.955   0.957  11.977  2.0568  0.1738  0.7985
  834MPD2    H112318   2.126   1.315  11.867  1.7408 -1.4255  0.9834
  834MPD2    H212319   2.053   1.019  11.569  1.7037 -1.5879  0.9277
  834MPD2    H312320   2.114   1.256  11.629 -2.2116 -1.4275 -2.0023
  834MPD2     N12321   2.043   1.158  12.071 -0.0567  0.3063  0.3070
  834MPD2    H512322   2.014   1.082  12.133  2.7562 -1.1489 -0.1274
  834MPD2    N112323   1.983   0.834  11.722  0.4057  0.2887  0.2828
  834MPD2    H712324   2.017   0.816  11.629 -0.8333 -0.7554  0.0193
  835MPD2     C12325   1.714   3.485  11.116 -0.7166  0.1111 -0.6842
  835MPD2    C112326   1.587   3.533  11.130 -0.6381 -0.2689  0.3410
  835MPD2    C212327   1.529   3.546  11.254 -0.2149 -0.1816  0.3130
  835MPD2    C312328   1.597   3.512  11.364  0.0376 -0.5307  0.4713
  835MPD2    C412329   1.729   3.464  11.349  0.4448  0.1458  0.3094
  835MPD2    C512330   1.786   3.456  11.231  0.0078 -0.6483 -0.2576
  835MPD2     H12331   1.429   3.589  11.257  0.1252  0.6918 -0.9620
  835MPD2    H112332   1.778   3.437  11.441 -0.2566 -0.3831  0.5321
  835MPD2    H212333   1.768   3.469  11.023  0.1129  2.6895 -0.6557
  835MPD2    H312334   1.885   3.411  11.234  1.4796  2.4517 -2.4378
  835MPD2     N12335   1.538   3.519  11.492  0.1671  0.2776  0.1209
  835MPD2    H512336   1.603   3.508  11.569 -1.6867 -2.6097  1.2581
  835MPD2    N112337   1.501   3.558  11.020  0.1589  0.4036  0.3202
  835MPD2    H712338   1.404   3.580  11.040 -0.1727 -0.2681 -0.5894
  836MPD2     C12339   0.768   3.474  11.719 -0.6305  0.3863  0.3154
  836MPD2    C112340   0.848   3.501  11.830  0.4828  0.0695 -0.0921
  836MPD2    C212341   0.783   3.531  11.950 -0.2582  0.7390 -1.0613
  836MPD2    C312342   0.645   3.523  11.958 -0.2237 -0.2325  1.1627
  836MPD2    C412343   0.571   3.480  11.853  0.1751  0.2557 -0.5034
  836MPD2    C512344   0.636   3.458  11.735  0.1038  0.9229 -0.0727
  836MPD2     H12345   0.837   3.570  12.036  0.8006 -3.4114  0.1518
  836MPD2    H112346   0.463   3.472  11.854  0.2805 -1.0927  0.2928
  836MPD2    H212347   0.802   3.452  11.619 -1.4737  1.7158 -0.2644
  836MPD2    H312348   0.569   3.424  11.657  0.9288  0.3973 -0.5371
  836MPD2     N12349   0.576   3.543  12.084  0.4773 -0.1299 -0.1698
  836MPD2    H512350   0.476   3.524  12.083  0.2058  1.2689  1.4654
  836MPD2    N112351   0.990   3.504  11.813  0.3176 -0.0955 -0.4599
  836MPD2    H712352   1.018   3.480  11.718 -0.4586  1.1203 -1.0072
  837MPD2     C12353   0.088   2.657  10.078 -0.2448  0.3908 -0.1770
  837MPD2    C112354   0.029   2.669   9.947 -0.7648 -0.2853  0.3475
  837MPD2    C212355   0.035   2.789   9.873 -0.2144  0.9013  0.1402
  837MPD2    C312356   0.082   2.905   9.933  0.8369  0.1464  0.3680
  837MPD2    C412357   0.138   2.896  10.055 -0.3805  0.6552  0.2258
  837MPD2    C512358   0.136   2.779  10.125 -0.9046  0.6106  0.8680
  837MPD2     H12359   4.727   2.792   9.777  0.9507  0.0794 -0.4874
  837MPD2    H112360   0.165   2.982  10.115 -1.8821  2.4615 -1.7102
  837MPD2    H212361   0.085   2.567  10.138  0.9426 -1.5861 -3.0778
  837MPD2    H312362   0.168   2.778  10.228  1.0916 -0.7410  0.2278
  837MPD2     N12363   0.060   3.021   9.861 -0.1712 -0.7005  0.4623
  837MPD2    H512364   0.021   3.007   9.768  0.7218 -0.1117 -0.0020
  837MPD2    N112365   4.693   2.567   9.895  0.6160 -0.2887  0.1101
  837MPD2    H712366   4.631   2.593   9.819  1.4772  1.5308  0.0081
  838MPD2     C12367   3.367   1.685  12.000 -0.1388 -0.2873 -0.4751
  838MPD2    C112368   3.362   1.546  11.984 -0.2039 -0.0710  0.2217
  838MPD2    C212369   3.280   1.471  12.064 -0.0637  0.3448  0.4066
  838MPD2    C312370   3.193   1.528  12.153 -0.2096 -0.2701 -0.5980
  838MPD2    C412371   3.197   1.666  12.161  0.1646  0.6548  0.5999
  838MPD2    C512372   3.282   1.744  12.087  0.5869 -0.3093  0.3914
  838MPD2     H12373   3.281   1.363  12.059 -1.4702  0.2787  1.5062
  838MPD2    H112374   3.113   1.706  12.216 -0.5182  1.3241 -0.9115
  838MPD2    H212375   3.426   1.747  11.933  0.1260  1.7122  1.6283
  838MPD2    H312376   3.268   1.851  12.090 -0.1108 -0.3930  0.0637
  838MPD2     N12377   3.092   1.462  12.223 -0.3706  0.3194  0.2635
  838MPD2    H512378   3.024   1.521  12.270  0.2075  2.3409 -1.4104
  838MPD2    N112379   3.443   1.479  11.889 -0.4109  0.3020  0.0216
  838MPD2    H712380   3.457   1.380  11.902  1.0298  0.6358  0.9780
  839MPD2     C12381   3.168   0.788  11.853 -0.1554 -0.5364 -0.2065
  839MPD2    C112382   3.226   0.775  11.729 -0.1343 -0.4537  1.1415
  839MPD2    C212383   3.308   0.876  11.677  0.2940 -0.5125  0.2533
  839MPD2    C312384   3.334   0.982  11.756 -0.0842 -0.0145 -0.0471
  839MPD2    C412385   3.273   0.992  11.877  1.2413  0.0104 -0.0699
  839MPD2    C512386   3.193   0.899  11.926  0.6773  0.4316  0.2033
  839MPD2     H12387   3.358   0.862  11.581  0.2984 -1.5228  0.4033
  839MPD2    H112388   3.278   1.076  11.944  2.7898 -0.0602 -0.0963
  839MPD2    H212389   3.095   0.721  11.898  0.9474 -1.2102  0.5663
  839MPD2    H312390   3.147   0.909  12.023  1.1712  2.1314  0.2649
  839MPD2     N12391   3.419   1.095  11.718 -0.5223 -0.0209  0.1377
  839MPD2    H512392   3.416   1.172  11.785  1.7266  0.2666 -0.0780
  839MPD2    N112393   3.189   0.665  11.649 -0.0260 -1.2456 -0.2022
  839MPD2    H712394   3.219   0.670  11.552  2.5104 -0.9910  0.5876
  840MPD2     C12395   3.162   3.137  10.707 -0.3723  0.0927 -0.7656
  840MPD2    C112396   3.120   3.256  10.647 -0.0411 -0.9305  0.1727
  840MPD2    C212397   3.205   3.362  10.658 -0.3341  0.1144 -0.3882
  840MPD2    C312398   3.329   3.352  10.714 -0.1049 -0.2079 -0.0499
  840MPD2    C412399   3.368   3.232  10.776  0.3536 -0.1831  0.1366
  840MPD2    C512400   3.278   3.130  10.780  0.2678 -0.1717 -0.1995
  840MPD2     H12401   3.169   3.454  10.614 -1.2384  0.0542  0.2128
  840MPD2    H112402   3.468   3.222  10.815  0.4154  0.2803  0.0993
  840MPD2    H212403   3.113   3.041  10.715 -0.2066  0.2316  1.7539
  840MPD2    H312404   3.323   3.043  10.827  0.2213  0.8013  1.6208
  840MPD2     N12405   3.431   3.453  10.700  0.4405 -0.0868 -0.2597
  840MPD2    H512406   3.527   3.425  10.718  0.1138 -0.6926  0.5110
  840MPD2    N112407   2.988   3.263  10.604 -0.2803 -0.7239 -0.2617
  840MPD2    H712408   2.932   3.184  10.633 -1.0171 -0.6282 -1.4626
  841MPD2     C12409   2.908   3.018  14.148  0.3077 -0.4055  0.4387
  841MPD2    C112410   2.948   2.961  14.271 -0.4575  0.1403 -0.7149
  841MPD2    C212411   3.014   3.043  14.367 -0.7730 -0.3798  0.1126
  841MPD2    C312412   3.023   3.181  14.344  0.3880 -0.1450  0.0357
  841MPD2    C412413   2.983   3.239  14.222  0.3833 -0.6521 -0.0276
  841MPD2    C512414   2.937   3.149  14.126 -0.0050 -0.1322  0.5041
  841MPD2     H12415   3.059   2.999  14.455 -0.0442 -3.5442 -1.8303
  841MPD2    H112416   2.992   3.345  14.202  0.1560  0.0283  3.4416
  841MPD2    H212417   2.870   2.955  14.069 -0.0173 -1.0658  1.1123
  841MPD2    H312418   2.925   3.190  14.026 -2.7667 -0.3268  0.7575
  841MPD2     N12419   3.102   3.254  14.433 -0.4343 -0.3887  0.1649
  841MPD2    H512420   3.121   3.208  14.521 -0.1373 -1.2082 -0.3315
  841MPD2    N112421   2.920   2.825  14.286  0.8210 -0.4488 -1.2786
  841MPD2    H712422   2.856   2.784  14.220  0.5555 -2.2225  0.0779
  842MPD2     C12423   3.858   4.276  16.877  0.4631  0.3092  0.2970
  842MPD2    C112424   3.733   4.276  16.936  0.4363 -0.3551 -0.2294
  842MPD2    C212425   3.712   4.231  17.066  0.2744 -0.1812 -0.0452
  842MPD2    C312426   3.823   4.217  17.141 -0.2739  0.8292 -0.2158
  842MPD2    C412427   3.951   4.206  17.085  0.0397  0.0783 -0.5758
  842MPD2    C512428   3.966   4.241  16.952  0.1138  0.3291  0.0128
  842MPD2     H12429   3.615   4.226  17.114  0.1676 -2.1607 -0.4663
  842MPD2    H112430   4.036   4.180  17.148  0.0892  0.6425 -0.4102
  842MPD2    H212431   3.870   4.314  16.776 -0.8431 -0.4988 -0.1664
  842MPD2    H312432   4.061   4.241  16.902  1.4393  0.4771  2.5266
  842MPD2     N12433   3.818   4.202  17.282 -0.7185 -0.3304  0.1227
  842MPD2    H512434   3.905   4.199  17.334 -1.4277 -1.9033  1.2547
  842MPD2    N112435   3.625   4.317  16.853 -0.2607 -1.4648 -0.3426
  842MPD2    H712436   3.659   4.362  16.768  1.6251  1.2442  1.8762
  843MPD2     C12437   0.828   0.225  17.338 -0.0280  0.0046 -0.4320
  843MPD2    C112438   0.945   0.200  17.402  0.8570  0.1153  0.4785
  843MPD2    C212439   1.044   0.298  17.399  0.9376  0.2772  0.6277
  843MPD2    C312440   1.032   0.410  17.331 -0.4400  1.0059  0.3078
  843MPD2    C412441   0.912   0.431  17.261  1.0823 -0.1540  0.2316
  843MPD2    C512442   0.812   0.345  17.272 -0.2383  0.5532  1.1173
  843MPD2     H12443   1.129   0.269  17.460  1.0284 -0.5879  0.0834
  843MPD2    H112444   0.895   0.517  17.197  0.4461 -1.1740 -0.9650
  843MPD2    H212445   0.746   0.154  17.339 -0.8720  0.9710 -1.0968
  843MPD2    H312446   0.711   0.366  17.239 -0.1531  1.4511  1.4321
  843MPD2     N12447   1.135   0.510  17.315  0.0285  0.1809  0.5614
  843MPD2    H512448   1.122   0.587  17.250  1.6037 -1.4160 -1.6871
  843MPD2    N112449   0.952   0.074  17.465 -0.0601 -0.0724  0.3640
  843MPD2    H712450   0.877   0.007  17.452  0.9703 -0.7066 -2.4553
  844MPD2     C12451   3.711   3.138  16.608 -0.1713 -0.0411  0.0190
  844MPD2    C112452   3.804   3.172  16.511 -0.1007 -0.3980 -0.9011
  844MPD2    C212453   3.911   3.253  16.533  0.1403 -0.6410 -0.1428
  844MPD2    C312454   3.934   3.308  16.664  0.3248 -0.5232  0.0922
  844MPD2    C412455   3.849   3.262  16.768 -0.5320  0.0532  0.3018
  844MPD2    C512456   3.736   3.184  16.735 -0.3598 -0.3020 -0.8824
  844MPD2     H12457   3.969   3.283  16.446 -0.4921  0.7219 -0.0945
  844MPD2    H112458   3.860   3.295  16.870  0.0653  1.8642 -0.3512
  844MPD2    H212459   3.626   3.072  16.593 -1.0095  0.7080  1.4882
  844MPD2    H312460   3.661   3.155  16.806  0.1059  1.9689  0.5620
  844MPD2     N12461   4.040   3.398  16.698  0.1807 -0.1801  0.4900
  844MPD2    H512462   4.067   3.418  16.794  0.7296  1.0331  0.0746
  844MPD2    N112463   3.784   3.110  16.376  0.2001  0.5539 -0.2405
  844MPD2    H712464   3.869   3.105  16.322 -1.2516 -0.3640 -2.4507
  845MPD2     C12465   4.588   4.356  16.543  0.6022  0.0422 -0.1530
  845MPD2    C112466   4.600   4.304  16.671 -0.3830  0.3877 -0.3223
  845MPD2    C212467   4.546   4.176  16.696  0.2170 -0.1873 -0.0505
  845MPD2    C312468   4.479   4.105  16.595  0.3307  0.4004 -0.3649
  845MPD2    C412469   4.471   4.163  16.466 -0.0716  0.4237  0.4678
  845MPD2    C512470   4.528   4.283  16.442  0.1101  0.0749  0.4824
  845MPD2     H12471   4.544   4.127  16.793  2.2366  2.5197  1.3322
  845MPD2    H112472   4.435   4.115  16.376 -2.0260 -0.2655  1.6092
  845MPD2    H212473   4.639   4.450  16.523  1.2108 -0.6029 -1.6694
  845MPD2    H312474   4.528   4.325  16.342  2.8906  2.0829  1.3276
  845MPD2     N12475   4.441   3.969  16.626  0.0191 -0.1991  0.5126
  845MPD2    H512476   4.476   3.935  16.715 -2.3210 -0.8183  1.1841
  845MPD2    N112477   4.656   4.381  16.780 -0.6609  0.3362 -0.3741
  845MPD2    H712478   4.681   4.476  16.756 -0.5001  0.9096  1.9880
  846MPD2     C12479   0.450   0.339  13.464  0.7185  0.0944 -0.0152
  846MPD2    C112480   0.575   0.327  13.533  0.4712  0.1443  0.7896
  846MPD2    C212481   0.576   0.313  13.670 -0.4161 -0.1814 -0.5905
  846MPD2    C312482   0.462   0.325  13.751 -0.5715 -0.1554  0.0175
  846MPD2    C412483   0.343   0.342  13.685  0.8285 -0.1926  0.0307
  846MPD2    C512484   0.339   0.341  13.546 -0.3041 -0.1708 -0.9091
  846MPD2     H12485   0.669   0.300  13.724 -0.6892 -1.5430 -0.4645
  846MPD2    H112486   0.253   0.353  13.745  0.6596 -3.2564  0.3416
  846MPD2    H212487   0.436   0.348  13.357  0.8297 -1.1523 -0.1392
  846MPD2    H312488   0.244   0.348  13.494 -0.4698  1.6364 -0.3923
  846MPD2     N12489   0.470   0.317  13.894  0.3985 -0.3165 -0.5185
  846MPD2    H512490   0.558   0.288  13.935  0.4064  0.2332 -0.1405
  846MPD2    N112491   0.700   0.336  13.471 -0.3240 -0.2012  0.1979
  846MPD2    H712492   0.782   0.336  13.530 -0.6633 -0.0997  0.6654
  847MPD2     C12493   0.566   1.184  14.528  0.0641  0.8733 -0.0194
  847MPD2    C112494   0.700   1.183  14.488  0.4798 -0.1366 -0.4143
  847MPD2    C212495   0.762   1.056  14.477  0.8271  0.1248  0.2658
  847MPD2    C312496   0.700   0.935  14.506 -0.4976  0.2949 -0.2832
  847MPD2    C412497   0.572   0.946  14.549  0.0023  0.1780  0.1292
  847MPD2    C512498   0.511   1.064  14.551  0.2005 -0.4255 -0.1163
  847MPD2     H12499   0.865   1.059  14.443  0.9855 -1.1871  0.6518
  847MPD2    H112500   0.505   0.862  14.563 -1.4962  1.9571  3.8669
  847MPD2    H212501   0.506   1.272  14.551 -1.2269 -0.2977  1.0866
  847MPD2    H312502   0.406   1.070  14.577  0.4830 -0.4996  1.0674
  847MPD2     N12503   0.777   0.822  14.506  0.6282 -0.0400 -0.4290
  847MPD2    H512504   0.874   0.829  14.476  0.7692  1.1502  0.2946
  847MPD2    N112505   0.782   1.291  14.464  0.6974 -0.3410 -0.3796
  847MPD2    H712506   0.866   1.275  14.410  0.2908 -0.6675 -0.9237
  848MPD2     C12507   4.025   4.144  16.293  0.8371  0.5109 -0.0024
  848MPD2    C112508   4.056   4.215  16.410  0.1401  0.6066 -0.4316
  848MPD2    C212509   4.115   4.333  16.408  0.0644 -0.7094  0.2840
  848MPD2    C312510   4.148   4.387  16.284  0.8554  0.2532  0.0598
  848MPD2    C412511   4.118   4.320  16.164  0.0894  0.1211  0.1247
  848MPD2    C512512   4.048   4.197  16.172 -0.1947 -0.2903  0.2038
  848MPD2     H12513   4.136   4.394  16.495  0.3213 -3.0637  1.8597
  848MPD2    H112514   4.152   4.360  16.069  0.6719 -0.4551  0.0922
  848MPD2    H212515   3.975   4.048  16.296  1.7762  0.0750  1.6704
  848MPD2    H312516   4.018   4.146  16.081 -1.2372  0.1396  0.3155
  848MPD2     N12517   4.184   4.523  16.273 -0.0669 -0.2914  0.3949
  848MPD2    H512518   4.161   4.563  16.182  0.9514 -1.0765 -0.2097
  848MPD2    N112519   4.033   4.155  16.539 -0.0783  0.0211 -0.5984
  848MPD2    H712520   4.089   4.199  16.611 -0.8016  1.2993 -0.8193
  849MPD2     C12521   2.879   3.708  14.343 -0.1733 -0.0280 -0.4583
  849MPD2    C112522   2.909   3.826  14.293 -0.2094 -0.0837 -0.0744
  849MPD2    C212523   3.010   3.901  14.349 -0.9440  0.2789  0.0196
  849MPD2    C312524   3.085   3.856  14.453  0.2059 -0.5164 -0.1078
  849MPD2    C412525   3.047   3.739  14.517 -0.0060  0.8101 -0.0793
  849MPD2    C512526   2.955   3.655  14.442 -0.5917 -0.6891  0.6288
  849MPD2     H12527   3.038   3.994  14.300 -0.6913  1.0992  1.6975
  849MPD2    H112528   3.095   3.694  14.603  2.0954  1.1751 -1.0680
  849MPD2    H212529   2.794   3.655  14.303 -1.7907  2.0316  0.2190
  849MPD2    H312530   2.934   3.555  14.480 -1.2162 -0.3097  1.2813
  849MPD2     N12531   3.200   3.927  14.484  0.2951  0.0417 -0.0961
  849MPD2    H512532   3.221   4.015  14.437 -1.2780 -0.5900 -1.9804
  849MPD2    N112533   2.857   3.874  14.169  0.7374 -0.1256 -0.2722
  849MPD2    H712534   2.904   3.958  14.137  0.1695  0.3813  0.2270
  850MPD2     C12535   1.035   2.130  14.231 -0.1225  0.0308  0.0450
  850MPD2    C112536   1.014   2.036  14.329 -0.5168 -0.0366 -0.2334
  850MPD2    C212537   1.121   1.991  14.407 -0.7027 -0.0461  0.0836
  850MPD2    C312538   1.245   2.053  14.388 -0.4345  0.1026  0.0257
  850MPD2    C412539   1.259   2.137  14.283 -0.2478  0.0041 -0.4546
  850MPD2    C512540   1.156   2.180  14.197  0.6522 -0.8674 -0.8026
  850MPD2     H12541   1.109   1.912  14.480 -3.1584 -0.2361 -0.5227
  850MPD2    H112542   1.357   2.180  14.263 -0.3320  0.7925  0.8284
  850MPD2    H212543   0.954   2.163  14.167  0.5749  2.0669  0.1859
  850MPD2    H312544   1.169   2.254  14.118 -0.3479 -1.8766 -1.9029
  850MPD2     N12545   1.361   2.033  14.470  0.2310 -0.0893  0.9773
  850MPD2    H512546   1.447   2.085  14.454  1.1221 -1.5493  0.9309
  850MPD2    N112547   0.883   1.996  14.350  0.4140  0.1419  0.0289
  850MPD2    H712548   0.819   2.017  14.275 -0.8885 -0.7767  0.8820
  851MPD2     C12549   1.371   1.627  14.830  0.6835 -0.8307 -0.0582
  851MPD2    C112550   1.235   1.602  14.824  0.1539 -0.0107 -0.3327
  851MPD2    C212551   1.187   1.471  14.831 -0.9211  0.4639  0.0325
  851MPD2    C312552   1.277   1.369  14.828  0.1096  0.3294 -1.0624
  851MPD2    C412553   1.418   1.396  14.830  0.1284 -0.1479 -0.4663
  851MPD2    C512554   1.457   1.524  14.834  1.2194  0.5628  0.2235
  851MPD2     H12555   1.080   1.457  14.830 -0.8213 -0.2412 -2.3726
  851MPD2    H112556   1.496   1.320  14.828  0.1782 -0.1218  0.3271
  851MPD2    H212557   1.416   1.724  14.842 -1.5253  0.1232  0.4548
  851MPD2    H312558   1.561   1.552  14.847  0.7201  3.8265 -2.7603
  851MPD2     N12559   1.234   1.234  14.830 -0.1322  0.2318  0.4826
  851MPD2    H512560   1.136   1.226  14.806 -0.3290  2.1981  0.5643
  851MPD2    N112561   1.152   1.716  14.805 -0.6465  0.5714 -0.0590
  851MPD2    H712562   1.204   1.802  14.793 -0.9248  0.3415 -2.9423
  852MPD2     C12563   1.269   4.672  10.602  0.7318  0.1919  0.0912
  852MPD2    C112564   1.220   4.740  10.713 -0.0561  0.2693  0.6094
  852MPD2    C212565   1.262   0.126  10.743 -0.0705 -0.2486  0.8914
  852MPD2    C312566   1.368   0.180  10.672  0.2069 -0.0387  0.9395
  852MPD2    C412567   1.418   0.111  10.565 -0.6496  0.7026 -0.3806
  852MPD2    C512568   1.360   4.734  10.527 -0.5387  0.5293 -0.5795
  852MPD2     H12569   1.231   0.182  10.831 -2.2553  0.0861 -0.0882
  852MPD2    H112570   1.501   0.153  10.509 -1.0399  1.9203 -0.0526
  852MPD2    H212571   1.241   4.572  10.571  1.2765 -0.1762  0.7454
  852MPD2    H312572   1.396   4.672  10.446 -0.4663  0.1261 -0.2386
  852MPD2     N12573   1.430   0.296  10.716 -0.2649 -0.0953  0.0456
  852MPD2    H512574   1.395   0.327  10.806  0.5697 -2.5452  1.2446
  852MPD2    N112575   1.118   4.694  10.790  0.3040  0.1073  0.1839
  852MPD2    H712576   1.088   0.011  10.868  1.4519  1.4857 -0.4008
  853MPD2     C12577   2.423   4.176  12.345  0.0432 -0.0087 -0.2362
  853MPD2    C112578   2.315   4.256  12.306  0.1555 -0.1706 -0.4897
  853MPD2    C212579   2.279   4.262  12.172  0.6809  0.2953  1.0506
  853MPD2    C312580   2.337   4.175  12.076  0.3863 -0.3374 -0.2412
  853MPD2    C412581   2.431   4.088  12.118  0.5475 -0.4537  0.9226
  853MPD2    C512582   2.475   4.092  12.248  0.1689 -0.3900 -0.2727
  853MPD2     H12583   2.218   4.346  12.140  1.7685  0.7724  0.2555
  853MPD2    H112584   2.474   4.014  12.052 -2.2946 -0.0721 -1.3627
  853MPD2    H212585   2.460   4.180  12.447 -0.8312  1.3263  0.0195
  853MPD2    H312586   2.542   4.015  12.284 -1.8118 -2.1103 -0.2593
  853MPD2     N12587   2.320   4.204  11.939 -0.0937 -0.0141 -0.3251
  853MPD2    H512588   2.391   4.157  11.883 -0.3359  0.7289 -1.2639
  853MPD2    N112589   2.264   4.337  12.401  0.3420  0.2343 -0.9108
  853MPD2    H712590   2.307   4.337  12.493  0.2112 -2.7842 -0.8509
  854MPD2     C12591   4.197   0.014  13.363 -0.1067  0.4294  0.5511
  854MPD2    C112592   4.240   4.679  13.259 -0.0763 -0.1506 -0.5071
  854MPD2    C212593   4.365   4.617  13.263 -0.7568 -0.8353  0.0951
  854MPD2    C312594   4.439   4.613  13.376  0.4980  0.2767 -0.5476
  854MPD2    C412595   4.385   4.689  13.483  0.1083 -0.0415 -0.5089
  854MPD2    C512596   4.276   0.027  13.472 -0.3450 -0.6365  0.4866
  854MPD2     H12597   4.392   4.545  13.187  1.5054 -0.0783  0.1762
  854MPD2    H112598   4.431   4.689  13.581 -2.3269 -1.2286  0.6271
  854MPD2    H212599   4.108   0.073  13.346  0.0303  0.8082  1.1387
  854MPD2    H312600   4.235   0.074  13.560 -1.8134  1.2626 -1.2349
  854MPD2     N12601   4.568   4.548  13.392  0.2785  0.4421 -0.4807
  854MPD2    H512602   4.625   4.588  13.466 -0.3361 -0.0884  0.2613
  854MPD2    N112603   4.161   4.661  13.145 -0.0135 -0.2546 -0.2524
  854MPD2    H712604   4.060   4.669  13.157  0.3836  1.6475  1.8047
  855MPD2     C12605   0.603   4.390  13.991  1.1074  0.8140  0.3560
  855MPD2    C112606   0.469   4.350  13.996  0.7704 -0.2769 -0.1384
  855MPD2    C212607   0.397   4.359  13.874 -0.3700 -0.6792  0.4327
  855MPD2    C312608   0.452   4.408  13.757 -0.4464 -0.1572 -0.3603
  855MPD2    C412609   0.589   4.449  13.761 -0.0736 -0.5810 -0.8864
  855MPD2    C512610   0.657   4.437  13.875  0.1774 -0.6498 -0.2854
  855MPD2     H12611   0.295   4.323  13.872 -1.0649  1.2827  0.9545
  855MPD2    H112612   0.629   4.493  13.670 -0.6316  0.1105 -0.7996
  855MPD2    H212613   0.665   4.392  14.080  1.7881  2.2435 -0.1556
  855MPD2    H312614   0.760   4.471  13.876 -0.3138  0.8296  1.4183
  855MPD2     N12615   0.379   4.436  13.636  0.1329 -0.2809 -0.0441
  855MPD2    H512616   0.435   4.489  13.570  0.4530 -1.4335 -0.6826
  855MPD2    N112617   0.409   4.296  14.118  0.3440  0.1282  0.9464
  855MPD2    H712618   0.459   4.310  14.206  0.6755  2.1713  0.4258
  856MPD2     C12619   2.360   0.088  13.954 -0.0559 -0.4867  0.1563
  856MPD2    C112620   2.360   0.213  14.013 -0.1824 -0.7094  0.0615
  856MPD2    C212621   2.254   0.297  13.992 -0.1302  0.1407  0.7866
  856MPD2    C312622   2.149   0.259  13.917  0.5979  0.0547  0.2107
  856MPD2    C412623   2.139   0.132  13.876 -0.6451  0.3450  0.8109
  856MPD2    C512624   2.254   0.054  13.882  1.2313  0.3910  0.8051
  856MPD2     H12625   2.265   0.400  14.026 -0.5938  0.2827  0.5072
  856MPD2    H112626   2.054   0.110  13.813  0.9091  0.1741 -1.2461
  856MPD2    H212627   2.446   0.022  13.952 -0.5856 -1.2225  1.0769
  856MPD2    H312628   2.257   4.700  13.829  0.8150  1.0933 -0.4727
  856MPD2     N12629   2.049   0.349  13.879 -0.3625 -1.1158  0.4435
  856MPD2    H512630   1.978   0.306  13.821  0.3625 -1.1948 -0.4031
  856MPD2    N112631   2.472   0.258  14.084  0.0715  0.3811  0.1264
  856MPD2    H712632   2.451   0.345  14.132  1.7437  1.4028 -0.9905
  857MPD2     C12633   3.733   2.834  12.317 -0.2044 -0.4845 -0.2334
  857MPD2    C112634   3.678   2.790  12.434 -0.4724 -0.6040  0.2723
  857MPD2    C212635   3.642   2.879  12.531 -0.3588 -0.7338  0.1040
  857MPD2    C312636   3.661   3.011  12.508 -0.0552 -1.8093  0.7599
  857MPD2    C412637   3.710   3.052  12.387 -0.1254 -0.4809 -0.2249
  857MPD2    C512638   3.739   2.963  12.289 -0.6349 -0.3750 -0.4753
  857MPD2     H12639   3.607   2.839  12.626 -0.2240  1.6664  1.1802
  857MPD2    H112640   3.735   3.156  12.373 -2.3995  0.3605  1.7056
  857MPD2    H212641   3.764   2.761  12.243  0.4585  0.0860 -0.5132
  857MPD2    H312642   3.785   2.994  12.196  0.3370  0.3791  0.2514
  857MPD2     N12643   3.642   3.100  12.614  0.0765 -0.3646  0.2164
  857MPD2    H512644   3.625   3.051  12.700  0.0771  3.5162  2.4445
  857MPD2    N112645   3.670   2.654  12.456  0.0943 -0.1540 -0.1546
  857MPD2    H712646   3.713   2.601  12.382  1.7809  1.9096 -0.6565
  858MPD2     C12647   4.668   2.385  16.552  0.1322 -0.4791 -0.2080
  858MPD2    C112648   4.678   2.251  16.577  0.2901  0.4464  0.2350
  858MPD2    C212649   4.684   2.207  16.707  0.3808 -0.1266 -0.4159
  858MPD2    C312650   4.694   2.305  16.810 -0.7323 -0.2060  0.3420
  858MPD2    C412651   4.673   2.438  16.779 -0.3145 -0.3183  0.0087
  858MPD2    C512652   4.661   2.479  16.649  0.3092  0.5437 -0.3525
  858MPD2     H12653   4.691   2.100  16.724 -1.3957 -0.1919 -0.0747
  858MPD2    H112654   4.672   2.519  16.850 -1.5222  1.1431 -1.6713
  858MPD2    H212655   4.678   2.419  16.449 -1.1666 -0.3034 -0.2777
  858MPD2    H312656   4.639   2.584  16.630  3.1216  1.5257  1.7670
  858MPD2     N12657   4.716   2.270  16.948 -0.6302  0.4213 -1.2217
  858MPD2    H512658   4.725   2.350  17.009  0.1165 -0.5810 -0.0179
  858MPD2    N112659   4.680   2.166  16.464 -0.1341  0.7760  0.1353
  858MPD2    H712660   4.653   2.211  16.377  0.5518 -1.4105 -1.1872
  859MPD2     C12661   3.200   3.699  15.983 -0.0018 -0.2017 -0.2303
  859MPD2    C112662   3.150   3.726  15.856  0.7733 -0.5618  0.2537
  859MPD2    C212663   3.070   3.628  15.793  0.2817  0.4243 -0.2037
  859MPD2    C312664   3.049   3.508  15.858 -0.1637 -0.0334 -0.3513
  859MPD2    C412665   3.101   3.482  15.982 -0.3060 -0.0960  0.1133
  859MPD2    C512666   3.174   3.574  16.045  0.2503 -0.8003  0.7777
  859MPD2     H12667   3.032   3.637  15.692 -0.4179  0.5327  0.0651
  859MPD2    H112668   3.082   3.387  16.031 -2.6035  1.2594  1.8079
  859MPD2    H212669   3.269   3.763  16.037 -0.1687 -1.0159  0.9385
  859MPD2    H312670   3.210   3.564  16.147  0.5131 -3.0800  0.4686
  859MPD2     N12671   2.961   3.412  15.806  0.2910  0.1134 -0.8081
  859MPD2    H512672   2.943   3.334  15.869 -2.8002  2.3559  1.0765
  859MPD2    N112673   3.185   3.850  15.801  0.4892  0.1618  0.3147
  859MPD2    H712674   3.251   3.902  15.858  0.5207 -1.1418  1.4761
  860MPD2     C12675   0.631   4.295  11.797  0.4556 -0.3062  0.4897
  860MPD2    C112676   0.653   4.243  11.919  0.4957  0.1714  0.1470
  860MPD2    C212677   0.550   4.178  11.981  0.0229  0.1047  0.4284
  860MPD2    C312678   0.430   4.157  11.918 -0.3172  0.9154 -0.3755
  860MPD2    C412679   0.409   4.212  11.793  0.2494 -0.6855 -1.1124
  860MPD2    C512680   0.512   4.275  11.740  0.3592 -0.5627 -0.2282
  860MPD2     H12681   0.562   4.152  12.086  2.4351  0.7352  0.2898
  860MPD2    H112682   0.312   4.220  11.745 -0.0817 -0.0859 -0.3356
  860MPD2    H212683   0.699   4.364  11.750  1.5957 -0.3346  2.1026
  860MPD2    H312684   0.495   4.305  11.638 -0.4359  1.2433  0.4393
  860MPD2     N12685   0.317   4.107  11.987  0.5402 -0.5031 -0.9312
  860MPD2    H512686   0.222   4.132  11.966  0.2287  1.1487  2.3701
  860MPD2    N112687   0.772   4.254  11.980  0.8845  0.1720  0.9596
  860MPD2    H712688   0.787   4.214  12.072 -3.8243 -2.4554  0.5690
  861MPD2     C12689   4.470   2.086  10.857 -0.4097 -0.1103 -0.2952
  861MPD2    C112690   4.417   2.210  10.886  0.0045  0.1660 -0.1718
  861MPD2    C212691   4.332   2.270  10.799  0.2122  0.5704 -0.1275
  861MPD2    C312692   4.286   2.194  10.691  0.0211  0.4828 -0.1223
  861MPD2    C412693   4.345   2.073  10.658 -0.5408  0.0909  0.4295
  861MPD2    C512694   4.437   2.018  10.744  0.5486  0.1827  0.3425
  861MPD2     H12695   4.289   2.366  10.823 -1.1101  0.2761 -1.2618
  861MPD2    H112696   4.308   2.021  10.571  0.6212 -0.2566  0.1488
  861MPD2    H212697   4.537   2.040  10.930 -0.4488 -0.6102 -0.5741
  861MPD2    H312698   4.476   1.918  10.725  0.3994  0.2895 -0.5383
  861MPD2     N12699   4.184   2.244  10.610 -0.7796 -0.5840 -1.1674
  861MPD2    H512700   4.124   2.181  10.557 -0.6817  1.2542 -3.4510
  861MPD2    N112701   4.448   2.276  11.008  0.2193  0.1757 -0.7429
  861MPD2    H712702   4.396   2.362  11.020 -1.8035 -1.3540  1.3731
  862MPD2     C12703   3.326   2.387  10.673  0.2568  0.1421 -0.7376
  862MPD2    C112704   3.447   2.343  10.716 -0.2625  0.7217 -0.1700
  862MPD2    C212705   3.461   2.262  10.824  0.5232  0.1441  0.1958
  862MPD2    C312706   3.351   2.224  10.888  0.4632  0.0204 -0.3550
  862MPD2    C412707   3.225   2.259  10.847 -0.5562 -0.1213  0.1106
  862MPD2    C512708   3.210   2.343  10.737  0.0859  0.2832 -0.3014
  862MPD2     H12709   3.558   2.222  10.852  0.3928 -1.6136 -1.8418
  862MPD2    H112710   3.135   2.220  10.894 -0.5595 -0.4973 -0.2138
  862MPD2    H212711   3.328   2.445  10.581 -0.3564 -0.1978 -0.9626
  862MPD2    H312712   3.110   2.335  10.695  0.0135  1.2346 -0.3131
  862MPD2     N12713   3.351   2.146  11.006 -0.1309  0.3261 -0.4356
  862MPD2    H512714   3.260   2.119  11.043 -0.5167 -1.6875 -2.8628
  862MPD2    N112715   3.556   2.386  10.640  0.4296 -0.8178 -0.2908
  862MPD2    H712716   3.533   2.442  10.559  1.9730  0.7435  0.3436
  863MPD2     C12717   2.994   0.529  16.642  0.8282 -0.0611 -0.1679
  863MPD2    C112718   3.025   0.644  16.704  1.1719  0.4007  0.6302
  863MPD2    C212719   3.145   0.663  16.767  0.0968 -0.3176  0.1856
  863MPD2    C312720   3.238   0.562  16.761  0.4905 -0.0533  0.1419
  863MPD2    C412721   3.213   0.448  16.688 -0.0636  0.7228 -0.4465
  863MPD2    C512722   3.089   0.426  16.630 -0.0791 -0.3414  0.5965
  863MPD2     H12723   3.178   0.759  16.803  1.5263  0.1493 -2.3086
  863MPD2    H112724   3.286   0.369  16.677  1.9018  2.3318  1.1761
  863MPD2    H212725   2.899   0.508  16.596 -0.0407  1.4004  0.9726
  863MPD2    H312726   3.069   0.326  16.591 -0.1473 -0.1515  0.1370
  863MPD2     N12727   3.367   0.575  16.816 -0.0816 -0.4124  0.7383
  863MPD2    H512728   3.433   0.498  16.804  0.7562  0.2235  1.2200
  863MPD2    N112729   2.920   0.745  16.702 -0.3723  0.7459 -0.2599
  863MPD2    H712730   2.845   0.719  16.639  0.4329 -1.0852 -0.4804
  864MPD2     C12731   3.421   1.886  17.495 -0.2413  0.1298 -0.6713
  864MPD2    C112732   3.518   1.850  17.405  0.3878  0.2236  0.2351
  864MPD2    C212733   3.591   1.943  17.336 -0.1442 -0.0373  0.2289
  864MPD2    C312734   3.574   2.078  17.363 -0.2587 -0.5212 -0.2286
  864MPD2    C412735   3.472   2.116  17.446 -0.4323  0.4617  0.6304
  864MPD2    C512736   3.405   2.022  17.514 -0.4930 -0.1819  0.0948
  864MPD2     H12737   3.674   1.910  17.275 -0.0442 -1.1020  0.9312
  864MPD2    H112738   3.452   2.220  17.471  1.1497  1.4197 -2.0521
  864MPD2    H212739   3.353   1.814  17.540 -3.0057  4.6949  2.4281
  864MPD2    H312740   3.313   2.045  17.567 -0.6618 -1.1417  0.2132
  864MPD2     N12741   3.655   2.175  17.296 -0.2094 -0.3104  0.3651
  864MPD2    H512742   3.629   2.271  17.317  0.7510  0.6231 -2.6438
  864MPD2    N112743   3.519   1.713  17.395  0.5272  0.0630 -0.0226
  864MPD2    H712744   3.458   1.655  17.452 -1.2995  0.2419 -1.8070
  865MPD2     C12745   3.526   2.336  16.504  0.0842 -1.0358  0.3569
  865MPD2    C112746   3.611   2.235  16.558  0.2973 -0.4011 -0.2981
  865MPD2    C212747   3.677   2.270  16.677  0.4731  0.2667  1.0037
  865MPD2    C312748   3.643   2.385  16.742  0.1407  0.1543 -0.0169
  865MPD2    C412749   3.552   2.471  16.689  0.2140  0.5017 -0.6679
  865MPD2    C512750   3.496   2.454  16.570  0.7917  0.4518  0.3641
  865MPD2     H12751   3.754   2.207  16.722  1.8675  1.6880  0.6063
  865MPD2    H112752   3.529   2.560  16.747  0.7936  1.0194 -1.2405
  865MPD2    H212753   3.483   2.322  16.405  0.2293 -0.0361  0.1484
  865MPD2    H312754   3.430   2.531  16.531  0.9825  0.8037  0.7370
  865MPD2     N12755   3.717   2.398  16.862  0.1689 -0.2413  0.1916
  865MPD2    H512756   3.789   2.329  16.883  0.6373 -1.0736 -4.0565
  865MPD2    N112757   3.632   2.122  16.480 -0.1531  1.0512  0.2317
  865MPD2    H712758   3.609   2.125  16.381  3.6639 -2.6023 -0.7516
  866MPD2     C12759   0.164   2.128  10.714  0.3991  0.1762 -0.1307
  866MPD2    C112760   0.233   2.237  10.766 -0.8628  1.1086  0.9811
  866MPD2    C212761   0.165   2.359  10.782 -1.0023  0.3358  0.0239
  866MPD2    C312762   0.031   2.362  10.755  0.0882 -0.4694  0.5873
  866MPD2    C412763   4.710   2.255  10.709 -0.4579  0.2476  0.2923
  866MPD2    C512764   0.033   2.138  10.687 -0.4230 -0.5647  0.9259
  866MPD2     H12765   0.218   2.445  10.823 -2.3157  0.7219  0.8983
  866MPD2    H112766   4.609   2.264  10.671 -0.1094 -2.7927 -1.3861
  866MPD2    H212767   0.217   2.034  10.709  2.3347  1.4430 -3.0709
  866MPD2    H312768   4.710   2.056  10.655 -3.1897  1.7090  0.5837
  866MPD2     N12769   4.687   2.473  10.768  0.3849  0.0823  0.3664
  866MPD2    H512770   4.589   2.453  10.749  0.0325  1.2707  0.8784
  866MPD2    N112771   0.369   2.225  10.799  0.3114 -0.5746  0.2025
  866MPD2    H712772   0.413   2.134  10.784  0.8862  0.0061 -1.6478
  867MPD2     C12773   2.732   2.245  16.759 -0.5481 -0.7950 -0.3992
  867MPD2    C112774   2.833   2.241  16.854  0.4332 -0.0742 -0.9129
  867MPD2    C212775   2.843   2.343  16.945  0.0885 -0.0340 -0.3802
  867MPD2    C312776   2.750   2.445  16.943  0.0575  0.1424 -0.0123
  867MPD2    C412777   2.654   2.454  16.842 -0.3097 -0.4617 -0.0577
  867MPD2    C512778   2.651   2.356  16.747  0.7873  0.2014 -0.7257
  867MPD2     H12779   2.916   2.334  17.025 -1.2248 -2.2859  0.5688
  867MPD2    H112780   2.585   2.537  16.848 -0.8841 -0.8015 -1.9807
  867MPD2    H212781   2.715   2.165  16.688 -0.1182 -0.2596 -1.1150
  867MPD2    H312782   2.569   2.352  16.676 -0.2757 -2.6566  0.6850
  867MPD2     N12783   2.744   2.549  17.046 -0.8658  0.2621  0.7120
  867MPD2    H512784   2.669   2.617  17.043  2.2062  3.7750  3.7865
  867MPD2    N112785   2.912   2.130  16.863 -0.5143  0.1572  0.3935
  867MPD2    H712786   2.889   2.053  16.801 -1.0430  3.1391 -3.1025
  868MPD2     C12787   4.041   1.354  13.074 -0.5475  0.4440  1.3196
  868MPD2    C112788   4.114   1.260  13.141 -0.0467 -0.2255 -0.3795
  868MPD2    C212789   4.112   1.264  13.280  0.0328 -0.6067 -0.1142
  868MPD2    C312790   4.045   1.359  13.352 -0.3417  0.2596  0.0776
  868MPD2    C412791   3.975   1.462  13.288  0.4906  0.6365  0.1631
  868MPD2    C512792   3.977   1.455  13.147  0.3702  0.5875 -0.2352
  868MPD2     H12793   4.164   1.181  13.326  0.5537 -1.7412 -2.7888
  868MPD2    H112794   3.917   1.539  13.337 -0.7694 -0.1354 -0.1009
  868MPD2    H212795   4.040   1.365  12.966 -0.3277 -0.2165  1.2545
  868MPD2    H312796   3.923   1.526  13.086  0.3014  2.1270  1.6381
  868MPD2     N12797   4.046   1.346  13.491  0.5458 -0.1189  0.0154
  868MPD2    H512798   4.097   1.268  13.530 -2.2256 -1.2906  1.3026
  868MPD2    N112799   4.184   1.169  13.068 -0.3305 -0.3178  0.5378
  868MPD2    H712800   4.174   1.167  12.967  0.8084 -0.4071  0.4172
  869MPD2     C12801   1.126   3.951   0.337 -0.1281  0.5661  0.0267
  869MPD2    C112802   1.016   3.965   0.420  0.5579  0.3852  0.2729
  869MPD2    C212803   1.022   3.942   0.557 -0.5268 -0.1738 -0.1377
  869MPD2    C312804   1.126   3.860   0.608  0.0740  0.1938 -0.4023
  869MPD2    C412805   1.229   3.827   0.524  0.4074  0.1766  0.2571
  869MPD2    C512806   1.227   3.868   0.391 -0.0292 -0.6655 -0.0216
  869MPD2     H12807   0.936   3.962   0.620  0.9155 -3.1159  2.7744
  869MPD2    H112808   1.310   3.763   0.555  0.2960 -0.5343 -0.9234
  869MPD2    H212809   1.117   3.982   0.233  4.4014 -2.6260 -1.3377
  869MPD2    H312810   1.308   3.843   0.323 -1.0425 -1.0641 -1.0745
  869MPD2     N12811   1.134   3.811   0.738  0.3125 -0.5405 -0.6053
  869MPD2    H512812   1.197   3.734   0.758  0.2287 -1.1476 -2.6700
  869MPD2    N112813   0.908   4.024   0.359 -0.1048 -0.2578 -0.3976
  869MPD2    H712814   0.915   4.074   0.271 -0.9178  2.0082  0.8331
  870MPD2     C12815   0.738   2.156   1.749  0.6573 -0.2504  0.3407
  870MPD2    C112816   0.849   2.194   1.671 -0.4802 -0.3996 -0.6290
  870MPD2    C212817   0.875   2.327   1.633  0.3632  0.0194  0.0365
  870MPD2    C312818   0.792   2.427   1.683  0.1052  0.2014 -0.0832
  870MPD2    C412819   0.694   2.390   1.771 -0.4960  0.1252 -0.5627
  870MPD2    C512820   0.661   2.260   1.792 -0.4131  0.4471 -0.2538
  870MPD2     H12821   0.945   2.336   1.551 -2.2517  0.2433 -2.1979
  870MPD2    H112822   0.634   2.461   1.826  1.0927  0.4844  0.6911
  870MPD2    H212823   0.712   2.053   1.770  3.5661 -0.7245  1.5705
  870MPD2    H312824   0.568   2.235   1.842 -0.1760  2.3859  1.1458
  870MPD2     N12825   0.806   2.564   1.652  0.8665  0.0283 -0.2661
  870MPD2    H512826   0.741   2.625   1.701  1.1545  0.1398 -0.0252
  870MPD2    N112827   0.931   2.090   1.633 -0.2279 -0.0339 -0.6443
  870MPD2    H712828   0.895   1.996   1.645 -0.2210 -0.2067 -1.9732
  871MPD2     C12829   1.319   2.174  16.449 -0.1559  0.5066 -0.6538
  871MPD2    C112830   1.361   2.133  16.571 -0.1909  0.4504  0.3392
  871MPD2    C212831   1.414   2.013  16.587 -0.3301  0.1978  0.1737
  871MPD2    C312832   1.437   1.930  16.481  0.5099 -0.1213  0.3759
  871MPD2    C412833   1.383   1.971  16.363 -0.2015  0.2316  0.1223
  871MPD2    C512834   1.325   2.089  16.342 -0.3225  0.0774 -0.0732
  871MPD2     H12835   1.449   1.975  16.682 -0.4593 -1.0306 -0.2699
  871MPD2    H112836   1.377   1.907  16.276 -0.0042  1.2113 -0.6245
  871MPD2    H212837   1.279   2.275  16.437 -1.1098  0.3309  1.0552
  871MPD2    H312838   1.289   2.122  16.245 -1.4459 -1.2029 -0.0964
  871MPD2     N12839   1.473   1.799  16.511 -0.4337  0.3964 -0.1515
  871MPD2    H512840   1.468   1.776  16.610  0.4349  0.0913 -0.1788
  871MPD2    N112841   1.353   2.227  16.680 -0.1933 -0.8390  0.2605
  871MPD2    H712842   1.308   2.315  16.656 -3.4814 -2.9449 -1.3493
  872MPD2     C12843   2.012   4.686  13.318  1.1596  0.2239  0.5355
  872MPD2    C112844   2.039   0.001  13.441  0.1123  0.0789 -0.7551
  872MPD2    C212845   1.986   4.693  13.551 -0.2998  0.1658  0.1286
  872MPD2    C312846   1.916   4.574  13.551  0.1934 -0.8201 -0.2633
  872MPD2    C412847   1.892   4.506  13.430  0.1790  0.5139 -0.0984
  872MPD2    C512848   1.935   4.565  13.318  0.0335 -0.1007  0.4625
  872MPD2     H12849   1.978   0.010  13.642 -1.6490  1.1637 -0.6245
  872MPD2    H112850   1.843   4.410  13.419 -0.6575  0.9343 -0.0378
  872MPD2    H212851   2.053   4.715  13.222  2.1997  0.1949  0.9625
  872MPD2    H312852   1.917   4.529  13.217 -1.6371 -2.9802  1.7855
  872MPD2     N12853   1.852   4.519  13.673  0.4223 -0.4151  0.4802
  872MPD2    H512854   1.797   4.435  13.660  0.6527 -0.3939 -0.6300
  872MPD2    N112855   2.117   0.114  13.455  0.1896 -0.1136  0.7721
  872MPD2    H712856   2.112   0.165  13.543  2.0285  0.7309  0.3798
  873MPD2     C12857   3.857   4.526   0.492  0.5344 -0.5018  0.0888
  873MPD2    C112858   3.747   4.462   0.541 -0.2240  0.5985 -0.1204
  873MPD2    C212859   3.713   4.336   0.494  0.3303  0.6553 -0.1797
  873MPD2    C312860   3.791   4.275   0.390 -0.0578  0.1716 -0.4321
  873MPD2    C412861   3.888   4.353   0.330 -0.0272 -0.7220  0.4288
  873MPD2    C512862   3.919   4.475   0.381 -0.4793 -0.1464 -0.1392
  873MPD2     H12863   3.636   4.282   0.548  0.1564  1.3247  0.2454
  873MPD2    H112864   3.947   4.315   0.248 -0.0792  0.5934 -0.2257
  873MPD2    H212865   3.891   4.615   0.545 -2.9392  0.3669  0.8737
  873MPD2    H312866   4.010   4.527   0.352  0.4366 -1.1711  0.9018
  873MPD2     N12867   3.773   4.141   0.353  1.1038  0.5203 -0.1529
  873MPD2    H512868   3.823   4.108   0.271 -1.0581 -0.5032 -1.0687
  873MPD2    N112869   3.676   4.515   0.650  0.3535 -0.7326 -0.1997
  873MPD2    H712870   3.713   4.602   0.688 -0.4137  0.1422 -1.4755
  874MPD2     C12871   3.480   0.112  16.261  0.1685  0.4932  0.2257
  874MPD2    C112872   3.548   0.059  16.366 -0.3062  0.0255 -0.6557
  874MPD2    C212873   3.685   0.088  16.379  0.2932 -0.2137  0.2262
  874MPD2    C312874   3.757   0.167  16.291 -0.0930  0.8495 -0.4930
  874MPD2    C412875   3.689   0.210  16.183 -0.3083  0.0854 -0.2142
  874MPD2    C512876   3.558   0.183  16.167 -0.4893 -0.4624 -0.4077
  874MPD2     H12877   3.735   0.050  16.468  1.9390 -0.7473 -0.9286
  874MPD2    H112878   3.735   0.273  16.108  1.4853 -3.0900 -1.8013
  874MPD2    H212879   3.380   0.087  16.227  0.8242 -0.9493 -0.6725
  874MPD2    H312880   3.519   0.228  16.077  3.2960 -0.1289 -1.8660
  874MPD2     N12881   3.894   0.170  16.318 -0.0748 -0.2009 -0.5124
  874MPD2    H512882   3.932   0.116  16.395  0.7386  1.3770  0.1851
  874MPD2    N112883   3.471   4.717  16.454 -0.0160  0.2580 -0.2165
  874MPD2    H712884   3.375   4.694  16.428  0.2118 -1.0155  0.0718
  875MPD2     C12885   4.684   2.762  14.882 -0.2756  0.4939 -0.0169
  875MPD2    C112886   4.568   2.821  14.923 -0.2727 -0.5085 -0.0657
  875MPD2    C212887   4.564   2.882  15.050  0.5874  0.3856  0.1515
  875MPD2    C312888   4.676   2.901  15.126  0.2731  0.1989  0.0765
  875MPD2    C412889   0.045   2.848  15.079  0.5164 -0.0662 -0.0367
  875MPD2    C512890   0.050   2.781  14.961 -0.5083  0.5647 -0.0268
  875MPD2     H12891   4.467   2.915  15.086  0.0950 -0.9875  0.0816
  875MPD2    H112892   0.141   2.870  15.125  1.0388 -0.4965 -0.9273
  875MPD2    H212893   4.701   2.715  14.786  1.0798  1.0309 -0.0392
  875MPD2    H312894   0.143   2.754  14.912 -1.7864 -0.4193 -1.9523
  875MPD2     N12895   4.675   2.971  15.252 -0.2338  0.1314 -0.5734
  875MPD2    H512896   0.017   2.973  15.310 -0.8082  1.8725  0.1865
  875MPD2    N112897   4.449   2.816  14.854 -0.0510  0.1007 -0.5538
  875MPD2    H712898   4.367   2.861  14.894 -1.1650  1.1709 -4.0739
  876MPD2     C12899   3.123   4.177  16.157  0.3412 -0.3548  0.6571
  876MPD2    C112900   3.257   4.207  16.179 -0.3570 -0.2397  0.4382
  876MPD2    C212901   3.338   4.110  16.231  0.2711  0.3380 -0.9174
  876MPD2    C312902   3.286   3.987  16.273 -0.1754  0.4598  0.2899
  876MPD2    C412903   3.152   3.963  16.255 -0.3843 -0.2377  0.6531
  876MPD2    C512904   3.073   4.059  16.193 -0.8064 -0.1325 -0.0641
  876MPD2     H12905   3.443   4.135  16.237  0.2298  0.4747 -0.7404
  876MPD2    H112906   3.107   3.866  16.270  0.1153 -0.3210  1.6078
  876MPD2    H212907   3.056   4.249  16.112  1.8930  1.3059  0.9826
  876MPD2    H312908   2.965   4.049  16.186 -0.7771 -0.5018 -0.0223
  876MPD2     N12909   3.376   3.892  16.324 -0.2583  0.3350 -0.4206
  876MPD2    H512910   3.472   3.922  16.319  0.0563 -0.8817 -1.6416
  876MPD2    N112911   3.312   4.333  16.127  0.0514 -0.0220  0.3740
  876MPD2    H712912   3.251   4.380  16.061  2.4107  2.3296 -0.1395
  877MPD2     C12913   3.440   4.653  15.490  0.4699 -0.0306 -0.7179
  877MPD2    C112914   3.562   4.652  15.553  0.3014 -0.3397  0.1536
  877MPD2    C212915   3.676   4.631  15.480  0.3347 -0.1946  0.1854
  877MPD2    C312916   3.664   4.622  15.341  0.3368  0.5423  0.3408
  877MPD2    C412917   3.542   4.625  15.275 -0.2232 -0.1848  0.2636
  877MPD2    C512918   3.433   4.645  15.354  0.7912 -0.0720 -0.5008
  877MPD2     H12919   3.766   4.607  15.536  0.1579 -2.6329 -0.5957
  877MPD2    H112920   3.528   4.612  15.168  0.8653 -1.3935  0.2792
  877MPD2    H212921   3.347   4.661  15.545  1.1751  2.5131  0.0654
  877MPD2    H312922   3.336   4.637  15.308  0.2060 -1.2637  0.9391
  877MPD2     N12923   3.771   4.624  15.253 -0.0581 -0.0291  0.0755
  877MPD2    H512924   3.745   4.613  15.156 -3.3993  0.4563  0.9240
  877MPD2    N112925   3.576   4.651  15.693 -0.1398  0.5846  0.3829
  877MPD2    H712926   3.666   4.629  15.734  0.9774  1.4104 -1.6323
  878MPD2     C12927   2.967   3.675  13.133 -0.5244 -1.3647  0.4060
  878MPD2    C112928   2.954   3.813  13.148 -0.1695 -0.6327 -0.1103
  878MPD2    C212929   2.928   3.868  13.270  0.0659 -0.3358 -0.4690
  878MPD2    C312930   2.932   3.782  13.382 -0.2736  0.0547  0.1165
  878MPD2    C412931   2.970   3.650  13.369  0.2308 -0.6477  0.0468
  878MPD2    C512932   2.981   3.601  13.241  0.5539  0.5968  0.6299
  878MPD2     H12933   2.914   3.974  13.285  0.5512 -0.2081 -0.9229
  878MPD2    H112934   2.973   3.581  13.452  1.7615  1.0639  1.4216
  878MPD2    H212935   2.994   3.631  13.038 -2.7383 -1.4101 -0.2045
  878MPD2    H312936   3.007   3.496  13.228 -1.5366  0.0350  0.9289
  878MPD2     N12937   2.915   3.838  13.513  0.2502 -0.2103 -0.0279
  878MPD2    H512938   2.907   3.939  13.502  0.2021 -0.2827 -0.6951
  878MPD2    N112939   2.952   3.885  13.024  0.6089  0.5365 -0.3664
  878MPD2    H712940   2.983   3.835  12.941  0.0802  0.4140 -0.4863
  879MPD2     C12941   4.263   0.864  16.945  0.9927  0.5672  0.6039
  879MPD2    C112942   4.170   0.808  17.035 -0.2598  0.8772  0.7530
  879MPD2    C212943   4.083   0.704  16.994  0.2016  0.2214  0.2805
  879MPD2    C312944   4.070   0.665  16.857  0.4300 -0.0460 -0.2830
  879MPD2    C412945   4.156   0.723  16.770  0.1305 -0.1971  0.0348
  879MPD2    C512946   4.255   0.816  16.818  0.5177  0.4444 -0.8623
  879MPD2     H12947   4.020   0.658  17.069  0.8136  2.3176  2.0965
  879MPD2    H112948   4.150   0.697  16.665 -2.8055  1.3158 -0.1473
  879MPD2    H212949   4.339   0.937  16.969  0.3916  1.5576 -0.4920
  879MPD2    H312950   4.327   0.857  16.749 -0.1294 -0.9101 -2.3289
  879MPD2     N12951   3.976   0.567  16.815  0.0492 -0.1727 -0.3330
  879MPD2    H512952   3.976   0.546  16.715 -0.5669 -0.6149 -0.2369
  879MPD2    N112953   4.183   0.853  17.163  0.3172  0.1124  0.2205
  879MPD2    H712954   4.246   0.932  17.175  1.9272 -1.4046  1.6572
  880MPD2     C12955   0.765   2.502   0.082  0.4313 -0.0435 -0.3924
  880MPD2    C112956   0.763   2.537   0.212 -0.2129 -0.6530 -1.4297
  880MPD2    C212957   0.733   2.432   0.302  0.8985  0.0350  0.7780
  880MPD2    C312958   0.719   2.304   0.256 -0.8483  0.3341  0.6798
  880MPD2    C412959   0.744   2.275   0.128  0.1176 -1.2274  0.1435
  880MPD2    C512960   0.752   2.377   0.032  0.1006  0.2302 -0.2797
  880MPD2     H12961   0.722   2.458   0.407 -2.7946 -1.2424  0.6807
  880MPD2    H112962   0.746   2.173   0.091  0.0727 -1.3304  0.4260
  880MPD2    H212963   0.789   2.577   0.008 -1.9416 -2.1800 -3.3000
  880MPD2    H312964   0.774   2.357  17.689  0.2750  0.9863 -0.3870
  880MPD2     N12965   0.690   2.206   0.346  0.1791  0.3755 -1.0282
  880MPD2    H512966   0.710   2.112   0.314  2.3696  0.3339  0.4676
  880MPD2    N112967   0.755   2.677   0.243  0.4243 -0.1298 -0.0986
  880MPD2    H712968   0.751   2.746   0.169  4.6894 -0.2650 -0.4719
  881MPD2     C12969   0.704   3.479  17.668  0.2974  0.0573 -0.3145
  881MPD2    C112970   0.747   3.352  17.682 -0.5676 -0.0130  0.5816
  881MPD2    C212971   0.711   3.280   0.034  0.1321 -0.4707 -0.1806
  881MPD2    C312972   0.639   3.340   0.133  0.0845  0.7263 -0.1242
  881MPD2    C412973   0.619   3.472   0.128 -0.5222 -0.2501 -0.4039
  881MPD2    C512974   0.650   3.539   0.014  0.0228  0.3254  0.4431
  881MPD2     H12975   0.743   3.178   0.052  1.0895  0.0423  0.9815
  881MPD2    H112976   0.576   3.523   0.214  0.5997 -1.5442  0.9350
  881MPD2    H212977   0.719   3.539  17.579  0.7855  2.0409  1.1059
  881MPD2    H312978   0.621   3.643   0.009 -3.3894 -0.5814  1.0504
  881MPD2     N12979   0.602   3.268   0.248 -0.2684  0.1941 -0.1501
  881MPD2    H512980   0.588   3.314   0.338 -0.6129 -3.6193  1.7423
  881MPD2    N112981   0.790   3.287  17.563  0.3205  0.4178  0.3320
  881MPD2    H712982   0.807   3.348  17.484 -0.5953  1.5618  1.0065
  882MPD2     C12983   3.740   0.255  14.756  0.0044 -0.1955  0.3488
  882MPD2    C112984   3.745   0.121  14.775  0.3314 -0.0569 -0.7352
  882MPD2    C212985   3.636   0.051  14.735 -0.6622  0.0662  1.1385
  882MPD2    C312986   3.524   0.110  14.677 -0.0567  1.6493 -0.2307
  882MPD2    C412987   3.526   0.238  14.637 -0.2902 -0.2349 -0.0447
  882MPD2    C512988   3.636   0.308  14.684 -0.0050  0.3656 -0.2596
  882MPD2     H12989   3.637   4.686  14.760 -0.8794 -0.2592 -0.2322
  882MPD2    H112990   3.443   0.287  14.586 -0.4523 -1.4009 -0.8860
  882MPD2    H212991   3.818   0.322  14.788  0.2892  0.2776 -1.3069
  882MPD2    H312992   3.641   0.414  14.664 -2.4532  0.3910 -0.7562
  882MPD2     N12993   3.408   0.034  14.632  0.4374 -0.1954 -0.5764
  882MPD2    H512994   3.336   0.082  14.578  0.4918  0.7311  0.1758
  882MPD2    N112995   3.855   0.074  14.849  0.7572  0.5844 -0.3559
  882MPD2    H712996   3.914   0.140  14.898 -2.0423  1.2050  2.1767
  883MPD2     C12997   0.567   4.666  16.195  0.0389  0.0389 -0.6831
  883MPD2    C112998   0.639   4.721  16.087  0.1328 -0.1978  0.5440
  883MPD2    C212999   0.763   0.043  16.119  0.4554 -0.1436  0.0056
  883MPD2    C313000   0.803   0.061  16.249  0.0738 -0.5204 -0.1769
  883MPD2    C413001   0.725   0.014  16.351 -1.0777 -0.5287  0.4451
  883MPD2    C513002   0.611   4.684  16.324  0.5125 -0.7060  0.1522
  883MPD2     H13003   0.829   0.072  16.038  1.5752  1.6625  1.5741
  883MPD2    H113004   0.752   0.030  16.455  0.1583  3.3012 -0.4869
  883MPD2    H213005   0.484   4.602  16.169 -0.1437  0.2173 -0.5403
  883MPD2    H313006   0.551   4.634  16.399  0.8696 -2.1510 -0.5262
  883MPD2     N13007   0.927   0.137  16.270  0.6151  0.1960 -0.0540
  883MPD2    H513008   0.971   0.174  16.187  0.2529 -0.4964 -0.5542
  883MPD2    N113009   0.596   4.715  15.956 -0.5683  0.5537 -0.2487
  883MPD2    H713010   0.651   0.027  15.889 -0.2314  2.0506  1.2109
  884MPD2     C13011   2.563   0.562  14.937  0.8730 -0.2743  0.5693
  884MPD2    C113012   2.558   0.699  14.967  0.4842  0.7446 -0.4790
  884MPD2    C213013   2.442   0.749  15.025  0.5195  0.0559  0.5229
  884MPD2    C313014   2.328   0.667  15.040 -0.0121 -0.2179  0.1055
  884MPD2    C413015   2.338   0.533  15.002 -0.6745  0.2349  0.5109
  884MPD2    C513016   2.451   0.480  14.954 -0.0212 -0.5032 -0.0645
  884MPD2     H13017   2.446   0.853  15.054 -0.6998 -0.6354  3.2184
  884MPD2    H113018   2.249   0.471  15.004 -0.7361  0.2662 -1.1143
  884MPD2    H213019   2.655   0.508  14.916 -0.6633 -1.6835 -2.5562
  884MPD2    H313020   2.441   0.374  14.934  1.9123 -0.8741  0.9670
  884MPD2     N13021   2.210   0.723  15.092  0.1258 -0.5147 -0.7058
  884MPD2    H513022   2.203   0.824  15.092  0.4104 -0.4961 -0.4367
  884MPD2    N113023   2.677   0.780  14.962  0.4842  0.2016  0.8691
  884MPD2    H713024   2.675   0.881  14.976 -2.0815  0.0839  1.3952
  885MPD2     C13025   0.753   0.585  17.562 -0.8545 -0.2046  0.5272
  885MPD2    C113026   0.878   0.641  17.576 -0.6677  0.5803 -0.2177
  885MPD2    C213027   0.893   0.750  17.495  0.3942  0.5997  0.2210
  885MPD2    C313028   0.795   0.808  17.419 -0.6882  0.4854 -0.1647
  885MPD2    C413029   0.665   0.749  17.419 -0.5233  0.1919  0.2126
  885MPD2    C513030   0.650   0.637  17.494  0.7716 -0.8489  0.3117
  885MPD2     H13031   0.990   0.798  17.484  1.2491 -1.1302  0.2130
  885MPD2    H113032   0.581   0.772  17.355  0.1496 -1.7732 -1.3701
  885MPD2    H213033   0.722   0.494  17.614 -0.4325 -0.3444  0.5397
  885MPD2    H313034   0.556   0.584  17.501  0.3843  0.2169  3.2990
  885MPD2     N13035   0.819   0.919  17.334 -0.3063 -0.4145 -0.5505
  885MPD2    H513036   0.917   0.945  17.321 -0.4637  0.0891 -0.7292
  885MPD2    N113037   0.979   0.573  17.648  0.4648 -0.1918  0.6144
  885MPD2    H713038   0.951   0.482  17.682 -1.0738  0.5496  1.3371
  886MPD2     C13039   2.020   3.608  15.455 -0.8282 -0.3986 -0.4667
  886MPD2    C113040   2.152   3.627  15.471 -0.4711 -0.5211  0.5104
  886MPD2    C213041   2.210   3.727  15.401  0.2680  0.5463  0.3241
  886MPD2    C313042   2.143   3.807  15.306 -0.1225  0.0187  0.0143
  886MPD2    C413043   2.009   3.783  15.289  0.4311 -1.0909  0.0671
  886MPD2    C513044   1.949   3.684  15.364 -0.7011 -0.3746  0.5422
  886MPD2     H13045   2.316   3.745  15.414 -0.1515  1.7057  2.2093
  886MPD2    H113046   1.945   3.846  15.229 -0.4967  0.2863  2.5136
  886MPD2    H213047   1.960   3.528  15.496  0.4450 -0.5516  1.0947
  886MPD2    H313048   1.842   3.667  15.359 -0.7706  0.0582  0.5788
  886MPD2     N13049   2.210   3.915  15.243  0.4599 -0.7388 -0.4192
  886MPD2    H513050   2.309   3.917  15.262  0.6498 -0.5692 -1.4545
  886MPD2    N113051   2.234   3.559  15.555  0.6778 -0.1567 -0.3752
  886MPD2    H713052   2.333   3.585  15.558  0.2774  1.2743  0.4943
  887MPD2     C13053   2.778   3.747  15.917  0.3225 -0.9123 -0.0782
  887MPD2    C113054   2.662   3.780  15.872 -0.8543  0.0704 -0.0246
  887MPD2    C213055   2.638   3.911  15.839  0.8712 -0.4251 -0.0399
  887MPD2    C313056   2.723   4.016  15.870 -0.1795  0.3145  0.0360
  887MPD2    C413057   2.840   3.972  15.926 -0.2868 -0.1852  0.2372
  887MPD2    C513058   2.866   3.840  15.946 -0.0627 -0.2226 -0.6984
  887MPD2     H13059   2.543   3.929  15.790  1.5048 -0.9714 -1.4810
  887MPD2    H113060   2.921   4.041  15.946 -1.4131  0.7943  1.4110
  887MPD2    H213061   2.809   3.645  15.937 -0.7832 -0.9085  1.6631
  887MPD2    H313062   2.957   3.814  16.000 -0.3832 -1.6792 -0.8727
  887MPD2     N13063   2.692   4.153  15.841  0.2187  0.0708 -0.1969
  887MPD2    H513064   2.595   4.173  15.815 -0.6353 -1.0988  2.0622
  887MPD2    N113065   2.567   3.681  15.849 -0.2351 -0.5446 -0.7169
  887MPD2    H713066   2.488   3.708  15.791 -1.2612  0.1597  1.0042
  888MPD2     C13067   0.155   4.195  15.594 -0.1737  0.0132 -0.3870
  888MPD2    C113068   0.020   4.242  15.605 -0.9086  0.4971 -0.1416
  888MPD2    C213069   4.737   4.378  15.576 -0.0282  0.2727 -0.5564
  888MPD2    C313070   0.096   4.457  15.526  0.0853 -0.6127  0.0085
  888MPD2    C413071   0.227   4.408  15.525  0.2680 -0.5335  0.1469
  888MPD2    C513072   0.258   4.275  15.554 -0.3412 -0.1589  0.3324
  888MPD2     H13073   4.635   4.415  15.585 -0.6933 -1.1963 -2.1614
  888MPD2    H113074   0.306   4.470  15.485  1.7344 -2.9372 -0.6612
  888MPD2    H213075   0.176   4.090  15.613  1.6373  0.7209  1.5844
  888MPD2    H313076   0.357   4.233  15.534 -0.6813 -0.7628 -0.0803
  888MPD2     N13077   0.054   4.588  15.476 -1.1728 -0.1037  0.5554
  888MPD2    H513078   4.706   4.623  15.511 -1.2401 -0.2334  0.5127
  888MPD2    N113079   4.654   4.162  15.644  0.4378  0.4928  0.7638
  888MPD2    H713080   4.559   4.192  15.623 -0.2608 -1.6001  0.9651
  889MPD2     C13081   3.779   3.929  12.905 -0.5523  0.5349 -0.5306
  889MPD2    C113082   3.730   3.828  12.991  0.2424 -0.1927  0.1512
  889MPD2    C213083   3.724   3.844  13.131 -0.4140  0.1078 -0.1277
  889MPD2    C313084   3.744   3.974  13.177  0.0217 -0.2116 -0.7383
  889MPD2    C413085   3.784   4.069  13.088  0.4280 -0.0061 -0.2700
  889MPD2    C513086   3.811   4.049  12.956 -0.6386  0.6122  0.4808
  889MPD2     H13087   3.683   3.761  13.187  1.6838 -1.5836 -1.0857
  889MPD2    H113088   3.780   4.171  13.125 -0.8081  0.4076 -1.5162
  889MPD2    H213089   3.807   3.909  12.803 -0.4167 -1.4771 -0.1008
  889MPD2    H313090   3.852   4.125  12.890  0.6261 -1.1694 -0.7481
  889MPD2     N13091   3.715   4.018  13.310  0.0876 -0.1553 -0.0571
  889MPD2    H513092   3.648   3.958  13.358 -0.7077 -0.4418 -1.5371
  889MPD2    N113093   3.729   3.690  12.950 -0.1205  0.3315  0.0204
  889MPD2    H713094   3.715   3.623  13.025 -0.4998  1.6422  1.1256
  890MPD2     C13095   3.309   0.590  14.739 -0.5473  0.3546  0.3958
  890MPD2    C113096   3.435   0.612  14.791 -0.0019 -0.0179 -0.2089
  890MPD2    C213097   3.474   0.542  14.907 -0.3210 -0.2069 -0.4949
  890MPD2    C313098   3.373   0.472  14.975  0.1389 -0.3677 -0.5870
  890MPD2    C413099   3.247   0.471  14.927  0.1008 -1.2584  0.0090
  890MPD2    C513100   3.212   0.518  14.809 -0.1408  0.4601  0.2038
  890MPD2     H13101   3.571   0.545  14.956 -0.1702  1.8058 -0.8784
  890MPD2    H113102   3.170   0.414  14.978  1.5604 -2.7740  0.5221
  890MPD2    H213103   3.271   0.634  14.648 -0.3411 -1.4962 -0.5871
  890MPD2    H313104   3.111   0.506  14.770 -0.5926  0.6107  1.3116
  890MPD2     N13105   3.411   0.391  15.080  0.3854 -0.3900  0.2006
  890MPD2    H513106   3.510   0.397  15.101  0.4972 -0.5337 -0.2817
  890MPD2    N113107   3.531   0.682  14.720 -0.1121  0.7402  0.2024
  890MPD2    H713108   3.493   0.721  14.634 -1.0937 -0.9820 -0.1318
  891MPD2     C13109   1.503   0.072  16.218  0.2331  0.6499 -0.0597
  891MPD2    C113110   1.472   0.001  16.327 -0.0757  0.3891 -0.6113
  891MPD2    C213111   1.568   4.727  16.418  0.0118  0.4741 -0.4881
  891MPD2    C313112   1.693   0.042  16.406  0.0921  0.0805 -0.3123
  891MPD2    C413113   1.717   0.116  16.295  0.5358  0.7661  0.2785
  891MPD2    C513114   1.624   0.125  16.197  0.8300  0.3452  0.3270
  891MPD2     H13115   1.557   4.656  16.500 -0.2405 -1.1702 -1.9419
  891MPD2    H113116   1.811   0.170  16.290  1.6526 -1.2249 -0.1489
  891MPD2    H213117   1.438   0.086  16.133 -0.6556 -1.5958  0.2612
  891MPD2    H313118   1.641   0.186  16.110 -1.5297 -0.7257 -0.8935
  891MPD2     N13119   1.787   0.021  16.512  0.0850 -0.0377  0.7503
  891MPD2    H513120   1.755   4.726  16.601  2.6915  0.5331  1.9150
  891MPD2    N113121   1.342   4.682  16.330 -0.2470 -0.3234 -0.6388
  891MPD2    H713122   1.289   4.695  16.244 -0.3007 -0.8902 -0.6939
  892MPD2     C13123   2.690   0.424  14.674 -0.4869 -0.2079 -0.2666
  892MPD2    C113124   2.637   0.295  14.668 -0.0017 -0.4585  0.3824
  892MPD2    C213125   2.725   0.182  14.671 -0.0755 -0.5560 -0.7784
  892MPD2    C313126   2.862   0.201  14.665  0.1308  1.1552 -0.4383
  892MPD2    C413127   2.912   0.328  14.669  0.0160 -0.0802 -0.4224
  892MPD2    C513128   2.829   0.438  14.678 -0.3196  0.1623  0.6435
  892MPD2     H13129   2.676   0.086  14.666  0.8239 -0.8716 -3.6823
  892MPD2    H113130   3.019   0.342  14.653 -0.6443  1.3903 -3.5797
  892MPD2    H213131   2.629   0.513  14.668  0.6328  0.4235 -2.4672
  892MPD2    H313132   2.876   0.536  14.675 -0.9696  0.4748  0.7115
  892MPD2     N13133   2.954   0.089  14.665  0.1225 -0.1293  0.8086
  892MPD2    H513134   3.052   0.114  14.676  0.0335  0.5460  0.1041
  892MPD2    N113135   2.499   0.284  14.656 -0.2255 -0.1570  0.2015
  892MPD2    H713136   2.469   0.187  14.662 -1.2449  0.2154  1.0001
  893MPD2     C13137   4.397   3.697   1.555  0.9855  0.2246  0.0742
  893MPD2    C113138   4.404   3.721   1.418  0.2562 -0.2086 -0.5388
  893MPD2    C213139   4.296   3.751   1.348  0.2503 -0.1190 -0.2347
  893MPD2    C313140   4.173   3.762   1.416  0.2983  0.3785 -0.1210
  893MPD2    C413141   4.167   3.740   1.550 -0.0361 -0.0291  0.7483
  893MPD2    C513142   4.277   3.710   1.622 -0.6237 -0.7095 -0.7593
  893MPD2     H13143   4.309   3.775   1.243  0.5633 -0.0414 -0.1797
  893MPD2    H113144   4.074   3.753   1.605  0.2212  0.4078  1.0721
  893MPD2    H213145   4.489   3.659   1.600 -0.2042 -0.1739  2.1826
  893MPD2    H313146   4.280   3.695   1.729 -1.9740  0.5370 -0.5419
  893MPD2     N13147   4.046   3.791   1.357 -0.4158  0.2345 -0.5818
  893MPD2    H513148   3.959   3.783   1.409  0.5715  1.3088  1.2297
  893MPD2    N113149   4.537   3.724   1.366 -0.1995 -0.6183  0.0944
  893MPD2    H713150   4.613   3.678   1.416  0.7209  1.8154  0.9326
  894MPD2     C13151   2.428   0.764   0.618  0.2325 -0.1260 -0.5738
  894MPD2    C113152   2.321   0.790   0.712 -0.0287  0.5295  0.3311
  894MPD2    C213153   2.306   0.922   0.752 -0.4624  0.1458 -0.2084
  894MPD2    C313154   2.395   1.025   0.720 -0.3183  0.1698 -0.2454
  894MPD2    C413155   2.504   0.989   0.649  0.0933  0.2748 -0.2641
  894MPD2    C513156   2.507   0.865   0.584  0.1321  0.3909  0.2664
  894MPD2     H13157   2.230   0.944   0.826 -1.2553  2.3306 -1.6707
  894MPD2    H113158   2.577   1.061   0.613 -1.2120  2.1941  0.9405
  894MPD2    H213159   2.447   0.668   0.571 -0.6139 -1.5324  1.9800
  894MPD2    H313160   2.588   0.864   0.513  0.1109 -1.8372  0.2958
  894MPD2     N13161   2.375   1.150   0.782  0.0146  0.0498  0.1370
  894MPD2    H513162   2.288   1.168   0.831 -0.7973 -0.2848 -1.1803
  894MPD2    N113163   2.246   0.691   0.781  0.5241  0.0425  0.2538
  894MPD2    H713164   2.165   0.720   0.834  1.6707  0.7065  1.6504
  895MPD2     C13165   1.811   3.814  13.400 -0.6223 -0.1073  0.2886
  895MPD2    C113166   1.762   3.876  13.283  0.5024 -0.2419 -0.1484
  895MPD2    C213167   1.769   3.806  13.165  0.6240  0.6527  0.1065
  895MPD2    C313168   1.819   3.674  13.164  0.3178  0.4887  0.3918
  895MPD2    C413169   1.873   3.615  13.277  0.1600  0.0357  0.3101
  895MPD2    C513170   1.872   3.693  13.388 -0.1995 -0.0080 -0.4184
  895MPD2     H13171   1.715   3.844  13.079  0.9955  0.5895 -0.1552
  895MPD2    H113172   1.910   3.514  13.286 -2.1478 -1.1055 -3.0216
  895MPD2    H213173   1.785   3.858  13.496 -0.5825  1.7911 -0.5800
  895MPD2    H313174   1.904   3.650  13.482  0.3630  0.3422 -0.4512
  895MPD2     N13175   1.817   3.591  13.048 -0.1973  0.2774 -0.8100
  895MPD2    H513176   1.840   3.493  13.051 -1.2263  0.0597  0.2881
  895MPD2    N113177   1.685   3.995  13.286 -0.2899 -0.0778  0.6639
  895MPD2    H713178   1.652   4.027  13.195 -1.5077 -2.5148  0.2312
  896MPD2     C13179   4.740   1.524   1.143 -0.1862  0.2458  0.9493
  896MPD2    C113180   4.671   1.632   1.105 -0.0625 -0.4859 -0.5348
  896MPD2    C213181   4.535   1.631   1.120 -0.1484  0.1675 -0.1770
  896MPD2    C313182   4.465   1.521   1.177  0.2265  0.1709  0.5028
  896MPD2    C413183   4.540   1.414   1.217  0.4871 -0.4158  0.0477
  896MPD2    C513184   4.672   1.419   1.204  0.3261 -0.4760 -0.1789
  896MPD2     H13185   4.473   1.707   1.073 -2.2854 -0.0142  2.3566
  896MPD2    H113186   4.496   1.330   1.269  1.4984 -1.3198 -0.5376
  896MPD2    H213187   0.107   1.532   1.142 -0.2324  0.4240 -1.5860
  896MPD2    H313188   4.726   1.338   1.252  0.4138  0.2465  0.9515
  896MPD2     N13189   4.327   1.536   1.185  0.5667  0.9796  0.7539
  896MPD2    H513190   4.291   1.626   1.154 -1.4954 -0.0603  0.1394
  896MPD2    N113191   0.014   1.738   1.063 -0.3089  0.6580  0.1704
  896MPD2    H713192   0.113   1.717   1.073 -1.0414 -2.0900  1.5275
  897MPD2     C13193   0.245   3.330  10.251 -0.0228 -0.5279  0.2376
  897MPD2    C113194   0.202   3.431  10.328  0.8379  0.1699 -0.0783
  897MPD2    C213195   0.111   3.401  10.428  0.0539 -0.2329  0.5125
  897MPD2    C313196   0.106   3.271  10.482 -0.1555  0.1566  0.4917
  897MPD2    C413197   0.172   3.166  10.415  0.1921  0.3984 -0.3531
  897MPD2    C513198   0.236   3.201  10.300  0.0476 -0.0593  0.0072
  897MPD2     H13199   0.063   3.478  10.488 -1.4470  0.6024 -1.7505
  897MPD2    H113200   0.177   3.064  10.452 -0.4286  0.4677 -0.0712
  897MPD2    H213201   0.318   3.346  10.172 -1.3601 -1.5219 -1.1872
  897MPD2    H313202   0.286   3.123  10.244 -2.4408 -0.4657 -1.6480
  897MPD2     N13203   0.027   3.248  10.599  0.0113  0.5648 -0.1157
  897MPD2    H513204   4.717   3.328  10.634  3.4898  2.2045  1.1588
  897MPD2    N113205   0.232   3.563  10.291 -0.0666  0.4938  0.4676
  897MPD2    H713206   0.270   3.567  10.197  4.4065  1.7330  2.3229
  898MPD2     C13207   2.982   4.692   0.633 -0.5054 -0.3586  0.4918
  898MPD2    C113208   2.930   4.648   0.514 -0.4896  0.9019  0.5445
  898MPD2    C213209   2.846   4.725   0.445  0.2325  0.5658  0.2610
  898MPD2    C313210   2.827   0.117   0.473 -0.5720 -0.2555  0.8355
  898MPD2    C413211   2.889   0.169   0.585  0.4125 -0.1384  0.0330
  898MPD2    C513212   2.967   0.083   0.664 -0.3757 -0.1092  0.4985
  898MPD2     H13213   2.796   4.673   0.364  1.9903 -2.3094  1.0167
  898MPD2    H113214   2.891   0.276   0.601 -2.6682  0.0061 -0.5138
  898MPD2    H213215   3.035   4.626   0.700  0.5775  1.0017  0.9719
  898MPD2    H313216   3.015   0.121   0.753 -0.1290  0.3515  0.1706
  898MPD2     N13217   2.748   0.189   0.377 -0.7191  0.0015 -0.0044
  898MPD2    H513218   2.708   0.134   0.302 -2.3877  0.1414  0.7750
  898MPD2    N113219   2.926   4.514   0.472 -0.0446 -0.4388 -0.2001
  898MPD2    H713220   2.873   4.485   0.391  1.7372 -3.1636 -0.4112
  899MPD2     C13221   3.743   0.230  17.455  0.0294  0.7318 -0.1494
  899MPD2    C113222   3.630   0.281  17.399  0.6964 -0.4416 -0.3240
  899MPD2    C213223   3.509   0.244  17.448  0.8127 -0.0868  0.1773
  899MPD2    C313224   3.492   0.156  17.559  0.5010 -0.0934 -0.0477
  899MPD2    C413225   3.610   0.113  17.620  0.6859  0.2940  0.1414
  899MPD2    C513226   3.728   0.140  17.563  0.3930  0.1547 -1.1721
  899MPD2     H13227   3.428   0.305  17.411  0.7701 -0.2538 -0.0058
  899MPD2    H113228   3.604   0.046  17.705  0.5777 -1.1104 -0.9774
  899MPD2    H213229   3.844   0.262  17.432 -0.4632  1.1371 -1.7226
  899MPD2    H313230   3.824   0.104  17.600 -0.7531 -1.7441 -0.0248
  899MPD2     N13231   3.360   0.146  17.615 -0.0701 -0.0059  0.4337
  899MPD2    H513232   3.292   0.207  17.572  0.3380  0.7753  0.8880
  899MPD2    N113233   3.648   0.379  17.298  0.1049  0.2107  0.1744
  899MPD2    H713234   3.746   0.396  17.276  0.1025 -1.9927 -1.4593
  900MPD2     C13235   2.336   1.845  12.718 -0.6238  0.2379  0.4884
  900MPD2    C113236   2.250   1.741  12.705  0.4601  0.0204 -0.1454
  900MPD2    C213237   2.122   1.763  12.647 -0.7321 -0.1280  0.9203
  900MPD2    C313238   2.098   1.888  12.588  0.2172  0.2686  0.5805
  900MPD2    C413239   2.197   1.987  12.603  0.0346  0.4424  0.6961
  900MPD2    C513240   2.312   1.974  12.680  0.4461  0.1621 -0.3803
  900MPD2     H13241   2.043   1.689  12.636 -1.1106  0.6111 -1.2701
  900MPD2    H113242   2.183   2.080  12.549 -0.8512 -0.5234 -0.7311
  900MPD2    H213243   2.429   1.821  12.768 -0.6638  2.2119  1.4644
  900MPD2    H313244   2.383   2.055  12.694 -0.6663  1.0186  0.3276
  900MPD2     N13245   1.973   1.911  12.525  0.0692 -0.5490 -0.4182
  900MPD2    H513246   1.912   1.831  12.510  0.5359 -0.4977 -2.5984
  900MPD2    N113247   2.293   1.619  12.755 -0.3597 -0.2997 -0.2584
  900MPD2    H713248   2.394   1.608  12.764 -0.3423  0.7709  1.0261
  901MPD2     C13249   2.095   0.544  12.652  0.3372 -0.7110  0.1894
  901MPD2    C113250   2.196   0.583  12.574  0.0499 -1.0228  0.3157
  901MPD2    C213251   2.243   0.712  12.593 -0.1568 -0.5384  0.2541
  901MPD2    C313252   2.190   0.798  12.687  0.0217  0.4222  0.5986
  901MPD2    C413253   2.079   0.754  12.757  0.0901 -0.5821 -0.0708
  901MPD2    C513254   2.030   0.625  12.737 -0.8061 -0.2024  0.0847
  901MPD2     H13255   2.316   0.746  12.521 -0.0765 -1.1803  0.0327
  901MPD2    H113256   2.022   0.815  12.826 -0.2616 -0.3288 -0.5864
  901MPD2    H213257   2.061   0.445  12.625  0.1879 -0.8379  0.8652
  901MPD2    H313258   1.934   0.590  12.775 -0.7569 -1.1269 -0.6476
  901MPD2     N13259   2.233   0.932  12.700  0.6150  0.1564  0.7390
  901MPD2    H513260   2.318   0.952  12.647 -1.1241  0.7241 -1.8545
  901MPD2    N113261   2.235   0.491  12.474  0.2776  0.4571 -0.2319
  901MPD2    H713262   2.207   0.395  12.494  2.2172  0.2503  1.3606
  902MPD2     C13263   1.268   4.104  12.481 -0.1579 -0.8617  0.4962
  902MPD2    C113264   1.362   4.178  12.543 -0.1067 -0.4895 -0.2219
  902MPD2    C213265   1.483   4.115  12.570  0.1854 -0.9851  0.0177
  902MPD2    C313266   1.501   3.980  12.543 -0.2862  0.2125  0.6836
  902MPD2    C413267   1.404   3.910  12.476  0.0399 -0.0097  0.1448
  902MPD2    C513268   1.292   3.971  12.448 -0.0034  0.9233 -0.3166
  902MPD2     H13269   1.562   4.176  12.612 -0.3368 -0.4721  0.2592
  902MPD2    H113270   1.415   3.803  12.462 -2.0151 -0.3704  1.3885
  902MPD2    H213271   1.175   4.152  12.451  1.5267  2.8711  1.2583
  902MPD2    H313272   1.214   3.923  12.389  0.9501 -0.5423 -0.3815
  902MPD2     N13273   1.626   3.916  12.564  0.5695 -0.0491  1.3528
  902MPD2    H513274   1.654   3.833  12.512 -1.9603 -0.4562  0.6448
  902MPD2    N113275   1.334   4.322  12.565 -0.2711 -1.1315  0.3011
  902MPD2    H713276   1.236   4.349  12.567  0.6485  2.0209  2.4970
  903MPD2     C13277   1.846   4.210  12.116  0.2279 -0.5377 -0.6928
  903MPD2    C113278   1.776   4.157  12.222 -0.1151  0.3860  0.5123
  903MPD2    C213279   1.642   4.162  12.222  0.1952  0.1835 -0.1433
  903MPD2    C313280   1.582   4.248  12.139 -0.0599 -0.4643  1.2462
  903MPD2    C413281   1.651   4.308  12.032  0.0054 -0.2575 -0.0734
  903MPD2    C513282   1.782   4.288  12.021 -0.6439  0.1775 -0.9460
  903MPD2     H13283   1.587   4.110  12.300 -0.5959  1.1843 -0.0265
  903MPD2    H113284   1.593   4.381  11.976  0.0440 -1.1112 -1.2200
  903MPD2    H213285   1.953   4.202  12.106  0.1656 -0.4342 -1.4686
  903MPD2    H313286   1.840   4.345  11.950 -0.5913 -2.1644 -2.7806
  903MPD2     N13287   1.437   4.270  12.150  0.2943  0.3326  0.3955
  903MPD2    H513288   1.392   4.249  12.238 -1.0916  2.5181  0.1853
  903MPD2    N113289   1.841   4.085  12.320  0.7976 -0.5545 -0.1024
  903MPD2    H713290   1.787   4.056  12.401  0.6595 -2.1547 -0.7691
  904MPD2     C13291   1.914   3.335  14.110 -1.0117  0.5999  0.4969
  904MPD2    C113292   1.927   3.469  14.129  0.2173 -0.3314  0.7301
  904MPD2    C213293   2.041   3.513  14.190 -0.1829 -0.0249 -0.9003
  904MPD2    C313294   2.137   3.423  14.241 -1.0287  0.1895  0.2194
  904MPD2    C413295   2.112   3.292  14.228 -0.3679  0.3389  0.0723
  904MPD2    C513296   2.001   3.248  14.166  0.1871 -0.1258 -0.4051
  904MPD2     H13297   2.056   3.619  14.209  0.8081 -0.3930  0.4069
  904MPD2    H113298   2.190   3.226  14.262 -0.5843 -0.8280 -1.7146
  904MPD2    H213299   1.835   3.290  14.051  1.1204 -1.3054 -0.9219
  904MPD2    H313300   1.991   3.144  14.139 -0.6740  1.0431 -4.4717
  904MPD2     N13301   2.255   3.486  14.276 -0.3927  0.5952 -0.3975
  904MPD2    H513302   2.257   3.588  14.270  0.2308  0.3918 -3.4486
  904MPD2    N113303   1.837   3.561  14.075 -0.4779 -0.0631  0.0805
  904MPD2    H713304   1.870   3.657  14.084 -0.6286  0.0204 -0.2375
  905MPD2     C13305   1.341   3.977  13.421 -0.0072 -0.2726 -0.4984
  905MPD2    C113306   1.409   3.860  13.461  0.0437 -0.1684  1.0544
  905MPD2    C213307   1.432   3.759  13.365 -0.1339  0.2152  0.1824
  905MPD2    C313308   1.398   3.788  13.230 -0.1835  0.3514  0.1060
  905MPD2    C413309   1.332   3.904  13.196  0.1394 -0.5987 -0.4666
  905MPD2    C513310   1.307   3.999  13.290 -0.1614  0.8653  0.1215
  905MPD2     H13311   1.480   3.665  13.391 -2.1047 -0.3752  1.6150
  905MPD2    H113312   1.291   3.920  13.097  1.2184  0.6773 -0.6987
  905MPD2    H213313   1.312   4.054  13.492  2.8427  0.4571 -0.1222
  905MPD2    H313314   1.244   4.084  13.265 -0.4233  0.7894  0.5256
  905MPD2     N13315   1.417   3.691  13.135 -0.1626 -0.4308  0.5120
  905MPD2    H513316   1.468   3.611  13.170  0.5530 -0.4905 -0.6639
  905MPD2    N113317   1.450   3.852  13.598  0.0858  0.0170  0.0008
  905MPD2    H713318   1.422   3.928  13.659 -1.5605  0.1563 -0.9268
  906MPD2     C13319   3.464   3.820  11.319  0.5108 -0.6853  0.0109
  906MPD2    C113320   3.453   3.715  11.221  0.3332 -0.1012  0.5432
  906MPD2    C213321   3.379   3.602  11.255  0.4759  0.1264 -0.2682
  906MPD2    C313322   3.337   3.579  11.384 -0.6101 -0.6914  0.3947
  906MPD2    C413323   3.356   3.681  11.483 -0.1944  0.3196  0.8044
  906MPD2    C513324   3.413   3.799  11.446  0.2279  0.1419 -0.4099
  906MPD2     H13325   3.377   3.523  11.181 -0.1523 -1.6684  1.6847
  906MPD2    H113326   3.326   3.683  11.587  0.6146 -0.7323  1.0589
  906MPD2    H213327   3.515   3.914  11.301 -0.8508  0.0923  0.1823
  906MPD2    H313328   3.419   3.867  11.530  1.3522 -1.3902  0.7594
  906MPD2     N13329   3.255   3.469  11.410  0.1482  0.4323  0.1777
  906MPD2    H513330   3.230   3.408  11.333  1.8183 -1.3865  1.0695
  906MPD2    N113331   3.515   3.723  11.097  0.3334  0.4782 -0.0233
  906MPD2    H713332   3.508   3.636  11.045  1.1451  0.4394 -0.0627
  907MPD2     C13333   2.353   2.662  15.318  0.3391 -0.1168 -0.1410
  907MPD2    C113334   2.435   2.551  15.321  0.0864  0.5576  0.2209
  907MPD2    C213335   2.484   2.508  15.443  0.0617  0.4593 -1.0229
  907MPD2    C313336   2.457   2.577  15.565  0.2931  0.1410 -0.5890
  907MPD2    C413337   2.358   2.677  15.554 -0.0061  0.1162 -0.6065
  907MPD2    C513338   2.312   2.716  15.435  0.2531 -0.2005 -0.2968
  907MPD2     H13339   2.559   2.430  15.442 -0.9349 -0.5156 -0.1430
  907MPD2    H113340   2.321   2.740  15.634 -0.0847  0.9063 -1.2721
  907MPD2    H213341   2.307   2.703  15.229 -0.5415 -0.0408  0.3510
  907MPD2    H313342   2.239   2.795  15.439  1.2356  0.6027  1.6559
  907MPD2     N13343   2.516   2.536  15.686 -0.4830 -1.0259  0.4259
  907MPD2    H513344   2.594   2.471  15.675 -0.2369 -0.4652 -1.1324
  907MPD2    N113345   2.461   2.470  15.203 -0.3408 -0.0774  0.1199
  907MPD2    H713346   2.511   2.383  15.219  0.3776  0.2500 -0.3026
  908MPD2     C13347   0.025   3.916   9.506 -0.1968 -0.6532  0.7196
  908MPD2    C113348   0.032   3.798   9.573  0.1255  0.1708  0.0501
  908MPD2    C213349   0.079   3.795   9.699  0.2832 -0.2497 -0.6706
  908MPD2    C313350   0.110   3.913   9.769  0.5457 -0.3676  0.3614
  908MPD2    C413351   0.109   4.030   9.698 -0.8135 -0.0470 -0.0114
  908MPD2    C513352   0.064   4.030   9.571  0.1896 -0.0738  0.3510
  908MPD2     H13353   0.066   3.701   9.751 -0.9714  0.9527  1.1875
  908MPD2    H113354   0.130   4.124   9.747 -1.0221  0.9079 -1.7668
  908MPD2    H213355   4.722   3.937   9.409  1.8759  1.9877  0.3324
  908MPD2    H313356   0.056   4.122   9.515  1.5121  1.0359  1.9446
  908MPD2     N13357   0.151   3.902   9.912 -0.0989 -0.0489 -0.2804
  908MPD2    H513358   0.136   3.808   9.945 -0.3179  0.3990  0.8792
  908MPD2    N113359   4.727   3.686   9.500 -0.6579  0.3319 -0.0660
  908MPD2    H713360   4.695   3.706   9.406  0.6585  0.2555 -0.5297
  909MPD2     C13361   0.234   1.354  11.618 -0.1266 -0.0594 -0.1466
  909MPD2    C113362   0.264   1.487  11.608 -0.0791 -0.5944  0.5699
  909MPD2    C213363   0.246   1.567  11.724  0.5235  0.5378 -0.2453
  909MPD2    C313364   0.182   1.517  11.831  0.2219  0.3008 -0.0611
  909MPD2    C413365   0.150   1.378  11.838 -0.3913 -0.2202  0.0297
  909MPD2    C513366   0.179   1.298  11.731  0.3788  0.1202  0.2071
  909MPD2     H13367   0.271   1.672  11.727  0.3676  0.5204  1.8493
  909MPD2    H113368   0.077   1.347  11.912 -0.6548  0.1509 -0.0732
  909MPD2    H213369   0.244   1.281  11.539 -0.5338  0.2439 -0.4769
  909MPD2    H313370   0.142   1.196  11.735 -1.1484  0.7564  2.2976
  909MPD2     N13371   0.169   1.604  11.943  0.3265 -0.0622  0.0801
  909MPD2    H513372   0.190   1.702  11.927  1.8360 -0.5875 -1.1929
  909MPD2    N113373   0.323   1.545  11.489 -0.1855  0.4019  0.2020
  909MPD2    H713374   0.360   1.639  11.496  0.4021  0.2848 -1.4580
  910MPD2     C13375   2.051   2.480  15.184 -0.1885 -0.0830 -0.2988
  910MPD2    C113376   2.055   2.509  15.321  0.8513  0.4771  0.5537
  910MPD2    C213377   2.002   2.639  15.358  0.5275  0.2543 -0.4851
  910MPD2    C313378   1.949   2.731  15.266 -0.1831  0.7465 -0.3286
  910MPD2    C413379   1.948   2.694  15.134 -0.5305  0.2098  0.0740
  910MPD2    C513380   1.999   2.575  15.097  0.2525  0.2416 -0.1718
  910MPD2     H13381   2.002   2.656  15.465  0.6382  0.4646 -0.5186
  910MPD2    H113382   1.935   2.762  15.051  0.4046  1.1374  0.6955
  910MPD2    H213383   2.106   2.401  15.136 -0.4658 -0.2389 -0.3633
  910MPD2    H313384   2.011   2.557  14.990  0.7667  0.2541 -0.1165
  910MPD2     N13385   1.895   2.857  15.292  0.2074 -0.0609  0.1926
  910MPD2    H513386   1.870   2.914  15.212  0.7934  1.2579  0.9504
  910MPD2    N113387   2.103   2.428  15.422 -0.1149  0.3853  0.1541
  910MPD2    H713388   2.117   2.474  15.511 -3.9092  0.4217  0.7289
  911MPD2     C13389   0.083   3.270  16.380 -0.5434  0.1355 -0.0766
  911MPD2    C113390   0.095   3.408  16.391 -0.0400  0.2977 -0.3839
  911MPD2    C213391   4.719   3.486  16.379 -0.3118  0.5789  0.6743
  911MPD2    C313392   4.598   3.432  16.353  0.9351  0.4612 -0.6191
  911MPD2    C413393   4.585   3.294  16.352  0.5134  0.1059 -0.9949
  911MPD2    C513394   4.695   3.216  16.368 -0.4927 -0.1146  1.0320
  911MPD2     H13395   4.713   3.593  16.392 -1.9899  0.5536  0.2114
  911MPD2    H113396   4.488   3.252  16.327  0.7333 -0.9663 -0.0623
  911MPD2    H213397   0.164   3.200  16.364 -0.1259  0.4740  0.5525
  911MPD2    H313398   4.680   3.111  16.345  2.6783 -0.1568 -0.8839
  911MPD2     N13399   4.482   3.497  16.320  0.7581 -0.8171  0.1223
  911MPD2    H513400   4.412   3.431  16.288  0.5271 -0.5052 -0.0187
  911MPD2    N113401   0.229   3.457  16.403  0.0300 -0.0796  0.0379
  911MPD2    H713402   0.305   3.390  16.403 -1.4279 -1.7217  0.6080
  912MPD2     C13403   3.871   3.497  15.772  0.0194  0.0509 -0.5615
  912MPD2    C113404   3.884   3.474  15.907 -0.0688  0.0028  0.6756
  912MPD2    C213405   3.813   3.361  15.948 -0.4767 -0.2473  0.7563
  912MPD2    C313406   3.762   3.274  15.862  0.6199 -0.0073 -0.0504
  912MPD2    C413407   3.754   3.301  15.725 -0.0062 -0.0914 -0.0710
  912MPD2    C513408   3.812   3.417  15.683 -0.5195  0.4556 -0.0227
  912MPD2     H13409   3.804   3.325  16.050  1.0420 -2.4742  0.0961
  912MPD2    H113410   3.713   3.245  15.642  0.3650  0.7738 -0.8259
  912MPD2    H213411   3.915   3.585  15.726  2.0347 -0.6734 -0.0493
  912MPD2    H313412   3.814   3.442  15.577 -0.6410 -0.2652 -0.1978
  912MPD2     N13413   3.698   3.165  15.927  0.0192 -0.4039 -0.0494
  912MPD2    H513414   3.684   3.184  16.026 -0.4070  1.1203 -0.4040
  912MPD2    N113415   3.969   3.554  15.985 -0.3823  0.1351  0.5305
  912MPD2    H713416   4.000   3.636  15.935 -0.0953 -0.8934 -0.9827
  913MPD2     C13417   0.151   0.780  10.121  0.0463  0.0875  0.0340
  913MPD2    C113418   0.016   0.803  10.109 -0.1383  0.4827 -0.3743
  913MPD2    C213419   4.727   0.891  10.004  0.4588 -0.1707 -0.2778
  913MPD2    C313420   0.082   0.961   9.928  0.3673  0.0469 -0.0344
  913MPD2    C413421   0.215   0.945   9.963  0.0026  0.7418 -0.5971
  913MPD2    C513422   0.250   0.856  10.059 -0.5827 -0.4916 -1.1492
  913MPD2     H13423   4.624   0.916   9.981  0.5733  0.2417 -0.3374
  913MPD2    H113424   0.294   1.006   9.922  1.0272 -0.9362 -1.0965
  913MPD2    H213425   0.188   0.723  10.205  2.1034 -3.5988 -3.3896
  913MPD2    H313426   0.349   0.846  10.103 -0.8526 -1.4279 -0.7538
  913MPD2     N13427   0.052   1.060   9.830  0.0321  0.0841 -0.5961
  913MPD2    H513428   0.123   1.128   9.805  1.2794 -0.1128  2.4389
  913MPD2    N113429   4.665   0.733  10.191  0.2421  0.3130  0.0951
  913MPD2    H713430   4.703   0.669  10.261 -1.7114  0.1844  1.0704
  914MPD2     C13431   2.809   0.832  11.925  0.0294  0.0274 -0.7796
  914MPD2    C113432   2.730   0.859  12.033 -0.1066 -0.1150 -0.3825
  914MPD2    C213433   2.644   0.758  12.068 -0.0131 -0.2040 -0.2790
  914MPD2    C313434   2.646   0.632  12.015 -0.3781 -0.4981  0.3095
  914MPD2    C413435   2.732   0.616  11.905  0.0956 -0.8379  0.6022
  914MPD2    C513436   2.808   0.714  11.855  0.3223 -0.5989  0.0625
  914MPD2     H13437   2.573   0.780  12.147 -0.6425 -1.6401 -0.4476
  914MPD2    H113438   2.737   0.517  11.860  1.1070  0.6550 -2.5276
  914MPD2    H213439   2.885   0.906  11.903  0.3825 -0.2221 -0.4025
  914MPD2    H313440   2.866   0.690  11.767 -0.3904  2.1216 -1.1566
  914MPD2     N13441   2.550   0.534  12.056  0.5501 -0.8431 -0.2598
  914MPD2    H513442   2.492   0.553  12.137 -1.3015  0.0794 -1.7631
  914MPD2    N113443   2.751   0.983  12.096  0.1630  0.0983 -0.4969
  914MPD2    H713444   2.809   1.051  12.047  1.1598 -0.4616 -0.1101
  915MPD2     C13445   0.702   0.750  15.200 -0.1493 -0.1421  0.7910
  915MPD2    C113446   0.590   0.824  15.236  0.1676 -0.6234 -0.0025
  915MPD2    C213447   0.597   0.904  15.352  0.5410  1.1748 -0.0921
  915MPD2    C313448   0.711   0.926  15.417  0.4149  0.4567 -0.2531
  915MPD2    C413449   0.824   0.865  15.373 -0.2269 -0.4589 -0.1878
  915MPD2    C513450   0.819   0.781  15.265  0.2010  0.0226 -0.7134
  915MPD2     H13451   0.507   0.952  15.390  0.1818 -0.9022  1.6381
  915MPD2    H113452   0.921   0.873  15.422  0.5078 -0.4442 -1.6415
  915MPD2    H213453   0.703   0.672  15.125  2.2210  0.3862  0.2866
  915MPD2    H313454   0.905   0.723  15.234  0.5594  0.7771 -1.1266
  915MPD2     N13455   0.713   1.021  15.523 -0.0795 -0.8549 -0.2612
  915MPD2    H513456   0.629   1.073  15.543  1.4070  1.2199  0.5885
  915MPD2    N113457   0.465   0.814  15.180 -0.1144 -0.3307 -0.5230
  915MPD2    H713458   0.394   0.870  15.227  0.8576 -1.6068  2.4680
  916MPD2     C13459   3.517   3.561  15.832  0.2005 -0.4600 -0.1718
  916MPD2    C113460   3.475   3.476  15.928 -0.1231  0.0306 -0.3189
  916MPD2    C213461   3.406   3.364  15.888 -0.1051  0.0429 -0.1592
  916MPD2    C313462   3.357   3.347  15.753  0.6878  0.0499  0.2013
  916MPD2    C413463   3.391   3.449  15.662 -0.3585 -0.1748 -0.2664
  916MPD2    C513464   3.469   3.550  15.705 -0.3249 -0.1252  0.0227
  916MPD2     H13465   3.358   3.298  15.960 -2.6746  1.6544 -0.3799
  916MPD2    H113466   3.372   3.440  15.555  1.8033 -1.5745 -0.5439
  916MPD2    H213467   3.591   3.638  15.851  1.0283 -1.5157  0.8251
  916MPD2    H313468   3.521   3.607  15.628  1.9990  0.6852  2.1920
  916MPD2     N13469   3.286   3.231  15.716 -0.5108  0.1616  0.3050
  916MPD2    H513470   3.281   3.155  15.783 -0.7856 -0.8281 -0.8380
  916MPD2    N113471   3.509   3.503  16.060  0.3760 -0.3087  0.3369
  916MPD2    H713472   3.547   3.597  16.069  2.1182 -0.9941 -0.0090
  917MPD2     C13473   3.828   1.067  11.335  0.0874 -0.0769 -0.3798
  917MPD2    C113474   3.912   1.082  11.441 -0.8714 -0.8449  0.1967
  917MPD2    C213475   4.013   1.182  11.437 -0.6099 -0.5794  0.2750
  917MPD2    C313476   4.038   1.252  11.316  0.4279 -0.6334  0.1498
  917MPD2    C413477   3.945   1.236  11.216  0.3370  0.0509  0.4981
  917MPD2    C513478   3.839   1.151  11.225 -0.2002  0.0228 -0.0215
  917MPD2     H13479   4.071   1.198  11.527  0.8441 -0.9615 -0.5882
  917MPD2    H113480   3.958   1.298  11.128  1.6954 -0.7334  0.1484
  917MPD2    H213481   3.733   1.015  11.345  0.2941 -0.1527  1.2762
  917MPD2    H313482   3.779   1.141  11.135  0.7648 -0.5941 -0.5967
  917MPD2     N13483   4.135   1.349  11.304  0.3001 -0.3703  0.4874
  917MPD2    H513484   4.142   1.393  11.213  0.3056 -0.8334  0.2665
  917MPD2    N113485   3.877   1.010  11.559 -0.0439 -0.2922  0.4065
  917MPD2    H713486   3.793   0.954  11.551  0.0301 -0.3835  0.2792
  918MPD2     C13487   3.879   1.626  12.094 -0.8099  0.4193 -0.2504
  918MPD2    C113488   3.977   1.537  12.123 -0.1568 -0.3375 -0.7685
  918MPD2    C213489   3.950   1.403  12.136 -0.0511 -0.0786 -0.0183
  918MPD2    C313490   3.823   1.356  12.111  0.3604 -0.3805  0.1469
  918MPD2    C413491   3.721   1.442  12.090  0.6384 -0.4006  0.2546
  918MPD2    C513492   3.749   1.580  12.091  0.1497 -0.4320 -0.2243
  918MPD2     H13493   4.035   1.336  12.150  1.9653  2.0365 -2.1292
  918MPD2    H113494   3.619   1.405  12.078  0.8039 -0.6965 -0.2445
  918MPD2    H213495   3.895   1.732  12.081 -2.3743  0.6059 -0.6331
  918MPD2    H313496   3.672   1.651  12.063  0.0471  0.1321  1.5206
  918MPD2     N13497   3.811   1.219  12.088  0.5557  0.3780  0.1646
  918MPD2    H513498   3.894   1.161  12.094 -0.4749 -1.1460 -0.3165
  918MPD2    N113499   4.112   1.567  12.137 -0.4712  0.6880 -0.4595
  918MPD2    H713500   4.172   1.487  12.156 -0.3312  0.8135 -0.3738
  919MPD2     C13501   4.283   0.114  12.059  0.4694 -0.8155 -0.2030
  919MPD2    C113502   4.294   0.000  11.986  0.3686  0.2920  0.9009
  919MPD2    C213503   4.258   0.013  11.852  0.9445  0.3152 -0.6505
  919MPD2    C313504   4.209   0.125  11.797  0.1855  0.2859 -0.2775
  919MPD2    C413505   4.196   0.237  11.872 -0.2565  0.1545 -0.4885
  919MPD2    C513506   4.239   0.239  12.006 -0.2950 -0.1796 -0.4892
  919MPD2     H13507   4.284   4.666  11.794 -2.9751 -1.3370  0.1322
  919MPD2    H113508   4.157   0.325  11.821 -0.3771 -1.0330 -2.4262
  919MPD2    H213509   4.290   0.112  12.167  1.2237 -0.9585 -0.2521
  919MPD2    H313510   4.223   0.318  12.079  1.9113  0.7048 -0.9629
  919MPD2     N13511   4.159   0.138  11.665  0.4494 -0.1740 -0.5262
  919MPD2    H513512   4.126   0.231  11.642 -1.6459 -0.7389  0.2536
  919MPD2    N113513   4.334   4.617  12.044 -0.6305  0.3703 -0.2725
  919MPD2    H713514   4.322   4.538  11.982 -2.1419 -0.1887  0.7222
  920MPD2     C13515   4.246   0.740  10.887 -0.2713  0.2255 -0.0257
  920MPD2    C113516   4.123   0.682  10.865  0.6611 -0.3563  0.7001
  920MPD2    C213517   4.082   0.582  10.951  0.2165 -0.3024 -0.3568
  920MPD2    C313518   4.157   0.541  11.064 -1.0173 -0.3922 -0.3585
  920MPD2    C413519   4.281   0.606  11.087  1.1338 -0.5218 -0.6896
  920MPD2    C513520   4.319   0.701  10.997 -0.2036 -0.4993 -0.4644
  920MPD2     H13521   3.990   0.529  10.930  0.8240 -1.7970  0.8015
  920MPD2    H113522   4.339   0.568  11.170  0.2569 -0.3851 -0.0174
  920MPD2    H213523   4.285   0.813  10.818 -1.7941  2.8420  1.9039
  920MPD2    H313524   4.419   0.739  11.010 -0.9636  0.6136  2.0267
  920MPD2     N13525   4.099   0.441  11.146 -0.4602  0.0355  0.0069
  920MPD2    H513526   4.018   0.389  11.115  1.4263 -2.3392 -0.9828
  920MPD2    N113527   4.039   0.714  10.756 -0.2136 -0.8739 -0.2808
  920MPD2    H713528   3.951   0.666  10.744  0.4632 -1.7219 -1.8270
  921MPD2     C13529   0.639   4.308  16.707  0.4122  0.6067 -0.1219
  921MPD2    C113530   0.739   4.246  16.635 -0.6600  1.0732  0.4566
  921MPD2    C213531   0.724   4.110  16.607 -0.6704  0.4213 -0.0170
  921MPD2    C313532   0.607   4.042  16.642  0.2173  0.0360 -0.4003
  921MPD2    C413533   0.516   4.104  16.724 -0.3329  0.6071 -0.0397
  921MPD2    C513534   0.532   4.241  16.748 -0.0988  0.4761 -0.0096
  921MPD2     H13535   0.794   4.057  16.544 -0.8084 -0.0891  0.2583
  921MPD2    H113536   0.432   4.054  16.770 -0.7010 -0.0058 -1.3878
  921MPD2    H213537   0.632   4.414  16.732  0.3170  0.9037 -1.4110
  921MPD2    H313538   0.461   4.296  16.808 -1.0516 -0.7054 -0.0619
  921MPD2     N13539   0.579   3.911  16.599  0.2312  0.2855 -0.1689
  921MPD2    H513540   0.482   3.886  16.613  0.5127 -0.5225  0.3345
  921MPD2    N113541   0.840   4.325  16.569  0.4477  0.1387  0.6310
  921MPD2    H713542   0.880   4.280  16.488 -0.2306  0.2081  0.2558
  922MPD2     C13543   2.081   1.979  17.207  0.0942 -0.1566 -0.2362
  922MPD2    C113544   1.978   2.049  17.271 -0.0946  0.1538 -0.2337
  922MPD2    C213545   1.888   1.991  17.354 -0.0425 -0.3692 -0.3505
  922MPD2    C313546   1.894   1.856  17.364 -0.3989 -0.2029 -0.0380
  922MPD2    C413547   1.984   1.784  17.294  0.1153 -0.0947  0.1720
  922MPD2    C513548   2.079   1.845  17.218 -0.4540  0.3036 -0.4426
  922MPD2     H13549   1.817   2.045  17.416 -2.4419 -1.1924 -2.3818
  922MPD2    H113550   1.995   1.676  17.296 -0.0961 -0.0745  2.3800
  922MPD2    H213551   2.151   2.039  17.149 -1.3800  2.1064  0.3151
  922MPD2    H313552   2.150   1.782  17.166  2.1116  1.6654  1.4074
  922MPD2     N13553   1.801   1.799  17.456 -0.4743 -0.2153  0.4466
  922MPD2    H513554   1.736   1.853  17.512 -0.7369  0.4080 -0.4501
  922MPD2    N113555   1.974   2.195  17.264 -0.1189  0.1265 -0.0393
  922MPD2    H713556   1.905   2.242  17.323 -0.3000  0.1957 -0.3068
  923MPD2     C13557   2.400   0.373  10.015 -0.0091 -0.1938  0.2640
  923MPD2    C113558   2.312   0.325   9.928 -0.2436  0.9628  0.1059
  923MPD2    C213559   2.319   0.377   9.797  0.2409 -0.1993  0.2733
  923MPD2    C313560   2.405   0.486   9.768  0.0299 -0.5608  0.5234
  923MPD2    C413561   2.499   0.528   9.857 -0.8028  0.3036  0.5490
  923MPD2    C513562   2.495   0.463   9.980  0.7347 -0.3545  0.6569
  923MPD2     H13563   2.235   0.356   9.732 -0.0054  0.5321  0.3444
  923MPD2    H113564   2.571   0.607   9.841 -1.3348  0.8604  0.8723
  923MPD2    H213565   2.396   0.339  10.118 -1.5835  2.4586  1.0716
  923MPD2    H313566   2.554   0.505  10.061 -0.6225 -2.0707  2.5628
  923MPD2     N13567   2.408   0.545   9.639  0.4444  0.3286  0.0308
  923MPD2    H513568   2.487   0.607   9.624  0.5025  0.7643  2.0912
  923MPD2    N113569   2.211   0.235   9.959 -0.2204 -0.4078 -0.6753
  923MPD2    H713570   2.199   0.218  10.059 -1.2956  0.0152 -0.7312
  924MPD2     C13571   3.142   1.937  15.936  0.1450 -0.1325  0.7674
  924MPD2    C113572   3.086   1.950  16.060  0.3755 -0.3870  0.2089
  924MPD2    C213573   3.021   2.070  16.083 -0.1743  0.2365 -0.0201
  924MPD2    C313574   3.011   2.168  15.986  0.0610 -0.4471 -0.3304
  924MPD2    C413575   3.070   2.157  15.865 -0.0072  0.3755 -0.5316
  924MPD2    C513576   3.134   2.040  15.846 -0.5356 -0.0067 -0.4726
  924MPD2     H13577   2.981   2.098  16.180 -0.9442  0.5835 -0.4367
  924MPD2    H113578   3.079   2.235  15.790 -0.1402  2.5391  1.6980
  924MPD2    H213579   3.210   1.856  15.912  2.1507  1.9146 -0.4428
  924MPD2    H313580   3.180   2.047  15.748  0.7969  1.3456  0.2461
  924MPD2     N13581   2.938   2.284  16.025  0.1063 -0.4414 -0.1282
  924MPD2    H513582   2.914   2.281  16.124  3.3896 -2.1142  0.6444
  924MPD2    N113583   3.090   1.838  16.145  0.6905 -0.3957 -0.0055
  924MPD2    H713584   3.114   1.756  16.091  0.0492 -0.5196 -0.0993
  925MPD2     C13585   1.787   4.422  14.519  0.4190  0.0436 -0.1795
  925MPD2    C113586   1.678   4.440  14.439 -0.4552 -0.0754  0.0675
  925MPD2    C213587   1.550   4.472  14.491 -0.8090  0.3812 -0.3038
  925MPD2    C313588   1.537   4.479  14.635 -0.9415 -0.3279  0.0668
  925MPD2    C413589   1.656   4.465  14.710 -0.0886  0.0374 -0.5056
  925MPD2    C513590   1.773   4.438  14.652 -0.0794 -0.8321  0.0698
  925MPD2     H13591   1.473   4.502  14.421  0.5704  2.7668 -0.8297
  925MPD2    H113592   1.640   4.476  14.817  1.7211  0.9035 -0.3291
  925MPD2    H213593   1.881   4.391  14.477 -0.0239  0.5257 -1.5151
  925MPD2    H313594   1.864   4.441  14.710 -0.0332 -0.5148 -0.0168
  925MPD2     N13595   1.424   4.520  14.711 -0.4964  0.0648  0.4120
  925MPD2    H513596   1.440   4.528  14.811 -0.3483 -4.0037  0.6885
  925MPD2    N113597   1.695   4.422  14.301 -0.7684  0.1910  0.3856
  925MPD2    H713598   1.609   4.410  14.249 -0.5155 -0.3729  0.1069
  926MPD2     C13599   4.165   2.904  13.807 -0.0020  0.7619 -0.3401
  926MPD2    C113600   4.279   2.972  13.847  0.4703 -0.3423  0.9894
  926MPD2    C213601   4.379   2.990  13.749  0.6862 -0.4256  0.1431
  926MPD2    C313602   4.363   2.947  13.619 -0.0782 -0.9238  0.0220
  926MPD2    C413603   4.245   2.882  13.585  0.6104 -0.5296  0.3053
  926MPD2    C513604   4.149   2.856  13.678 -0.2579 -0.0994 -0.3496
  926MPD2     H13605   4.466   3.044  13.784 -0.9754  1.3886  1.5427
  926MPD2    H113606   4.237   2.840  13.485  0.6654 -0.5118  0.2937
  926MPD2    H213607   4.085   2.906  13.880 -0.2610 -0.8272 -0.5698
  926MPD2    H313608   4.062   2.798  13.647 -1.4977  0.0155  2.8858
  926MPD2     N13609   4.461   2.962  13.523 -0.0230 -0.0152 -0.1158
  926MPD2    H513610   4.444   2.914  13.435  0.3185  0.6840 -0.5585
  926MPD2    N113611   4.295   3.030  13.973  0.0212  0.2746  0.5411
  926MPD2    H713612   4.378   3.088  13.975 -0.3682  0.8871 -0.8923
  927MPD2     C13613   0.141   0.829  17.563 -0.3657 -0.4750  0.4492
  927MPD2    C113614   0.135   0.693  17.556  0.2219 -0.6677  0.9338
  927MPD2    C213615   0.199   0.628  17.457 -0.4502 -0.1194  0.0315
  927MPD2    C313616   0.267   0.703  17.361 -0.8006  0.5447 -0.0964
  927MPD2    C413617   0.271   0.840  17.362 -0.6835  0.0763  0.3291
  927MPD2    C513618   0.207   0.900  17.465  0.2491  0.2501 -0.4227
  927MPD2     H13619   0.194   0.519  17.456 -2.1251 -0.0505 -0.1123
  927MPD2    H113620   0.309   0.913  17.291  2.9976 -0.2784  1.9223
  927MPD2    H213621   0.107   0.884  17.650  0.0102 -0.7608  0.7739
  927MPD2    H313622   0.212   1.008  17.471  2.6632  0.1440 -0.6093
  927MPD2     N13623   0.329   0.645  17.242 -0.6402 -0.1759  0.6081
  927MPD2    H513624   0.378   0.706  17.178 -2.6411  1.8185  0.9961
  927MPD2    N113625   0.058   0.634  17.661  0.0835 -0.5734  0.0880
  927MPD2    H713626   4.739   0.691  17.720  2.0331  0.3633  1.1458
  928MPD2     C13627   2.317   3.314   0.291  0.7587 -0.7455 -0.1150
  928MPD2    C113628   2.405   3.343   0.390  0.5480 -0.1343 -0.2709
  928MPD2    C213629   2.516   3.411   0.364 -0.5781  0.1754  0.2504
  928MPD2    C313630   2.547   3.436   0.230 -0.2394  0.3092  0.9194
  928MPD2    C413631   2.456   3.394   0.134  0.1288 -0.7298 -0.2994
  928MPD2    C513632   2.340   3.340   0.162 -0.1864  0.5823  0.1759
  928MPD2     H13633   2.582   3.453   0.439 -0.4125 -1.0303  0.7880
  928MPD2    H113634   2.478   3.397   0.027  0.7715 -0.5604 -0.1631
  928MPD2    H213635   2.222   3.266   0.312  0.7965 -0.8877 -0.2784
  928MPD2    H313636   2.266   3.305   0.091  0.7939 -0.0428 -0.5396
  928MPD2     N13637   2.665   3.490   0.181 -0.1796  0.1902 -0.6138
  928MPD2    H513638   2.677   3.513   0.083  1.2182  0.8774 -0.2852
  928MPD2    N113639   2.367   3.320   0.524 -0.1735  0.2666 -0.1021
  928MPD2    H713640   2.273   3.281   0.531 -0.0172 -0.1513 -0.3541
  929MPD2     C13641   2.321   3.888   9.731 -0.5727  0.2555 -0.4605
  929MPD2    C113642   2.258   3.835   9.837  0.2003 -0.8181  0.3899
  929MPD2    C213643   2.129   3.855   9.859 -0.3117  0.7508  1.2566
  929MPD2    C313644   2.057   3.950   9.786  0.3761  0.2189  0.2614
  929MPD2    C413645   2.124   4.008   9.684  0.1222 -0.0712  0.3985
  929MPD2    C513646   2.254   3.976   9.654 -0.9569  0.0372  0.4217
  929MPD2     H13647   2.080   3.817   9.948  1.2059 -0.8256  1.4304
  929MPD2    H113648   2.088   4.074   9.606 -1.3634 -1.9001 -0.4262
  929MPD2    H213649   2.424   3.877   9.701 -0.2569 -1.0212  1.1231
  929MPD2    H313650   2.295   4.022   9.565 -2.1220 -0.8161 -0.5532
  929MPD2     N13651   1.926   3.997   9.809 -0.1241 -0.1615 -0.0695
  929MPD2    H513652   1.891   4.067   9.745 -0.4887 -0.2844 -0.0047
  929MPD2    N113653   2.335   3.778   9.944 -0.4023  0.6191 -0.3312
  929MPD2    H713654   2.436   3.776   9.941 -0.3898 -1.5039  1.2458
  930MPD2     C13655   0.012   0.754  13.811 -0.4416  0.1999  0.2588
  930MPD2    C113656   0.004   0.877  13.747  0.3798 -0.1471  0.7436
  930MPD2    C213657   0.044   0.897  13.615  0.0616 -0.5386  0.2997
  930MPD2    C313658   0.113   0.797  13.550 -0.5541 -0.3558  0.2686
  930MPD2    C413659   0.126   0.673  13.615  0.1831  0.1442 -0.0045
  930MPD2    C513660   0.073   0.654  13.733 -0.0507  0.6719  0.5803
  930MPD2     H13661   0.016   0.981  13.554 -0.3214 -0.6518  0.3184
  930MPD2    H113662   0.169   0.585  13.567 -1.3013 -1.7658  2.2080
  930MPD2    H213663   4.717   0.722  13.908  0.0182 -0.2924  0.2671
  930MPD2    H313664   0.065   0.553  13.770  0.8392  0.7308  0.9364
  930MPD2     N13665   0.155   0.817  13.417 -0.4290  0.1336 -0.5095
  930MPD2    H513666   0.142   0.911  13.381 -0.3748  0.2643 -0.1929
  930MPD2    N113667   4.699   0.986  13.829 -0.9143 -0.3213 -0.4346
  930MPD2    H713668   4.643   0.958  13.909 -0.5917  1.5870  0.4442
  931MPD2     C13669   0.130   4.640   0.170  0.2686 -1.2311  0.3242
  931MPD2    C113670   0.024   4.712   0.232 -0.1380  0.1858 -0.4361
  931MPD2    C213671   4.717   4.655   0.344 -0.0113 -0.6637  0.0019
  931MPD2    C313672   0.030   4.528   0.388  0.1852 -0.4899  0.5824
  931MPD2    C413673   0.119   4.463   0.316  0.4995  0.2472 -0.0849
  931MPD2    C513674   0.171   4.517   0.203 -0.7183  0.1723  0.1744
  931MPD2     H13675   4.651   4.711   0.410 -1.0805 -3.3415  1.2292
  931MPD2    H113676   0.150   4.361   0.337  0.1425  0.2849  0.6559
  931MPD2    H213677   0.175   4.682   0.081  0.3850 -0.6933  0.6395
  931MPD2    H313678   0.239   4.456   0.146 -0.2395  1.4804 -0.6379
  931MPD2     N13679   4.737   4.461   0.510  0.0636  0.1961 -0.0901
  931MPD2    H513680   0.048   4.375   0.527 -0.5337 -0.0695  0.4007
  931MPD2    N113681   4.729   0.097   0.183 -0.5314 -0.3853 -0.4926
  931MPD2    H713682   0.049   0.119   0.105 -1.5041  2.0926 -0.5569
  932MPD2     C13683   1.578   0.041  11.859 -0.1979 -0.1193 -0.2320
  932MPD2    C113684   1.687   0.055  11.779 -0.4230 -0.0744  0.2383
  932MPD2    C213685   1.727   4.691  11.698 -0.1706 -0.4511  0.0219
  932MPD2    C313686   1.663   4.570  11.714 -0.0344 -0.7219  0.5307
  932MPD2    C413687   1.550   4.564  11.792  0.5648 -0.1078 -0.4390
  932MPD2    C513688   1.515   4.670  11.870  0.2080  0.1983 -0.2984
  932MPD2     H13689   1.815   4.702  11.635 -2.0078 -1.1422 -2.6801
  932MPD2    H113690   1.481   4.480  11.785  1.0895 -0.5518 -0.2871
  932MPD2    H213691   1.533   0.124  11.912 -0.9196 -0.5624 -0.1606
  932MPD2    H313692   1.422   4.680  11.926 -0.0920  2.8048 -1.2921
  932MPD2     N13693   1.712   4.445  11.661 -0.3486  0.2393 -0.4327
  932MPD2    H513694   1.644   4.369  11.666  1.1865 -1.1335 -0.3099
  932MPD2    N113695   1.754   0.176  11.760  0.3691  0.8392  0.2083
  932MPD2    H713696   1.834   0.162  11.698  1.9079 -1.5189  2.7135
  933MPD2     C13697   1.885   3.609   1.108  0.4140 -0.0527 -0.0481
  933MPD2    C113698   1.976   3.614   1.003 -0.3114 -0.0087  0.6051
  933MPD2    C213699   1.973   3.732   0.931  0.1105  0.0086 -0.4093
  933MPD2    C313700   1.877   3.836   0.943  0.9240  0.6111  0.3218
  933MPD2    C413701   1.779   3.814   1.037 -0.4374 -0.3947 -0.3636
  933MPD2    C513702   1.789   3.703   1.121 -0.4880  0.3210  0.0950
  933MPD2     H13703   2.043   3.754   0.851  1.1071 -0.9560  0.1941
  933MPD2    H113704   1.714   3.897   1.063 -0.3026  0.4857 -2.8695
  933MPD2    H213705   1.893   3.527   1.178 -1.0568 -0.7719 -0.7321
  933MPD2    H313706   1.718   3.690   1.201 -1.0865  0.0147 -0.4881
  933MPD2     N13707   1.888   3.936   0.850 -0.4097  0.2271  0.5194
  933MPD2    H513708   1.969   3.941   0.789 -0.6321 -0.2052  0.1875
  933MPD2    N113709   2.073   3.512   0.985 -0.3248  0.3329 -0.4571
  933MPD2    H713710   2.081   3.436   1.052 -0.9182 -0.9865 -1.8601
  934MPD2     C13711   3.800   1.704   1.761 -0.8396  0.2385 -0.7594
  934MPD2    C113712   3.842   1.594   1.693  0.7120 -0.6020 -0.1639
  934MPD2    C213713   3.752   1.491   1.661  0.4720  0.4471  0.4312
  934MPD2    C313714   3.616   1.509   1.676 -1.0069  0.2772  0.6393
  934MPD2    C413715   3.580   1.628   1.734 -0.1105 -0.2033  0.0675
  934MPD2    C513716   3.669   1.722   1.778  0.0238 -0.1630 -0.1031
  934MPD2     H13717   3.789   1.404   1.608 -0.1324  0.9903 -0.8796
  934MPD2    H113718   3.479   1.659   1.759 -0.1974  0.2096 -0.7848
  934MPD2    H213719   3.860   1.785   1.801 -1.4447 -0.5329  1.6472
  934MPD2    H313720   3.626   1.806   1.831  1.9970  1.0272 -0.4010
  934MPD2     N13721   3.507   1.423   1.648  0.1528 -0.8816  0.2731
  934MPD2    H513722   3.415   1.453   1.678  0.0620 -2.5746  1.6208
  934MPD2    N113723   3.978   1.580   1.661  0.0529  0.7000 -0.3320
  934MPD2    H713724   4.002   1.487   1.627 -0.5806  0.6053 -0.5364
  935MPD2     C13725   3.528   0.463   1.570  0.9548 -0.1645 -0.2284
  935MPD2    C113726   3.483   0.519   1.450  0.1834 -0.9098 -0.0229
  935MPD2    C213727   3.412   0.638   1.453  0.7648  0.1088  0.7812
  935MPD2    C313728   3.384   0.692   1.575 -0.7198  0.5691  0.9802
  935MPD2    C413729   3.425   0.630   1.692 -0.0888 -0.1500 -0.3054
  935MPD2    C513730   3.493   0.517   1.691 -0.4554 -0.2317 -0.2172
  935MPD2     H13731   3.386   0.679   1.356  0.6188 -0.6035  0.5163
  935MPD2    H113732   3.392   0.677   1.784  0.9302  0.9279 -0.4891
  935MPD2    H213733   3.595   0.378   1.578  1.0270 -0.2245 -1.5725
  935MPD2    H313734   3.524   0.463   1.780 -5.2752 -1.6885  0.5862
  935MPD2     N13735   3.333   0.820   1.582  0.5394 -0.1770  0.0628
  935MPD2    H513736   3.368   0.866   1.666 -0.9047  0.3930  0.3446
  935MPD2    N113737   3.522   0.461   1.324 -0.4400  0.2651 -0.5455
  935MPD2    H713738   3.485   0.498   1.237  0.3045  1.2052 -0.4632
  936MPD2     C13739   2.056   3.410  12.442  0.8192  0.3453 -0.0039
  936MPD2    C113740   2.069   3.280  12.466  0.5458  0.2804  0.7449
  936MPD2    C213741   2.163   3.211  12.393  0.0544  0.7733  0.1333
  936MPD2    C313742   2.246   3.272  12.309 -0.1012  1.4483  0.1839
  936MPD2    C413743   2.235   3.405  12.288  0.3385  0.6268 -0.3409
  936MPD2    C513744   2.138   3.471  12.349  0.3805 -0.0749 -0.1413
  936MPD2     H13745   2.177   3.105  12.415  0.5006  0.4504 -1.7156
  936MPD2    H113746   2.298   3.462  12.221  0.8135  0.8497  0.2942
  936MPD2    H213747   1.986   3.473  12.495  0.4696 -0.1323  0.1005
  936MPD2    H313748   2.131   3.577  12.329  2.1185  0.6389  2.8740
  936MPD2     N13749   2.339   3.208  12.226  0.2573  0.4025  0.5772
  936MPD2    H513750   2.400   3.269  12.172 -0.8070  0.0947 -0.9759
  936MPD2    N113751   2.009   3.215  12.571  0.4089 -0.1763 -0.3816
  936MPD2    H713752   2.022   3.114  12.579 -1.0135 -0.2235  1.0966
  937MPD2     C13753   4.715   4.023  11.847 -0.3830 -0.3822  0.7853
  937MPD2    C113754   4.688   4.161  11.845  0.3487  0.1124 -0.0299
  937MPD2    C213755   4.721   4.233  11.732  0.0811  0.3073  0.2504
  937MPD2    C313756   0.055   4.186  11.631 -0.3836  0.2559 -0.6536
  937MPD2    C413757   0.100   4.056  11.644  0.7776  0.1575 -0.3196
  937MPD2    C513758   0.058   3.974  11.749 -0.2361  0.4853 -0.2953
  937MPD2     H13759   4.674   4.330  11.718  0.5678  0.5941  0.6184
  937MPD2    H113760   0.180   4.007  11.589 -0.5303 -3.0666  0.6349
  937MPD2    H213761   4.702   3.951  11.926 -0.1659 -1.0261  0.2373
  937MPD2    H313762   0.096   3.873  11.757 -0.3900  0.5586  1.5077
  937MPD2     N13763   0.086   4.272  11.523 -0.3932 -0.0266 -0.2741
  937MPD2    H513764   0.052   4.368  11.528  1.6141  0.7225 -1.0308
  937MPD2    N113765   4.591   4.221  11.924  0.4480  0.5470  0.1588
  937MPD2    H713766   4.559   4.315  11.907  1.5478  0.9083  0.0650
  938MPD2     C13767   2.840   0.990   0.486  0.7892 -0.2797 -0.2747
  938MPD2    C113768   2.851   0.993   0.625  0.7793  0.2721  0.4832
  938MPD2    C213769   2.836   0.876   0.690 -0.5031  0.4348 -0.0725
  938MPD2    C313770   2.821   0.755   0.622 -1.1381 -0.4983  0.4009
  938MPD2    C413771   2.803   0.750   0.487  0.1789  0.0770 -0.2948
  938MPD2    C513772   2.816   0.867   0.414 -0.2656 -0.2154 -0.2262
  938MPD2     H13773   2.855   0.881   0.797 -0.6042 -0.2129 -0.0192
  938MPD2    H113774   2.773   0.656   0.440  0.2773 -0.0396 -0.1244
  938MPD2    H213775   2.836   1.085   0.434 -0.3358  0.5827  1.3708
  938MPD2    H313776   2.786   0.870   0.310 -2.7864  1.4662  0.5732
  938MPD2     N13777   2.778   0.639   0.681 -0.0480  0.3102  0.2939
  938MPD2    H513778   2.772   0.557   0.621 -2.1484 -1.5114  3.0199
  938MPD2    N113779   2.886   1.117   0.700  0.5253  0.0106 -0.2415
  938MPD2    H713780   2.901   1.113   0.800 -1.2326  0.1537  0.0267
  939MPD2     C13781   4.126   2.233   0.832 -0.0415  0.5906  0.2345
  939MPD2    C113782   4.206   2.164   0.924 -0.4611  0.6446  0.4568
  939MPD2    C213783   4.312   2.085   0.890  0.1167  0.8490  0.1568
  939MPD2    C313784   4.348   2.076   0.759  0.4137  0.1941 -0.7215
  939MPD2    C413785   4.277   2.144   0.664  0.9010  0.6952 -0.5805
  939MPD2    C513786   4.171   2.227   0.703  0.8112 -0.0319  0.2311
  939MPD2     H13787   4.379   2.037   0.961  0.3190 -0.8253 -1.1632
  939MPD2    H113788   4.307   2.143   0.560  1.3365 -2.2523 -0.4147
  939MPD2    H213789   4.042   2.296   0.859 -0.9403 -0.5064 -0.0667
  939MPD2    H313790   4.108   2.281   0.633 -2.0233 -0.8118  2.2029
  939MPD2     N13791   4.458   1.997   0.723 -0.1017 -0.1057  0.0417
  939MPD2    H513792   4.500   1.949   0.802 -1.7100 -0.4860  0.6794
  939MPD2    N113793   4.171   2.183   1.060 -0.7157 -0.9700 -0.3316
  939MPD2    H713794   4.102   2.254   1.083  2.2764  1.9448 -0.4076
  940MPD2     C13795   2.868   2.276  12.858 -0.6042  0.0819  0.4141
  940MPD2    C113796   2.773   2.329  12.945 -0.1156  0.5251 -0.1557
  940MPD2    C213797   2.642   2.345  12.895 -0.2819 -0.6145 -0.2976
  940MPD2    C313798   2.615   2.315  12.765  0.2218 -0.7249  0.4829
  940MPD2    C413799   2.705   2.249  12.692  0.2807 -0.1956  0.0351
  940MPD2    C513800   2.829   2.225  12.735  0.6057  0.2719 -0.4026
  940MPD2     H13801   2.567   2.387  12.960  1.1258  1.5447 -0.0787
  940MPD2    H113802   2.684   2.219  12.590 -1.3597 -1.7527  0.8135
  940MPD2    H213803   2.968   2.239  12.878 -0.6360 -0.2202  0.0140
  940MPD2    H313804   2.895   2.172  12.667 -0.5091  0.4802 -1.6714
  940MPD2     N13805   2.488   2.328  12.701  0.2469  0.2243  0.0595
  940MPD2    H513806   2.502   2.312  12.602 -1.0433 -1.5318  0.1735
  940MPD2    N113807   2.806   2.355  13.083  0.3653  0.2667  0.0389
  940MPD2    H713808   2.729   2.371  13.147 -0.4311  1.3513 -1.2205
  941MPD2     C13809   2.021   2.969  10.283  0.4904  0.8664  0.1884
  941MPD2    C113810   2.094   2.856  10.319 -0.0064 -0.1457 -0.0733
  941MPD2    C213811   2.027   2.749  10.372  0.4376 -0.8322 -0.0702
  941MPD2    C313812   1.892   2.742  10.386 -0.4549 -0.5866 -0.2160
  941MPD2    C413813   1.820   2.844  10.340  0.1233 -0.2240  0.8941
  941MPD2    C513814   1.880   2.955  10.290  0.0835  0.1535  0.3501
  941MPD2     H13815   2.086   2.660  10.390 -0.2628 -1.3831 -0.5126
  941MPD2    H113816   1.712   2.835  10.339  0.0267  1.4079 -2.3036
  941MPD2    H213817   2.062   3.053  10.228  0.6289 -0.1421 -1.2416
  941MPD2    H313818   1.813   3.035  10.262 -0.1725 -0.3301 -0.4164
  941MPD2     N13819   1.826   2.629  10.445  0.9117 -0.1445  0.2500
  941MPD2    H513820   1.724   2.631  10.440  0.9302  1.7784  0.8172
  941MPD2    N113821   2.239   2.851  10.321  0.1800 -0.2509 -0.0343
  941MPD2    H713822   2.287   2.776  10.370  0.4416  0.6784  1.1185
  942MPD2     C13823   2.591   0.366   9.192 -0.4354 -0.8469 -0.4120
  942MPD2    C113824   2.680   0.436   9.267  0.1912 -0.2617  0.2773
  942MPD2    C213825   2.688   0.407   9.402  0.1989  0.0399 -0.5911
  942MPD2    C313826   2.616   0.304   9.459  0.8733  0.1173  0.3392
  942MPD2    C413827   2.533   0.229   9.382  0.2998  0.5799  0.4198
  942MPD2    C513828   2.530   0.253   9.246 -0.1270  0.0980 -0.6867
  942MPD2     H13829   2.766   0.455   9.461  1.9298 -2.7586 -0.5967
  942MPD2    H113830   2.479   0.144   9.423  0.5803  0.3234  0.2529
  942MPD2    H213831   2.586   0.383   9.085 -0.2163 -1.5631 -0.5385
  942MPD2    H313832   2.463   0.195   9.184  1.3539 -2.6089  0.2511
  942MPD2     N13833   2.627   0.257   9.592 -0.5950  0.6179 -0.2558
  942MPD2    H513834   2.568   0.178   9.619  1.7688 -0.8459  0.6342
  942MPD2    N113835   2.765   0.544   9.221 -0.2008 -0.5775  0.4571
  942MPD2    H713836   2.826   0.595   9.283 -1.4399 -1.3376  2.3019
  943MPD2     C13837   0.864   2.668   9.836  0.2361  0.8092 -0.5587
  943MPD2    C113838   0.842   2.533   9.830  0.2536  0.2219  0.3788
  943MPD2    C213839   0.946   2.450   9.856 -0.2631  0.1475 -0.7339
  943MPD2    C313840   1.067   2.498   9.903 -0.2250  0.4651  0.5009
  943MPD2    C413841   1.091   2.632   9.910 -0.4872 -0.2743  0.6473
  943MPD2    C513842   0.989   2.718   9.862  0.2937 -0.1555  0.1305
  943MPD2     H13843   0.934   2.343   9.852  1.0347 -0.0354  0.1366
  943MPD2    H113844   1.192   2.670   9.919  0.3504 -3.1319  3.4641
  943MPD2    H213845   0.793   2.741   9.799 -0.5713 -0.5173 -1.6132
  943MPD2    H313846   1.017   2.822   9.853 -0.0616 -0.1000 -0.3503
  943MPD2     N13847   1.175   2.409   9.928 -0.0985 -0.1654  0.1584
  943MPD2    H513848   1.259   2.461   9.950  1.1662 -1.8709 -0.6030
  943MPD2    N113849   0.720   2.482   9.795  0.9272 -0.5661  0.3287
  943MPD2    H713850   0.663   2.548   9.744  0.9808  0.2639  1.3435
  944MPD2     C13851   0.588   1.518  10.757  0.0603  0.4541 -0.0198
  944MPD2    C113852   0.495   1.451  10.830  0.4402 -0.6975 -0.2764
  944MPD2    C213853   0.401   1.533  10.890  0.8043  0.7389  0.2574
  944MPD2    C313854   0.400   1.671  10.881 -0.3839  0.0926  0.6799
  944MPD2    C413855   0.494   1.728  10.811  0.6570 -0.3816  0.0529
  944MPD2    C513856   0.597   1.653  10.754 -0.6101  0.7420  0.3238
  944MPD2     H13857   0.319   1.486  10.944  1.4452 -1.0459 -0.3215
  944MPD2    H113858   0.506   1.836  10.800 -0.3528 -0.2547  0.2616
  944MPD2    H213859   0.675   1.471  10.712 -1.4765  0.2230 -2.7554
  944MPD2    H313860   0.684   1.701  10.711  0.3803 -1.7499 -0.4561
  944MPD2     N13861   0.296   1.737  10.952  0.1337  0.3820  0.3482
  944MPD2    H513862   0.236   1.675  11.005 -3.0456  2.5980 -0.6822
  944MPD2    N113863   0.506   1.312  10.839 -1.0442 -0.3211  0.1272
  944MPD2    H713864   0.579   1.270  10.781 -1.2559 -1.3952  0.6403
    1TMC1    C113865   3.344   2.221  14.890  0.0951 -0.5588 -0.1945
    1TMC1    C213866   3.373   2.110  14.968  1.0884  0.1694  1.1034
    1TMC1    C313867   3.357   2.125  15.103 -0.0574 -0.3286 -0.0941
    1TMC1    C413868   3.279   2.340  14.932  0.6744 -0.2033  0.3386
    1TMC1    C513869   3.243   2.328  15.067 -0.0326  0.9474  0.1968
    1TMC1    C613870   3.283   2.229  15.155 -0.5186  0.0949  0.4538
    1TMC1     C13871   3.347   2.204  14.750  0.0827  0.1922  0.3122
    1TMC1     O13872   3.335   2.089  14.712 -0.0867  0.3262 -0.2513
    1TMC1     H13873   3.426   2.029  14.920  0.2475  0.2813 -0.0155
    1TMC1    H113874   3.249   2.426  14.873  2.5998 -0.3308 -0.8319
    1TMC1    H213875   3.265   2.232  15.262 -2.7713 -0.7596  0.1011
    1TMC1    C713876   3.171   2.439  15.126  0.1474 -0.5778  0.7535
    1TMC1    C813877   3.429   2.046  15.192  0.0929  0.6642  0.0681
    1TMC1    O113878   3.196   2.553  15.094 -0.4529 -0.0937  0.4501
    1TMC1    O213879   3.397   2.048  15.308 -0.7598  0.1385  0.5690
    1TMC1    O313880   3.052   2.396  15.165  0.1128 -0.2852 -0.0893
    1TMC1    H313881   3.053   2.299  15.179  1.0556 -0.0886  1.1993
    1TMC1    O513882   3.556   2.038  15.141 -0.0695 -0.4599  0.2035
    1TMC1    H513883   3.573   2.069  15.050  1.3622 -0.4990  0.4606
    2MPD2     C13884   3.274   2.389  14.277 -0.1406 -0.4798  0.2006
    2MPD2    C113885   3.303   2.499  14.358  0.5454 -0.2490 -0.0219
    2MPD2    C213886   3.336   2.468  14.490  0.4569 -0.4561 -0.3179
    2MPD2    C313887   3.333   2.338  14.533  0.1888 -0.1841 -0.3537
    2MPD2    C413888   3.296   2.229  14.449  0.3745  0.2219 -0.2248
    2MPD2    C513889   3.268   2.256  14.317 -0.9073  0.0457  0.2018
    2MPD2     H13890   3.366   2.540  14.566  0.1568 -0.3075 -0.3392
    2MPD2    H113891   3.287   2.127  14.486  1.5092  0.8602  1.8175
    2MPD2    H213892   3.251   2.408  14.173 -1.5551 -0.8436  0.4554
    2MPD2    H313893   3.246   2.182  14.241 -0.6426  0.1197  0.0558
    2MPD2     N13894   3.356   2.317  14.673  0.2277 -0.3221 -0.9389
    2MPD2    H513895   3.370   2.401  14.729  0.2288 -0.2250 -1.0865
    2MPD2    N113896   3.293   2.630  14.300 -0.4508 -0.0124 -0.0503
    2MPD2    H713897   3.264   2.629  14.202 -4.4379 -0.4854  1.1230
    3TMC2    C113898   3.334   2.870  14.280 -0.0405 -0.3201  0.2451
    3TMC2    C213899   3.417   2.975  14.314  0.0242 -0.3582  0.3709
    3TMC2    C313900   3.399   3.100  14.250  0.9158 -0.1285  0.0334
    3TMC2    C413901   3.248   2.880  14.175 -0.4682  0.7451 -0.7461
    3TMC2    C513902   3.243   2.999  14.107  0.6865  0.2172  0.6495
    3TMC2    C613903   3.315   3.108  14.144  0.0183  0.3933 -0.8109
    3TMC2     C13904   3.341   2.744  14.361 -0.5190 -0.1032  0.2821
    3TMC2     O13905   3.388   2.757  14.474  0.0820 -0.1602 -0.4003
    3TMC2     H13906   3.492   2.966  14.392  0.6332  0.5996 -0.1089
    3TMC2    H113907   3.182   2.796  14.157  1.3374 -0.7436 -0.3708
    3TMC2    H213908   3.299   3.205  14.098  0.0124 -0.0801 -1.8136
    3TMC2    C713909   3.183   2.984  13.973 -0.5071  0.3163 -0.4633
    3TMC2    C813910   3.502   3.205  14.264  0.3341  0.4731 -0.5729
    3TMC2    O113911   3.140   2.872  13.942  0.4388  0.1324  0.0523
    3TMC2    O213912   3.507   3.295  14.186 -0.5152  0.4088  0.2966
    3TMC2    O513913   3.570   3.189  14.380  0.1128  0.2558 -0.2462
    3TMC2    H513914   3.539   3.122  14.445  1.1716 -3.0016 -3.1240
    4TMC2    C113915   3.317   3.545  13.169 -1.6697 -0.1314  0.3850
    4TMC2    C213916   3.357   3.676  13.190 -0.3378 -0.4218  0.2130
    4TMC2    C313917   3.360   3.716  13.324 -0.1092  0.1576  0.0504
    4TMC2    C413918   3.279   3.464  13.271  0.2653  0.0544  0.2066
    4TMC2    C513919   3.275   3.516  13.399 -0.6052 -0.1131 -0.2119
    4TMC2    C613920   3.307   3.642  13.427 -0.1351 -0.1325 -0.1710
    4TMC2     C13921   3.321   3.500  13.030  0.6608  0.4020  0.5820
    4TMC2     O13922   3.385   3.563  12.953  0.0551 -0.3912 -0.1951
    4TMC2     H13923   3.410   3.738  13.119 -0.6672 -1.3653 -0.8556
    4TMC2    H113924   3.265   3.359  13.248  2.0207  0.2672 -1.7909
    4TMC2    H213925   3.302   3.696  13.520  1.7423  0.2875 -0.3041
    4TMC2    C713926   3.237   3.427  13.508 -0.3932  0.2375 -0.5649
    4TMC2    C813927   3.390   3.850  13.358  0.6337 -0.2269 -0.0106
    4TMC2    O113928   3.248   3.473  13.622  1.1069 -0.1855 -0.5336
    4TMC2    O213929   3.360   3.947  13.285  0.5198 -0.0830 -0.3168
    4TMC2    O513930   3.518   3.824  13.411 -0.2755 -0.0332  0.2099
    4TMC2    H513931   3.516   3.744  13.469  1.4773  1.3310  2.1676
    5MPD2     C13932   3.166   3.230  12.641 -0.2973 -0.8963 -0.6059
    5MPD2    C113933   3.069   3.226  12.736 -1.0730  0.3032 -0.0563
    5MPD2    C213934   3.087   3.276  12.863 -0.0796  0.0776 -0.2716
    5MPD2    C313935   3.205   3.340  12.896 -0.7160 -0.5192  0.5307
    5MPD2    C413936   3.305   3.330  12.802 -0.1809 -0.5177 -1.1017
    5MPD2    C513937   3.293   3.283  12.674  0.0642 -0.7850  0.1867
    5MPD2     H13938   3.006   3.272  12.935 -0.2498 -1.8518 -0.5887
    5MPD2    H113939   3.402   3.374  12.821 -0.1220 -1.0211 -0.2464
    5MPD2    H213940   3.155   3.174  12.549 -3.0035  0.1430 -0.8931
    5MPD2    H313941   3.366   3.281  12.594 -1.2816 -1.1319 -1.0252
    5MPD2     N13942   3.218   3.408  13.014  0.7310  0.7622  0.0460
    5MPD2    H513943   3.157   3.377  13.089  0.8091  1.4698  0.4007
    5MPD2    N113944   2.949   3.162  12.706  0.9151  0.2005  0.6192
    5MPD2    H713945   2.943   3.124  12.612 -1.1473  0.6671  0.5748
    6MPD1     C13946   2.319   4.543  13.526 -0.1916  0.1999  0.1693
    6MPD1    C113947   2.374   4.518  13.402  0.3053  0.0290  0.6154
    6MPD1    C213948   2.332   4.404  13.333 -0.0156  0.7615 -0.5595
    6MPD1    C313949   2.255   4.305  13.394  0.3344  0.0832 -0.6113
    6MPD1    C413950   2.213   4.321  13.527  0.6111  0.8030 -0.4074
    6MPD1    C513951   2.245   4.445  13.588  0.6491 -0.4589  0.3541
    6MPD1     H13952   2.367   4.397  13.231  1.4139  0.9848 -0.0863
    6MPD1    H113953   2.146   4.253  13.579  0.7527 -0.2877 -1.6417
    6MPD1    H213954   2.354   4.624  13.590 -1.3803  1.9183 -1.3321
    6MPD1    H313955   2.217   4.457  13.692  0.1945  0.1161  0.1661
    6MPD1     N13956   2.201   4.192  13.323 -0.4815 -0.1804  0.3327
    6MPD1    H513957   2.130   4.136  13.371  1.7684 -1.8243  1.7249
    6MPD1    N113958   2.452   4.617  13.339  0.1745 -0.5194 -0.2368
    6MPD1    H613959   2.523   4.578  13.277  1.1062 -1.0085  1.1359
    6MPD1    H713960   2.502   4.676  13.406  1.7782 -1.4346 -0.6300
    7MPD2     C13961   2.318   3.429  13.302 -0.0926  0.1875 -0.1268
    7MPD2    C113962   2.289   3.469  13.169 -0.0175  0.4840  0.4901
    7MPD2    C213963   2.321   3.388  13.059  0.0172  0.5216  0.3568
    7MPD2    C313964   2.380   3.266  13.072  0.3648 -0.1805 -0.3040
    7MPD2    C413965   2.418   3.229  13.203  0.1018 -0.2390  0.3769
    7MPD2    C513966   2.387   3.308  13.313 -0.4836  0.6665  0.4566
    7MPD2     H13967   2.309   3.425  12.958 -1.8523  0.5437  0.6039
    7MPD2    H113968   2.477   3.139  13.213  0.7996 -0.0219 -1.7646
    7MPD2    H213969   2.299   3.490  13.389  2.5768 -1.2609  1.4719
    7MPD2    H313970   2.422   3.286  13.413  3.7993  0.1286 -1.1484
    7MPD2     N13971   2.417   3.178  12.963 -1.0083  0.5313  0.2163
    7MPD2    H513972   2.464   3.093  12.993  0.1784  1.1927  0.2377
    7MPD2    N113973   2.227   3.593  13.146 -0.2512  0.4154  0.0046
    7MPD2    H713974   2.206   3.612  13.049 -1.1260 -0.9558 -0.0788
    8TMC3    C113975   2.481   3.121  12.735 -0.2283 -0.1716  1.3113
    8TMC3    C213976   2.606   3.086  12.786 -0.6137 -0.2052  0.8982
    8TMC3    C313977   2.709   3.125  12.711  0.4146  0.0809 -0.0131
    8TMC3    C413978   2.462   3.174  12.609  0.0524  0.3118  0.4259
    8TMC3    C513979   2.572   3.222  12.546 -0.5175 -0.2590  0.1147
    8TMC3    C613980   2.691   3.193  12.597  0.5759  0.3531  0.9525
    8TMC3     C13981   2.397   3.196  12.822 -0.4829  0.5059  0.0337
    8TMC3     O13982   2.325   3.284  12.768  0.4686  0.6492  0.1130
    8TMC3     H13983   2.637   3.059  12.886  2.7167  0.2093 -0.0271
    8TMC3    H113984   2.371   3.198  12.555  0.3180 -1.4613 -0.8223
    8TMC3    H213985   2.777   3.219  12.537  0.4140 -0.5110  0.3545
    8TMC3    C713986   2.559   3.364  12.510 -0.0805 -0.9605  0.9860
    8TMC3    C813987   2.836   3.154  12.784 -0.2995  1.0513 -0.2379
    8TMC3    O113988   2.637   3.420  12.431 -0.0592 -0.3209  0.4550
    8TMC3    O213989   2.821   3.191  12.896 -0.2341  0.1073 -0.9233
    9TMC3    C113990   2.156   4.036  13.160  0.5672  0.2518  0.1507
    9TMC3    C213991   2.151   4.025  13.020 -0.3572  0.7671 -0.1628
    9TMC3    C313992   2.126   3.906  12.960  0.6195  0.2043  0.2810
    9TMC3    C413993   2.151   3.921  13.237 -0.8675  0.5200 -0.4629
    9TMC3    C513994   2.139   3.797  13.169  0.7144 -0.0593 -0.4510
    9TMC3    C613995   2.117   3.787  13.033  0.3143 -0.7165  0.1830
    9TMC3     C13996   2.234   4.147  13.202  0.4482  0.4591  0.8404
    9TMC3     O13997   2.328   4.180  13.133 -0.4624 -0.6604  0.5547
    9TMC3     H13998   2.157   4.114  12.959 -1.4545  0.3909 -0.8241
    9TMC3    H113999   2.165   3.920  13.345  2.0407 -1.4365 -0.8612
    9TMC3    H214000   2.054   3.710  12.990 -0.6925  0.5130 -0.5475
    9TMC3    C714001   2.200   3.686  13.237  0.0364  0.1825 -0.6036
    9TMC3    C814002   2.153   3.902  12.819  0.7212  0.1864  0.7063
    9TMC3    O114003   2.216   3.696  13.358  0.4436  0.2022 -0.3767
    9TMC3    O214004   2.180   4.009  12.768  0.2807 -0.7141 -0.5316
   10MPD2     C14005   2.488   3.665  12.501 -0.3466 -0.6846 -0.4464
   10MPD2    C114006   2.426   3.567  12.580  0.1755  0.1686 -0.1869
   10MPD2    C214007   2.325   3.609  12.669  0.0572  0.3819  0.5877
   10MPD2    C314008   2.286   3.740  12.680  0.0576  0.7525  0.1661
   10MPD2    C414009   2.344   3.836  12.601  0.2683  0.6236  0.0441
   10MPD2    C514010   2.446   3.800  12.517 -0.7565  0.0318  0.1210
   10MPD2     H14011   2.280   3.542  12.741 -1.6509 -0.1310 -0.9491
   10MPD2    H114012   2.328   3.943  12.602  2.2201  0.9260 -1.0875
   10MPD2    H214013   2.565   3.645  12.427 -0.3067  0.1062 -0.6105
   10MPD2    H314014   2.508   3.867  12.459 -0.8834 -0.9918 -1.2036
   10MPD2     N14015   2.196   3.772  12.784  0.4835 -0.9108  0.0059
   10MPD2    H514016   2.155   3.691  12.828  2.0423 -1.0862  1.1540
   10MPD2    N114017   2.458   3.425  12.580  1.0980 -0.0115  0.2695
   10MPD2    H714018   2.403   3.365  12.641  0.8018 -0.0921 -0.0788
   11MPD2     C14019   3.032   3.012  13.722  0.2037 -0.3664  0.3671
   11MPD2    C114020   3.141   3.095  13.761  0.1898 -0.0591  0.0948
   11MPD2    C214021   3.188   3.199  13.676  0.0796 -0.3121 -0.2344
   11MPD2    C314022   3.130   3.217  13.551  0.5807  0.2340  0.0754
   11MPD2    C414023   3.028   3.129  13.515 -0.6704 -0.2580  0.3663
   11MPD2    C514024   2.980   3.034  13.598  0.1014  0.5193  0.4267
   11MPD2     H14025   3.262   3.275  13.698 -0.4870  0.2800 -0.3857
   11MPD2    H114026   2.973   3.142  13.422  1.8703 -2.2168 -1.4140
   11MPD2    H214027   2.975   2.943  13.782 -1.2760 -0.7484 -1.4613
   11MPD2    H314028   2.897   2.977  13.558 -0.7689  0.7203  1.9336
   11MPD2     N14029   3.167   3.317  13.463 -0.4752 -0.6200 -0.3277
   11MPD2    H514030   3.139   3.305  13.366 -1.9579 -0.1476  0.0395
   11MPD2    N114031   3.198   3.088  13.891 -0.1098  0.0536 -0.3829
   11MPD2    H714032   3.251   3.166  13.930  2.0068 -0.9621 -1.1988
    1MPD1     C14033   3.344   1.310  15.157 -0.0945 -0.1835 -0.1058
    1MPD1    C114034   3.327   1.184  15.203 -0.2310  0.2659 -0.0349
    1MPD1    C214035   3.211   1.160  15.275  0.4109  0.2805 -0.4385
    1MPD1    C314036   3.110   1.256  15.282  0.5637 -0.3268 -0.2550
    1MPD1    C414037   3.128   1.384  15.229  0.7535  0.8973  0.0774
    1MPD1    C514038   3.248   1.409  15.165  0.3837  0.0046 -0.6765
    1MPD1     H14039   3.206   1.059  15.314 -1.4439 -0.3688 -2.3375
    1MPD1    H114040   3.044   1.452  15.228 -0.3042 -0.4767 -2.4310
    1MPD1    H214041   3.428   1.345  15.098  1.0400  0.2563  1.7566
    1MPD1    H314042   3.272   1.496  15.105  0.4591  1.2316  1.1218
    1MPD1     N14043   2.985   1.238  15.347  0.2241 -0.5135  0.4539
    1MPD1    H514044   2.927   1.322  15.346  2.5635  1.1189  0.6461
    1MPD1    N114045   3.446   1.101  15.214 -0.4990 -0.6286  0.4018
    1MPD1    H614046   3.432   1.000  15.217 -1.3225 -0.5102  0.3552
    1MPD1    H714047   3.523   1.115  15.149 -0.8187  0.7927  0.3350
    2MPD1     C14048   2.712   0.456  15.945  0.4403  0.2100 -0.5189
    2MPD1    C114049   2.784   0.447  15.830  0.4815  0.4647  0.2582
    2MPD1    C214050   2.774   0.554  15.752 -0.3923 -0.3520 -0.4925
    2MPD1    C314051   2.706   0.670  15.784 -0.2091 -0.2595 -0.2342
    2MPD1    C414052   2.630   0.669  15.892  0.4956  0.1504  0.3115
    2MPD1    C514053   2.644   0.565  15.979 -0.2742 -1.2992 -0.5567
    2MPD1     H14054   2.834   0.547  15.662  0.7552  3.6426 -0.0375
    2MPD1    H114055   2.572   0.753  15.929  0.0263 -0.2872  0.5700
    2MPD1    H214056   2.706   0.379  16.022 -1.1192  2.1004  1.2746
    2MPD1    H314057   2.593   0.567  16.075  0.8167  1.0842 -0.0100
    2MPD1     N14058   2.711   0.783  15.698 -0.1273  0.1475  0.6729
    2MPD1    H514059   2.776   0.779  15.620 -1.6690  0.7245 -0.6598
    2MPD1    N114060   2.842   0.326  15.794  0.2716  0.8814  0.4767
    2MPD1    H614061   2.914   0.340  15.724  1.6986 -0.7153  1.6079
    2MPD1    H714062   2.893   0.286  15.873 -0.0086 -2.5402 -1.0413
    3TMC3    C114063   2.659   1.002  15.607 -0.2012 -0.4161 -0.4452
    3TMC3    C214064   2.560   1.095  15.580  0.8784 -0.9283 -0.3120
    3TMC3    C314065   2.598   1.210  15.518 -0.4643 -0.0449  1.1407
    3TMC3    C414066   2.784   1.012  15.556 -0.0584  0.3079 -0.4850
    3TMC3    C514067   2.819   1.130  15.486  0.7343  0.0349 -0.0111
    3TMC3    C614068   2.724   1.230  15.466 -0.3649  0.5306 -0.6010
    3TMC3     C14069   2.631   0.897  15.710  0.4000 -0.5449  0.7502
    3TMC3     O14070   2.528   0.908  15.769 -0.7812  0.5162  0.0814
    3TMC3     H14071   2.459   1.071  15.610  0.8753  0.8792  1.1422
    3TMC3    H114072   2.860   0.940  15.583  0.8825  1.0055 -1.2589
    3TMC3    H214073   2.747   1.326  15.421  1.3375 -0.4515 -1.8309
    3TMC3    C714074   2.955   1.134  15.436  0.3309  0.1564  0.6345
    3TMC3    C814075   2.503   1.318  15.503 -0.4395 -0.2267 -0.1982
    3TMC3    O114076   3.025   1.039  15.469  0.6133  0.2362  0.1171
    3TMC3    O214077   2.538   1.414  15.428  0.3206 -0.1729  0.0218
    4MPD1     C14078   2.101   1.614  15.658  0.2399 -0.1083  0.4445
    4MPD1    C114079   2.190   1.632  15.561  0.3448  0.7043  0.0552
    4MPD1    C214080   2.287   1.539  15.535  0.3293  0.0601 -0.3308
    4MPD1    C314081   2.312   1.425  15.613  0.0952 -0.3453  0.0293
    4MPD1    C414082   2.217   1.411  15.714 -0.5416  0.0100 -0.2275
    4MPD1    C514083   2.124   1.507  15.742 -0.0790 -0.1584  0.0065
    4MPD1     H14084   2.347   1.553  15.446  0.3606  1.2708 -0.1291
    4MPD1    H114085   2.216   1.323  15.776  1.3844 -1.9939 -3.0479
    4MPD1    H214086   2.022   1.685  15.679 -1.3692 -2.0960  1.1324
    4MPD1    H314087   2.061   1.490  15.828 -0.2374  1.7414  0.2657
    4MPD1     N14088   2.406   1.322  15.599 -0.9079  0.1716  0.2768
    4MPD1    H514089   2.410   1.246  15.667  0.9443  0.3507  0.3874
    4MPD1    N114090   2.160   1.723  15.457  0.1749  0.4906  0.0423
    4MPD1    H614091   2.125   1.801  15.512 -0.4194  0.2218  0.0400
    4MPD1    H714092   2.245   1.754  15.410 -1.1545  2.9501 -0.7278
    1TCq1    O114093   0.376   3.775  11.662  0.1720 -0.1852 -0.2561
    1TCq1    C114094   0.422   3.812  11.781 -0.5053  0.1015 -0.8594
    1TCq1    O214095   0.357   3.781  11.879 -0.3851  0.2944  0.5114
    1TCq1    C214096   0.560   3.841  11.781  0.4369 -0.1189 -0.1955
    1TCq1    C314097   0.630   3.860  11.668  0.6018 -0.3849 -0.1257
    1TCq1    C414098   0.756   3.925  11.677 -0.6450 -0.4201 -0.2355
    1TCq1    C514099   0.810   3.939  11.801  0.1241 -0.5501  0.1083
    1TCq1    C614100   0.741   3.903  11.916 -0.2622 -0.1223 -0.1686
    1TCq1    C714101   0.617   3.847  11.903  0.1828 -0.2168 -0.0927
    1TCq1    C814102   0.797   3.929  12.044  0.0357 -0.2095 -1.0084
    1TCq1    O414103   0.918   3.957  12.038 -0.2900 -0.3972 -0.4213
    1TCq1    C914104   0.850   3.920  11.565  0.3183 -0.5045 -0.5963
    1TCq1    O514105   0.807   3.882  11.454 -0.1334  0.2009  0.3061
    1TCq1    O614106   0.968   3.946  11.594 -0.3291 -1.0529  0.2798
    1TCq1    H114107   0.429   3.815  11.590 -0.6805  0.0317 -0.7610
    1TCq1    H214108   0.586   3.855  11.569 -0.4897  0.9677  0.2910
    1TCq1    H314109   0.908   3.982  11.815  0.3997 -1.4799  1.0541
    1TCq1    H414110   0.555   3.827  11.989  1.0546 -0.9721  0.3631
    2MPD1     C14111   0.817   4.010  12.542  0.4905  0.4938  0.4355
    2MPD1    C114112   0.682   4.010  12.509 -0.2384  0.1052 -0.5289
    2MPD1    C214113   0.657   3.982  12.374 -0.1375  0.1226 -0.2957
    2MPD1    C314114   0.754   3.954  12.284  0.1402  0.6170  0.6788
    2MPD1    C414115   0.887   3.926  12.335 -0.0577 -0.4341  0.4317
    2MPD1    C514116   0.922   3.975  12.457  0.9704  0.1864  0.8617
    2MPD1     H14117   0.552   3.994  12.346  0.0264  0.8360 -0.5989
    2MPD1    H114118   0.962   3.893  12.264 -0.2631  0.0540 -0.0126
    2MPD1    H214119   0.842   4.044  12.642 -0.3701 -0.1595  0.8685
    2MPD1    H314120   1.022   3.999  12.493  0.6684  1.1266  1.0752
    2MPD1     N14121   0.710   3.929  12.151 -0.3234 -0.0355 -0.0485
    2MPD1    H514122   0.610   3.931  12.138 -0.2357 -1.4999 -0.9139
    2MPD1    N114123   0.592   4.063  12.602  0.0076  0.0266 -0.2156
    2MPD1    H614124   0.621   4.050  12.699 -0.7810 -0.7290 -0.0813
    2MPD1    H714125   0.500   4.020  12.590  0.3201 -1.2673  2.0542
    1TMC1    C114126   0.922   0.287   0.786  0.2606  0.2187  0.0608
    1TMC1    C214127   0.852   0.337   0.680  0.0579 -0.2131  0.0253
    1TMC1    C314128   0.770   0.245   0.616 -0.3481 -0.2938 -0.3810
    1TMC1    C414129   0.913   0.161   0.832  0.9389 -0.3219  0.0525
    1TMC1    C514130   0.818   0.078   0.768 -0.7113 -0.5929 -0.7829
    1TMC1    C614131   0.748   0.121   0.662 -0.5942  0.9515 -0.1784
    1TMC1     C14132   1.053   0.349   0.800 -0.3171 -0.1984 -0.3802
    1TMC1     O14133   1.145   0.281   0.847 -0.3542 -0.1294 -0.4352
    1TMC1     H14134   0.856   0.439   0.644  0.7946  0.2076  1.3174
    1TMC1    H114135   0.974   0.120   0.911  0.2287 -0.9333  0.2903
    1TMC1    H214136   0.690   0.048   0.606  0.7415  1.2641 -1.9607
    1TMC1    C714137   0.776   4.678   0.804 -0.2558  0.4376  0.0690
    1TMC1    C814138   0.676   0.309   0.529  0.1494 -0.3861 -0.3620
    1TMC1    O114139   0.745   4.590   0.721 -0.2034  0.5121  0.2599
    1TMC1    O214140   0.554   0.298   0.543 -0.5322 -0.1716 -0.7884
    1TMC1    O314141   0.813   4.655   0.931 -0.4288 -0.2836  0.1529
    1TMC1    H314142   0.817   4.739   0.982 -2.5590 -0.2468  0.2456
    1TMC1    O514143   0.742   0.331   0.409  0.3231  0.4247 -0.3930
    1TMC1    H514144   0.839   0.335   0.420  0.1166  0.8352  1.3076
    2MPD1     C14145   1.335   0.766   0.861  0.0556  0.2230  0.8063
    2MPD1    C114146   1.205   0.806   0.843  0.4345  0.1474  0.5986
    2MPD1    C214147   1.104   0.718   0.818  0.1127  0.5840 -0.5930
    2MPD1    C314148   1.141   0.581   0.800 -0.2232  0.2569  0.0480
    2MPD1    C414149   1.278   0.553   0.800 -0.1269 -0.3290 -0.4399
    2MPD1    C514150   1.371   0.639   0.832 -0.6581 -0.4793 -0.4519
    2MPD1     H14151   1.001   0.752   0.815 -0.3138 -0.5281  1.3718
    2MPD1    H114152   1.317   0.457   0.769  1.4156  0.4877 -1.0354
    2MPD1    H214153   1.411   0.831   0.902  2.1605 -1.2881 -0.7117
    2MPD1    H314154   1.474   0.604   0.840 -0.3071  0.6726  0.1530
    2MPD1     N14155   1.040   0.484   0.785  0.5182 -0.2225 -0.8232
    2MPD1    H514156   0.945   0.518   0.798  0.7388  0.1179 -0.1159
    2MPD1    N114157   1.174   0.941   0.871  0.1125 -0.4287 -0.2168
    2MPD1    H614158   1.091   0.965   0.818  0.8687 -0.2567 -1.3155
    2MPD1    H714159   1.245   1.005   0.836  0.4239  0.2217  1.6081
    1MPD1     C14160   3.238   3.575  12.448 -0.1348  0.0554  0.0847
    1MPD1    C114161   3.208   3.694  12.391 -0.3817 -0.2673  0.2467
    1MPD1    C214162   3.305   3.753  12.308  0.5368 -0.9240  0.2734
    1MPD1    C314163   3.416   3.687  12.262 -0.1959  0.3003  0.8128
    1MPD1    C414164   3.432   3.556  12.308  0.5433  0.1916 -0.0154
    1MPD1    C514165   3.342   3.501  12.398  0.2842 -0.5075  0.3830
    1MPD1     H14166   3.296   3.855  12.275 -1.5782 -1.6659 -1.3882
    1MPD1    H114167   3.499   3.491  12.253 -0.2951  0.3305 -1.1905
    1MPD1    H214168   3.172   3.528  12.520  0.1143 -2.7615 -1.5164
    1MPD1    H314169   3.355   3.399  12.431 -1.4209 -0.6519  0.6316
    1MPD1     N14170   3.500   3.758  12.180  0.3540  0.3197 -0.0414
    1MPD1    H514171   3.462   3.848  12.153  0.3979  0.4277  0.2541
    1MPD1    N114172   3.098   3.761  12.427  0.1851 -0.3938 -0.4667
    1MPD1    H614173   3.018   3.702  12.449  0.0795 -0.7481 -1.7984
    1MPD1    H714174   3.069   3.847  12.380  0.0315 -0.2694 -0.1428
    2MPD1     C14175   3.120   4.148   9.756  0.2748  0.3233 -0.3449
    2MPD1    C114176   3.152   4.212   9.872  0.3295 -0.9652 -0.4890
    2MPD1    C214177   3.256   4.166   9.952 -0.1082 -0.2523  0.0241
    2MPD1    C314178   3.318   4.044   9.920  0.0201  1.0556 -0.3170
    2MPD1    C414179   3.274   3.972   9.812  0.2420 -0.0078 -0.0403
    2MPD1    C514180   3.181   4.027   9.723  0.1308  0.2038 -0.1985
    2MPD1     H14181   3.283   4.225  10.039 -3.0291  1.6167 -0.3319
    2MPD1    H114182   3.318   3.876   9.787  1.0183  0.0161  1.2278
    2MPD1    H214183   3.044   4.179   9.686  0.3709 -0.1235 -0.6453
    2MPD1    H314184   3.157   3.979   9.629  1.5414 -1.2590  0.1853
    2MPD1     N14185   3.415   3.983  10.001  0.0660 -0.3074  0.4124
    2MPD1    H514186   3.459   3.900   9.963  1.3973  0.2746  0.6961
    2MPD1    N114187   3.081   4.324   9.915  0.3874 -0.2341 -0.2927
    2MPD1    H614188   3.044   4.367   9.830 -0.3898 -0.6654 -0.1814
    2MPD1    H714189   3.130   4.392   9.972 -0.0157 -0.2576  0.0763
    3MPD1     C14190   3.474   3.160  10.026 -0.3912 -0.9053  1.5462
    3MPD1    C114191   3.377   3.249  10.001 -0.1493  0.1507 -0.4121
    3MPD1    C214192   3.375   3.361  10.079 -0.3987 -0.6392  0.1578
    3MPD1    C314193   3.481   3.395  10.163  0.0397  0.0576  0.3989
    3MPD1    C414194   3.577   3.295  10.188  0.1479 -0.6137 -0.0964
    3MPD1    C514195   3.581   3.182  10.108 -1.0018 -0.2916 -0.5145
    3MPD1     H14196   3.293   3.429  10.058 -0.1516  0.6918  3.5836
    3MPD1    H114197   3.654   3.310  10.263 -1.4932  0.9708  1.2933
    3MPD1    H214198   3.480   3.065   9.974  0.9178  0.9847 -1.7614
    3MPD1    H314199   3.640   3.092  10.122 -1.2081  0.0530  2.6340
    3MPD1     N14200   3.495   3.530  10.201 -0.0628 -0.4373  0.4223
    3MPD1    H514201   3.429   3.599  10.167 -1.0800 -1.7842 -0.3252
    3MPD1    N114202   3.268   3.208   9.924  0.5559 -0.0846 -0.0858
    3MPD1    H614203   3.298   3.150   9.846 -2.0363  0.0689 -1.2008
    3MPD1    H714204   3.210   3.285   9.890  1.5430 -0.3323 -2.3527
    4MPD2     C14205   3.686   4.350  11.749  0.2572 -0.1266  0.2521
    4MPD2    C114206   3.770   4.243  11.747  0.7991 -0.1280  0.4060
    4MPD2    C214207   3.858   4.236  11.640  0.0922  0.4527 -0.5594
    4MPD2    C314208   3.861   4.329  11.539  0.4917  0.1680  0.1328
    4MPD2    C414209   3.778   4.439  11.540 -0.2349 -0.3285  0.0948
    4MPD2    C514210   3.697   4.450  11.646 -0.1956 -0.1958  0.6795
    4MPD2     H14211   3.928   4.154  11.627 -1.3796 -0.6712 -1.4510
    4MPD2    H114212   3.773   4.505  11.454 -0.0658  0.3257  0.5857
    4MPD2    H214213   3.626   4.379  11.834 -0.4239  0.0716 -0.3007
    4MPD2    H314214   3.637   4.540  11.660 -0.6619 -0.3870 -0.0808
    4MPD2     N14215   3.946   4.305  11.421 -0.7089 -0.6921  0.9095
    4MPD2    H514216   3.906   4.343  11.336  0.7754 -1.3408 -0.0719
    4MPD2    N114217   3.796   4.153  11.855  0.2333  0.1722  0.2610
    4MPD2    H714218   3.876   4.094  11.838  0.1335 -0.1565  0.9215
    5TMC3    C114219   3.758   4.040  12.058 -0.7093 -0.9350 -0.0465
    5TMC3    C214220   3.660   3.949  12.069 -0.3143  0.6049  0.2530
    5TMC3    C314221   3.693   3.817  12.067 -0.1081 -0.0530  0.5032
    5TMC3    C414222   3.887   3.994  12.024  0.0258  0.0845 -0.0513
    5TMC3    C514223   3.907   3.864  11.982 -1.1171  0.3108 -0.7261
    5TMC3    C614224   3.807   3.775  12.013 -0.3924 -0.1485 -0.3483
    5TMC3     C14225   3.719   4.151  11.968  0.0452  0.1856 -0.0798
    5TMC3     O14226   3.609   4.196  11.990 -0.4820 -0.0091 -0.3090
    5TMC3     H14227   3.564   3.983  12.106  0.1641  0.8179  1.2853
    5TMC3    H114228   3.976   4.056  12.019  2.2145 -3.1243 -0.8583
    5TMC3    H214229   3.821   3.671  11.986  0.1305  0.2236 -1.5196
    5TMC3    C714230   3.973   3.859  11.862  0.7323  0.6044 -0.3323
    5TMC3    C814231   3.617   3.711  12.134 -0.9190  0.5082  0.5588
    5TMC3    O114232   3.998   3.967  11.813  0.4571 -0.7208 -0.6237
    5TMC3    O214233   3.677   3.604  12.157  0.4697  0.3752 -0.1796
    6TMC3    C114234   3.554   3.940  10.189  0.0221  0.1045 -0.2941
    6TMC3    C214235   3.534   3.802  10.171  0.2579  0.4091  0.1645
    6TMC3    C314236   3.595   3.728  10.272 -0.6219  1.0014 -0.3324
    6TMC3    C414237   3.618   4.000  10.296  0.0145  0.1514 -0.3049
    6TMC3    C514238   3.681   3.918  10.384 -0.3343 -0.0101 -0.2613
    6TMC3    C614239   3.680   3.778  10.366  0.7053 -0.8755  0.1542
    6TMC3     C14240   3.479   4.037  10.107 -0.3355  0.5280 -0.0715
    6TMC3     O14241   3.482   4.158  10.139 -0.3105 -0.3166  0.0190
    6TMC3     H14242   3.493   3.759  10.081 -2.4538  1.6328  0.8288
    6TMC3    H114243   3.632   4.107  10.307  0.1110  0.1093 -0.0146
    6TMC3    H214244   3.725   3.723  10.447  0.7962 -0.5623  0.3178
    6TMC3    C714245   3.718   3.963  10.515  0.4755 -0.4717  0.1307
    6TMC3    C814246   3.601   3.582  10.267  0.5391 -0.0007  0.1192
    6TMC3    O114247   3.808   3.913  10.580 -0.5181  0.4556 -0.4256
    6TMC3    O214248   3.698   3.527  10.325 -0.5554 -0.0314 -0.0465
    7MPD2     C14249   4.163   3.620  11.458  0.5077 -0.2419  0.2936
    7MPD2    C114250   4.175   3.750  11.495  0.2127 -0.6974 -0.2283
    7MPD2    C214251   4.135   3.789  11.622 -0.0183  0.6922  0.1807
    7MPD2    C314252   4.091   3.697  11.716 -0.7114  0.3681 -0.3403
    7MPD2    C414253   4.111   3.562  11.691  0.0515  0.2192 -0.5368
    7MPD2    C514254   4.137   3.526  11.559  0.4089  0.5215  0.3136
    7MPD2     H14255   4.128   3.895  11.646  0.7005  0.9641 -0.7922
    7MPD2    H114256   4.072   3.484  11.755 -0.3814 -1.0597 -2.3400
    7MPD2    H214257   4.162   3.583  11.356  0.1115 -1.6417  0.8010
    7MPD2    H314258   4.157   3.421  11.538 -1.2054 -0.2020  2.3990
    7MPD2     N14259   4.016   3.728  11.833 -0.6669  0.5763 -0.0782
    7MPD2    H514260   3.975   3.657  11.892 -0.6860  1.9132  1.5292
    7MPD2    N114261   4.208   3.863  11.412 -0.3956 -0.5139 -0.0264
    7MPD2    H714262   4.228   3.952  11.457 -0.6753 -0.1466 -0.6234
    8TMC3    C114263   4.222   3.984  11.214  0.4469 -0.3725 -0.6820
    8TMC3    C214264   4.135   3.980  11.105  0.3945 -0.5429 -0.1757
    8TMC3    C314265   4.037   4.075  11.089 -0.1246 -0.6360 -0.3339
    8TMC3    C414266   4.208   4.083  11.301 -0.2210 -0.0683 -0.7763
    8TMC3    C514267   4.099   4.178  11.294 -0.9661  0.2124  0.5416
    8TMC3    C614268   4.010   4.170  11.192 -0.2474 -0.8271 -0.5767
    8TMC3     C14269   4.231   3.856  11.277  0.3778 -0.0772  0.4625
    8TMC3     O14270   4.214   3.761  11.202  0.3747 -0.0728  0.1334
    8TMC3     H14271   4.137   3.896  11.035 -1.6124  0.3049 -1.2674
    8TMC3    H114272   4.273   4.104  11.385  0.9057 -1.0450 -1.3952
    8TMC3    H214273   3.924   4.235  11.181  0.6131  0.1449 -1.5193
    8TMC3    C714274   4.053   4.216  11.426  0.3009 -0.7629  0.9041
    8TMC3    C814275   3.956   4.078  10.968  0.0956 -0.3769  0.1430
    8TMC3    O114276   4.113   4.159  11.518 -0.2042 -0.4947  0.3045
    8TMC3    O214277   3.969   3.991  10.883  0.3515 -0.0473 -0.4419
    9MPD2     C14278   3.717   4.340  10.849 -0.3208  0.5565  0.1111
    9MPD2    C114279   3.778   4.220  10.854  0.0384 -0.0341 -0.4624
    9MPD2    C214280   3.746   4.126  10.753  0.6123  0.7010 -0.4792
    9MPD2    C314281   3.660   4.164  10.647  0.7492 -0.1052 -0.2253
    9MPD2    C414282   3.594   4.284  10.649 -0.8027 -0.1325  0.3949
    9MPD2    C514283   3.625   4.372  10.749  0.6003  0.5381 -0.3965
    9MPD2     H14284   3.787   4.025  10.759 -1.0692  0.1378  1.6156
    9MPD2    H114285   3.536   4.326  10.568  0.0630 -1.2227 -0.7821
    9MPD2    H214286   3.743   4.420  10.917 -2.4823  1.1103  0.2726
    9MPD2    H314287   3.588   4.474  10.750 -1.6611 -0.2831  1.3885
    9MPD2     N14288   3.643   4.075  10.538  0.0413 -0.3687 -0.3281
    9MPD2    H514289   3.568   4.106  10.476  0.4692  0.2711 -0.5203
    9MPD2    N114290   3.876   4.195  10.955  0.4697 -0.0252 -0.4760
    9MPD2    H714291   3.890   4.266  11.026  2.1797  0.1789 -1.0082
    1MPD1     C14292   3.967   2.312  16.254  0.1512  0.6557 -0.6021
    1MPD1    C114293   3.875   2.352  16.350 -0.8349 -0.1514 -0.2787
    1MPD1    C214294   3.773   2.442  16.315  0.3952  0.2060 -0.7054
    1MPD1    C314295   3.760   2.490  16.187 -0.2224  0.1105  0.3502
    1MPD1    C414296   3.854   2.442  16.094 -0.0329 -0.0043  0.0192
    1MPD1    C514297   3.954   2.358  16.131 -0.7948 -0.1771 -0.0963
    1MPD1     H14298   3.711   2.485  16.393  0.6495 -0.0299 -0.3723
    1MPD1    H114299   3.857   2.468  15.989 -0.7140  1.2835  0.3281
    1MPD1    H214300   4.055   2.253  16.275 -0.2054  0.0164 -0.9100
    1MPD1    H314301   4.030   2.331  16.059 -0.9714 -0.5427 -0.1440
    1MPD1     N14302   3.651   2.571  16.140  0.2411  0.3514  0.5788
    1MPD1    H514303   3.629   2.567  16.041 -3.5041  2.2006  1.3420
    1MPD1    N114304   3.920   2.334  16.482 -0.1954 -0.5257  0.2375
    1MPD1    H614305   3.844   2.347  16.548 -0.5942  1.4190 -0.6085
    1MPD1    H714306   3.971   2.248  16.501 -0.1027 -0.4609  0.2833
    2TMC2    C114307   3.247   2.815  16.200  0.2974  0.1150 -0.6805
    2TMC2    C214308   3.227   2.817  16.066  0.0645 -0.8035  0.0158
    2TMC2    C314309   3.322   2.778  15.986  0.8251  0.7022  0.0031
    2TMC2    C414310   3.354   2.749  16.250 -0.5180  0.7555 -0.0596
    2TMC2    C514311   3.443   2.686  16.160  0.4964 -0.4005 -0.4004
    2TMC2    C614312   3.440   2.712  16.027 -0.2715  0.1993  0.3597
    2TMC2     C14313   3.127   2.786  16.271  0.1502  0.7100 -0.0652
    2TMC2     O14314   3.048   2.711  16.212 -0.1781 -0.6024 -0.3326
    2TMC2     H14315   3.134   2.854  16.025 -1.5757 -1.2694  3.2872
    2TMC2    H114316   3.362   2.739  16.357  1.6485  0.1164 -0.2711
    2TMC2    H214317   3.517   2.697  15.952 -0.6129  0.7714 -0.1072
    2TMC2    C714318   3.567   2.641  16.226  0.2201  0.2609 -0.0642
    2TMC2    C814319   3.346   2.866  15.874  0.0526  0.4403  0.6002
    2TMC2    O114320   3.563   2.640  16.348  0.1089 -0.0422 -0.5490
    2TMC2    O214321   3.399   2.842  15.763 -0.0432 -0.2564  0.5302
    2TMC2    O514322   3.341   2.990  15.926  0.0983 -0.6200  0.1882
    2TMC2    H514323   3.306   3.010  16.016  1.5472  0.8092  0.4361
    3MPD1     C14324   2.843   2.787  16.691  0.1326 -0.0480  0.0411
    3MPD1    C114325   2.949   2.864  16.720 -0.3772  0.5625  0.4336
    3MPD1    C214326   3.052   2.877  16.618  0.3353  0.0636  0.0871
    3MPD1    C314327   3.034   2.815  16.497  0.2643  0.2183 -0.5310
    3MPD1    C414328   2.929   2.727  16.483 -0.2978  0.2899 -0.1315
    3MPD1    C514329   2.832   2.713  16.581 -0.3052 -0.9740 -0.3540
    3MPD1     H14330   3.145   2.928  16.636 -0.1054  0.6668  0.6459
    3MPD1    H114331   2.914   2.665  16.394 -0.0057 -0.5590  0.4085
    3MPD1    H214332   2.768   2.769  16.767 -1.5492 -0.3607 -1.7012
    3MPD1    H314333   2.749   2.644  16.573 -2.3704  1.3278  1.0023
    3MPD1     N14334   3.132   2.836  16.401 -0.8166 -0.4857 -0.2472
    3MPD1    H514335   3.202   2.905  16.426  0.8224 -2.2901  0.1576
    3MPD1    N114336   2.958   2.942  16.836  0.0233  0.4096  0.4106
    3MPD1    H614337   3.053   2.939  16.872 -0.1846  1.2187  1.0288
    3MPD1    H714338   2.893   2.905  16.904  1.0164 -1.1948  0.4876
    1TMC1    C114339   1.383   1.763  13.223 -0.0222 -0.1659  0.6992
    1TMC1    C214340   1.463   1.668  13.288  0.5038  0.5653  0.2755
    1TMC1    C314341   1.400   1.552  13.334  0.2909 -0.3253  0.1529
    1TMC1    C414342   1.249   1.748  13.208  0.5022  0.6276 -0.1162
    1TMC1    C514343   1.187   1.633  13.252  0.1882  0.3271 -0.3985
    1TMC1    C614344   1.261   1.536  13.314 -0.3798  0.0321 -0.2125
    1TMC1     C14345   1.434   1.899  13.204 -0.0082 -0.0527 -0.4653
    1TMC1     O14346   1.346   1.987  13.201  0.0057 -0.8268  0.0532
    1TMC1     H14347   1.568   1.682  13.306  0.3511  0.9161  0.8767
    1TMC1    H114348   1.184   1.834  13.191 -0.7472 -0.2787  0.0379
    1TMC1    H214349   1.202   1.457  13.358 -0.7865  0.3274 -0.2297
    1TMC1    C714350   1.051   1.603  13.215 -0.1586  2.1706  0.0548
    1TMC1    C814351   1.455   1.483  13.452 -0.0011 -0.6989 -0.4341
    1TMC1    O114352   0.994   1.517  13.283  0.2411  0.1356 -0.1067
    1TMC1    O214353   1.554   1.530  13.507  0.3619  0.0436  0.1319
    1TMC1    O314354   0.996   1.715  13.161  0.1022 -0.4158  0.0043
    1TMC1    H314355   1.060   1.759  13.101  0.6159 -0.9623  0.1544
    1TMC1    O514356   1.393   1.368  13.477 -0.9208 -0.1081  0.2903
    1TMC1    H514357   1.332   1.328  13.410 -1.4965 -2.9529  2.5161
    2MPD2     C14358   1.571   2.152  13.131  0.5242  0.1404 -0.5967
    2MPD2    C114359   1.633   2.045  13.193 -0.6042 -0.1091 -0.1587
    2MPD2    C214360   1.761   2.055  13.231 -0.1735 -0.0996 -0.3539
    2MPD2    C314361   1.827   2.175  13.230  0.1845 -0.2639  0.0395
    2MPD2    C414362   1.763   2.283  13.178 -0.1485  0.1242 -0.1828
    2MPD2    C514363   1.633   2.274  13.130  0.0474  0.3682  0.1963
    2MPD2     H14364   1.807   1.971  13.281  0.2047  0.7706  0.7504
    2MPD2    H114365   1.818   2.373  13.152 -0.0377 -0.0466 -0.5291
    2MPD2    H214366   1.480   2.138  13.073  1.7688 -0.3179 -2.4366
    2MPD2    H314367   1.585   2.348  13.067  0.1264 -0.9777 -1.4274
    2MPD2     N14368   1.964   2.186  13.277  0.4949  0.8560 -0.1811
    2MPD2    H514369   2.011   2.098  13.295 -0.1382  0.4083 -0.7246
    2MPD2    N114370   1.567   1.920  13.203  0.1017  0.0617 -0.1322
    2MPD2    H714371   1.622   1.836  13.219  0.3187  0.3314  0.5736
    3TCq1    O114372   2.413   2.122  13.644  0.3980  0.8538 -0.4403
    3TCq1    C114373   2.350   2.051  13.544 -0.5487  0.3371 -0.7698
    3TCq1    O214374   2.282   1.948  13.549 -0.3117  0.0060  0.1739
    3TCq1    C214375   2.325   2.154  13.452  0.4213 -0.4839 -0.4875
    3TCq1    C314376   2.423   2.241  13.415  0.1344  0.2728  0.3444
    3TCq1    C414377   2.387   2.347  13.341  0.2568  0.1423 -0.4491
    3TCq1    C514378   2.262   2.370  13.293 -0.2194  0.1525  0.0260
    3TCq1    C614379   2.170   2.277  13.336  0.0521  0.7771 -0.0582
    3TCq1    C714380   2.199   2.171  13.414 -0.1987 -0.7212 -0.6110
    3TCq1    C814381   2.042   2.298  13.285  0.2098 -0.2099  0.2179
    3TCq1    O414382   2.022   2.415  13.263 -0.0152 -0.3722  0.2539
    3TCq1    C914383   2.487   2.444  13.297 -0.4813  0.0868  0.0928
    3TCq1    O514384   2.588   2.396  13.245  0.4128  0.8164  0.6669
    3TCq1    O614385   2.468   2.565  13.328  0.9755 -0.3004  0.2171
    3TCq1    H114386   2.424   2.217  13.624 -0.6677  1.3636  1.4358
    3TCq1    H214387   2.527   2.226  13.440  0.7223  1.4148 -1.4425
    3TCq1    H314388   2.244   2.438  13.211  0.8248 -0.2179 -0.5186
    3TCq1    H414389   2.124   2.109  13.463 -0.9292  1.4529  1.0208
    1MPD2     C14390   1.702   3.616  14.437 -0.2633 -0.8668  0.1423
    1MPD2    C114391   1.695   3.485  14.391  0.0038 -0.3494 -0.7994
    1MPD2    C214392   1.799   3.399  14.423 -0.1450  1.0804 -0.3208
    1MPD2    C314393   1.902   3.440  14.499 -0.1543 -0.3728 -0.2390
    1MPD2    C414394   1.911   3.565  14.549 -0.2258 -0.1540  0.7094
    1MPD2    C514395   1.814   3.654  14.514 -0.1110  0.0951 -0.4703
    1MPD2     H14396   1.796   3.293  14.399 -1.1750  1.2268 -0.8455
    1MPD2    H114397   1.987   3.598  14.618  1.3089 -0.5457 -0.7915
    1MPD2    H214398   1.624   3.687  14.409 -0.0291 -1.1924 -1.3382
    1MPD2    H314399   1.828   3.754  14.555 -0.6124 -0.4546  1.0474
    1MPD2     N14400   1.986   3.339  14.536 -0.5486  0.3286 -0.5374
    1MPD2    H514401   1.970   3.244  14.505 -1.3911  0.7211 -1.2992
    1MPD2    N114402   1.578   3.442  14.320 -0.2009  0.0536 -0.2195
    1MPD2    H714403   1.510   3.517  14.314 -0.9063 -0.7811 -2.8002
    2TMC3    C114404   1.402   3.300  14.269  0.3741  0.0165 -0.5174
    2TMC3    C214405   1.357   3.170  14.254 -0.6030  0.3121 -0.0174
    2TMC3    C314406   1.259   3.119  14.335  0.3346  0.2610 -0.7818
    2TMC3    C414407   1.311   3.382  14.325 -0.2905 -0.6210  0.0453
    2TMC3    C514408   1.192   3.334  14.377  0.4300  0.0046 -0.2882
    2TMC3    C614409   1.163   3.206  14.385 -0.6901 -0.3592  0.7497
    2TMC3     C14410   1.543   3.313  14.293  1.1778 -0.4579 -0.3492
    2TMC3     O14411   1.594   3.203  14.304 -0.4573  0.0502 -0.3735
    2TMC3     H14412   1.424   3.100  14.205  0.6707  0.6690  1.1885
    2TMC3    H114413   1.335   3.486  14.345  2.8549 -1.3948  0.4049
    2TMC3    H214414   1.076   3.176  14.443 -1.5096 -1.3792 -1.0115
    2TMC3    C714415   1.095   3.422  14.436 -0.1552 -0.0778  0.0895
    2TMC3    C814416   1.294   3.020  14.430 -0.0146 -0.0058  0.1023
    2TMC3    O114417   1.034   3.379  14.536  0.7819 -0.7596 -0.4723
    2TMC3    O214418   1.216   2.997  14.526 -0.7372  0.2245  0.3300
    3TCq1    O114419   0.831   3.865  13.604  0.3911  0.5279 -0.3868
    3TCq1    C114420   0.887   3.959  13.688 -0.5784  0.2388  0.3500
    3TCq1    O214421   1.003   3.959  13.727 -0.1085  0.1811  0.3334
    3TCq1    C214422   0.777   3.979  13.782 -0.0500  0.0478 -0.3860
    3TCq1    C314423   0.652   4.018  13.732 -0.3195  0.4215 -0.0535
    3TCq1    C414424   0.551   4.047  13.811 -0.1598 -0.2759  0.0114
    3TCq1    C514425   0.566   4.036  13.947 -0.6281 -0.1862 -0.1851
    3TCq1    C614426   0.692   4.010  13.997 -0.1865 -0.1990  0.1325
    3TCq1    C714427   0.806   3.990  13.912 -0.0714 -0.1837 -0.0873
    3TCq1    C814428   0.701   3.960  14.135  0.5371 -0.0060  0.1084
    3TCq1    O414429   0.630   4.015  14.217  0.2671 -0.1223  0.0863
    3TCq1    C914430   0.416   4.050  13.752 -0.3940 -0.2545  0.8969
    3TCq1    O514431   0.321   4.048  13.840 -0.3335 -0.1389 -0.1092
    3TCq1    O614432   0.412   4.082  13.630 -0.4719  0.2951  0.0243
    3TCq1    H114433   0.733   3.862  13.593  0.4465 -1.1219 -0.4437
    3TCq1    H214434   0.640   4.004  13.625 -0.5737  1.6909 -0.1879
    3TCq1    H314435   0.483   4.045  14.015 -0.4449 -2.7744  0.3931
    3TCq1    H414436   0.908   3.978  13.945  0.0273  0.4997 -0.1493
    4MPD2     C14437   0.749   3.807  14.383  0.1771  0.2431 -0.4058
    4MPD2    C114438   0.815   3.785  14.265 -0.7196 -0.4218 -0.5196
    4MPD2    C214439   0.916   3.695  14.261  0.7740 -1.1132 -0.1210
    4MPD2    C314440   0.963   3.625  14.370  0.4397 -0.7656  0.1358
    4MPD2    C414441   0.901   3.660  14.490 -0.3892 -0.2541 -0.5930
    4MPD2    C514442   0.796   3.751  14.500  0.5133 -0.3084 -0.5344
    4MPD2     H14443   0.960   3.657  14.170  2.1542  1.2248 -0.4145
    4MPD2    H114444   0.937   3.614  14.581  2.0184  0.8852 -0.9414
    4MPD2    H214445   0.667   3.878  14.381 -0.0072  0.0492  0.3724
    4MPD2    H314446   0.741   3.761  14.593 -0.5765  3.2143 -1.5611
    4MPD2     N14447   1.068   3.530  14.352  0.6609  0.4074  0.2872
    4MPD2    H514448   1.116   3.520  14.263  0.8806  1.4575  0.2901
    4MPD2    N114449   0.789   3.856  14.148  0.6138 -0.0381  0.4467
    4MPD2    H714450   0.837   3.819  14.066  1.4439 -0.7111  1.2371
    5TMC2    C114451   2.077   3.014  14.588 -0.7105 -0.1097  0.2387
    5TMC2    C214452   2.098   2.984  14.715  0.0182 -0.2022  0.3002
    5TMC2    C314453   2.147   3.080  14.799  0.1197  0.2940  0.7145
    5TMC2    C414454   2.118   3.129  14.537  0.9304  0.0181 -0.6768
    5TMC2    C514455   2.156   3.230  14.623 -0.3699 -1.1374 -0.2237
    5TMC2    C614456   2.170   3.209  14.756 -0.4650  0.5518 -0.1008
    5TMC2     C14457   1.944   2.990  14.540  0.2097  0.7348  0.3661
    5TMC2     O14458   1.917   3.052  14.436 -0.1654 -0.1260  0.1845
    5TMC2     H14459   2.065   2.892  14.761  2.9647 -0.1305  2.5499
    5TMC2    H114460   2.112   3.154  14.432  0.8329  0.9996 -0.4332
    5TMC2    H214461   2.181   3.296  14.820 -0.1220 -0.1534  0.7856
    5TMC2    C714462   2.111   3.359  14.580 -0.2364 -0.0564  0.0686
    5TMC2    C814463   2.134   3.062  14.940 -0.0002  0.2190  0.1991
    5TMC2    O114464   2.177   3.459  14.594 -0.4860 -0.1443  0.1595
    5TMC2    O214465   2.063   2.975  14.991  0.5396 -0.0109 -0.1225
    5TMC2    O514466   2.251   3.098  14.997 -0.0699  0.2244  0.3982
    5TMC2    H514467   2.308   3.144  14.932 -1.7274  1.6358 -0.0505
    6MPD2     C14468   1.441   2.882  14.658 -0.2951  0.5732 -0.2318
    6MPD2    C114469   1.501   2.955  14.558  0.4235 -0.0014  0.3092
    6MPD2    C214470   1.637   2.973  14.554 -0.5305 -0.6904 -0.1807
    6MPD2    C314471   1.716   2.913  14.649  0.0012  0.0491 -0.1748
    6MPD2    C414472   1.652   2.840  14.752  0.2793  1.0117  0.7645
    6MPD2    C514473   1.523   2.821  14.754  0.8081 -0.2849 -0.2585
    6MPD2     H14474   1.681   3.032  14.475  1.2079  0.3952  1.6066
    6MPD2    H114475   1.709   2.782  14.824 -0.8727  3.6116  3.7802
    6MPD2    H214476   1.334   2.861  14.660  0.2267 -2.0096  0.7036
    6MPD2    H314477   1.476   2.759  14.830  0.9821  0.1574  0.2132
    6MPD2     N14478   1.863   2.928  14.636  0.6888 -0.0996  0.4895
    6MPD2    H514479   1.908   2.866  14.703 -1.0710 -1.7194  0.1600
    6MPD2    N114480   1.430   3.000  14.440 -0.2478  0.0029  0.2733
    6MPD2    H714481   1.485   3.041  14.365 -0.7077 -1.0546 -0.6454
  945NH3     N114482   0.067   0.494  16.991  0.2702 -0.5294  0.0202
  945NH3     H214483   0.076   0.468  16.893  1.2806  0.3446 -0.1302
  945NH3     H314484   4.712   0.475  17.017 -0.1949 -0.5044 -1.6437
  945NH3     H414485   0.126   0.427  17.039 -1.3750 -1.0776  1.2449
  946SOD     NA14486   0.139   4.165  13.828  0.3552  0.3379 -0.1536
  947SOD     NA14487   0.934   3.884  11.274  0.2996  0.2096 -0.3036
  948SOD     NA14488   3.043   4.168  11.641 -0.8486 -0.1240 -0.1755
  949SOD     NA14489   0.661   2.647   0.843 -0.2544 -0.1324 -0.0464
  950SOD     NA14490   1.851   4.294  10.660  0.2869 -0.2793 -0.2431
  951SOD     NA14491   0.950   1.538   8.341  0.3104 -0.1912  0.2825
  952SOD     NA14492   4.239   3.509  13.764  0.1167 -0.0665 -0.0915
  953SOD     NA14493   3.038   0.444  17.186  0.4585 -0.0782  0.0899
  954SOL     OW14494   3.402   3.299   2.292 -0.1611  0.5213  0.3849
  954SOL    HW114495   3.400   3.337   2.204 -1.6089  2.1230  1.1174
  954SOL    HW214496   3.468   3.231   2.275  0.2000  0.9847 -0.0721
  955SOL     OW14497   2.043   0.642  17.190  0.1305  0.2086  0.2518
  955SOL    HW114498   2.073   0.718  17.141 -0.1342 -0.8096 -1.5020
  955SOL    HW214499   2.024   0.672  17.278  0.4570 -0.9329  0.7095
  956SOL     OW14500   0.458   1.335  10.552 -0.4699 -0.7175 -0.3697
  956SOL    HW114501   0.414   1.388  10.618  1.9953  0.5146  0.2686
  956SOL    HW214502   0.392   1.334  10.482 -1.0083  3.0895  0.1093
  957SOL     OW14503   3.469   1.806   7.967  0.1950  0.5452 -0.5880
  957SOL    HW114504   3.480   1.877   7.904 -1.4349 -0.3471 -1.8368
  957SOL    HW214505   3.520   1.732   7.936  0.6070  0.8513 -0.6408
  958SOL     OW14506   2.816   4.454   0.835 -0.4399  0.1712  0.3398
  958SOL    HW114507   2.883   4.433   0.899 -1.4811  2.4253  2.1548
  958SOL    HW214508   2.860   4.459   0.750 -0.1806  1.4747  0.5481
  959SOL     OW14509   0.778   4.069   2.174  0.4020 -0.9335  0.2154
  959SOL    HW114510   0.763   4.035   2.086 -1.0980  1.3298 -0.4094
  959SOL    HW214511   0.698   4.121   2.185 -0.4306 -2.6297  2.1512
  960SOL     OW14512   3.493   0.938  13.202  0.1135  0.4575  0.2776
  960SOL    HW114513   3.554   1.011  13.201 -0.9990  1.3916  1.3476
  960SOL    HW214514   3.503   0.905  13.112  0.9112 -0.2093  0.6182
  961SOL     OW14515   0.441   2.415   2.205 -0.2493 -0.5230  0.5952
  961SOL    HW114516   0.428   2.395   2.297  0.4965  0.8365  0.9964
  961SOL    HW214517   0.348   2.403   2.185  0.0477  0.0620 -1.1779
  962SOL     OW14518   1.682   1.090   2.924  0.6129 -0.0673 -0.2252
  962SOL    HW114519   1.629   1.010   2.930 -0.7277  0.8130 -0.5072
  962SOL    HW214520   1.763   1.059   2.883  0.3853  0.6241 -1.1749
  963SOL     OW14521   2.324   2.903   3.914 -0.2963 -0.3784  0.1029
  963SOL    HW114522   2.302   2.910   3.821  1.3220  0.7145 -0.2037
  963SOL    HW214523   2.419   2.914   3.909 -0.3530 -0.9852 -2.2238
  964SOL     OW14524   2.546   4.613   4.460  0.4442  0.4713  0.1228
  964SOL    HW114525   2.623   4.564   4.490 -0.9782 -2.2771 -0.7435
  964SOL    HW214526   2.476   4.573   4.512  1.4690 -1.2948  0.1735
  965SOL     OW14527   0.251   3.152   5.754 -0.3654  0.3716 -0.0173
  965SOL    HW114528   0.295   3.164   5.838  0.8682 -3.1382 -0.1640
  965SOL    HW214529   0.219   3.062   5.757 -1.2858  0.7630  2.6642
  966SOL     OW14530   2.186   1.083   5.538  0.6053  0.2512 -0.6205
  966SOL    HW114531   2.109   1.063   5.591  0.7434 -2.7020 -1.5397
  966SOL    HW214532   2.233   1.146   5.593 -0.5946  1.0068 -0.4417
  967SOL     OW14533   3.040   2.971  17.550 -0.5554  0.1346  0.7733
  967SOL    HW114534   3.033   3.016  17.465 -1.3022 -1.6587 -0.1015
  967SOL    HW214535   3.122   2.924  17.532 -0.3554  1.1430 -0.9283
  968SOL     OW14536   1.950   1.964   1.804 -0.1528  0.4174  0.0253
  968SOL    HW114537   1.909   2.048   1.824  1.4661  1.4653 -1.0753
  968SOL    HW214538   2.026   1.976   1.860  0.3980  2.1220 -1.0823
  969SOL     OW14539   2.586   2.963  17.727  0.5068 -0.1207  0.0382
  969SOL    HW114540   2.585   2.964   0.061  1.3623 -3.5638  0.1053
  969SOL    HW214541   2.583   2.872  17.699 -1.5939 -0.6112  1.8675
  970SOL     OW14542   1.111   2.073  12.702  0.1802 -0.4361 -0.1970
  970SOL    HW114543   1.196   2.036  12.727  0.8197  0.6943 -0.6774
  970SOL    HW214544   1.060   2.069  12.783 -0.3511  0.3588 -0.4951
  971SOL     OW14545   2.862   0.393   1.499 -0.4411 -0.6224 -0.1127
  971SOL    HW114546   2.774   0.430   1.495  0.0021  0.3467 -1.3198
  971SOL    HW214547   2.887   0.380   1.407  1.1317  1.2625  0.0475
  972SOL     OW14548   3.381   2.221   4.717  0.1687  0.1106  0.0038
  972SOL    HW114549   3.324   2.231   4.641 -1.6497  0.0451  1.3758
  972SOL    HW214550   3.400   2.311   4.743 -1.2192  0.2372  0.5614
  973SOL     OW14551   2.481   0.131  13.138  0.3216  0.5259 -0.0270
  973SOL    HW114552   2.407   0.077  13.166  0.8616 -0.3335 -0.2761
  973SOL    HW214553   2.502   0.098  13.051  1.7333  1.8017 -0.1545
  974SOL     OW14554   2.777   3.323  14.920  0.2898 -0.0585 -0.0770
  974SOL    HW114555   2.713   3.269  14.967  0.5577  0.1505  0.5271
  974SOL    HW214556   2.815   3.264  14.855  0.7443  0.0310  0.1124
  975SOL     OW14557   4.066   1.450   9.085 -0.1760 -0.1661  0.2882
  975SOL    HW114558   4.153   1.486   9.104 -0.6675  0.3407  1.5956
  975SOL    HW214559   4.021   1.452   9.170  1.1947  1.8636  0.9692
  976SOL     OW14560   3.460   1.953  14.542 -0.2017  0.0211  0.2503
  976SOL    HW114561   3.390   1.899  14.505 -0.8013 -1.2208  3.2128
  976SOL    HW214562   3.408   2.008  14.601  1.3876 -0.6091  2.2151
  977SOL     OW14563   3.770   4.487   1.533  0.4936  0.1255 -0.0113
  977SOL    HW114564   3.731   4.575   1.528 -0.7862 -0.4784 -0.7982
  977SOL    HW214565   3.711   4.431   1.482 -0.7040 -0.8033  2.4280
  978SOL     OW14566   4.202   3.718   4.225 -0.2687 -0.0291  0.8068
  978SOL    HW114567   4.147   3.664   4.281 -1.8839  0.1754 -0.5749
  978SOL    HW214568   4.128   3.763   4.184  0.9337  2.9716  1.9493
  979SOL     OW14569   2.799   4.148  10.339 -0.0291  0.3446 -0.3800
  979SOL    HW114570   2.762   4.060  10.330  1.8182 -0.6903  2.3613
  979SOL    HW214571   2.732   4.208  10.306 -1.6437 -0.8054  0.7916
  980SOL     OW14572   1.645   0.540  15.834 -0.1256  0.2641 -0.3302
  980SOL    HW114573   1.662   0.582  15.918 -0.2259 -1.3354  0.4791
  980SOL    HW214574   1.643   0.614  15.774 -0.2315 -0.5188 -1.2936
  981SOL     OW14575   0.750   1.156   0.327 -0.8583  0.6684  0.0393
  981SOL    HW114576   0.687   1.224   0.304  0.4804  1.9210  0.0775
  981SOL    HW214577   0.692   1.090   0.367  0.2429 -0.7919 -0.7747
  982SOL     OW14578   4.467   4.322   6.510  0.1082 -0.6482 -0.1160
  982SOL    HW114579   4.534   4.284   6.454 -1.2579 -0.4177 -1.9012
  982SOL    HW214580   4.397   4.346   6.449 -0.8199  0.1109  1.2257
  983SOL     OW14581   4.005   1.228   4.322 -0.4305  0.1478 -0.0286
  983SOL    HW114582   3.937   1.177   4.278 -1.6188  1.7689 -0.0825
  983SOL    HW214583   4.063   1.246   4.249 -1.6778  4.9054  0.1336
  984SOL     OW14584   3.933   2.435   4.021 -0.2162 -0.2535 -0.7516
  984SOL    HW114585   3.873   2.507   4.001  0.6020  0.9312  1.0215
  984SOL    HW214586   4.000   2.461   3.958 -0.3858 -1.8197 -1.5812
  985SOL     OW14587   3.442   2.754   4.601  0.5039  0.4370 -0.9015
  985SOL    HW114588   3.353   2.786   4.585 -0.1227 -1.0236 -0.3404
  985SOL    HW214589   3.488   2.789   4.524  2.1294 -0.6306 -0.4032
  986SOL     OW14590   2.864   3.192   1.868  0.1394  0.0571  0.2617
  986SOL    HW114591   2.824   3.271   1.903 -0.6600 -0.7347  1.1486
  986SOL    HW214592   2.898   3.233   1.789 -2.9159  2.2331  0.1149
  987SOL     OW14593   0.934   0.873   9.881  0.8037 -0.3270  0.3179
  987SOL    HW114594   0.977   0.818   9.815  1.5712  1.2481 -0.4870
  987SOL    HW214595   0.954   0.839   9.968  0.1782 -0.5910  0.3582
  988SOL     OW14596   2.975   0.745   8.800  0.4829  0.3358  0.1921
  988SOL    HW114597   2.949   0.661   8.837 -2.8053 -0.0033 -2.8960
  988SOL    HW214598   2.904   0.752   8.736  0.9201 -1.1370 -0.4410
  989SOL     OW14599   1.628   3.160  11.294 -0.2389  0.8148  0.6145
  989SOL    HW114600   1.697   3.171  11.228 -2.0693 -0.5619 -1.5651
  989SOL    HW214601   1.647   3.070  11.321 -0.9834 -0.4061 -2.8832
  990SOL     OW14602   0.801   2.520  10.389  0.1563 -0.1008 -0.3268
  990SOL    HW114603   0.727   2.562  10.435 -0.5918 -1.6304 -0.1277
  990SOL    HW214604   0.788   2.549  10.299 -2.3854  1.1094  0.4157
  991SOL     OW14605   4.233   4.542   2.075  0.5051 -0.0311  0.0261
  991SOL    HW114606   4.153   4.558   2.124  0.5733  1.8158 -0.4737
  991SOL    HW214607   4.220   4.608   2.007  1.2209  1.2512  1.1496
  992SOL     OW14608   3.976   2.895  10.022 -0.0337 -0.0587 -0.1787
  992SOL    HW114609   3.939   2.970   9.975 -2.4273 -1.4588 -0.5330
  992SOL    HW214610   3.991   2.929  10.110 -2.1793  0.5391 -0.0455
  993SOL     OW14611   1.536   0.195   9.344 -0.2573  0.4142 -0.2149
  993SOL    HW114612   1.497   0.116   9.382 -0.4889  0.4467 -0.3869
  993SOL    HW214613   1.559   0.243   9.424 -3.2483  1.0043  0.2843
  994SOL     OW14614   4.374   1.127   7.042  0.1507 -0.5750 -0.4880
  994SOL    HW114615   4.351   1.040   7.073 -2.7892  0.1459 -0.7262
  994SOL    HW214616   4.290   1.162   7.014  0.7117  1.0849 -0.1701
  995SOL     OW14617   4.713   0.702   8.682 -0.0075 -0.4388  0.1515
  995SOL    HW114618   4.720   0.623   8.735 -0.0558 -0.9404 -0.5899
  995SOL    HW214619   4.647   0.751   8.731  0.1504 -0.3129  0.2394
  996SOL     OW14620   0.950   2.414   5.092 -0.3808  0.2490  0.0909
  996SOL    HW114621   0.916   2.377   5.010 -0.0333  1.7505 -0.7218
  996SOL    HW214622   0.995   2.496   5.074  1.5013 -0.6357  0.7962
  997SOL     OW14623   0.174   0.158  17.726 -0.4040 -0.2132  0.1818
  997SOL    HW114624   0.265   0.135  17.706  0.3122  0.4283  2.7074
  997SOL    HW214625   0.164   0.234  17.669  0.8067 -0.4425 -0.3401
  998SOL     OW14626   1.792   3.479   8.322 -0.5296 -0.1968  0.4928
  998SOL    HW114627   1.773   3.497   8.414 -1.2226 -0.3510  0.3815
  998SOL    HW214628   1.847   3.555   8.303 -0.2913 -0.6101 -0.4554
  999SOL     OW14629   1.705   3.377   2.378  0.2227 -0.1349  0.1950
  999SOL    HW114630   1.773   3.310   2.373  1.0799  0.7199  0.4245
  999SOL    HW214631   1.710   3.406   2.287  1.6533 -1.4295 -0.1406
 1000SOL     OW14632   0.447   2.460   7.821 -0.2153  0.6958  0.3111
 1000SOL    HW114633   0.496   2.415   7.889 -0.1792  0.5478  0.1884
 1000SOL    HW214634   0.408   2.536   7.864 -0.9831  1.0339 -0.9833
 1001SOL     OW14635   3.591   1.630   2.128 -0.2594  0.0011  0.3407
 1001SOL    HW114636   3.523   1.592   2.073 -2.4109 -0.0570  3.0209
 1001SOL    HW214637   3.603   1.573   2.204  0.3154  0.4922  0.6074
 1002SOL     OW14638   4.544   4.452   3.436 -0.1754  0.6163 -0.7741
 1002SOL    HW114639   4.506   4.502   3.364 -1.7577  0.6356  0.0737
 1002SOL    HW214640   4.473   4.448   3.499  0.8246 -0.2422  0.2991
 1003SOL     OW14641   2.234   0.721   5.608 -0.1006  0.2142  0.2693
 1003SOL    HW114642   2.328   0.733   5.620 -0.0670  0.9225 -0.7467
 1003SOL    HW214643   2.212   0.756   5.522  0.6083  2.8972  1.1881
 1004SOL     OW14644   3.900   4.493   3.712 -0.3804  0.5470  0.3362
 1004SOL    HW114645   3.928   4.509   3.802 -0.8038 -0.2388  0.6034
 1004SOL    HW214646   3.898   4.581   3.675 -0.7919  0.3291 -0.1528
 1005SOL     OW14647   2.308   0.655   4.149 -0.1814 -0.3519  0.1553
 1005SOL    HW114648   2.336   0.571   4.185  0.3421  0.4978  1.7281
 1005SOL    HW214649   2.371   0.663   4.078  0.0255  3.1517  0.7150
 1006SOL     OW14650   2.036   4.426   5.080 -0.0765  0.5408 -0.7812
 1006SOL    HW114651   1.952   4.423   5.126  0.7009  1.3152  0.6732
 1006SOL    HW214652   2.017   4.383   4.997 -1.8635 -0.9251  0.3927
 1007SOL     OW14653   1.667   1.587   4.936  0.2112 -0.9070 -0.6440
 1007SOL    HW114654   1.673   1.645   4.861  1.3425 -0.0487  0.1171
 1007SOL    HW214655   1.578   1.605   4.966  1.5085  2.1363  1.4088
 1008SOL     OW14656   1.883   2.748   9.330  0.5249 -0.0861 -0.0055
 1008SOL    HW114657   1.953   2.734   9.267 -0.0947 -1.8409 -0.2990
 1008SOL    HW214658   1.853   2.660   9.352  1.8822 -0.3198  0.8920
 1009SOL     OW14659   0.150   4.596  11.104 -0.3519 -0.2907 -0.0329
 1009SOL    HW114660   0.072   4.650  11.114  0.0472  0.8295 -3.1924
 1009SOL    HW214661   0.109   4.521  11.060  0.1024 -1.7402  2.0215
 1010SOL     OW14662   0.316   3.320  12.132 -0.2084 -0.0350 -0.6368
 1010SOL    HW114663   0.305   3.316  12.037  0.3223 -0.7264 -0.6664
 1010SOL    HW214664   0.401   3.277  12.122  0.3290  0.1931  2.9272
 1011SOL     OW14665   4.585   0.227   1.314  0.8868  0.0954  0.4408
 1011SOL    HW114666   4.661   0.168   1.318  0.6610 -0.1134  1.9795
 1011SOL    HW214667   4.553   0.209   1.403 -0.0644 -1.9997 -0.3468
 1012SOL     OW14668   0.550   3.459  17.114 -0.1825 -0.2815  0.3447
 1012SOL    HW114669   0.588   3.487  17.030 -0.5878  0.3551  0.3736
 1012SOL    HW214670   0.559   3.540  17.165 -0.5278  0.8268 -1.3478
 1013SOL     OW14671   4.540   2.198   3.045 -0.6732 -0.3295  0.2321
 1013SOL    HW114672   4.619   2.210   3.097 -0.7429  0.0823  0.2394
 1013SOL    HW214673   4.563   2.240   2.962 -1.2930 -1.5462 -0.5658
 1014SOL     OW14674   1.371   1.035  11.382  0.0061  0.3627 -0.0521
 1014SOL    HW114675   1.303   1.049  11.315  0.8556  3.5597 -0.2191
 1014SOL    HW214676   1.436   1.101  11.359  0.1114  0.3657  0.2604
 1015SOL     OW14677   2.710   4.522   3.236  0.1982  0.5027 -0.4059
 1015SOL    HW114678   2.671   4.457   3.178 -1.8237 -0.2104  1.7550
 1015SOL    HW214679   2.784   4.556   3.185  3.1275 -0.7446  2.9445
 1016SOL     OW14680   3.075   2.567   8.593  0.4709 -0.1864 -0.1631
 1016SOL    HW114681   2.979   2.570   8.587  0.4238 -0.5103  0.5227
 1016SOL    HW214682   3.095   2.647   8.642  0.4689  0.4639 -1.2111
 1017SOL     OW14683   1.654   0.467  16.250  0.1215  0.2575  0.1906
 1017SOL    HW114684   1.737   0.464  16.203  0.1902  2.9263  0.1396
 1017SOL    HW214685   1.663   0.552  16.293  0.2609  0.6019 -0.5185
 1018SOL     OW14686   3.048   3.253  17.616 -1.0392  0.1896 -0.0539
 1018SOL    HW114687   3.071   3.161  17.608 -1.2393 -0.1531  3.3223
 1018SOL    HW214688   2.964   3.237  17.659 -0.9455 -0.8117 -0.2505
 1019SOL     OW14689   3.133   0.755   7.459 -0.0517  0.0409  0.2345
 1019SOL    HW114690   3.223   0.787   7.465  0.0569  0.0702 -1.4329
 1019SOL    HW214691   3.103   0.806   7.384 -2.0769  0.2372  1.1859
 1020SOL     OW14692   1.662   3.487  16.900 -0.0498 -0.6223 -0.3185
 1020SOL    HW114693   1.681   3.546  16.973  0.5079  0.0536 -1.0037
 1020SOL    HW214694   1.676   3.531  16.816 -1.0704  0.9937  0.3576
 1021SOL     OW14695   2.573   1.113   6.043 -0.3307 -0.0958  0.7429
 1021SOL    HW114696   2.480   1.138   6.041 -0.2444  0.2989  1.5599
 1021SOL    HW214697   2.581   1.028   6.086 -2.4525  0.3777  2.0739
 1022SOL     OW14698   1.682   1.424   6.446 -0.0097  0.6057 -0.3950
 1022SOL    HW114699   1.716   1.348   6.399 -0.2772 -1.2413  2.3797
 1022SOL    HW214700   1.595   1.431   6.408 -0.1950  1.6581  0.2345
 1023SOL     OW14701   2.534   3.613   7.109 -0.2009  0.0052 -0.1264
 1023SOL    HW114702   2.519   3.668   7.186 -0.4374  0.5783 -0.5815
 1023SOL    HW214703   2.450   3.571   7.091 -0.5647  0.0125  1.5121
 1024SOL     OW14704   2.644   0.190   4.470 -0.0477 -0.0452 -0.3170
 1024SOL    HW114705   2.561   0.192   4.516  0.5775 -0.6306  0.8480
 1024SOL    HW214706   2.694   0.117   4.508  0.0513 -0.4192 -1.1537
 1025SOL     OW14707   1.691   1.008  16.010  0.1494 -0.0163 -0.2651
 1025SOL    HW114708   1.692   0.912  16.012  0.0132  0.0088  0.5925
 1025SOL    HW214709   1.761   1.009  15.945 -0.0431 -1.0828 -0.4963
 1026SOL     OW14710   0.967   0.824   7.649 -0.5743 -0.0865 -0.2539
 1026SOL    HW114711   0.941   0.740   7.685  3.7945 -0.6641  1.4108
 1026SOL    HW214712   1.032   0.810   7.580 -0.6450 -0.7416 -0.1808
 1027SOL     OW14713   0.771   0.619   4.943  0.4075 -0.4183 -0.1636
 1027SOL    HW114714   0.721   0.543   4.913  0.3064 -0.4315  0.0403
 1027SOL    HW214715   0.861   0.589   4.928  0.4979  0.4867 -1.4381
 1028SOL     OW14716   4.629   2.446   7.108 -0.0325 -0.0207  0.3195
 1028SOL    HW114717   4.567   2.415   7.174 -0.6399  0.2026 -0.1485
 1028SOL    HW214718   4.624   2.541   7.119 -1.0395  0.3775 -3.5318
 1029SOL     OW14719   2.795   1.302   8.686  0.2617 -0.3555 -0.0704
 1029SOL    HW114720   2.789   1.303   8.591  0.7699  0.1277 -0.0942
 1029SOL    HW214721   2.766   1.215   8.713  1.7029 -1.0023 -0.6223
 1030SOL     OW14722   0.054   0.850   0.551 -0.0108  0.4372  0.1052
 1030SOL    HW114723   0.023   0.831   0.640 -0.2039  1.7882  0.3329
 1030SOL    HW214724   4.715   0.872   0.503 -1.5354 -0.7346  2.0846
 1031SOL     OW14725   3.376   2.081   2.529 -0.2280  0.4208  0.0881
 1031SOL    HW114726   3.449   2.134   2.561  0.1212 -1.4535  2.4361
 1031SOL    HW214727   3.304   2.144   2.524  0.8518  1.4765 -2.0819
 1032SOL     OW14728   4.307   1.056   8.237 -0.0205  0.5896  0.7605
 1032SOL    HW114729   4.260   1.136   8.215  0.1226 -0.2815 -2.6009
 1032SOL    HW214730   4.325   1.009   8.156  0.3861 -0.1484  1.2728
 1033SOL     OW14731   1.338   3.950   5.847  0.0646  0.2367 -0.4286
 1033SOL    HW114732   1.277   3.877   5.845  0.1311  0.1500  0.7449
 1033SOL    HW214733   1.410   3.897   5.813 -0.6759 -1.6592  0.9921
 1034SOL     OW14734   2.535   0.632   3.995  0.2109 -0.3213 -0.4083
 1034SOL    HW114735   2.518   0.601   3.906  3.4126  1.0729 -1.4954
 1034SOL    HW214736   2.616   0.593   4.027 -0.5246 -1.7461 -0.2768
 1035SOL     OW14737   2.669   2.139  15.959 -0.1839 -0.1583 -0.2467
 1035SOL    HW114738   2.764   2.134  15.947 -0.2899  0.8340 -1.4590
 1035SOL    HW214739   2.638   2.050  15.939  2.0626 -0.2404 -3.3120
 1036SOL     OW14740   1.731   3.104   4.864  0.2828  0.2350 -0.2141
 1036SOL    HW114741   1.782   3.130   4.940  0.4109 -3.2265  0.9034
 1036SOL    HW214742   1.728   3.008   4.872 -1.7113  0.1878 -1.4331
 1037SOL     OW14743   4.169   4.620  15.537  0.8045 -0.1084  0.0324
 1037SOL    HW114744   4.078   4.630  15.508  1.0142  1.7255 -0.0218
 1037SOL    HW214745   4.207   4.640  15.451  0.0706 -2.4166 -0.8134
 1038SOL     OW14746   3.466   2.825   0.448 -0.4558  0.6242  0.1420
 1038SOL    HW114747   3.389   2.768   0.447 -1.4742  2.0056  0.7110
 1038SOL    HW214748   3.431   2.901   0.402 -0.1615  1.9374  2.0938
 1039SOL     OW14749   0.915   3.649   5.539 -0.2969 -0.0893  0.2090
 1039SOL    HW114750   0.950   3.731   5.506  1.7161 -1.3585 -0.7554
 1039SOL    HW214751   0.983   3.584   5.556 -0.3392 -0.6145 -1.6467
 1040SOL     OW14752   0.254   2.870   3.388 -0.1080  0.0420  0.1183
 1040SOL    HW114753   0.229   2.918   3.309 -0.6396  0.1982  0.3819
 1040SOL    HW214754   0.348   2.883   3.374 -0.0427  0.8587  1.3311
 1041SOL     OW14755   1.167   3.115   2.726 -0.2724 -0.2367 -0.0319
 1041SOL    HW114756   1.256   3.086   2.708  0.2976  1.5194 -0.0457
 1041SOL    HW214757   1.157   3.166   2.646  2.9686 -1.5711 -1.2962
 1042SOL     OW14758   0.475   1.478  16.606  0.0262  0.2870 -0.3567
 1042SOL    HW114759   0.566   1.496  16.629 -0.0432 -0.8507  0.8041
 1042SOL    HW214760   0.434   1.562  16.585  0.2771  0.7403  0.9626
 1043SOL     OW14761   3.527   3.841  12.574  0.0798 -0.0936  0.5386
 1043SOL    HW114762   3.591   3.793  12.626 -0.3435 -2.6225 -1.2646
 1043SOL    HW214763   3.488   3.771  12.521 -1.3541  0.8169  0.4111
 1044SOL     OW14764   0.591   2.362   7.038  0.0834  0.5053 -0.1583
 1044SOL    HW114765   0.685   2.352   7.027  0.1390  0.9595 -0.1097
 1044SOL    HW214766   0.555   2.275   7.051  0.9201 -0.0505 -1.5507
 1045SOL     OW14767   2.088   1.381   9.303  0.3858 -0.1869  0.0410
 1045SOL    HW114768   2.135   1.298   9.306  0.4663 -0.1908 -1.2586
 1045SOL    HW214769   2.002   1.361   9.340  0.2736  1.3346  0.6032
 1046SOL     OW14770   2.813   4.304  13.714 -0.2060 -0.4458 -0.5722
 1046SOL    HW114771   2.826   4.346  13.799  0.6282  2.1949 -2.0282
 1046SOL    HW214772   2.737   4.353  13.683  0.4169 -0.1395 -1.6059
 1047SOL     OW14773   3.613   3.421   9.074 -0.1971  0.2743  0.1599
 1047SOL    HW114774   3.550   3.445   9.006  1.0135 -2.8665 -2.0941
 1047SOL    HW214775   3.587   3.490   9.134  3.0944  2.3178 -0.7609
 1048SOL     OW14776   2.467   2.974   5.810  0.6923  0.2350 -0.4593
 1048SOL    HW114777   2.412   3.044   5.775  0.6852 -0.1987 -1.3154
 1048SOL    HW214778   2.405   2.901   5.818 -0.3942  1.3727  1.4803
 1049SOL     OW14779   2.420   2.552   2.620  0.2091  0.7059 -0.1402
 1049SOL    HW114780   2.389   2.623   2.564 -1.1541  1.8914  2.0933
 1049SOL    HW214781   2.372   2.558   2.703 -0.5449 -0.7012 -0.4673
 1050SOL     OW14782   1.800   1.805   1.981 -0.2394 -0.5922 -0.3729
 1050SOL    HW114783   1.886   1.776   2.009  0.2091  1.7010  0.6768
 1050SOL    HW214784   1.830   1.857   1.906  0.4063 -2.5764 -1.4672
 1051SOL     OW14785   2.105   2.195  10.017 -0.2302  0.3833  0.0279
 1051SOL    HW114786   2.196   2.167  10.030 -0.6544 -1.3448 -0.8046
 1051SOL    HW214787   2.057   2.114  10.033  3.5482 -1.7132  0.7839
 1052SOL     OW14788   0.285   0.769   1.472 -0.1317 -0.4666  0.0410
 1052SOL    HW114789   0.246   0.682   1.483 -0.6993 -0.1423  0.5669
 1052SOL    HW214790   0.271   0.806   1.559  2.1594  0.4405  0.0392
 1053SOL     OW14791   2.114   3.042   1.694  0.4446  0.3904  0.1898
 1053SOL    HW114792   2.071   3.102   1.756 -2.4096 -0.2843 -1.1340
 1053SOL    HW214793   2.039   2.986   1.675 -0.3997  1.7633 -0.4745
 1054SOL     OW14794   3.505   1.265   3.266 -0.5979 -0.2674 -0.2093
 1054SOL    HW114795   3.416   1.299   3.276 -0.2576  0.7462 -0.6811
 1054SOL    HW214796   3.551   1.318   3.331  0.0476 -0.2609 -0.6751
 1055SOL     OW14797   4.643   3.077   6.727  0.6036 -0.6273  0.2256
 1055SOL    HW114798   4.662   2.983   6.728 -1.4853 -1.0604 -2.0981
 1055SOL    HW214799   4.594   3.080   6.645 -0.4519  0.9656  0.9222
 1056SOL     OW14800   2.572   3.444  13.876  0.5091 -0.6192 -0.0447
 1056SOL    HW114801   2.560   3.486  13.791 -0.8011 -0.3862  0.2486
 1056SOL    HW214802   2.500   3.490  13.918  0.6517  0.2680 -0.7702
 1057SOL     OW14803   3.973   4.209   6.973 -0.0319  0.3663  1.0030
 1057SOL    HW114804   3.928   4.293   6.957  0.9172  0.6973  0.0109
 1057SOL    HW214805   3.939   4.191   7.060  0.6505  0.9716  1.3968
 1058SOL     OW14806   2.154   1.734  16.553 -0.2359 -0.4677  0.1726
 1058SOL    HW114807   2.069   1.765  16.522 -0.3411  0.1950  1.1145
 1058SOL    HW214808   2.125   1.727  16.644  0.3287  1.0694  0.4594
 1059SOL     OW14809   4.115   1.656   2.706  0.2135 -0.0729  0.0439
 1059SOL    HW114810   4.181   1.642   2.638 -0.4066 -0.9725 -0.3711
 1059SOL    HW214811   4.040   1.680   2.651 -1.2722  1.3536  2.6580
 1060SOL     OW14812   2.670   3.099  15.050  0.3678 -0.3211 -0.1121
 1060SOL    HW114813   2.648   3.076  14.960 -1.4876  0.3377  0.1621
 1060SOL    HW214814   2.662   3.011  15.087 -3.1172 -0.3174 -0.8278
 1061SOL     OW14815   1.136   2.036   9.018  0.4866 -0.2046  0.2649
 1061SOL    HW114816   1.225   2.003   9.029  0.9664  1.0698  0.2700
 1061SOL    HW214817   1.152   2.127   8.993  0.5949  0.8486  4.0467
 1062SOL     OW14818   0.744   1.529  15.272 -0.3121 -0.5077  0.1276
 1062SOL    HW114819   0.782   1.441  15.284  0.0084 -0.2586  0.9686
 1062SOL    HW214820   0.671   1.521  15.333  0.1379  0.0193  0.7372
 1063SOL     OW14821   0.247   0.484  10.373  0.1360 -0.0271  0.5020
 1063SOL    HW114822   0.181   0.469  10.305 -0.8512  2.4555  0.9214
 1063SOL    HW214823   0.202   0.550  10.426 -0.5751  0.9096 -1.2513
 1064SOL     OW14824   1.777   1.882  11.132  0.5777 -0.1133 -0.2202
 1064SOL    HW114825   1.714   1.867  11.061  1.1178  0.1736 -0.7686
 1064SOL    HW214826   1.735   1.937  11.198  0.8499  0.0362 -0.1719
 1065SOL     OW14827   0.424   3.682   9.041  0.0646 -0.6866 -0.3659
 1065SOL    HW114828   0.341   3.717   9.074  0.7811  0.1721  0.5102
 1065SOL    HW214829   0.492   3.719   9.097 -0.9893 -0.1946  0.5896
 1066SOL     OW14830   1.261   2.524   4.626  0.3835 -0.1989  0.1585
 1066SOL    HW114831   1.265   2.451   4.688  0.1106 -1.0349 -0.8072
 1066SOL    HW214832   1.219   2.589   4.682  3.7194  1.0589  1.1697
 1067SOL     OW14833   1.928   1.200   2.056  0.1858  0.0402  0.3194
 1067SOL    HW114834   2.023   1.186   2.061  0.2158  0.2834  0.4284
 1067SOL    HW214835   1.895   1.117   2.091 -0.5380  0.4683  0.6586
 1068SOL     OW14836   3.969   0.751   9.221 -0.1639 -0.1438  0.0333
 1068SOL    HW114837   3.887   0.743   9.173 -1.8871  1.9549  2.6540
 1068SOL    HW214838   4.012   0.822   9.172  0.7553 -0.3198  0.5783
 1069SOL     OW14839   3.654   0.968   3.001  0.0893 -0.4210  0.3621
 1069SOL    HW114840   3.670   1.062   2.992 -2.9138 -0.1057 -1.7942
 1069SOL    HW214841   3.598   0.959   3.078 -1.8412 -1.4835 -1.1604
 1070SOL     OW14842   3.999   3.417  17.392 -0.8203 -0.6370 -0.2851
 1070SOL    HW114843   3.929   3.459  17.441  1.9033  0.0036  3.0821
 1070SOL    HW214844   4.053   3.362  17.449 -1.0762  0.0550  0.6400
 1071SOL     OW14845   3.747   1.769   0.174  0.3889  0.0905  0.0160
 1071SOL    HW114846   3.816   1.824   0.135  0.7002  0.9367  1.7415
 1071SOL    HW214847   3.732   1.821   0.253  1.2417 -0.1244  0.3263
 1072SOL     OW14848   0.709   4.573   9.310  0.5735 -0.4273  0.1805
 1072SOL    HW114849   0.750   4.487   9.317 -1.7071 -1.6438 -1.1034
 1072SOL    HW214850   0.779   4.618   9.356  1.0349 -1.7583  0.8001
 1073SOL     OW14851   1.048   2.328   8.037 -0.2716 -0.3903 -0.2844
 1073SOL    HW114852   0.992   2.265   7.991 -1.3481 -0.4219  1.0460
 1073SOL    HW214853   1.022   2.405   7.986 -3.0601 -1.2097 -0.1058
 1074SOL     OW14854   3.469   2.445   2.428 -0.2402 -0.0760  0.4135
 1074SOL    HW114855   3.518   2.513   2.474 -1.2888  0.5546  0.5844
 1074SOL    HW214856   3.401   2.428   2.493 -0.1199 -1.5614  0.1479
 1075SOL     OW14857   3.994   1.797  13.244 -0.2875  0.0099 -0.1204
 1075SOL    HW114858   3.908   1.772  13.278  0.7352 -1.8329  1.0877
 1075SOL    HW214859   4.053   1.766  13.312  0.2986 -2.2103 -1.6436
 1076SOL     OW14860   2.744   4.409   7.124  0.4315  0.7218 -0.1274
 1076SOL    HW114861   2.717   4.404   7.032  0.4947 -0.8990 -0.0735
 1076SOL    HW214862   2.755   4.314   7.137 -3.3045  0.1973 -0.9895
 1077SOL     OW14863   1.915   0.418   5.902 -0.0456  0.0275 -0.2005
 1077SOL    HW114864   1.872   0.371   5.974  0.0262 -0.0333 -0.1981
 1077SOL    HW214865   1.952   0.494   5.947 -1.0060 -0.7699  1.9456
 1078SOL     OW14866   3.894   4.007   6.794  0.3357 -0.4389  0.0725
 1078SOL    HW114867   3.900   4.094   6.834  0.0192  0.7378 -2.4336
 1078SOL    HW214868   3.841   4.010   6.714  1.6730 -1.3098 -0.8608
 1079SOL     OW14869   2.906   3.678  12.130 -0.2931 -0.0608 -0.1771
 1079SOL    HW114870   2.828   3.732  12.140  0.3927  0.8653  0.2088
 1079SOL    HW214871   2.970   3.745  12.104 -0.3973  0.8863  1.9406
 1080SOL     OW14872   0.153   1.895  11.741 -0.4381  1.0419  0.3804
 1080SOL    HW114873   0.124   1.852  11.660  1.7782  0.6807 -0.2100
 1080SOL    HW214874   0.246   1.911  11.726 -0.8763  3.2304  0.0370
 1081SOL     OW14875   0.209   0.881   0.967 -0.2403 -0.4047 -0.2556
 1081SOL    HW114876   0.115   0.873   0.984 -0.1210 -1.7776 -0.2908
 1081SOL    HW214877   0.241   0.835   1.044 -0.2688 -0.3292 -0.1994
 1082SOL     OW14878   1.304   2.535   9.357  0.1276  0.0017  0.0339
 1082SOL    HW114879   1.381   2.484   9.332  0.2012  1.2481 -2.3161
 1082SOL    HW214880   1.238   2.502   9.295  1.0321 -4.0161  1.1903
 1083SOL     OW14881   2.910   2.432   4.992 -0.3379  0.1669 -0.0064
 1083SOL    HW114882   2.974   2.365   4.967  0.6274  0.5357  1.4398
 1083SOL    HW214883   2.834   2.383   4.964  1.1604 -0.5958 -2.6854
 1084SOL     OW14884   2.263   1.374  13.118  0.2854  0.1877  0.4303
 1084SOL    HW114885   2.255   1.322  13.198 -0.8521  0.7544  0.6927
 1084SOL    HW214886   2.323   1.316  13.071 -0.2948 -0.5501  0.6065
 1085SOL     OW14887   3.343   4.446   1.548 -0.4514 -0.0538 -0.4604
 1085SOL    HW114888   3.321   4.364   1.593 -0.9766 -0.5290 -1.5926
 1085SOL    HW214889   3.328   4.509   1.618  2.0964  0.8588 -0.7249
 1086SOL     OW14890   3.324   2.690   6.389  0.5698  0.7546 -0.1695
 1086SOL    HW114891   3.415   2.710   6.367  0.5163 -0.9374 -1.9299
 1086SOL    HW214892   3.291   2.688   6.299 -2.3293  0.5504  0.8900
 1087SOL     OW14893   2.275   2.841   8.764  0.1072  0.3696 -0.4050
 1087SOL    HW114894   2.191   2.842   8.718 -1.2540  1.9191  2.1207
 1087SOL    HW214895   2.282   2.746   8.757  0.2662  0.3121  0.5460
 1088SOL     OW14896   3.392   2.233   9.382 -0.0756  0.4042  0.1034
 1088SOL    HW114897   3.400   2.208   9.474  0.3688  1.0704  0.2471
 1088SOL    HW214898   3.361   2.153   9.338 -0.4124  0.8167 -0.4140
 1089SOL     OW14899   2.824   1.997   2.431  0.5482  0.1492 -0.2526
 1089SOL    HW114900   2.844   2.090   2.424  0.6701  0.1451  0.0271
 1089SOL    HW214901   2.913   1.966   2.412  0.8973  1.2211 -0.3269
 1090SOL     OW14902   0.773   1.121  13.155  0.1663 -0.6728  0.2233
 1090SOL    HW114903   0.802   1.033  13.177 -0.0095 -0.5096  1.1314
 1090SOL    HW214904   0.771   1.117  13.059 -0.8564 -2.0378  0.3087
 1091SOL     OW14905   0.277   4.569  12.355  0.1699 -0.2309  0.5996
 1091SOL    HW114906   0.354   4.512  12.358  0.0612 -0.4067  0.0960
 1091SOL    HW214907   0.247   4.573  12.446 -1.7411  2.2598 -0.1247
 1092SOL     OW14908   3.749   0.970   2.429 -0.2323 -0.8448  0.0750
 1092SOL    HW114909   3.740   0.894   2.487  4.6434 -1.3647  0.1790
 1092SOL    HW214910   3.824   0.960   2.371  0.6747  0.0728  1.0900
 1093SOL     OW14911   2.255   3.134   4.072 -0.1110 -0.1374  0.0270
 1093SOL    HW114912   2.164   3.164   4.063  0.4341  1.5555  0.1932
 1093SOL    HW214913   2.271   3.061   4.013 -1.2626  1.2413 -2.0220
 1094SOL     OW14914   3.901   4.188   9.533  0.4190 -0.5647 -0.0258
 1094SOL    HW114915   3.994   4.205   9.519  0.1565  0.7721 -0.1188
 1094SOL    HW214916   3.895   4.187   9.629  0.5764  1.3130  0.0053
 1095SOL     OW14917   1.955   3.685   9.659 -0.2073 -0.4938 -0.3456
 1095SOL    HW114918   2.005   3.616   9.702  0.1200  1.1500  1.9223
 1095SOL    HW214919   1.950   3.753   9.727  3.4309 -0.9929  0.4139
 1096SOL     OW14920   1.479   2.316   0.291  0.3763 -0.2052  0.0522
 1096SOL    HW114921   1.392   2.290   0.260  1.4228 -1.6330 -1.6977
 1096SOL    HW214922   1.523   2.342   0.210  0.4037 -0.3433  0.0222
 1097SOL     OW14923   0.438   4.713   2.603 -0.8242  0.4725  0.2081
 1097SOL    HW114924   0.383   4.711   2.681 -1.1349  0.3089 -0.0178
 1097SOL    HW214925   0.487   4.636   2.632 -1.0789  0.4549  0.5821
 1098SOL     OW14926   0.489   4.051   7.367 -0.1302 -0.3679 -0.1531
 1098SOL    HW114927   0.537   3.994   7.426 -0.4246 -0.8671 -0.3878
 1098SOL    HW214928   0.415   3.996   7.342 -0.3034  0.2919 -1.1021
 1099SOL     OW14929   0.767   0.525   3.755 -0.5490  0.2380 -0.0232
 1099SOL    HW114930   0.700   0.494   3.816 -2.8186  1.7007 -1.7636
 1099SOL    HW214931   0.801   0.606   3.793 -1.2888  0.6793 -0.2996
 1100SOL     OW14932   2.336   0.664   5.013 -0.0322  0.3618 -0.3447
 1100SOL    HW114933   2.431   0.663   5.030  0.6755 -3.2963 -4.2731
 1100SOL    HW214934   2.335   0.607   4.936  1.0302  0.8125 -0.7020
 1101SOL     OW14935   1.888   4.463  14.975  0.1744 -0.0456 -0.1841
 1101SOL    HW114936   1.937   4.510  15.043 -2.2794  0.5419  1.2129
 1101SOL    HW214937   1.957   4.442  14.913 -1.5732  1.1628 -2.5685
 1102SOL     OW14938   1.019   2.280   7.070  0.0159 -0.3586 -0.0787
 1102SOL    HW114939   1.051   2.230   7.145  0.4811  1.9136  1.2139
 1102SOL    HW214940   1.095   2.313   7.023  0.7543 -1.4828  0.3175
 1103SOL     OW14941   4.088   1.693   8.491  0.7643 -0.3906  0.8237
 1103SOL    HW114942   4.037   1.656   8.419  1.4905  0.4306 -0.1165
 1103SOL    HW214943   4.117   1.611   8.531  1.8754  0.1457  1.1136
 1104SOL     OW14944   0.875   2.651   9.528  0.2014  0.3781  0.0923
 1104SOL    HW114945   0.964   2.651   9.562 -0.8466 -2.2998  2.8679
 1104SOL    HW214946   0.873   2.560   9.499 -0.1890  0.3003  0.3540
 1105SOL     OW14947   3.208   4.050   8.108 -0.0583 -0.2992  0.4037
 1105SOL    HW114948   3.209   4.051   8.012  0.9434 -0.2834  0.4180
 1105SOL    HW214949   3.170   3.965   8.129  0.2590 -0.3253  0.8589
 1106SOL     OW14950   4.209   4.300   7.818 -0.2077  0.2573  0.0132
 1106SOL    HW114951   4.146   4.258   7.760 -0.9530  0.5266  0.6189
 1106SOL    HW214952   4.288   4.253   7.791 -1.0374 -1.1003 -0.0219
 1107SOL     OW14953   1.835   0.048   1.769 -0.3436  0.2955  0.5440
 1107SOL    HW114954   1.785   0.082   1.695  0.7859 -1.5797 -1.0489
 1107SOL    HW214955   1.849   4.697   1.749 -3.0465 -0.7845  3.4934
 1108SOL     OW14956   1.746   4.503  10.450 -0.7037 -0.5414  0.1798
 1108SOL    HW114957   1.735   4.429  10.390 -0.3427 -0.5186  0.0859
 1108SOL    HW214958   1.752   4.574  10.386 -0.8747  2.2830  3.3372
 1109SOL     OW14959   0.233   3.358   9.232  0.2390  0.5342  0.8008
 1109SOL    HW114960   0.159   3.418   9.222 -0.2430 -0.2312 -0.2482
 1109SOL    HW214961   0.203   3.292   9.169 -2.4162 -0.3128  2.9513
 1110SOL     OW14962   1.900   3.087   5.651  0.1206 -0.0003  0.9672
 1110SOL    HW114963   1.822   3.116   5.699 -0.4743  1.0599 -0.6503
 1110SOL    HW214964   1.874   2.997   5.636 -0.2069  0.2280  0.1833
 1111SOL     OW14965   2.642   2.195   3.562  0.2696  0.1142  0.4799
 1111SOL    HW114966   2.632   2.112   3.610 -1.4541 -1.3245 -2.3926
 1111SOL    HW214967   2.564   2.188   3.508 -0.3822  1.2206  1.2817
 1112SOL     OW14968   4.677   2.562   3.304  0.1398 -0.0244  0.2691
 1112SOL    HW114969   4.654   2.538   3.214  1.4006  2.4124 -0.6938
 1112SOL    HW214970   4.683   2.657   3.293  2.8896 -0.7781 -4.6358
 1113SOL     OW14971   2.743   3.893  15.168  0.2584  0.3720  0.2427
 1113SOL    HW114972   2.721   3.985  15.150 -1.4716 -0.1993 -0.6509
 1113SOL    HW214973   2.838   3.905  15.169  0.6594 -2.7344 -1.1827
 1114SOL     OW14974   3.176   1.463   6.399  0.5601 -0.2357 -0.0993
 1114SOL    HW114975   3.222   1.487   6.480 -2.2625  1.8610  0.8685
 1114SOL    HW214976   3.092   1.498   6.429  1.1306  0.0866  1.1330
 1115SOL     OW14977   1.049   0.237   9.805 -0.3439 -0.5307 -0.2795
 1115SOL    HW114978   1.090   0.180   9.740 -2.2054 -1.5287 -0.5532
 1115SOL    HW214979   1.020   0.171   9.868  2.9849 -0.2949  1.5287
 1116SOL     OW14980   0.927   4.156   1.207  0.1418 -0.7189 -0.2065
 1116SOL    HW114981   0.978   4.230   1.173  0.3790 -0.9325 -0.3148
 1116SOL    HW214982   0.870   4.209   1.262  3.5437  2.2379  0.5483
 1117SOL     OW14983   4.555   1.340   0.473  0.4117  0.0854  0.0449
 1117SOL    HW114984   4.646   1.352   0.446  0.3927  0.4817  0.1555
 1117SOL    HW214985   4.559   1.397   0.550  0.1824 -0.6063  0.5651
 1118SOL     OW14986   2.939   3.940  16.943  0.1196 -0.1046 -0.3210
 1118SOL    HW114987   2.966   4.022  16.903  1.2587 -1.6103 -2.6997
 1118SOL    HW214988   2.934   3.886  16.863  0.7704  0.7884 -0.9603
 1119SOL     OW14989   0.618   0.511   0.132 -0.0285  0.0345 -0.2801
 1119SOL    HW114990   0.602   0.565   0.209 -0.9574 -1.7930  0.8255
 1119SOL    HW214991   0.538   0.458   0.130 -0.3045  0.4739 -0.9012
 1120SOL     OW14992   0.222   3.013   6.604  0.0134  0.0480 -0.2957
 1120SOL    HW114993   0.317   3.011   6.613  0.0180 -1.3308 -0.5743
 1120SOL    HW214994   0.208   2.973   6.690  0.9917  1.8314  0.7057
 1121SOL     OW14995   2.994   4.578   7.306 -0.0966  0.3748  0.3948
 1121SOL    HW114996   3.019   4.653   7.253 -0.0663  0.5894  0.7115
 1121SOL    HW214997   2.966   4.611   7.391 -1.3988  0.2978  0.0076
 1122SOL     OW14998   1.482   3.240   1.256  0.0904 -0.3198  0.5574
 1122SOL    HW114999   1.464   3.279   1.342 -1.5757  2.5642 -1.0944
 1122SOL    HW215000   1.458   3.311   1.196 -0.0663 -2.0316 -1.3859
 1123SOL     OW15001   0.866   2.034   7.314  0.9242  0.1698 -0.2546
 1123SOL    HW115002   0.846   2.043   7.407  1.7597  0.2285 -0.0810
 1123SOL    HW215003   0.952   2.071   7.298  0.7501 -0.2758 -2.2725
 1124SOL     OW15004   2.278   0.893  13.854 -0.0997 -0.1795 -0.1585
 1124SOL    HW115005   2.254   0.960  13.917 -1.9032 -1.4186  0.4600
 1124SOL    HW215006   2.335   0.945  13.797  2.0244 -2.8888 -0.5668
 1125SOL     OW15007   1.279   0.789   5.412  0.0715 -0.0279 -0.5501
 1125SOL    HW115008   1.252   0.876   5.441 -1.9277 -0.2358 -1.7925
 1125SOL    HW215009   1.221   0.733   5.462 -0.4399  0.6541 -0.3844
 1126SOL     OW15010   0.920   1.414   8.544  0.0554 -0.4330 -0.4499
 1126SOL    HW115011   0.985   1.468   8.590 -0.9165  2.2987 -2.2992
 1126SOL    HW215012   0.879   1.362   8.612 -0.5889  1.0422  0.2982
 1127SOL     OW15013   3.556   3.398   4.709  0.2069 -0.7400 -0.1864
 1127SOL    HW115014   3.501   3.457   4.659 -0.8228 -0.8990  0.7656
 1127SOL    HW215015   3.558   3.446   4.791 -2.6978 -0.0193 -0.5509
 1128SOL     OW15016   0.376   1.203   6.536  0.4172  0.3827  0.4089
 1128SOL    HW115017   0.307   1.138   6.528 -0.5989  1.5933 -0.5083
 1128SOL    HW215018   0.444   1.138   6.518  0.0617  0.0969  0.1016
 1129SOL     OW15019   1.840   1.095  17.359 -0.2399 -0.3000 -0.0082
 1129SOL    HW115020   1.915   1.041  17.337  1.8646  2.4565  0.3656
 1129SOL    HW215021   1.784   1.037  17.410  0.3156 -0.3440  0.5573
 1130SOL     OW15022   1.460   3.045   6.125 -0.0110  0.0575  0.2172
 1130SOL    HW115023   1.375   3.067   6.164  0.8300  3.4868  0.1157
 1130SOL    HW215024   1.443   3.057   6.032  1.2944 -0.2464 -0.0694
 1131SOL     OW15025   2.317   0.786  13.459  0.0409 -0.6619  0.3775
 1131SOL    HW115026   2.386   0.834  13.505 -1.0553  0.6632  0.6471
 1131SOL    HW215027   2.351   0.780  13.369  1.0800 -1.0550  0.7903
 1132SOL     OW15028   3.247   0.004   4.776 -0.0146  0.1829 -0.0847
 1132SOL    HW115029   3.264   0.046   4.860 -1.8000  0.6425  0.0478
 1132SOL    HW215030   3.338   4.719   4.764  0.2351  0.1001  1.9502
 1133SOL     OW15031   1.360   2.937   3.791 -0.1239 -0.2453 -0.3462
 1133SOL    HW115032   1.387   2.855   3.833 -1.7831  0.2398  1.6461
 1133SOL    HW215033   1.328   2.900   3.708 -1.1269  1.4953 -0.7169
 1134SOL     OW15034   2.113   2.131   9.407 -0.0515 -0.0283 -0.1792
 1134SOL    HW115035   2.068   2.081   9.339 -0.1755  0.3781 -0.3949
 1134SOL    HW215036   2.118   2.078   9.486  1.7910 -0.7269 -0.7429
 1135SOL     OW15037   1.871   2.892  16.087 -0.2395 -0.3350 -0.2664
 1135SOL    HW115038   1.966   2.889  16.089 -0.1862 -0.1227 -1.9863
 1135SOL    HW215039   1.843   2.953  16.018  2.0828  0.4029 -0.5548
 1136SOL     OW15040   4.155   3.419  11.079  0.2721  0.1163 -0.1631
 1136SOL    HW115041   4.204   3.371  11.146 -3.0265 -3.0259 -0.0100
 1136SOL    HW215042   4.179   3.373  10.999  1.9941 -1.9195  1.5133
 1137SOL     OW15043   4.260   0.257  13.018  0.1436 -0.0660  0.3868
 1137SOL    HW115044   4.342   0.238  12.971  0.0180  1.0074 -0.2695
 1137SOL    HW215045   4.284   0.251  13.110 -1.6172  0.7455  0.8859
 1138SOL     OW15046   2.302   1.414   9.524  0.3644  0.0172  0.2406
 1138SOL    HW115047   2.314   1.406   9.429 -0.4987  0.7007  0.0698
 1138SOL    HW215048   2.246   1.337   9.529 -0.0606  0.4133  1.5184
 1139SOL     OW15049   3.113   3.897   3.734 -0.1346  0.0040 -0.1427
 1139SOL    HW115050   3.050   3.951   3.687  1.0577 -0.7836 -2.6646
 1139SOL    HW215051   3.180   3.899   3.665  0.3316 -3.8735  0.1955
 1140SOL     OW15052   0.563   3.753   8.472  0.1317  0.6255 -0.2632
 1140SOL    HW115053   0.623   3.828   8.467  0.5447  0.3924  1.1646
 1140SOL    HW215054   0.520   3.758   8.557 -0.9691  0.1075 -0.7975
 1141SOL     OW15055   4.014   4.033   5.269 -0.0953  0.1206 -0.0799
 1141SOL    HW115056   4.011   4.043   5.173 -1.0755  0.9439  0.0518
 1141SOL    HW215057   4.005   4.123   5.298 -1.3355 -0.3015  0.8215
 1142SOL     OW15058   4.542   0.982   3.375  0.2301  0.1224 -0.4510
 1142SOL    HW115059   4.557   0.955   3.465 -1.0663  2.1783  0.3771
 1142SOL    HW215060   4.572   0.904   3.328  1.7388  0.8243 -0.6346
 1143SOL     OW15061   1.224   0.324   2.322 -0.3507  0.1381  0.3112
 1143SOL    HW115062   1.264   0.328   2.409 -0.7671 -0.1342  0.5162
 1143SOL    HW215063   1.294   0.358   2.266 -1.9820  0.4060 -1.5791
 1144SOL     OW15064   2.132   2.146   2.812 -0.1701 -0.2879  0.0300
 1144SOL    HW115065   2.227   2.149   2.825 -0.1023 -1.2834 -0.2666
 1144SOL    HW215066   2.105   2.074   2.868 -1.2377  1.4342  1.7133
 1145SOL     OW15067   3.522   0.690   8.270  0.4701 -0.5428 -0.2762
 1145SOL    HW115068   3.527   0.784   8.289 -3.0639  0.0841 -2.2686
 1145SOL    HW215069   3.430   0.665   8.260 -0.4682  2.7599  0.0482
 1146SOL     OW15070   2.484   0.441   3.501  0.3240  0.1362 -0.4729
 1146SOL    HW115071   2.500   0.389   3.579 -0.7844 -0.7146 -0.8226
 1146SOL    HW215072   2.551   0.510   3.507 -2.0078  2.2510  1.6485
 1147SOL     OW15073   0.028   1.327   4.121 -0.2659  0.2817 -0.4408
 1147SOL    HW115074   4.680   1.354   4.141 -0.6248 -0.3355 -1.2158
 1147SOL    HW215075   0.071   1.410   4.101 -0.1009  0.5930  1.2055
 1148SOL     OW15076   1.346   1.478   8.924 -0.0407  0.0070  0.3684
 1148SOL    HW115077   1.408   1.406   8.935 -0.3561 -0.6136 -2.0876
 1148SOL    HW215078   1.369   1.515   8.839  0.5149 -1.6431 -0.1906
 1149SOL     OW15079   2.192   4.491   7.676  0.2009 -0.0974 -0.3323
 1149SOL    HW115080   2.268   4.546   7.656 -1.8133  2.7656 -0.0228
 1149SOL    HW215081   2.232   4.447   7.750  3.1532 -0.6513 -2.2521
 1150SOL     OW15082   4.618   4.102   4.001 -0.6640 -0.0548  0.2188
 1150SOL    HW115083   4.571   4.169   3.952  0.1284  0.6768  0.4634
 1150SOL    HW215084   4.544   4.066   4.051  0.4717 -2.9058 -0.1488
 1151SOL     OW15085   2.205   0.033   5.676  0.3012  0.1209  0.2294
 1151SOL    HW115086   2.202   0.115   5.725 -0.2077  0.5204 -0.4708
 1151SOL    HW215087   2.115   0.040   5.643  1.4593 -0.9892 -3.1684
 1152SOL     OW15088   0.614   1.916   7.584 -0.7659 -0.1678 -0.5314
 1152SOL    HW115089   0.630   2.009   7.570 -0.7409 -0.0714  0.1882
 1152SOL    HW215090   0.537   1.912   7.640 -0.3478  1.8907  0.1929
 1153SOL     OW15091   2.989   0.307   2.428 -0.1563 -0.4607  0.2894
 1153SOL    HW115092   3.037   0.269   2.355  0.6280 -0.9686  1.0663
 1153SOL    HW215093   2.898   0.307   2.397  0.0532 -2.5025 -0.3145
 1154SOL     OW15094   1.832   4.472   2.989 -0.3017  0.0014  0.3697
 1154SOL    HW115095   1.774   4.547   3.001  0.6945  0.9649 -0.8655
 1154SOL    HW215096   1.892   4.518   2.931  0.3744 -0.1392  0.9560
 1155SOL     OW15097   1.265   1.056   6.758 -0.2125 -0.1931  0.2156
 1155SOL    HW115098   1.292   1.078   6.669  0.3700 -1.1602  0.1519
 1155SOL    HW215099   1.334   1.098   6.810  0.2878 -0.4417 -0.2414
 1156SOL     OW15100   2.320   0.712   1.356  0.4769 -0.0511 -0.1218
 1156SOL    HW115101   2.403   0.718   1.403  1.5337 -0.7017 -1.9141
 1156SOL    HW215102   2.268   0.663   1.420  0.9647 -0.1594  0.1930
 1157SOL     OW15103   2.389   3.797  15.652  0.0428  0.0084  0.4314
 1157SOL    HW115104   2.304   3.827  15.685  0.8759  3.9072 -1.0468
 1157SOL    HW215105   2.404   3.860  15.582 -1.1656 -1.3951 -1.1182
 1158SOL     OW15106   3.560   2.311   5.060  0.5372  0.0630 -0.5612
 1158SOL    HW115107   3.483   2.368   5.069  1.3713  0.8889  1.3827
 1158SOL    HW215108   3.628   2.361   5.105  0.5049  1.4159 -2.0356
 1159SOL     OW15109   0.262   1.138   4.847 -0.8289 -0.0790 -0.4188
 1159SOL    HW115110   0.180   1.141   4.797 -2.2706 -0.8343  1.8792
 1159SOL    HW215111   0.247   1.055   4.893 -0.7912  0.3302  0.3346
 1160SOL     OW15112   2.385   1.452  10.478  0.2021  0.1018  0.3709
 1160SOL    HW115113   2.380   1.537  10.434 -0.9195 -0.1766 -0.0340
 1160SOL    HW215114   2.310   1.410  10.435 -0.4298  0.3063  1.2808
 1161SOL     OW15115   1.903   1.746   7.328  0.1695 -0.4542  0.7476
 1161SOL    HW115116   1.869   1.693   7.256 -2.3532  2.3805 -0.1427
 1161SOL    HW215117   1.867   1.835   7.325  0.6147 -0.4278 -3.5452
 1162SOL     OW15118   1.547   1.814   1.875  0.1496 -0.3604 -0.1579
 1162SOL    HW115119   1.531   1.903   1.907  0.5735  0.0217 -0.9874
 1162SOL    HW215120   1.629   1.799   1.921 -2.2016  0.9323  4.4295
 1163SOL     OW15121   1.398   4.438   2.025  0.5699 -0.0930 -0.6544
 1163SOL    HW115122   1.415   4.528   1.996 -0.8113  0.4793  0.3211
 1163SOL    HW215123   1.338   4.412   1.955 -0.5328  1.3246 -0.2365
 1164SOL     OW15124   4.281   0.153   6.666 -0.1277  0.6975  0.0129
 1164SOL    HW115125   4.199   0.108   6.688  1.6519 -1.8263  1.4083
 1164SOL    HW215126   4.323   0.147   6.752 -1.1816  0.3895  0.5042
 1165SOL     OW15127   3.822   0.564   4.124  0.3602 -0.0335 -0.2278
 1165SOL    HW115128   3.854   0.653   4.136  0.3352 -0.0329 -0.1658
 1165SOL    HW215129   3.752   0.567   4.190  1.1775 -0.0340  0.6510
 1166SOL     OW15130   1.638   0.275   6.718  0.1449 -0.1800  0.0501
 1166SOL    HW115131   1.711   0.224   6.754 -1.2205 -1.5990  0.8163
 1166SOL    HW215132   1.565   0.224   6.755  0.1958  1.2255  2.0675
 1167SOL     OW15133   0.423   1.616   7.352  0.0652  0.1375 -0.0395
 1167SOL    HW115134   0.369   1.694   7.340 -1.5590 -1.1856 -1.4876
 1167SOL    HW215135   0.423   1.596   7.258 -2.0651  0.2510 -0.0548
 1168SOL     OW15136   4.002   4.602  11.826 -0.1899  0.3836 -0.2946
 1168SOL    HW115137   4.059   4.586  11.751 -0.9537 -1.1788 -0.5338
 1168SOL    HW215138   3.953   4.670  11.781 -4.1077 -2.2928 -0.0724
 1169SOL     OW15139   3.165   3.860   5.603 -0.0631  0.2583  0.6514
 1169SOL    HW115140   3.120   3.892   5.524 -1.7969 -0.1976  1.4457
 1169SOL    HW215141   3.244   3.819   5.569 -1.4981 -0.7987 -1.4668
 1170SOL     OW15142   2.636   3.570  17.486 -0.4115 -0.7020  0.0152
 1170SOL    HW115143   2.659   3.480  17.510  2.2466  0.4217  1.6331
 1170SOL    HW215144   2.723   3.610  17.486 -1.0543  0.6919  1.9564
 1171SOL     OW15145   1.978   3.553   8.630  0.1566 -0.4804  0.0320
 1171SOL    HW115146   2.043   3.487   8.654  0.3079 -1.0458 -1.9225
 1171SOL    HW215147   1.904   3.492   8.636  0.7719 -1.2042  0.3368
 1172SOL     OW15148   1.278   2.450   0.903 -0.0959  0.4080  0.2802
 1172SOL    HW115149   1.203   2.462   0.961 -1.5341  0.3689 -1.5655
 1172SOL    HW215150   1.301   2.537   0.871 -0.1367  0.2472 -0.1800
 1173SOL     OW15151   1.304   2.230  11.409 -0.2009  0.0575 -0.5286
 1173SOL    HW115152   1.273   2.317  11.433  2.4790  1.0459 -0.6290
 1173SOL    HW215153   1.397   2.241  11.389 -1.2405  4.1165 -3.1619
 1174SOL     OW15154   1.307   2.910  14.077  0.3361  0.0928 -0.6365
 1174SOL    HW115155   1.300   2.909  13.982 -0.7743 -0.9542 -0.5477
 1174SOL    HW215156   1.216   2.930  14.100  0.3501 -0.1053 -0.4092
 1175SOL     OW15157   3.097   4.407  16.979 -0.2708  0.0796 -0.0383
 1175SOL    HW115158   3.182   4.445  17.002  0.3793 -0.3893 -1.6374
 1175SOL    HW215159   3.089   4.357  17.060 -0.1156  0.4625  0.2109
 1176SOL     OW15160   0.826   4.262   4.143  0.1468 -1.2617 -0.3372
 1176SOL    HW115161   0.916   4.296   4.142 -0.2779 -0.1073 -0.0040
 1176SOL    HW215162   0.830   4.196   4.213 -0.1565 -2.0611 -1.0783
 1177SOL     OW15163   1.895   1.410   8.994 -0.1038  0.0975  0.6224
 1177SOL    HW115164   1.871   1.318   8.983  0.4517  0.0835 -0.4676
 1177SOL    HW215165   1.822   1.438   9.050 -1.1490  0.7920 -1.0598
 1178SOL     OW15166   2.584   0.555   2.108  0.3221  0.3358 -0.1754
 1178SOL    HW115167   2.647   0.618   2.143 -1.8602  1.4041  1.8247
 1178SOL    HW215168   2.629   0.471   2.116 -2.0140 -0.8745  0.2406
 1179SOL     OW15169   0.246   0.440   3.175 -0.3174 -0.4705  0.3578
 1179SOL    HW115170   0.288   0.500   3.114 -0.0458 -0.0578  0.9462
 1179SOL    HW215171   0.299   0.362   3.159 -0.1343 -0.3179  0.2300
 1180SOL     OW15172   0.956   2.984   9.607  0.0201 -0.5945  0.0901
 1180SOL    HW115173   0.938   3.048   9.538 -0.5766 -0.9480 -0.0894
 1180SOL    HW215174   1.000   2.915   9.558 -0.1410  0.1803 -1.1486
 1181SOL     OW15175   0.673   2.658  15.715  0.4819  0.0460 -0.3069
 1181SOL    HW115176   0.684   2.597  15.642 -0.0715  1.5422 -1.6313
 1181SOL    HW215177   0.581   2.682  15.705  0.4979  1.4969  2.8934
 1182SOL     OW15178   3.135   0.153  13.031 -0.0698  0.4291 -0.4590
 1182SOL    HW115179   3.158   0.061  13.020  2.2901  1.1753 -1.6501
 1182SOL    HW215180   3.147   0.192  12.945 -0.0982 -1.6746 -1.4173
 1183SOL     OW15181   2.568   0.855   7.819  0.2027 -0.4882 -0.1867
 1183SOL    HW115182   2.553   0.857   7.724 -0.3260  1.3369 -0.0629
 1183SOL    HW215183   2.540   0.767   7.842 -1.3297  0.2923  0.9794
 1184SOL     OW15184   4.161   1.790   9.213  0.1364 -0.1699 -0.2988
 1184SOL    HW115185   4.173   1.828   9.125  1.1398  1.3066  0.4731
 1184SOL    HW215186   4.215   1.711   9.213  0.9335  0.3792  1.5788
 1185SOL     OW15187   0.144   2.731   5.415  0.1590  0.6342  0.1359
 1185SOL    HW115188   0.105   2.811   5.448  1.4345  0.9630  0.8602
 1185SOL    HW215189   0.073   2.687   5.369 -0.9060  1.2727  1.1722
 1186SOL     OW15190   3.339   2.421   7.222 -0.2921  0.1456 -0.0278
 1186SOL    HW115191   3.395   2.404   7.146  1.2112 -0.4557  1.2153
 1186SOL    HW215192   3.377   2.499   7.263  1.2713  0.1790 -1.5609
 1187SOL     OW15193   2.235   2.525   6.712 -0.9105  0.5281 -0.4774
 1187SOL    HW115194   2.168   2.461   6.737  0.7789 -0.1218  2.4334
 1187SOL    HW215195   2.301   2.525   6.781 -0.9130 -0.8495 -0.4735
 1188SOL     OW15196   3.023   3.788  17.149  0.0154  0.3746  0.2595
 1188SOL    HW115197   2.971   3.843  17.090  0.9313 -0.2164 -1.0809
 1188SOL    HW215198   3.079   3.858  17.183 -0.4545  0.1088  1.5696
 1189SOL     OW15199   3.860   2.962   5.426  0.5451 -0.0064 -0.0354
 1189SOL    HW115200   3.946   2.974   5.467 -0.0074  1.3569  0.7143
 1189SOL    HW215201   3.869   2.875   5.386 -0.1338 -0.0021 -0.1879
 1190SOL     OW15202   3.764   2.544   4.952  0.1078  0.1139 -0.0523
 1190SOL    HW115203   3.854   2.558   4.920  0.0245  0.7261 -0.0236
 1190SOL    HW215204   3.774   2.550   5.047 -0.8243 -1.2693  0.1209
 1191SOL     OW15205   4.646   3.370   4.653  0.6392  0.3336  0.3671
 1191SOL    HW115206   4.564   3.321   4.657  0.0705  1.1290 -1.6531
 1191SOL    HW215207   4.680   3.342   4.738 -1.0044  0.0091  0.9182
 1192SOL     OW15208   2.075   4.666   4.924  0.1815 -0.0021  0.8627
 1192SOL    HW115209   2.084   4.577   4.957  0.2366  0.6077  2.5430
 1192SOL    HW215210   2.048   4.725   4.995  0.2744 -1.0978  1.8166
 1193SOL     OW15211   0.421   4.288  12.465 -0.0166 -0.6239  0.0329
 1193SOL    HW115212   0.486   4.234  12.510  0.6435  0.3099  0.2118
 1193SOL    HW215213   0.354   4.298  12.532 -0.6093  2.0270 -0.9602
 1194SOL     OW15214   4.310   0.058   7.248 -0.2999  0.3055 -0.8244
 1194SOL    HW115215   4.383   0.021   7.198  0.3909  3.2854 -1.9888
 1194SOL    HW215216   4.274   4.736   7.311  1.5855  1.6456  1.5843
 1195SOL     OW15217   2.999   4.274   3.215 -0.4295 -0.2183 -0.2602
 1195SOL    HW115218   2.977   4.252   3.306 -1.5160 -0.0394 -0.4816
 1195SOL    HW215219   3.081   4.228   3.199 -2.1639 -3.2127 -0.4245
 1196SOL     OW15220   2.702   2.623   9.555  0.5657  0.0791 -0.1756
 1196SOL    HW115221   2.750   2.596   9.633 -0.8691  2.7200  1.6542
 1196SOL    HW215222   2.620   2.580   9.575  1.4870 -1.8569 -0.5454
 1197SOL     OW15223   3.608   1.049   7.038  0.7087  0.5004 -0.4662
 1197SOL    HW115224   3.695   1.020   7.067 -0.4043 -0.8277  1.5472
 1197SOL    HW215225   3.559   1.041   7.120  0.4640 -0.8248 -0.7435
 1198SOL     OW15226   3.522   3.696   3.577 -0.2029  0.3463 -0.4141
 1198SOL    HW115227   3.548   3.695   3.485  2.0531  1.1575  0.2209
 1198SOL    HW215228   3.535   3.602   3.592 -1.5467  0.3798  1.0429
 1199SOL     OW15229   0.059   4.347   4.517 -0.0169 -0.1851  0.3079
 1199SOL    HW115230   0.043   4.441   4.525  1.9762  0.2982 -1.5148
 1199SOL    HW215231   0.141   4.352   4.469 -0.8868 -0.5129 -1.2052
 1200SOL     OW15232   4.278   1.396   0.066  0.3481 -0.3615  0.0409
 1200SOL    HW115233   4.238   1.353  17.751 -0.5078 -0.0087  0.2981
 1200SOL    HW215234   4.254   1.339   0.140 -0.2179  0.3549  0.4044
 1201SOL     OW15235   2.215   3.519   2.085  1.0285  0.4662 -0.6667
 1201SOL    HW115236   2.196   3.602   2.129 -2.6507  1.1315 -3.5212
 1201SOL    HW215237   2.186   3.453   2.149 -2.7505  3.1181  0.3638
 1202SOL     OW15238   1.452   0.715   1.845 -0.3133  0.3611  0.6431
 1202SOL    HW115239   1.432   0.658   1.771  2.1859 -1.8913  1.6828
 1202SOL    HW215240   1.531   0.673   1.879  1.1628  2.6044 -0.0200
 1203SOL     OW15241   4.480   2.163   4.809 -0.3958 -0.3419 -0.6207
 1203SOL    HW115242   4.544   2.103   4.770  1.3547  1.9440 -1.3347
 1203SOL    HW215243   4.412   2.144   4.745 -0.9992  0.9592 -0.3564
 1204SOL     OW15244   0.553   2.558   7.226 -0.3678 -0.7205 -0.6205
 1204SOL    HW115245   0.609   2.510   7.286 -0.8667 -0.1950  0.2679
 1204SOL    HW215246   0.550   2.503   7.147  1.7705 -2.6407  0.6431
 1205SOL     OW15247   0.182   0.130  17.218  0.2379 -0.4416  0.4212
 1205SOL    HW115248   0.215   0.220  17.225  1.1732 -0.9383  2.4481
 1205SOL    HW215249   0.211   0.103  17.131  2.4131  0.3828  0.8870
 1206SOL     OW15250   2.731   1.684   6.968 -0.0841 -0.4371  0.0644
 1206SOL    HW115251   2.747   1.604   7.018 -0.6581 -0.3100  0.4662
 1206SOL    HW215252   2.751   1.659   6.878  0.9516  1.2571 -0.1938
 1207SOL     OW15253   2.070   3.503  12.881 -0.4302  0.0662 -0.1839
 1207SOL    HW115254   2.038   3.473  12.796  1.5127  2.6856 -1.8472
 1207SOL    HW215255   2.051   3.428  12.937  0.4685 -0.2465 -0.3050
 1208SOL     OW15256   1.275   4.038  13.738 -0.4119  0.2190 -0.1913
 1208SOL    HW115257   1.254   4.070  13.826  0.0596  0.6379 -0.2309
 1208SOL    HW215258   1.190   4.003  13.712 -0.6997 -1.1257  2.5472
 1209SOL     OW15259   2.967   1.134   5.767  0.0286  0.4246  0.0581
 1209SOL    HW115260   2.911   1.073   5.719 -1.0514  0.4688  1.2683
 1209SOL    HW215261   2.902   1.195   5.802 -0.9935 -0.1924 -0.7739
 1210SOL     OW15262   1.729   3.700   5.888 -0.0687 -0.1959 -0.1518
 1210SOL    HW115263   1.783   3.772   5.856 -2.0225  0.8739 -1.0937
 1210SOL    HW215264   1.773   3.700   5.973 -0.6201  0.0975  0.1372
 1211SOL     OW15265   2.388   4.681   1.550  0.6561  0.3747  0.1742
 1211SOL    HW115266   2.377   0.006   1.618  0.1831 -0.6337  1.0833
 1211SOL    HW215267   2.452   4.716   1.488 -1.3401  1.0428 -1.5062
 1212SOL     OW15268   3.257   1.058  12.749 -0.5500  0.2810  0.2755
 1212SOL    HW115269   3.347   1.028  12.734 -0.8343 -0.2550 -0.3357
 1212SOL    HW215270   3.266   1.143  12.792  0.0271 -1.0541  2.8292
 1213SOL     OW15271   0.089   4.586  16.660  0.1775  0.6080  0.0912
 1213SOL    HW115272   0.147   4.592  16.583  1.2451  0.5358  0.8890
 1213SOL    HW215273   0.159   4.571  16.723 -1.9491  0.7600  2.4605
 1214SOL     OW15274   0.517   0.341   5.208 -0.1946  0.1321 -0.2063
 1214SOL    HW115275   0.528   0.264   5.153 -1.6953 -1.0477  1.1927
 1214SOL    HW215276   0.601   0.384   5.190 -0.4691 -0.7281 -3.5429
 1215SOL     OW15277   4.077   3.111   7.868 -0.2159  0.0092  0.0891
 1215SOL    HW115278   4.080   3.206   7.871  2.7641 -0.0186 -1.3327
 1215SOL    HW215279   4.021   3.104   7.792  2.3573 -0.9666 -1.7322
 1216SOL     OW15280   1.169   1.671   5.985 -0.1388  0.0306 -0.1529
 1216SOL    HW115281   1.092   1.657   6.039  0.2083  1.2254  0.6486
 1216SOL    HW215282   1.207   1.583   5.988 -1.7708 -0.6867 -0.9625
 1217SOL     OW15283   3.906   4.349   4.115 -0.0299 -0.4204  0.6469
 1217SOL    HW115284   3.912   4.309   4.202 -3.4049 -2.1243  0.1180
 1217SOL    HW215285   3.832   4.409   4.124 -1.2638 -1.6124 -1.6682
 1218SOL     OW15286   0.778   0.685   7.921 -0.2774 -0.4666 -0.0506
 1218SOL    HW115287   0.724   0.611   7.947 -0.3347 -0.9490 -1.5444
 1218SOL    HW215288   0.764   0.749   7.991 -3.6473 -0.3366 -0.8727
 1219SOL     OW15289   2.669   2.261   6.065 -0.2434 -0.6661 -0.0207
 1219SOL    HW115290   2.733   2.318   6.023  0.5540 -2.4173 -1.1940
 1219SOL    HW215291   2.692   2.172   6.040  1.3859 -0.9239  2.3873
 1220SOL     OW15292   1.836   1.872   8.982 -0.2363  0.2703 -0.5799
 1220SOL    HW115293   1.929   1.859   8.999 -0.6843  0.1817  1.8158
 1220SOL    HW215294   1.831   1.843   8.891 -1.4699 -1.6356  0.0952
 1221SOL     OW15295   1.225   3.504   4.671  0.4075  0.1781  0.2296
 1221SOL    HW115296   1.206   3.412   4.689 -0.0883 -0.2298 -2.4728
 1221SOL    HW215297   1.138   3.540   4.657 -0.4752 -3.1854 -2.7286
 1222SOL     OW15298   2.932   0.989   6.412  0.3803 -0.3623 -0.3594
 1222SOL    HW115299   2.865   1.004   6.345  2.0063  0.5680 -1.7850
 1222SOL    HW215300   2.991   1.060   6.384 -0.4615 -0.0770 -1.3846
 1223SOL     OW15301   0.588   1.199  13.404  0.0044 -0.2784  0.3896
 1223SOL    HW115302   0.605   1.277  13.457 -3.4603  0.1453  0.8676
 1223SOL    HW215303   0.666   1.189  13.349 -0.8456  0.4173 -0.9530
 1224SOL     OW15304   2.475   1.491   3.259  0.6167  0.0451 -0.2523
 1224SOL    HW115305   2.513   1.476   3.345  0.4801  0.2489 -0.1581
 1224SOL    HW215306   2.513   1.575   3.235 -0.9180  0.7292 -0.3105
 1225SOL     OW15307   3.245   4.391  10.834 -0.1760 -0.1053  0.5167
 1225SOL    HW115308   3.294   4.467  10.802 -0.2531 -0.4444 -0.4146
 1225SOL    HW215309   3.291   4.396  10.918 -0.8733  1.0390  0.8415
 1226SOL     OW15310   3.031   0.385   8.631 -0.3502 -0.7044  0.3850
 1226SOL    HW115311   3.000   0.425   8.712  1.1748 -0.9479  1.0949
 1226SOL    HW215312   2.960   0.321   8.630  0.3586 -1.4989  0.2731
 1227SOL     OW15313   3.745   0.551  11.031  0.0637  0.6730 -0.5920
 1227SOL    HW115314   3.785   0.612  11.092 -1.4307 -1.2723  2.3524
 1227SOL    HW215315   3.657   0.589  11.024 -0.3304 -0.0490  0.4757
 1228SOL     OW15316   4.080   3.078   1.063  0.0825  0.4881  0.1268
 1228SOL    HW115317   4.102   3.065   1.156  0.2017  0.5671  0.1100
 1228SOL    HW215318   3.986   3.067   1.075  0.3218 -0.8156  0.7963
 1229SOL     OW15319   0.442   0.631   9.230  0.2477  0.1183 -0.5149
 1229SOL    HW115320   0.421   0.568   9.300 -0.4014 -0.2489 -1.0299
 1229SOL    HW215321   0.523   0.590   9.202  0.5163  0.8428 -0.7938
 1230SOL     OW15322   4.211   4.314   9.887 -0.3969 -0.2706 -0.4990
 1230SOL    HW115323   4.211   4.335   9.980  1.7915 -1.0868 -0.3058
 1230SOL    HW215324   4.305   4.309   9.871 -0.0903  2.8818  0.2844
 1231SOL     OW15325   2.510   4.263   2.648  0.4809 -0.4294 -0.2621
 1231SOL    HW115326   2.469   4.178   2.660  0.7218 -0.3227  1.2812
 1231SOL    HW215327   2.592   4.252   2.695  1.2961  1.7852 -1.1539
 1232SOL     OW15328   4.087   3.503   1.911 -0.4919 -0.2845 -0.2877
 1232SOL    HW115329   4.065   3.415   1.881 -2.1723  0.2748 -0.7134
 1232SOL    HW215330   3.999   3.541   1.911 -0.3687  0.0068  0.0859
 1233SOL     OW15331   0.861   3.359   5.171 -0.3632 -0.1389  0.8851
 1233SOL    HW115332   0.831   3.429   5.229 -1.0654 -0.1766  0.5748
 1233SOL    HW215333   0.777   3.314   5.158  0.9095 -1.9398 -1.2156
 1234SOL     OW15334   3.141   1.550   3.666  0.0367  0.5558  0.3393
 1234SOL    HW115335   3.100   1.543   3.580  0.8811  1.0258 -0.1030
 1234SOL    HW215336   3.128   1.460   3.698  1.4920 -0.2431 -1.3168
 1235SOL     OW15337   3.533   1.574   5.029 -0.1250  0.2947  0.4114
 1235SOL    HW115338   3.582   1.656   5.018  0.2741 -0.1370 -1.0265
 1235SOL    HW215339   3.600   1.513   5.059  0.4248 -0.1143 -1.6167
 1236SOL     OW15340   2.726   2.660   7.403 -0.2241  0.4240 -0.2548
 1236SOL    HW115341   2.817   2.663   7.376  0.0521  1.6078  0.8016
 1236SOL    HW215342   2.744   2.702   7.488 -0.6889  1.1042 -0.4890
 1237SOL     OW15343   4.097   4.150   9.253  0.1289  0.5824  0.1943
 1237SOL    HW115344   4.175   4.111   9.213  0.3116  1.6277 -0.4435
 1237SOL    HW215345   4.043   4.071   9.244  1.5212 -0.4860  1.1515
 1238SOL     OW15346   1.809   2.945  15.755 -0.0414  0.7168  0.2538
 1238SOL    HW115347   1.834   2.912  15.669  1.9943  0.2254  1.0206
 1238SOL    HW215348   1.888   2.992  15.783 -0.2089  3.6402 -4.3072
 1239SOL     OW15349   3.622   2.891   2.665  0.1921 -0.0536  0.3224
 1239SOL    HW115350   3.707   2.914   2.628 -0.4878 -1.3650 -2.0500
 1239SOL    HW215351   3.560   2.917   2.598 -0.4094 -1.7657  0.2075
 1240SOL     OW15352   2.254   0.724  10.631  0.0328  0.2689  0.0112
 1240SOL    HW115353   2.236   0.729  10.537 -2.0571  0.6061  0.4157
 1240SOL    HW215354   2.345   0.751  10.639  0.5392 -2.1918  2.6870
 1241SOL     OW15355   0.268   0.732   2.978  0.2814  0.8672 -0.0858
 1241SOL    HW115356   0.198   0.787   2.944 -1.8423 -1.4804  0.5384
 1241SOL    HW215357   0.322   0.721   2.899 -0.6239 -0.0543 -0.5689
 1242SOL     OW15358   1.110   2.970   6.363 -0.1604  0.1523  0.0956
 1242SOL    HW115359   1.049   2.900   6.384  0.2410 -0.0394  0.6199
 1242SOL    HW215360   1.191   2.944   6.407 -0.2938 -2.4475 -1.2196
 1243SOL     OW15361   2.219   2.061   8.978 -0.1267  0.6655  0.4785
 1243SOL    HW115362   2.175   1.979   8.998 -0.9965  0.5953 -1.6465
 1243SOL    HW215363   2.249   2.046   8.888  0.4686 -0.6167  0.8953
 1244SOL     OW15364   1.688   1.441   9.201  0.0299 -0.4607 -0.2192
 1244SOL    HW115365   1.594   1.424   9.197 -0.5188  2.7442 -1.3518
 1244SOL    HW215366   1.689   1.493   9.281 -0.5183 -0.5634 -0.1439
 1245SOL     OW15367   1.224   1.228  13.333 -0.7086 -0.1357 -0.3174
 1245SOL    HW115368   1.149   1.186  13.376 -0.0758  1.4962  2.4150
 1245SOL    HW215369   1.262   1.147  13.300  1.0090  0.3671  0.4481
 1246SOL     OW15370   4.696   4.449   5.236 -0.4540  0.3469  0.4072
 1246SOL    HW115371   4.706   4.460   5.331 -2.7178 -1.4293  0.8623
 1246SOL    HW215372   0.041   4.482   5.209 -0.6651 -0.9948 -1.9007
 1247SOL     OW15373   1.380   3.341  16.191 -0.0579 -0.6436 -0.0226
 1247SOL    HW115374   1.459   3.391  16.212 -0.7539  0.5731 -0.3162
 1247SOL    HW215375   1.338   3.349  16.277  0.6976 -1.9437  0.4748
 1248SOL     OW15376   2.654   1.672   1.662 -0.7048  0.0573 -0.5769
 1248SOL    HW115377   2.613   1.589   1.688 -1.2180  0.8834  1.2844
 1248SOL    HW215378   2.654   1.657   1.568 -1.6554 -3.1467 -0.0754
 1249SOL     OW15379   1.916   3.871   6.193  0.2321 -0.6222 -0.2084
 1249SOL    HW115380   1.888   3.863   6.284 -3.7388 -4.1952 -1.7320
 1249SOL    HW215381   1.848   3.931   6.162  0.4664 -0.9631 -1.4116
 1250SOL     OW15382   1.101   3.214  11.278 -0.5062  0.3032  0.4293
 1250SOL    HW115383   1.195   3.232  11.275 -0.5796  0.5026 -0.7459
 1250SOL    HW215384   1.090   3.178  11.366 -2.8408  0.3540  0.1595
 1251SOL     OW15385   3.229   3.072  14.625 -0.1910 -0.0941  0.3065
 1251SOL    HW115386   3.232   2.977  14.628 -0.8996 -0.1150  0.2340
 1251SOL    HW215387   3.321   3.096  14.614  0.0162 -1.3560 -0.6336
 1252SOL     OW15388   0.069   0.089   8.912 -0.0103  0.7995  0.6297
 1252SOL    HW115389   0.058   0.038   8.832 -0.5553  0.6141  0.8208
 1252SOL    HW215390   0.027   0.031   8.975 -0.8747  1.5116  0.7080
 1253SOL     OW15391   1.461   3.224   8.660  0.0957  0.0936  0.6865
 1253SOL    HW115392   1.552   3.236   8.631  0.0699  1.0238  0.9738
 1253SOL    HW215393   1.460   3.131   8.683  1.5764  0.3239  1.7406
 1254SOL     OW15394   3.130   0.497   2.619  0.4158  0.7509  0.8078
 1254SOL    HW115395   3.118   0.403   2.634 -0.6084  1.2167  2.9631
 1254SOL    HW215396   3.117   0.499   2.524  0.7062 -1.5612  0.7333
 1255SOL     OW15397   0.720   1.024  12.897 -0.1428  0.0485  0.3539
 1255SOL    HW115398   0.807   1.002  12.866 -0.9658 -1.5980 -0.7852
 1255SOL    HW215399   0.678   0.939  12.910 -0.7618  0.5035  1.3391
 1256SOL     OW15400   4.485   1.471   6.453  0.3549  0.3587  0.5628
 1256SOL    HW115401   4.537   1.480   6.373 -0.8990 -1.2377 -0.4354
 1256SOL    HW215402   4.512   1.387   6.490 -3.2343 -0.4129  1.4459
 1257SOL     OW15403   0.773   3.946   2.876 -0.2503  0.1483 -0.4138
 1257SOL    HW115404   0.808   3.987   2.796  1.1235 -0.7878 -0.2975
 1257SOL    HW215405   0.711   3.878   2.848 -0.7347  0.4526 -0.0732
 1258SOL     OW15406   2.137   2.016   8.629 -0.1582  0.3616  0.1450
 1258SOL    HW115407   2.164   2.088   8.572 -0.0234  1.4596  1.5697
 1258SOL    HW215408   2.221   2.002   8.672 -0.4432 -0.3132  0.4828
 1259SOL     OW15409   1.175   1.701   6.342  0.1411 -0.7290 -0.3139
 1259SOL    HW115410   1.183   1.606   6.342  1.6080 -0.6124 -3.5534
 1259SOL    HW215411   1.248   1.712   6.404  0.9820  1.6426 -1.7025
 1260SOL     OW15412   1.955   0.709   5.197  0.6247 -0.1508 -0.4127
 1260SOL    HW115413   1.974   0.695   5.105  2.2584 -0.4057 -0.0451
 1260SOL    HW215414   1.885   0.774   5.199  0.5713 -0.2253  0.2641
 1261SOL     OW15415   2.296   0.400   5.518 -0.0932 -0.6712 -0.4256
 1261SOL    HW115416   2.355   0.460   5.473  2.2208 -0.4479  2.8987
 1261SOL    HW215417   2.276   0.350   5.439  2.8242  0.7989 -2.0789
 1262SOL     OW15418   3.693   3.816   5.557 -0.2962  0.9185  0.4619
 1262SOL    HW115419   3.722   3.726   5.544 -2.2574  0.1867  1.0099
 1262SOL    HW215420   3.772   3.852   5.519 -1.0212  2.3986  0.3476
 1263SOL     OW15421   1.698   3.373   5.187 -0.2218  0.3445 -0.4726
 1263SOL    HW115422   1.672   3.363   5.096 -0.1978 -1.4999 -0.2913
 1263SOL    HW215423   1.781   3.324   5.190 -0.8572 -0.6744  0.3184
 1264SOL     OW15424   2.160   4.521   5.479  0.0918 -0.6780  0.7640
 1264SOL    HW115425   2.152   4.613   5.503  1.0975 -0.1503 -0.9278
 1264SOL    HW215426   2.100   4.475   5.537 -0.7743 -0.2336  0.2258
 1265SOL     OW15427   4.167   0.938  10.185 -0.1193 -0.2822 -0.2226
 1265SOL    HW115428   4.162   1.033  10.194  0.6160 -0.3706  1.2262
 1265SOL    HW215429   4.228   0.918  10.114 -1.2672  1.0695 -1.5849
 1266SOL     OW15430   3.513   4.246   5.879  0.6711  0.3017  0.2794
 1266SOL    HW115431   3.486   4.279   5.793 -1.4653 -1.0987  0.4437
 1266SOL    HW215432   3.562   4.166   5.859 -0.7509 -0.6097  0.4579
 1267SOL     OW15433   3.560   1.539   9.326 -0.0806  0.1206  0.7522
 1267SOL    HW115434   3.523   1.453   9.346 -0.8984  0.3113  0.0371
 1267SOL    HW215435   3.596   1.554   9.413  0.5492 -2.0827  0.8711
 1268SOL     OW15436   3.065   1.192   8.105 -0.3646  0.2225  0.1064
 1268SOL    HW115437   3.104   1.264   8.055  2.1537 -2.3219 -1.5683
 1268SOL    HW215438   3.004   1.239   8.163 -0.5959  0.1645 -0.0884
 1269SOL     OW15439   0.340   2.256   2.854  0.2763 -0.0746  0.0528
 1269SOL    HW115440   0.308   2.295   2.772 -1.4807 -2.1217 -0.2463
 1269SOL    HW215441   0.261   2.255   2.908 -0.1771 -1.3225 -0.6464
 1270SOL     OW15442   2.200   1.096   6.631 -0.5274  0.2960  0.2244
 1270SOL    HW115443   2.287   1.057   6.643 -0.8612 -0.9940 -1.7138
 1270SOL    HW215444   2.157   1.033   6.688  0.4083 -1.2403 -0.7901
 1271SOL     OW15445   1.114   2.165   7.301  0.1802  0.1963 -0.3312
 1271SOL    HW115446   1.187   2.106   7.318 -1.3884 -2.1844 -1.7250
 1271SOL    HW215447   1.131   2.231   7.368 -1.6957  0.6944 -0.3493
 1272SOL     OW15448   1.882   3.354   3.508 -0.5487 -0.1652 -0.0732
 1272SOL    HW115449   1.786   3.349   3.503 -0.5648 -0.6773  0.7575
 1272SOL    HW215450   1.887   3.439   3.552  3.7310 -0.7105  0.4874
 1273SOL     OW15451   2.204   3.061   6.804  0.0649  0.3041 -0.1904
 1273SOL    HW115452   2.221   3.065   6.709  0.1672  1.6546 -0.1257
 1273SOL    HW215453   2.274   3.005   6.837  0.8724  2.6048  1.9692
 1274SOL     OW15454   2.282   3.264  13.865  0.2894  1.2108  0.1851
 1274SOL    HW115455   2.273   3.356  13.889 -1.4847  0.8986  0.7075
 1274SOL    HW215456   2.359   3.245  13.811  0.6452  2.7030  0.1669
 1275SOL     OW15457   4.502   4.566   2.191 -0.3344 -0.6962  0.3970
 1275SOL    HW115458   4.437   4.546   2.124 -0.5579 -0.1040  0.4400
 1275SOL    HW215459   4.458   4.639   2.234  1.7403 -0.6787  2.4928
 1276SOL     OW15460   1.141   4.462   5.408  0.1268 -0.3741  0.0758
 1276SOL    HW115461   1.215   4.402   5.399  0.6871  0.3617 -0.2245
 1276SOL    HW215462   1.158   4.455   5.502  0.2184  1.9842  0.2312
 1277SOL     OW15463   3.378   0.011   7.958  0.5385  0.7227  0.1048
 1277SOL    HW115464   3.407   0.014   8.050 -1.2176 -0.4826  0.6951
 1277SOL    HW215465   3.365   0.105   7.943  2.3531  0.8806 -0.4488
 1278SOL     OW15466   1.967   0.629   2.332  0.6321 -0.2066 -0.1662
 1278SOL    HW115467   1.961   0.690   2.406 -0.1484  0.0930 -0.4783
 1278SOL    HW215468   2.055   0.646   2.300 -0.2742  4.0957 -0.3805
 1279SOL     OW15469   1.132   0.962   5.063 -0.3834 -0.1871  0.7099
 1279SOL    HW115470   1.199   1.030   5.075 -3.0023  2.7385 -1.1707
 1279SOL    HW215471   1.057   1.008   5.025 -0.7403 -0.3547  1.2182
 1280SOL     OW15472   0.129   0.648  10.553 -0.7307 -0.0855 -0.2544
 1280SOL    HW115473   0.173   0.654  10.638 -1.6001 -0.3447  0.2171
 1280SOL    HW215474   0.050   0.698  10.574  0.2918  1.2193  0.4897
 1281SOL     OW15475   2.055   1.795   1.616 -0.3494 -0.2365 -0.2808
 1281SOL    HW115476   1.988   1.727   1.621 -0.1242 -0.3828  0.8021
 1281SOL    HW215477   2.007   1.859   1.668 -0.2705  0.7459 -1.4109
 1282SOL     OW15478   3.691   2.682   0.357 -0.6441  0.9851  0.3296
 1282SOL    HW115479   3.609   2.731   0.366 -0.0054  2.2481 -0.8288
 1282SOL    HW215480   3.725   2.726   0.280  0.3930 -0.0918  0.1732
 1283SOL     OW15481   0.365   2.441  15.850 -0.0742  0.3963  0.0533
 1283SOL    HW115482   0.424   2.491  15.905  1.0554  0.2241 -1.0208
 1283SOL    HW215483   0.343   2.370  15.912  2.4440 -0.0704  0.3901
 1284SOL     OW15484   4.194   1.157  10.966  0.2129  0.1917  0.4613
 1284SOL    HW115485   4.173   1.124  10.879 -0.6917  3.9321 -0.7064
 1284SOL    HW215486   4.212   1.250  10.952  2.7793 -0.1902  1.2451
 1285SOL     OW15487   1.147   3.512   9.668 -0.3476  0.1153  0.0943
 1285SOL    HW115488   1.183   3.561   9.594  0.5152 -0.0698  0.3891
 1285SOL    HW215489   1.145   3.431   9.617 -0.4957  1.1779 -1.5825
 1286SOL     OW15490   2.465   4.064   1.330 -0.3872 -0.6502  0.2786
 1286SOL    HW115491   2.448   3.970   1.343 -0.6829 -0.7918 -1.1703
 1286SOL    HW215492   2.404   4.108   1.389  0.9642  1.6697 -0.0529
 1287SOL     OW15493   4.509   2.345   3.709  0.9377 -0.1533  0.5892
 1287SOL    HW115494   4.585   2.290   3.728  1.9297  0.7237 -0.8420
 1287SOL    HW215495   4.498   2.426   3.760 -3.9632 -0.4766  0.0573
 1288SOL     OW15496   1.741   1.541   5.558  0.1364  0.0515  0.4011
 1288SOL    HW115497   1.747   1.521   5.465  0.0394  0.4996  0.2973
 1288SOL    HW215498   1.834   1.557   5.575  0.1362  0.5217 -0.0290
 1289SOL     OW15499   0.021   3.725  14.638 -0.1476 -0.5394 -0.3950
 1289SOL    HW115500   0.010   3.811  14.677 -0.5303 -1.4562  1.5119
 1289SOL    HW215501   0.025   3.748  14.545 -0.1956 -0.1670 -0.3045
 1290SOL     OW15502   4.015   1.348   5.080 -0.0690  0.2860 -0.1296
 1290SOL    HW115503   3.981   1.420   5.134  0.4381  0.1934  0.3063
 1290SOL    HW215504   4.009   1.380   4.990 -1.6403  1.3133  0.3324
 1291SOL     OW15505   1.132   2.293   2.771  0.1812  0.1885  0.5953
 1291SOL    HW115506   1.116   2.366   2.831  2.7084  0.2925  1.1522
 1291SOL    HW215507   1.110   2.220   2.829  0.6471 -1.3498 -1.1291
 1292SOL     OW15508   3.648   2.827  16.795  0.0477  0.1026 -0.4730
 1292SOL    HW115509   3.643   2.766  16.868  1.2364 -0.2575 -0.7035
 1292SOL    HW215510   3.741   2.814  16.780  0.1837  0.2277  0.2937
 1293SOL     OW15511   1.632   3.235  10.079  0.4254 -0.3235 -0.2939
 1293SOL    HW115512   1.654   3.211   9.989  0.4148  1.3482 -0.7337
 1293SOL    HW215513   1.712   3.281  10.103  1.1530 -0.6036 -2.2587
 1294SOL     OW15514   1.092   2.689   8.614 -0.5009 -0.3433 -0.1253
 1294SOL    HW115515   1.038   2.767   8.611  1.0934  0.6806 -2.0210
 1294SOL    HW215516   1.144   2.699   8.535 -3.1867  1.1356 -1.7077
 1295SOL     OW15517   2.002   4.115   5.535  0.4168  0.7091  0.1453
 1295SOL    HW115518   2.003   4.022   5.555 -0.3998  1.0086  1.5727
 1295SOL    HW215519   2.076   4.146   5.588  0.1560 -1.4742  1.7637
 1296SOL     OW15520   2.357   4.724   9.623  0.1963  0.1817  0.0976
 1296SOL    HW115521   2.296   0.027   9.682 -1.1147  0.3578 -1.3765
 1296SOL    HW215522   2.411   4.679   9.688 -0.9898 -0.5579  0.5650
 1297SOL     OW15523   1.585   3.284   3.316 -0.4846  0.2840 -0.8027
 1297SOL    HW115524   1.572   3.261   3.408 -2.1029  2.4377 -0.5039
 1297SOL    HW215525   1.521   3.355   3.309  0.7071  1.6059  1.8907
 1298SOL     OW15526   2.166   1.521   2.259 -0.4352 -0.3704  0.2915
 1298SOL    HW115527   2.110   1.518   2.337 -0.1532 -2.8962  0.3876
 1298SOL    HW215528   2.210   1.604   2.276 -1.2007  0.1058 -0.0281
 1299SOL     OW15529   3.697   2.316   4.334  0.0383  0.1256  0.0703
 1299SOL    HW115530   3.629   2.249   4.328 -0.6158  0.7413  0.6185
 1299SOL    HW215531   3.646   2.396   4.322 -1.4879 -1.1493 -1.8480
 1300SOL     OW15532   0.373   2.797   4.571 -0.1689  0.1316 -1.0786
 1300SOL    HW115533   0.318   2.869   4.540  1.4139  1.3212 -1.1191
 1300SOL    HW215534   0.446   2.842   4.613  0.0804 -1.7084  0.4757
 1301SOL     OW15535   1.043   1.106  16.353 -0.3894 -0.8094  0.0759
 1301SOL    HW115536   0.998   1.057  16.284  1.0403 -2.7628  0.5197
 1301SOL    HW215537   1.132   1.073  16.340 -0.6976 -1.8625  0.6206
 1302SOL     OW15538   2.388   1.276  11.609  0.1002  0.0173  0.3641
 1302SOL    HW115539   2.427   1.361  11.626  0.9952 -0.5518  1.1491
 1302SOL    HW215540   2.437   1.220  11.670 -1.2090 -2.4298 -0.8578
 1303SOL     OW15541   4.579   1.243   2.151 -0.0175 -0.3045  0.1692
 1303SOL    HW115542   4.538   1.278   2.230  2.2600  1.8413  0.3897
 1303SOL    HW215543   4.508   1.268   2.092 -0.7288  0.2963  1.2752
 1304SOL     OW15544   4.596   1.552   5.592 -0.2209  0.1688  0.8528
 1304SOL    HW115545   4.522   1.494   5.606  0.0253 -0.3900 -0.1633
 1304SOL    HW215546   4.614   1.538   5.499  1.5834 -2.8166  1.6462
 1305SOL     OW15547   3.355   1.495  16.823 -0.3378 -0.4985  0.1580
 1305SOL    HW115548   3.392   1.541  16.898 -1.0274  0.0388  0.1697
 1305SOL    HW215549   3.400   1.411  16.831 -0.3639 -0.5259  0.0217
 1306SOL     OW15550   3.602   1.295  13.341 -0.1454  0.1493  0.0845
 1306SOL    HW115551   3.636   1.383  13.355 -0.0440 -0.0007  0.7459
 1306SOL    HW215552   3.597   1.265  13.432 -0.9863  0.6174  0.1928
 1307SOL     OW15553   1.255   0.506   7.389  0.0766 -0.4730 -0.4819
 1307SOL    HW115554   1.343   0.536   7.367 -0.1927 -1.8333 -3.3546
 1307SOL    HW215555   1.270   0.427   7.440  0.3451  0.2460  0.5667
 1308SOL     OW15556   1.868   0.914   6.580 -0.3066 -0.2043  0.1449
 1308SOL    HW115557   1.935   0.887   6.643 -0.8443 -1.8285  0.0299
 1308SOL    HW215558   1.818   0.976   6.632 -2.8987 -1.4308 -0.8640
 1309SOL     OW15559   1.527   4.157   5.877  0.4461 -0.1120 -0.9020
 1309SOL    HW115560   1.460   4.089   5.878 -0.4938  0.8282  0.2554
 1309SOL    HW215561   1.531   4.196   5.790  0.8910 -2.7732 -2.0791
 1310SOL     OW15562   2.803   1.696  12.052  0.0261  0.1219 -0.2783
 1310SOL    HW115563   2.731   1.715  11.992  0.5027 -1.3986 -1.3470
 1310SOL    HW215564   2.845   1.781  12.038 -0.3494  0.4390  0.5190
 1311SOL     OW15565   4.053   0.275   3.183  0.1902  0.3475  0.4242
 1311SOL    HW115566   4.094   0.358   3.205  2.6137 -0.8434  0.3971
 1311SOL    HW215567   4.009   0.253   3.265  0.0901  2.3886  0.8940
 1312SOL     OW15568   0.788   0.919   1.400  0.5426  0.3076 -0.3328
 1312SOL    HW115569   0.696   0.912   1.424  0.6677 -0.0564  0.0430
 1312SOL    HW215570   0.781   0.923   1.305  2.0552 -1.7449 -0.5386
 1313SOL     OW15571   0.557   1.264   0.159 -0.2963 -0.6941 -0.4676
 1313SOL    HW115572   0.531   1.199   0.094  1.4058 -0.4881 -1.3613
 1313SOL    HW215573   0.542   1.343   0.107  2.1610  1.0632  1.5197
 1314SOL     OW15574   1.372   4.111   1.724  0.1008  0.3484  0.7280
 1314SOL    HW115575   1.335   4.199   1.714  2.2386  0.9233 -2.0560
 1314SOL    HW215576   1.298   4.050   1.712  1.6510 -1.4960  0.5265
 1315SOL     OW15577   0.956   1.088   5.564  0.0793 -0.2670 -0.5167
 1315SOL    HW115578   0.988   1.174   5.535 -2.4577  1.0991  0.7522
 1315SOL    HW215579   0.979   1.033   5.489  2.0499 -1.9036  1.2851
 1316SOL     OW15580   4.321   0.940   3.643  0.6438  0.2726 -0.5122
 1316SOL    HW115581   4.398   0.891   3.614  0.8198  0.2462  0.0030
 1316SOL    HW215582   4.272   0.947   3.561 -0.4408 -1.1681  0.0118
 1317SOL     OW15583   4.179   0.374   6.557  0.0793  0.1270 -0.2632
 1317SOL    HW115584   4.253   0.430   6.581 -0.6374  0.4087  1.2845
 1317SOL    HW215585   4.203   0.285   6.583  1.6705  1.1813  1.9378
 1318SOL     OW15586   3.551   2.840   7.684  0.4237  0.1466 -0.4579
 1318SOL    HW115587   3.564   2.761   7.737  0.7930  0.5475  0.0531
 1318SOL    HW215588   3.589   2.817   7.599 -0.9619  0.4006 -1.1328
 1319SOL     OW15589   3.762   4.359   6.351  0.5918 -0.6123 -0.6745
 1319SOL    HW115590   3.834   4.321   6.401 -1.3683 -1.0428  1.8391
 1319SOL    HW215591   3.743   4.289   6.288  1.5093 -0.2858 -1.3132
 1320SOL     OW15592   2.349   2.361   9.264  0.0118  0.4850 -0.1545
 1320SOL    HW115593   2.393   2.320   9.189 -1.0347 -0.1815 -0.4029
 1320SOL    HW215594   2.392   2.446   9.270  0.2789  0.0786  3.2414
 1321SOL     OW15595   1.259   4.106  11.716  0.1582  0.2787  0.2335
 1321SOL    HW115596   1.244   4.014  11.695  1.1718 -0.0790  1.0841
 1321SOL    HW215597   1.187   4.149  11.669 -0.4196  2.0980  2.7599
 1322SOL     OW15598   1.463   4.034  16.707 -0.0966  0.2670 -0.3226
 1322SOL    HW115599   1.420   4.115  16.680  0.9377  1.1056  0.5663
 1322SOL    HW215600   1.444   3.978  16.632  0.4666  0.0792 -0.3191
 1323SOL     OW15601   1.478   1.349   0.070 -0.6333 -0.0584  0.1873
 1323SOL    HW115602   1.561   1.371   0.111  0.0580 -2.1882 -0.0576
 1323SOL    HW215603   1.501   1.273   0.016 -0.9286  2.0383 -2.8432
 1324SOL     OW15604   1.761   2.158   1.867  0.0671 -0.3544 -0.1243
 1324SOL    HW115605   1.747   2.235   1.922  0.7061 -0.5003  0.2456
 1324SOL    HW215606   1.754   2.191   1.778 -1.5431  0.0829  0.1697
 1325SOL     OW15607   3.910   0.880  12.239  0.1824 -0.1039 -0.5359
 1325SOL    HW115608   3.849   0.935  12.287 -0.4042 -1.3913  0.1952
 1325SOL    HW215609   3.970   0.938  12.193  1.5057 -1.6805 -0.8137
 1326SOL     OW15610   3.851   2.687   2.543 -0.4363  0.2222 -0.0827
 1326SOL    HW115611   3.797   2.731   2.477  0.0102  0.5908 -0.2024
 1326SOL    HW215612   3.863   2.599   2.509  0.3955 -0.2122  1.3723
 1327SOL     OW15613   2.537   4.227   9.518 -0.3039  0.3616  0.5761
 1327SOL    HW115614   2.632   4.225   9.519 -0.4018 -3.1959  1.9804
 1327SOL    HW215615   2.515   4.247   9.610 -0.9593 -1.1224  0.7424
 1328SOL     OW15616   0.723   2.858   0.023  0.5692  0.0513  0.1291
 1328SOL    HW115617   0.778   2.906  17.722  0.4831  0.7290  0.5826
 1328SOL    HW215618   0.641   2.907   0.026  0.2566 -0.4383 -0.2594
 1329SOL     OW15619   3.015   3.835   4.835  0.2171 -0.1943  0.3707
 1329SOL    HW115620   2.919   3.837   4.841  0.2509 -1.1859  1.1099
 1329SOL    HW215621   3.022   3.862   4.743 -1.4076 -0.0469  0.2737
 1330SOL     OW15622   1.845   3.038   2.537  0.4604  0.1017 -0.5184
 1330SOL    HW115623   1.859   2.972   2.605  2.3363  1.9470  0.8928
 1330SOL    HW215624   1.765   3.079   2.569 -0.2244 -0.2572 -1.7551
 1331SOL     OW15625   4.356   2.788   4.983  0.2891  0.0519 -0.7541
 1331SOL    HW115626   4.433   2.767   5.037 -0.1155 -1.1599 -0.6633
 1331SOL    HW215627   4.338   2.878   5.012  1.4312 -0.3734  1.3125
 1332SOL     OW15628   2.515   3.694   8.144  0.0679 -0.3911  0.0760
 1332SOL    HW115629   2.440   3.704   8.086 -0.7400 -2.5570  0.7540
 1332SOL    HW215630   2.472   3.721   8.226 -1.6669  2.9085 -1.9291
 1333SOL     OW15631   0.289   4.701   6.618 -0.3707 -0.4129 -0.2305
 1333SOL    HW115632   0.311   4.708   6.711 -2.1540 -1.5408  0.2774
 1333SOL    HW215633   0.329   0.042   6.591 -2.3127  1.0374  1.3637
 1334SOL     OW15634   2.990   4.446  12.410  0.1962  0.1375 -0.7462
 1334SOL    HW115635   2.999   4.488  12.324 -2.0001 -1.1342 -1.5977
 1334SOL    HW215636   3.021   4.518  12.464 -0.9311 -1.8051  2.5081
 1335SOL     OW15637   0.220   2.526   1.060 -0.4388 -0.1323  0.1881
 1335SOL    HW115638   0.239   2.456   1.122 -1.8346  1.5646  2.5424
 1335SOL    HW215639   0.241   2.484   0.977 -1.3505  0.5013 -0.3620
 1336SOL     OW15640   4.562   4.403   9.289  0.6482  0.0056  0.1905
 1336SOL    HW115641   4.650   4.400   9.326 -0.2357  1.7214  2.4236
 1336SOL    HW215642   4.540   4.495   9.306 -1.1970 -0.0860 -1.7473
 1337SOL     OW15643   3.805   1.178  12.851 -0.1163  0.9733 -0.1367
 1337SOL    HW115644   3.789   1.272  12.853  1.9968  1.3914 -2.7957
 1337SOL    HW215645   3.716   1.145  12.852  0.2722 -0.0233  1.2982
 1338SOL     OW15646   1.733   3.549   3.937  0.9112 -0.4678 -0.1926
 1338SOL    HW115647   1.707   3.589   4.020  1.6500 -0.6117  0.1083
 1338SOL    HW215648   1.655   3.566   3.884  1.6779  0.3570 -1.0737
 1339SOL     OW15649   3.020   2.075  10.601  0.2941 -0.2920 -0.1594
 1339SOL    HW115650   2.963   2.150  10.621 -0.0334 -0.8343  0.9396
 1339SOL    HW215651   3.012   2.035  10.687  1.2374 -0.3718 -0.1086
 1340SOL     OW15652   4.697   0.026   1.650  0.4711 -0.2052 -0.4041
 1340SOL    HW115653   4.716   0.045   1.558  0.7282  3.0358  0.3170
 1340SOL    HW215654   0.007   0.087   1.703 -2.6565  0.0363  2.3539
 1341SOL     OW15655   4.227   1.223   0.292 -0.1332 -0.4395  0.1012
 1341SOL    HW115656   4.258   1.210   0.382 -1.3048 -0.4179  0.5088
 1341SOL    HW215657   4.135   1.197   0.299 -0.0904 -1.4191 -2.8281
 1342SOL     OW15658   0.840   1.867   1.962  0.3900  0.3433  0.3293
 1342SOL    HW115659   0.931   1.851   1.988 -0.4663  0.4938  3.4319
 1342SOL    HW215660   0.807   1.906   2.043 -1.6583  2.1595 -1.3982
 1343SOL     OW15661   3.784   3.503  14.197 -0.1151  0.1129  0.2865
 1343SOL    HW115662   3.733   3.553  14.133  1.3726  1.5090  0.1875
 1343SOL    HW215663   3.871   3.542  14.191 -0.3924  0.6321 -0.2802
 1344SOL     OW15664   4.491   4.305   1.801 -0.8162  0.7411 -0.0210
 1344SOL    HW115665   4.448   4.312   1.886  1.2915 -2.4794  1.3117
 1344SOL    HW215666   4.581   4.292   1.829 -0.7247  5.1173  1.6353
 1345SOL     OW15667   0.462   0.434   2.239  0.0278 -0.1650  0.3057
 1345SOL    HW115668   0.404   0.510   2.245  0.3796 -0.0477  2.0222
 1345SOL    HW215669   0.422   0.371   2.298  2.3678 -1.8335  0.1215
 1346SOL     OW15670   3.589   0.031   3.734 -0.3781  0.0003  0.0738
 1346SOL    HW115671   3.560   0.003   3.647 -1.2126  0.5579  0.1794
 1346SOL    HW215672   3.642   0.107   3.711 -1.2590  0.7424  0.4919
 1347SOL     OW15673   4.596   3.948  10.963  0.5058  0.3629  0.0530
 1347SOL    HW115674   4.624   3.945  10.872  0.7854 -0.7610  0.1734
 1347SOL    HW215675   4.613   3.857  10.991  0.1482  0.3737  0.3121
 1348SOL     OW15676   2.859   0.370  15.030 -0.1369  0.1408 -0.1298
 1348SOL    HW115677   2.861   0.456  14.988 -0.1351 -0.3822 -1.1770
 1348SOL    HW215678   2.825   0.321  14.956  3.2402 -0.0178 -1.5639
 1349SOL     OW15679   0.418   3.442  12.992  0.3738 -0.4758  0.0015
 1349SOL    HW115680   0.484   3.373  12.997  1.4913  0.7358  2.1250
 1349SOL    HW215681   0.428   3.480  12.905 -2.4062  4.5115  1.8460
 1350SOL     OW15682   0.226   0.898   3.932  0.2567  0.8689  0.0964
 1350SOL    HW115683   0.286   0.972   3.936 -0.2612  1.2546  0.8908
 1350SOL    HW215684   0.145   0.932   3.971 -0.1989 -0.6319  0.4682
 1351SOL     OW15685   1.693   1.406   4.080  0.3888 -0.0292 -0.5109
 1351SOL    HW115686   1.634   1.476   4.106 -0.6195 -0.5612 -1.3878
 1351SOL    HW215687   1.746   1.456   4.017 -0.7544  1.0791 -0.6033
 1352SOL     OW15688   1.351   2.387   3.519 -0.5711 -0.0704  0.0977
 1352SOL    HW115689   1.420   2.343   3.470 -0.1941  0.7458 -0.0865
 1352SOL    HW215690   1.394   2.458   3.566  2.3299 -0.9576 -1.2407
 1353SOL     OW15691   3.451   3.005   9.092 -0.3400 -0.2117 -0.0864
 1353SOL    HW115692   3.423   3.088   9.130  1.2750  0.7302 -0.9332
 1353SOL    HW215693   3.426   2.941   9.158 -1.5937  0.4922  0.1304
 1354SOL     OW15694   1.774   4.666  12.090  0.2846  0.0070 -0.2050
 1354SOL    HW115695   1.725   4.712  12.022  2.9041 -0.1643 -2.1705
 1354SOL    HW215696   1.867   4.673  12.069  0.5909  0.0569  1.1387
 1355SOL     OW15697   0.558   2.631  13.648  0.1681 -0.0713  0.0813
 1355SOL    HW115698   0.481   2.687  13.635 -1.3733 -2.4008 -0.7640
 1355SOL    HW215699   0.629   2.686  13.616  0.1800 -0.5249 -0.6794
 1356SOL     OW15700   1.909   1.378   9.672  0.3138  0.0496 -0.4872
 1356SOL    HW115701   1.966   1.453   9.689 -1.2325  1.0223  0.4581
 1356SOL    HW215702   1.893   1.394   9.579  0.2965  1.1391 -0.2965
 1357SOL     OW15703   3.469   1.063   2.648  0.0304 -0.6353  0.4692
 1357SOL    HW115704   3.533   1.133   2.636 -0.7570 -0.2999 -1.7312
 1357SOL    HW215705   3.526   0.989   2.669  0.1812 -1.3291 -2.2980
 1358SOL     OW15706   3.010   4.412   7.657  0.2590 -0.4678 -0.6242
 1358SOL    HW115707   3.062   4.474   7.607  1.8377 -1.9534 -0.8093
 1358SOL    HW215708   2.976   4.367   7.580 -1.5851  0.9501 -0.6427
 1359SOL     OW15709   1.399   0.796   9.390  0.5485 -0.1844  0.3734
 1359SOL    HW115710   1.377   0.783   9.298  2.2502 -0.4677  0.0014
 1359SOL    HW215711   1.353   0.720   9.423  0.0931  0.0216  0.2147
 1360SOL     OW15712   1.873   0.830   2.788 -0.1112  0.1306 -0.3876
 1360SOL    HW115713   1.839   0.764   2.848 -1.1573 -0.0273 -1.1540
 1360SOL    HW215714   1.967   0.813   2.795 -0.3395 -0.7959  0.3918
 1361SOL     OW15715   2.197   1.800   2.285  0.4849 -0.1914  0.0783
 1361SOL    HW115716   2.255   1.869   2.252 -1.0997  0.8065 -0.6440
 1361SOL    HW215717   2.143   1.855   2.342  2.1905  0.3231  1.1765
 1362SOL     OW15718   3.559   4.325   3.119  0.9473  0.8238 -0.5631
 1362SOL    HW115719   3.504   4.361   3.049 -2.6907 -0.9498  1.4035
 1362SOL    HW215720   3.630   4.301   3.059  3.6106 -0.2066  2.9951
 1363SOL     OW15721   2.850   1.234   7.134 -0.2860  0.6231 -1.3950
 1363SOL    HW115722   2.803   1.208   7.054 -1.8597 -0.1956 -0.1988
 1363SOL    HW215723   2.791   1.298   7.175  0.9615  0.4081  0.7148
 1364SOL     OW15724   2.706   4.254   0.682  0.3720  0.0460  0.4973
 1364SOL    HW115725   2.738   4.285   0.767  1.0058 -0.8084  0.5612
 1364SOL    HW215726   2.641   4.323   0.665  0.9905  0.9673  1.8710
 1365SOL     OW15727   1.790   0.020   0.355  0.1474 -0.0780  0.0368
 1365SOL    HW115728   1.794   4.687   0.415 -1.9803 -0.5932 -0.4873
 1365SOL    HW215729   1.843   4.738   0.279 -0.2639 -0.9197  0.0083
 1366SOL     OW15730   1.326   3.215  14.702  0.1181  0.7645  0.1985
 1366SOL    HW115731   1.309   3.122  14.688  2.7744  0.4091 -0.7044
 1366SOL    HW215732   1.237   3.239  14.728  0.2618  0.9813  0.4895
 1367SOL     OW15733   0.466   2.584   6.277  0.3163  0.4819 -0.9388
 1367SOL    HW115734   0.519   2.622   6.347  0.6626  2.2834 -2.1932
 1367SOL    HW215735   0.389   2.547   6.320  1.3845 -1.1048 -0.3909
 1368SOL     OW15736   2.572   2.497   2.345 -0.1220  0.2284 -0.3239
 1368SOL    HW115737   2.617   2.459   2.420 -1.9361  2.0956  1.7093
 1368SOL    HW215738   2.568   2.585   2.382  0.3565 -0.2717  0.8970
 1369SOL     OW15739   4.067   0.058   5.741  0.6003 -0.1644 -0.0649
 1369SOL    HW115740   4.041   0.066   5.833  1.9620  0.1539  0.2820
 1369SOL    HW215741   3.994   0.100   5.695  0.5251 -0.0850  0.1281
 1370SOL     OW15742   2.457   0.970  12.494  0.5976 -0.3827 -0.8542
 1370SOL    HW115743   2.496   0.980  12.407 -0.8188 -0.4070 -1.5029
 1370SOL    HW215744   2.529   0.985  12.554 -0.7471  0.5481  0.5290
 1371SOL     OW15745   0.443   3.866   4.222 -0.3438  0.2273 -0.2105
 1371SOL    HW115746   0.397   3.881   4.139 -1.3829  2.5174  0.7712
 1371SOL    HW215747   0.457   3.953   4.259  0.6504  0.6268 -1.5437
 1372SOL     OW15748   0.670   4.519   8.231 -0.3409  0.0255  0.7484
 1372SOL    HW115749   0.632   4.481   8.152  1.5304  0.9153 -0.5916
 1372SOL    HW215750   0.706   4.601   8.197 -0.6664 -0.5911 -1.1295
 1373SOL     OW15751   3.926   2.182   2.026 -0.3989  0.0970  0.0710
 1373SOL    HW115752   3.968   2.180   2.112  1.4620  2.7979 -0.7778
 1373SOL    HW215753   3.953   2.268   1.995 -1.7719  0.2257 -0.7317
 1374SOL     OW15754   4.090   2.534  13.551  0.2827 -0.3210  0.1898
 1374SOL    HW115755   4.114   2.451  13.509 -2.1630  0.0175 -1.8695
 1374SOL    HW215756   4.106   2.511  13.642 -0.9820 -0.2590  0.4240
 1375SOL     OW15757   3.287   0.835   2.605 -0.1156 -0.1923  0.0834
 1375SOL    HW115758   3.239   0.830   2.522  1.7973 -0.5356 -1.0192
 1375SOL    HW215759   3.317   0.925   2.608 -0.1949 -0.1958  0.9578
 1376SOL     OW15760   4.691   4.627  13.789  0.0393 -0.0547 -0.2187
 1376SOL    HW115761   0.018   4.597  13.849 -0.5162  1.9518  1.3973
 1376SOL    HW215762   4.621   4.628  13.854  0.5436 -0.6280  0.3271
 1377SOL     OW15763   3.736   2.320   0.691 -0.0952  1.0087  0.0573
 1377SOL    HW115764   3.768   2.232   0.712 -0.7665  0.9953  1.0014
 1377SOL    HW215765   3.817   2.371   0.696 -0.3108  1.3805 -0.2069
 1378SOL     OW15766   2.261   4.222   4.205 -0.1856 -0.1039  0.1283
 1378SOL    HW115767   2.326   4.165   4.163 -0.2081 -2.0192  2.7124
 1378SOL    HW215768   2.325   4.261   4.264 -2.7488  0.9316  2.2024
 1379SOL     OW15769   1.424   4.275   4.828 -0.1547  0.2510  0.0981
 1379SOL    HW115770   1.508   4.256   4.788  0.0149 -0.8680  0.9752
 1379SOL    HW215771   1.398   4.202   4.884 -0.4213  0.4812  0.2772
 1380SOL     OW15772   3.412   0.494  11.209 -0.1688  0.3806  0.0915
 1380SOL    HW115773   3.318   0.475  11.204 -0.1316 -0.0720  1.1891
 1380SOL    HW215774   3.457   0.426  11.159 -0.4209 -1.0680  1.8435
 1381SOL     OW15775   3.944   4.531   7.871 -0.1946 -0.4206 -0.2306
 1381SOL    HW115776   3.970   4.456   7.818  1.5474  1.1100 -1.5467
 1381SOL    HW215777   3.866   4.562   7.826  0.6476  0.9569 -0.7436
 1382SOL     OW15778   0.757   3.993   9.445 -0.2792 -0.0819 -0.2679
 1382SOL    HW115779   0.793   3.915   9.487  1.9978  0.4672 -1.2005
 1382SOL    HW215780   0.794   3.979   9.358  2.0404  1.3068  0.4846
 1383SOL     OW15781   2.328   4.008   4.048 -0.7310  0.1374  0.6901
 1383SOL    HW115782   2.248   3.965   4.081 -0.9144 -0.0866 -0.0567
 1383SOL    HW215783   2.387   3.935   4.065  0.4953  1.1107  0.5892
 1384SOL     OW15784   3.515   2.200   5.973  0.5504 -0.3395  0.2401
 1384SOL    HW115785   3.558   2.198   6.058  2.4860 -0.4554 -0.7241
 1384SOL    HW215786   3.593   2.238   5.933  0.3110  0.9404  1.0093
 1385SOL     OW15787   0.791   1.736  10.492  0.5667 -0.1010 -0.1735
 1385SOL    HW115788   0.824   1.823  10.511 -1.5812  0.9398 -1.2532
 1385SOL    HW215789   0.781   1.739  10.397 -0.5398 -0.9701 -0.0841
 1386SOL     OW15790   4.570   3.503  10.565  0.4270 -0.0483  0.6559
 1386SOL    HW115791   4.587   3.596  10.552  0.3894 -0.1147  0.1542
 1386SOL    HW215792   4.537   3.490  10.476  1.6511 -0.3396  0.2513
 1387SOL     OW15793   1.978   1.089   9.572  0.3454  0.1590 -0.4940
 1387SOL    HW115794   1.898   1.037   9.584 -1.3376  2.5701 -1.0797
 1387SOL    HW215795   1.934   1.168   9.539  0.3618  0.3554 -0.0438
 1388SOL     OW15796   2.022   2.584  11.734  0.0635  0.3359 -0.5598
 1388SOL    HW115797   1.992   2.670  11.706 -0.2032 -0.2292 -2.0580
 1388SOL    HW215798   2.017   2.537  11.650  1.2216  0.6443 -0.7914
 1389SOL     OW15799   0.721   0.106  10.112 -0.0477  0.2720  0.5160
 1389SOL    HW115800   0.659   0.113  10.040 -0.4694 -2.4854  0.6072
 1389SOL    HW215801   0.728   0.012  10.127  0.0454  0.2193  0.1453
 1390SOL     OW15802   1.994   1.362   3.830  0.2113 -0.0123 -0.3046
 1390SOL    HW115803   2.080   1.326   3.807  0.4273  0.0945  0.3318
 1390SOL    HW215804   1.947   1.280   3.816  0.0276  0.1525 -0.6383
 1391SOL     OW15805   3.951   3.403   5.684  0.5839 -0.3865  0.2089
 1391SOL    HW115806   3.921   3.314   5.697  0.1479 -0.6256 -2.4615
 1391SOL    HW215807   3.920   3.437   5.768 -3.0329 -0.7938 -0.9653
 1392SOL     OW15808   3.091   1.581   8.353 -0.7496 -0.3770  0.5087
 1392SOL    HW115809   3.119   1.662   8.310 -3.5249  0.6495  0.5961
 1392SOL    HW215810   3.123   1.601   8.441 -1.9256  0.2935  0.7978
 1393SOL     OW15811   2.317   2.877   2.766  0.1333  0.1938  0.3914
 1393SOL    HW115812   2.260   2.954   2.759  1.2218  1.0764  1.1734
 1393SOL    HW215813   2.368   2.881   2.685 -2.1323  1.0759 -1.0008
 1394SOL     OW15814   3.501   2.339   0.803  0.8853 -0.2355  0.1368
 1394SOL    HW115815   3.596   2.350   0.800  0.9912 -0.7968  1.2821
 1394SOL    HW215816   3.478   2.400   0.733  2.8333 -1.6199 -1.7040
 1395SOL     OW15817   2.667   1.354   6.464  0.3834 -0.3780  0.0165
 1395SOL    HW115818   2.635   1.408   6.392 -2.0623 -0.9930  0.6365
 1395SOL    HW215819   2.586   1.311   6.494 -2.2431  3.1834 -1.9381
 1396SOL     OW15820   0.402   1.098   7.747 -0.2910  0.7006  0.1703
 1396SOL    HW115821   0.496   1.093   7.762 -0.0841  1.6909 -0.8845
 1396SOL    HW215822   0.400   1.024   7.687 -0.0155  2.3413 -1.8373
 1397SOL     OW15823   0.712   3.984   5.539  0.4566 -0.6556  0.7557
 1397SOL    HW115824   0.799   3.950   5.517 -0.7394 -2.8710 -0.5641
 1397SOL    HW215825   0.658   3.936   5.476  2.2205 -1.7060  0.0350
 1398SOL     OW15826   2.072   4.629  15.090  0.0634  0.2510 -0.6050
 1398SOL    HW115827   2.086   4.694  15.159  3.0518  0.9894 -1.8700
 1398SOL    HW215828   2.071   4.688  15.014  0.4760  1.5979  0.4295
 1399SOL     OW15829   3.607   4.500   3.805 -1.1623  0.6526  0.1553
 1399SOL    HW115830   3.694   4.472   3.777 -1.3035 -0.5757  0.9753
 1399SOL    HW215831   3.607   4.592   3.776  0.1437  0.3807 -0.7061
 1400SOL     OW15832   0.292   2.234  12.548 -0.3760 -0.6827  0.1907
 1400SOL    HW115833   0.343   2.165  12.507  2.9647  2.7093 -1.3993
 1400SOL    HW215834   0.334   2.315  12.521  0.2659 -1.7269 -1.8819
 1401SOL     OW15835   4.635   4.227  11.176  0.3980  0.4405 -0.1825
 1401SOL    HW115836   4.633   4.268  11.089  0.4176  2.1616  0.6283
 1401SOL    HW215837   4.596   4.296  11.230 -2.6590 -1.9587  0.6890
 1402SOL     OW15838   0.841   1.820   6.552  0.1650 -0.3240  0.4605
 1402SOL    HW115839   0.814   1.841   6.642  2.4916 -0.5112  1.2057
 1402SOL    HW215840   0.835   1.725   6.558 -0.2228 -0.6120 -4.6260
 1403SOL     OW15841   1.981   4.019   2.000 -0.0501  0.3846 -0.0639
 1403SOL    HW115842   1.952   3.995   2.088  1.1115 -1.5091 -0.1998
 1403SOL    HW215843   2.072   4.027   2.026  0.2346  1.0506 -1.2806
 1404SOL     OW15844   3.421   4.453  12.955  0.0053 -0.3787  0.3561
 1404SOL    HW115845   3.472   4.423  13.030  0.2626 -0.1785  0.2621
 1404SOL    HW215846   3.335   4.454  12.998 -1.0264 -1.9449 -1.6846
 1405SOL     OW15847   2.928   0.060   7.944 -0.3784 -0.0134  0.0523
 1405SOL    HW115848   2.918   0.093   8.033  1.7379 -1.6024  0.8774
 1405SOL    HW215849   2.839   0.033   7.925  1.5621 -3.4117 -4.1695
 1406SOL     OW15850   0.372   2.910   2.424  0.0425  0.5423  0.1190
 1406SOL    HW115851   0.462   2.890   2.398  0.3249  2.3168 -0.2346
 1406SOL    HW215852   0.341   2.982   2.370 -0.3498  0.7151  0.5766
 1407SOL     OW15853   1.715   3.893   3.653  0.0053 -0.2554 -0.0814
 1407SOL    HW115854   1.675   3.893   3.567  0.2607  0.6679 -0.2027
 1407SOL    HW215855   1.793   3.948   3.640  1.5967 -1.9773  1.9998
 1408SOL     OW15856   3.414   3.845  14.937 -0.0139  0.0947  0.0266
 1408SOL    HW115857   3.367   3.811  14.860 -0.4123  1.5343 -0.3604
 1408SOL    HW215858   3.340   3.857  14.997  0.6162  1.9590  0.4168
 1409SOL     OW15859   2.700   3.594   8.887  0.4770 -0.0391 -0.2704
 1409SOL    HW115860   2.767   3.661   8.897  0.2764 -0.1460  1.7021
 1409SOL    HW215861   2.741   3.554   8.810 -1.2586 -0.3305 -1.0334
 1410SOL     OW15862   2.507   4.656  11.239 -0.0518  0.2168 -0.2424
 1410SOL    HW115863   2.557   4.669  11.320  0.0631  0.6329 -0.3800
 1410SOL    HW215864   2.571   4.643  11.169  0.8775  0.7519  0.5078
 1411SOL     OW15865   3.756   0.899   7.430  0.4880  0.2984 -0.1829
 1411SOL    HW115866   3.731   0.817   7.473 -1.2972  0.5300 -0.7843
 1411SOL    HW215867   3.701   0.957   7.484 -2.9850 -1.5157 -1.7877
 1412SOL     OW15868   3.922   3.532   2.154  0.5834 -0.4867  0.7216
 1412SOL    HW115869   3.985   3.473   2.112 -0.8344 -2.4995  1.3962
 1412SOL    HW215870   3.850   3.518   2.093  1.5051 -0.3780 -0.4031
 1413SOL     OW15871   0.397   0.214   3.120 -0.5101 -0.2796 -0.9769
 1413SOL    HW115872   0.449   0.158   3.062  1.1840  0.9923 -0.6835
 1413SOL    HW215873   0.392   0.155   3.195  1.4811 -0.9172 -1.3475
 1414SOL     OW15874   0.382   1.029   8.499 -0.5357 -0.5111  0.2891
 1414SOL    HW115875   0.400   1.046   8.591  1.4310  0.9548 -0.3722
 1414SOL    HW215876   0.369   0.935   8.513  0.5927 -1.1558 -2.9173
 1415SOL     OW15877   3.448   1.342   3.568 -0.2108 -0.1315  0.2743
 1415SOL    HW115878   3.412   1.351   3.656 -1.5855 -3.1420  0.0108
 1415SOL    HW215879   3.375   1.361   3.510  0.9930  1.5606 -0.7027
 1416SOL     OW15880   3.933   4.714   0.791  0.5574 -0.0098 -0.2877
 1416SOL    HW115881   4.023   4.698   0.762  0.7702 -2.5022  1.6636
 1416SOL    HW215882   3.904   0.050   0.742 -0.7296  0.3747  1.1036
 1417SOL     OW15883   2.722   2.484   5.284 -0.5710 -0.1655  0.3023
 1417SOL    HW115884   2.765   2.405   5.252 -0.0780  0.1759  0.1151
 1417SOL    HW215885   2.780   2.498   5.359 -0.2809  0.0324  0.0434
 1418SOL     OW15886   4.288   0.762   1.749 -0.0590  0.7956  0.6520
 1418SOL    HW115887   4.358   0.823   1.773  0.4832 -0.0029  1.1228
 1418SOL    HW215888   4.203   0.806   1.748 -1.1536 -1.2818  1.9165
 1419SOL     OW15889   4.708   0.885   6.130  0.1200 -0.1969  0.0483
 1419SOL    HW115890   4.730   0.866   6.039 -1.5404 -1.4539 -0.0930
 1419SOL    HW215891   4.670   0.971   6.112 -0.5159 -0.5555 -0.3510
 1420SOL     OW15892   1.285   1.918  10.462 -0.1493  0.3167  0.4160
 1420SOL    HW115893   1.263   1.938  10.552  2.0102  1.9911  0.5597
 1420SOL    HW215894   1.378   1.898  10.474  0.1164  0.7838 -0.8745
 1421SOL     OW15895   2.543   1.437   8.481  0.3248 -0.9464  0.2302
 1421SOL    HW115896   2.621   1.385   8.463  1.0892  0.7791 -1.4289
 1421SOL    HW215897   2.474   1.382   8.444  0.0986 -1.2554  1.1118
 1422SOL     OW15898   0.250   3.411   0.005  0.2037 -0.7490  0.5301
 1422SOL    HW115899   0.219   3.333  17.721  1.7751 -1.8486  1.3340
 1422SOL    HW215900   0.226   3.399   0.097 -0.1685  0.5688  0.5997
 1423SOL     OW15901   4.378   2.879   5.647 -0.2978 -0.1568 -0.2853
 1423SOL    HW115902   4.371   2.963   5.601  0.0517  0.6706  1.1647
 1423SOL    HW215903   4.297   2.832   5.628 -0.9592 -0.2479  2.7879
 1424SOL     OW15904   3.260   1.071   2.835  0.3944  0.0748 -0.0727
 1424SOL    HW115905   3.333   1.075   2.773  1.9607 -1.0674  1.6583
 1424SOL    HW215906   3.284   0.984   2.867  0.5413  0.2628  0.3219
 1425SOL     OW15907   2.581   3.878   3.879 -0.2078  0.0660 -0.0627
 1425SOL    HW115908   2.672   3.850   3.870 -0.7560 -1.5320 -0.7602
 1425SOL    HW215909   2.597   3.972   3.881 -1.5948  0.3516 -1.8906
 1426SOL     OW15910   2.387   2.752   7.228  0.2170  0.4497 -0.1088
 1426SOL    HW115911   2.307   2.717   7.189 -1.4476  2.4779  1.4782
 1426SOL    HW215912   2.396   2.700   7.308 -1.2260 -0.2583 -0.4094
 1427SOL     OW15913   3.296   1.103  13.338 -0.2025 -0.3385 -0.5094
 1427SOL    HW115914   3.348   1.028  13.308  1.3137  0.7901 -0.7130
 1427SOL    HW215915   3.354   1.176  13.317  1.9899 -2.2047 -1.0183
 1428SOL     OW15916   2.467   0.777  10.193 -0.1749  0.2589  0.4125
 1428SOL    HW115917   2.544   0.774  10.136 -0.9865 -0.5514 -0.6396
 1428SOL    HW215918   2.481   0.864  10.231  0.7202  0.6065 -0.7062
 1429SOL     OW15919   0.061   0.582   2.612  0.1016 -0.4118 -0.6817
 1429SOL    HW115920   4.728   0.600   2.671  0.4805 -0.0100 -0.3280
 1429SOL    HW215921   0.018   0.523   2.550 -0.9874 -0.5650  0.2135
 1430SOL     OW15922   0.937   2.356   3.353  0.3201 -0.1061  0.0278
 1430SOL    HW115923   1.003   2.328   3.417 -2.1946 -1.8422  1.8630
 1430SOL    HW215924   0.873   2.403   3.406  0.3649 -1.7578  1.5425
 1431SOL     OW15925   4.091   0.053  10.918 -0.0017  0.3984  0.0097
 1431SOL    HW115926   4.167   0.056  10.976 -0.1766 -0.1466  0.2711
 1431SOL    HW215927   4.105   4.715  10.865 -2.7583 -0.8322  1.0912
 1432SOL     OW15928   1.397   4.190  10.325 -0.3114 -0.5277 -0.3143
 1432SOL    HW115929   1.413   4.283  10.311  0.8739 -1.0745 -2.5884
 1432SOL    HW215930   1.422   4.188  10.417  0.9597  1.1233 -0.6289
 1433SOL     OW15931   0.458   1.353  14.051  0.8127  0.0720 -0.3148
 1433SOL    HW115932   0.499   1.404  14.121  1.1121 -0.4697 -0.0904
 1433SOL    HW215933   0.449   1.412  13.977  1.5334 -2.0042 -2.0736
 1434SOL     OW15934   1.970   1.176   4.831 -0.2407  0.2715 -0.6703
 1434SOL    HW115935   1.924   1.185   4.747  0.5190  1.8796 -0.9152
 1434SOL    HW215936   2.058   1.209   4.814 -0.4207  0.9629 -0.2795
 1435SOL     OW15937   0.064   4.601   6.508 -0.1694  0.0276  0.0123
 1435SOL    HW115938   0.156   4.626   6.519 -0.1624  0.4013 -0.9032
 1435SOL    HW215939   0.026   4.683   6.540  0.9332  0.4262  0.2973
 1436SOL     OW15940   1.314   4.231   5.497  0.1033 -0.4142 -0.1715
 1436SOL    HW115941   1.257   4.168   5.542 -2.2907  1.5679 -0.3940
 1436SOL    HW215942   1.347   4.170   5.432  0.3079  0.2783 -0.7075
 1437SOL     OW15943   2.202   3.961   3.382 -0.0278 -0.2377 -0.1073
 1437SOL    HW115944   2.218   3.911   3.462  1.9601 -2.6077 -1.9721
 1437SOL    HW215945   2.288   3.958   3.339 -0.9777 -2.9065 -1.8326
 1438SOL     OW15946   1.507   2.961   8.698  0.0797 -0.3990  0.0192
 1438SOL    HW115947   1.468   2.908   8.767 -0.1062 -0.1308  0.1218
 1438SOL    HW215948   1.566   2.894   8.664 -0.1977  0.2252 -1.7414
 1439SOL     OW15949   4.082   3.384   4.283  0.5381 -0.1397 -0.0550
 1439SOL    HW115950   4.162   3.340   4.313  0.5662 -1.2472 -1.7640
 1439SOL    HW215951   4.062   3.330   4.207 -1.1441 -0.1017  0.3701
 1440SOL     OW15952   3.175   3.369   2.938 -0.5291  0.3633  0.7923
 1440SOL    HW115953   3.171   3.438   2.872 -1.9156  0.2892  0.7975
 1440SOL    HW215954   3.221   3.422   3.004  0.1748 -0.2695  0.8007
 1441SOL     OW15955   4.001   3.836   5.797 -0.4464  0.8650 -0.0269
 1441SOL    HW115956   4.057   3.907   5.765  0.9235 -1.4555 -2.7324
 1441SOL    HW215957   3.999   3.776   5.722  0.2636  0.1124  0.5582
 1442SOL     OW15958   4.409   3.413   7.373 -0.1693 -0.0107 -0.4224
 1442SOL    HW115959   4.483   3.358   7.398  2.1913  2.6307 -1.4549
 1442SOL    HW215960   4.410   3.465   7.453 -2.9096 -3.2943  1.7079
 1443SOL     OW15961   1.446   3.216   7.225  0.0988  0.6346  0.1834
 1443SOL    HW115962   1.537   3.246   7.230  0.4622 -0.6145  0.9349
 1443SOL    HW215963   1.448   3.168   7.142  2.2052 -1.4153  1.4463
 1444SOL     OW15964   0.397   0.477  11.775 -0.1431 -0.3838  0.1570
 1444SOL    HW115965   0.446   0.459  11.855 -1.8943 -0.9035  1.1084
 1444SOL    HW215966   0.377   0.396  11.728 -2.2901  1.4900 -2.2133
 1445SOL     OW15967   2.014   3.554   3.957  0.9026 -0.0993 -0.2437
 1445SOL    HW115968   2.024   3.591   3.870  0.8204 -0.0215 -0.2206
 1445SOL    HW215969   1.919   3.564   3.961  0.9819  0.5963  0.0305
 1446SOL     OW15970   1.629   1.885   2.475  0.5105 -0.9242  0.2605
 1446SOL    HW115971   1.572   1.904   2.400  0.9382  0.7385  0.3498
 1446SOL    HW215972   1.710   1.915   2.432  0.7940 -1.5459  0.3587
 1447SOL     OW15973   4.008   0.119   0.379 -0.7607  0.2309  0.5183
 1447SOL    HW115974   4.078   0.054   0.380 -0.2460  0.7946  0.6789
 1447SOL    HW215975   3.947   0.090   0.310 -0.0334  0.5273 -0.2524
 1448SOL     OW15976   4.589   2.720   7.165 -0.0432 -0.3189 -0.5053
 1448SOL    HW115977   4.557   2.737   7.254 -0.9510 -3.8183 -0.1688
 1448SOL    HW215978   4.549   2.796   7.122  1.5320  1.1040  0.5179
 1449SOL     OW15979   0.877   4.539   9.546  0.1399 -0.3608  0.0826
 1449SOL    HW115980   0.784   4.537   9.568 -0.1655  1.8753 -1.0273
 1449SOL    HW215981   0.894   4.447   9.525 -3.3259 -0.9288 -0.1983
 1450SOL     OW15982   1.828   0.967  12.193 -0.1523  0.7815 -0.0271
 1450SOL    HW115983   1.770   0.903  12.235 -0.6464  1.3426  0.1613
 1450SOL    HW215984   1.769   0.996  12.124  1.4737 -0.0911 -1.7662
 1451SOL     OW15985   4.033   0.952   9.019  0.2902  0.1627 -0.1704
 1451SOL    HW115986   4.044   0.919   8.930 -1.3108 -0.5359 -0.1177
 1451SOL    HW215987   4.049   1.045   9.009 -1.2498  0.3966 -0.5062
 1452SOL     OW15988   4.296   4.670  16.908 -0.2467  0.6804  0.0214
 1452SOL    HW115989   4.320   4.721  16.985  0.4103 -0.4586  0.5857
 1452SOL    HW215990   4.268   4.588  16.949 -1.6315  0.9958 -0.3120
 1453SOL     OW15991   1.084   3.062  14.057 -0.0380 -0.1430 -0.8501
 1453SOL    HW115992   1.079   3.157  14.059  0.3897 -0.1254 -0.4975
 1453SOL    HW215993   1.026   3.047  14.131  2.3259  0.4287  1.1424
 1454SOL     OW15994   1.096   0.810   4.828 -0.0893 -0.5316 -0.1325
 1454SOL    HW115995   1.106   0.847   4.916 -2.5757 -0.2826  0.0344
 1454SOL    HW215996   1.058   0.723   4.829 -0.7208 -0.2357  0.9654
 1455SOL     OW15997   1.440   1.113  15.976  0.4261  0.0786  0.1489
 1455SOL    HW115998   1.447   1.153  15.889  1.1671  0.6404  0.4682
 1455SOL    HW215999   1.530   1.083  15.988  0.9186  0.7497 -1.8574
 1456SOL     OW16000   3.761   4.118   3.824 -0.0810  0.1954  0.2213
 1456SOL    HW116001   3.669   4.142   3.837  0.1894  0.8598  0.9417
 1456SOL    HW216002   3.759   4.123   3.729 -2.6264  0.5372  0.2892
 1457SOL     OW16003   3.744   0.158  10.249  0.4411 -0.2846  0.1825
 1457SOL    HW116004   3.734   0.063  10.236 -0.0625 -0.2468  0.2648
 1457SOL    HW216005   3.658   0.183  10.214  1.2081  1.2458 -0.5689
 1458SOL     OW16006   4.519   4.027   5.856 -0.2053 -0.5911 -0.6868
 1458SOL    HW116007   4.458   4.083   5.809  1.1984  1.0063 -0.6224
 1458SOL    HW216008   4.458   3.986   5.917 -1.9397  1.8273 -0.7920
 1459SOL     OW16009   1.202   2.683   2.875  0.5604  0.3457 -0.3747
 1459SOL    HW116010   1.130   2.622   2.894 -0.3864  0.6258 -2.9350
 1459SOL    HW216011   1.245   2.691   2.960 -0.3894 -1.9759  0.3132
 1460SOL     OW16012   0.430   0.769   8.106 -0.3763 -0.4724  0.2924
 1460SOL    HW116013   0.413   0.718   8.185  2.2749 -0.8526  0.5864
 1460SOL    HW216014   0.343   0.809   8.103 -1.3081 -2.6138 -1.8345
 1461SOL     OW16015   1.286   1.421   5.965  0.3206  0.1476 -0.5200
 1461SOL    HW116016   1.378   1.402   5.982  0.5869  1.4165 -0.5056
 1461SOL    HW216017   1.267   1.351   5.903  1.3534 -0.9391  0.3860
 1462SOL     OW16018   3.758   4.487  14.559 -0.1620  0.0921 -0.7477
 1462SOL    HW116019   3.765   4.539  14.639 -2.5872 -1.7783  0.6798
 1462SOL    HW216020   3.828   4.422  14.568  2.7493  3.3629  0.3895
 1463SOL     OW16021   4.371   2.858   8.130  0.0720  0.0102 -0.5528
 1463SOL    HW116022   4.311   2.933   8.138  1.0675  0.6520  0.8171
 1463SOL    HW216023   4.440   2.902   8.081  1.2463 -0.4656  0.6850
 1464SOL     OW16024   0.402   1.481   1.767 -0.1756 -0.2259 -0.4043
 1464SOL    HW116025   0.470   1.414   1.773 -0.0959 -0.0867  0.2220
 1464SOL    HW216026   0.330   1.432   1.805 -0.7511  1.9487  1.3165
 1465SOL     OW16027   2.832   1.754  14.452  0.2226  0.0437 -0.2687
 1465SOL    HW116028   2.764   1.737  14.387 -0.7231  4.1704 -0.3694
 1465SOL    HW216029   2.876   1.831  14.416  0.8642  0.3943  1.2549
 1466SOL     OW16030   3.343   2.036   5.627  0.5652  0.5089  0.3155
 1466SOL    HW116031   3.300   2.082   5.699  0.9667  2.6339 -0.7954
 1466SOL    HW216032   3.313   1.946   5.624  2.5592 -0.1214 -0.6061
 1467SOL     OW16033   4.124   3.371   5.991  0.2482 -0.3554  0.2727
 1467SOL    HW116034   4.215   3.346   6.007  1.0241  2.5286  0.2847
 1467SOL    HW216035   4.078   3.288   5.987 -2.6171  1.2561  0.1564
 1468SOL     OW16036   0.872   4.396   9.825 -0.3545  0.1256 -0.2756
 1468SOL    HW116037   0.881   4.313   9.778 -0.1225  0.7521 -1.3187
 1468SOL    HW216038   0.913   4.468   9.778 -2.0031  1.1939 -0.0732
 1469SOL     OW16039   2.708   0.322   2.109  0.0490 -0.3801 -0.2585
 1469SOL    HW116040   2.779   0.301   2.049  2.0278  2.0724  1.2124
 1469SOL    HW216041   2.687   0.237   2.148  0.7813 -0.0333  0.8993
 1470SOL     OW16042   1.225   1.410   4.590 -0.2223 -0.4329 -0.1715
 1470SOL    HW116043   1.174   1.453   4.659 -0.0231  0.4647 -0.5836
 1470SOL    HW216044   1.255   1.332   4.637 -0.4192 -0.2815  0.2078
 1471SOL     OW16045   3.996   3.112   5.977 -0.8580 -0.2150  0.4657
 1471SOL    HW116046   3.917   3.110   6.032 -1.5375  1.8509 -0.4389
 1471SOL    HW216047   3.960   3.093   5.890  0.5747 -0.9143  0.0311
 1472SOL     OW16048   1.685   0.454  14.158  0.0685 -1.0243  0.1398
 1472SOL    HW116049   1.735   0.374  14.143  0.2906 -1.6912  4.2786
 1472SOL    HW216050   1.748   0.518  14.191 -0.5479 -0.3800  0.0631
 1473SOL     OW16051   4.156   1.299   2.506  0.1010  0.0151  0.6424
 1473SOL    HW116052   4.180   1.228   2.447 -3.1638 -0.1350 -0.4997
 1473SOL    HW216053   4.112   1.257   2.579  0.4855  0.0741  0.9101
 1474SOL     OW16054   3.640   2.442   1.433 -0.3621  0.3667  0.0328
 1474SOL    HW116055   3.642   2.537   1.419 -2.2639  0.2317 -1.1883
 1474SOL    HW216056   3.729   2.426   1.402 -0.6327  0.0287 -0.5662
 1475SOL     OW16057   2.336   2.352   2.227 -0.1468  0.3450  0.1414
 1475SOL    HW116058   2.409   2.408   2.254 -0.6817  1.1779 -0.1281
 1475SOL    HW216059   2.269   2.418   2.245 -1.9066 -1.1078 -1.1746
 1476SOL     OW16060   3.129   0.785   4.688  0.0779 -0.3534  0.4091
 1476SOL    HW116061   3.162   0.848   4.752 -1.5999  2.4635 -1.5093
 1476SOL    HW216062   3.044   0.821   4.664  0.3228 -1.3173 -1.9464
 1477SOL     OW16063   4.049   2.193   2.267  0.0973  0.2949 -0.1128
 1477SOL    HW116064   4.095   2.270   2.298  0.8451 -0.6705  1.1996
 1477SOL    HW216065   4.063   2.145   2.349  2.3079  0.2880 -0.4935
 1478SOL     OW16066   2.145   2.044   6.268 -0.3688  0.7960 -0.2134
 1478SOL    HW116067   2.127   2.107   6.198  0.7087  0.5398 -0.7210
 1478SOL    HW216068   2.170   1.973   6.209  1.9227  1.5597 -0.1559
 1479SOL     OW16069   1.165   3.791  14.897 -0.2742 -0.2461  0.0943
 1479SOL    HW116070   1.254   3.791  14.862  0.8624  1.4943  2.9373
 1479SOL    HW216071   1.143   3.881  14.871  0.7368  0.0128  0.1170
 1480SOL     OW16072   4.339   4.417   6.289  0.5136  0.5833 -0.0952
 1480SOL    HW116073   4.276   4.462   6.232  0.0516 -1.3921 -1.1580
 1480SOL    HW216074   4.417   4.412   6.235 -0.4660  0.9314 -1.5271
 1481SOL     OW16075   1.402   1.261   3.123 -0.4683  0.1108  0.7818
 1481SOL    HW116076   1.394   1.177   3.078  0.4803 -0.2252  1.2430
 1481SOL    HW216077   1.373   1.322   3.055  1.0928  1.3952  1.2827
 1482SOL     OW16078   2.738   1.135  13.855  0.0655  0.0944  0.2043
 1482SOL    HW116079   2.777   1.167  13.774  0.2491 -2.8481 -0.8581
 1482SOL    HW216080   2.812   1.099  13.905  0.4039  0.4669 -0.0271
 1483SOL     OW16081   0.777   3.478   7.004  0.1554 -0.2399 -0.2872
 1483SOL    HW116082   0.860   3.497   7.049  0.8743  0.4040 -1.8779
 1483SOL    HW216083   0.724   3.543   7.049 -1.4512 -1.5147 -0.3480
 1484SOL     OW16084   0.529   2.271   1.456  0.4428  0.1855 -0.1282
 1484SOL    HW116085   0.608   2.280   1.509 -1.9066  1.4029  3.1242
 1484SOL    HW216086   0.521   2.176   1.449  0.2883  0.1420  0.6434
 1485SOL     OW16087   1.983   3.990  16.476 -0.3502  0.3874  0.2043
 1485SOL    HW116088   2.062   3.936  16.478 -1.4247 -1.1539  1.0194
 1485SOL    HW216089   1.975   4.002  16.381  3.0265 -1.2034 -0.2639
 1486SOL     OW16090   4.320   4.533   5.114 -0.4231  0.7777  0.5299
 1486SOL    HW116091   4.282   4.548   5.201 -0.7418  2.5900  0.0851
 1486SOL    HW216092   4.369   4.615   5.112 -1.1635  1.2175  0.2144
 1487SOL     OW16093   3.216   4.165  12.770  0.2735 -0.5630  0.3895
 1487SOL    HW116094   3.222   4.089  12.711  0.1700 -0.2135 -0.0691
 1487SOL    HW216095   3.280   4.133  12.834 -1.2973 -1.6661  1.3809
 1488SOL     OW16096   3.277   4.237   8.511 -0.6182 -1.3916 -0.4250
 1488SOL    HW116097   3.213   4.259   8.443 -0.4295  3.0132  0.8085
 1488SOL    HW216098   3.322   4.168   8.462 -0.1713 -1.3709 -0.0465
 1489SOL     OW16099   2.188   1.309   4.793  0.9269 -0.1059  0.0569
 1489SOL    HW116100   2.203   1.370   4.865 -0.3197 -1.6661  1.6239
 1489SOL    HW216101   2.172   1.359   4.713 -0.3480  1.5800  1.3766
 1490SOL     OW16102   2.438   2.649   3.075 -0.6110  0.4612 -0.2024
 1490SOL    HW116103   2.437   2.697   3.158  0.4337  1.4156 -0.7315
 1490SOL    HW216104   2.529   2.619   3.071 -1.4568 -1.7604 -2.4972
 1491SOL     OW16105   4.452   0.471   8.157 -0.8950 -0.4425  0.4721
 1491SOL    HW116106   4.543   0.440   8.156 -0.3051  1.4408 -2.2884
 1491SOL    HW216107   4.426   0.418   8.232  1.2212 -0.3466  1.2856
 1492SOL     OW16108   1.821   2.147   6.085  0.2246  0.6239  0.4082
 1492SOL    HW116109   1.780   2.109   6.162  0.0618  2.3836  1.1848
 1492SOL    HW216110   1.893   2.195   6.124 -0.5777  3.2435 -1.3178
 1493SOL     OW16111   0.937   4.026  15.160 -0.2800 -0.1421 -0.4598
 1493SOL    HW116112   0.982   3.945  15.184  0.5326  0.6011  0.5007
 1493SOL    HW216113   1.014   4.079  15.140 -0.2701 -0.0193 -0.0966
 1494SOL     OW16114   3.954   4.470   5.032  0.3369  0.1177  0.4545
 1494SOL    HW116115   4.012   4.534   5.074  0.6047  0.9066 -1.0908
 1494SOL    HW216116   4.012   4.445   4.960 -2.1203 -0.7373 -1.2374
 1495SOL     OW16117   4.081   4.562  10.291 -0.2907 -0.3331 -1.1691
 1495SOL    HW116118   4.094   4.631  10.357 -2.6933  0.6486 -1.7203
 1495SOL    HW216119   4.073   4.483  10.344  0.9202 -0.0752 -0.6144
 1496SOL     OW16120   0.998   1.992  17.050 -0.7311 -0.1054  0.1013
 1496SOL    HW116121   1.081   1.994  17.098  1.2269 -1.1759 -3.2082
 1496SOL    HW216122   1.011   1.912  17.000  0.9137  1.4398 -1.9787
 1497SOL     OW16123   2.406   0.489   4.779  0.0075 -0.0922 -0.6704
 1497SOL    HW116124   2.352   0.548   4.727 -0.7179 -0.0976  0.0863
 1497SOL    HW216125   2.413   0.413   4.722  1.1785  0.6053 -1.4605
 1498SOL     OW16126   3.734   0.823   3.299 -0.1383  0.2609 -0.6426
 1498SOL    HW116127   3.653   0.870   3.279 -0.4564 -0.1781 -0.3658
 1498SOL    HW216128   3.789   0.891   3.339  3.2114 -2.2292 -0.9852
 1499SOL     OW16129   3.898   2.640   5.761 -0.1354 -0.3762 -0.4392
 1499SOL    HW116130   3.883   2.731   5.788  2.7568  0.2989 -1.0402
 1499SOL    HW216131   3.820   2.622   5.709 -2.8451  2.3371  2.6671
 1500SOL     OW16132   0.719   1.121   9.646 -0.2472 -0.1092 -0.0810
 1500SOL    HW116133   0.685   1.061   9.712  1.9727 -0.2106  0.9825
 1500SOL    HW216134   0.788   1.060   9.622 -0.9365 -0.6809 -0.5787
 1501SOL     OW16135   1.464   2.876  10.676  0.3813  0.5713  0.4512
 1501SOL    HW116136   1.389   2.825  10.708 -0.1327 -0.4783 -2.3706
 1501SOL    HW216137   1.438   2.874  10.584  0.4564  3.6929  0.3665
 1502SOL     OW16138   1.868   0.522  16.114  0.7572  0.0471  0.4735
 1502SOL    HW116139   1.945   0.484  16.073 -0.3236  0.5373 -2.0518
 1502SOL    HW216140   1.852   0.594  16.052  2.5655  0.2858  0.2803
 1503SOL     OW16141   1.402   1.579   8.661 -0.2960 -0.5736  0.3280
 1503SOL    HW116142   1.388   1.491   8.626 -3.1529 -0.4632  1.2088
 1503SOL    HW216143   1.488   1.589   8.619 -0.8348 -2.7833 -1.2690
 1504SOL     OW16144   4.191   1.986  13.239  0.7149 -0.1017 -0.8777
 1504SOL    HW116145   4.109   1.944  13.216 -1.0073  2.6951  0.1378
 1504SOL    HW216146   4.232   1.918  13.292 -0.4265  1.0987  1.5205
 1505SOL     OW16147   0.290   4.395   4.367  0.3532 -0.2199  0.8494
 1505SOL    HW116148   0.373   4.411   4.412  0.9527  0.2457 -0.4090
 1505SOL    HW216149   0.282   4.483   4.328 -1.7384  0.7881  3.5341
 1506SOL     OW16150   3.461   0.271   2.926 -0.0832  0.3737  0.4802
 1506SOL    HW116151   3.495   0.262   2.837  0.5874  1.2350  0.6531
 1506SOL    HW216152   3.529   0.334   2.949  1.5511 -1.7946  1.6486
 1507SOL     OW16153   3.097   1.162   4.610  0.4808  0.1055  0.2616
 1507SOL    HW116154   3.172   1.103   4.618 -0.6948 -1.3210  0.7588
 1507SOL    HW216155   3.079   1.185   4.701 -1.2814 -1.0849  0.2088
 1508SOL     OW16156   0.997   3.420  12.273 -0.4025  0.2430  0.2031
 1508SOL    HW116157   1.039   3.452  12.352  0.3945  0.7094 -0.4178
 1508SOL    HW216158   0.918   3.474  12.280 -0.5494  0.0911 -0.2301
 1509SOL     OW16159   2.016   4.122  13.796 -0.2009 -0.1700  0.0958
 1509SOL    HW116160   2.032   4.123  13.890 -0.7422  3.2505  0.1609
 1509SOL    HW216161   2.077   4.051  13.775  1.0348  1.2625 -1.1859
 1510SOL     OW16162   3.950   2.968   7.168  0.0533 -0.0940 -0.1498
 1510SOL    HW116163   3.948   3.038   7.102 -1.8947 -0.5255 -0.5504
 1510SOL    HW216164   3.968   2.892   7.112 -0.9976 -0.7208  0.3641
 1511SOL     OW16165   0.119   1.261   0.209 -0.4352  0.3504  0.2943
 1511SOL    HW116166   0.050   1.309   0.164 -1.4824 -0.7698  0.6934
 1511SOL    HW216167   0.171   1.230   0.135 -2.6010 -1.6511 -0.3748
 1512SOL     OW16168   2.124   4.027   4.692  0.5821 -0.3070  0.5553
 1512SOL    HW116169   2.071   4.047   4.615 -1.3535 -2.8708  1.2050
 1512SOL    HW216170   2.201   3.995   4.645  0.3090  0.3864 -0.3622
 1513SOL     OW16171   2.248   2.465   1.170 -0.1614  0.3187 -0.1534
 1513SOL    HW116172   2.161   2.482   1.134  0.1554 -1.2253 -1.6596
 1513SOL    HW216173   2.307   2.518   1.116  2.2290 -3.5712 -1.3648
 1514SOL     OW16174   4.196   1.031  15.285 -0.2568 -0.1686  0.1580
 1514SOL    HW116175   4.156   1.103  15.334 -0.3384  0.7489 -1.2449
 1514SOL    HW216176   4.222   0.973  15.356  0.0753 -0.6892 -0.3865
 1515SOL     OW16177   2.442   4.263   0.168 -1.0708 -0.4456 -0.2877
 1515SOL    HW116178   2.395   4.211   0.232  1.5630 -1.4922  0.8233
 1515SOL    HW216179   2.412   4.211   0.094 -2.0961  0.5205 -0.5358
 1516SOL     OW16180   2.621   1.531   3.494 -0.0403 -0.4757 -0.1867
 1516SOL    HW116181   2.712   1.560   3.497  0.0405 -0.8391  0.9618
 1516SOL    HW216182   2.572   1.601   3.538 -2.7854 -2.2768 -0.3820
 1517SOL     OW16183   3.557   4.477  14.394 -0.0744  0.0929 -0.1745
 1517SOL    HW116184   3.626   4.483  14.460  0.6372 -0.3315 -0.8892
 1517SOL    HW216185   3.584   4.394  14.354  0.0278  0.0421 -0.0005
 1518SOL     OW16186   3.257   3.432   7.442  0.3661 -0.3315  1.0807
 1518SOL    HW116187   3.295   3.520   7.451 -1.5326  0.4951  0.9417
 1518SOL    HW216188   3.163   3.445   7.432  0.3796 -0.4589  0.7957
 1519SOL     OW16189   3.487   4.582   4.790 -0.2668 -0.0547  0.2688
 1519SOL    HW116190   3.516   4.574   4.881  0.9875  0.9581 -0.0462
 1519SOL    HW216191   3.572   4.591   4.748 -2.1034  1.5562 -3.1465
 1520SOL     OW16192   3.011   2.345   0.020  0.5279 -0.3367 -0.5992
 1520SOL    HW116193   2.915   2.350   0.019  0.4756 -1.2984 -0.1308
 1520SOL    HW216194   3.032   2.296   0.099  1.6066  0.2984 -0.4907
 1521SOL     OW16195   0.784   0.057   3.030  0.3795  0.0716  0.0945
 1521SOL    HW116196   0.845   4.732   2.999  2.7098  0.5023  3.7732
 1521SOL    HW216197   0.792   0.050   3.125  0.0135  4.4153  0.4878
 1522SOL     OW16198   3.832   1.266   0.167  0.1228 -0.2444 -0.1608
 1522SOL    HW116199   3.816   1.341   0.224  0.0616 -0.3164 -0.0841
 1522SOL    HW216200   3.761   1.276   0.104  0.2478 -0.0514 -0.2681
 1523SOL     OW16201   4.208   3.963   3.947 -0.2102  0.3942 -0.7791
 1523SOL    HW116202   4.241   3.972   4.037  1.8682  0.5788 -1.5446
 1523SOL    HW216203   4.128   4.014   3.941  0.0282  0.7097 -1.2581
 1524SOL     OW16204   1.735   3.969   6.973 -0.5595  0.3690 -0.1423
 1524SOL    HW116205   1.666   3.903   6.966  1.2711 -1.4027 -1.5859
 1524SOL    HW216206   1.779   3.961   6.888 -0.1204 -0.8254  0.1980
 1525SOL     OW16207   4.531   0.073  10.055  0.0483  0.4879 -0.5194
 1525SOL    HW116208   4.525   0.162  10.089  0.8437  1.0060 -1.7613
 1525SOL    HW216209   4.567   0.029  10.131  1.4364  0.1472 -1.3764
 1526SOL     OW16210   2.502   3.541   3.276 -0.5620 -0.1017  0.4533
 1526SOL    HW116211   2.501   3.485   3.354 -1.4259 -1.1032 -0.2795
 1526SOL    HW216212   2.415   3.581   3.288 -0.2047  1.1170 -1.0251
 1527SOL     OW16213   3.419   3.140  15.107 -0.3498 -0.0545 -0.0972
 1527SOL    HW116214   3.482   3.143  15.179  0.0146  0.7506 -0.4539
 1527SOL    HW216215   3.339   3.149  15.159  0.1226  1.5108  0.3411
 1528SOL     OW16216   3.246   4.447   8.964 -0.0911 -0.4282 -0.4804
 1528SOL    HW116217   3.186   4.384   9.005  1.8357 -1.3438  0.9268
 1528SOL    HW216218   3.322   4.421   9.015 -1.4769 -0.1261  1.7213
 1529SOL     OW16219   1.397   1.633   2.415 -0.1590  0.2975  0.1983
 1529SOL    HW116220   1.478   1.619   2.464 -0.3031 -1.8067 -0.1618
 1529SOL    HW216221   1.393   1.566   2.347  0.8736  0.3049  0.1291
 1530SOL     OW16222   1.180   0.818  16.593  0.1662 -0.4779 -0.1995
 1530SOL    HW116223   1.127   0.866  16.656 -0.3973 -2.7656  1.0925
 1530SOL    HW216224   1.126   0.740  16.581 -1.0751  0.4762 -0.6952
 1531SOL     OW16225   2.583   1.084   2.666 -0.1639 -0.2200  0.6265
 1531SOL    HW116226   2.547   1.105   2.580 -2.3949  0.7990  1.8262
 1531SOL    HW216227   2.654   1.029   2.631  0.1307  0.4044  0.2498
 1532SOL     OW16228   2.910   1.760   9.152  0.6645  0.6300 -0.6133
 1532SOL    HW116229   2.884   1.809   9.074  0.0842  0.7259 -0.3655
 1532SOL    HW216230   2.977   1.701   9.118  1.2637  0.3378  1.0699
 1533SOL     OW16231   3.968   2.959   3.193  0.0368 -0.0293 -0.1951
 1533SOL    HW116232   3.904   2.998   3.133  1.4945 -0.5694 -2.0843
 1533SOL    HW216233   3.955   3.011   3.273  0.2098 -1.4253  0.7509
 1534SOL     OW16234   3.814   2.508  11.300  0.2297  0.5975  0.5109
 1534SOL    HW116235   3.869   2.553  11.364  2.0781 -1.1273  0.1340
 1534SOL    HW216236   3.866   2.509  11.220 -0.1903  0.1731  0.2305
 1535SOL     OW16237   3.857   4.710  13.186 -0.4124 -0.3820  0.5305
 1535SOL    HW116238   3.768   0.002  13.175  0.4496  1.2296 -1.5753
 1535SOL    HW216239   3.871   4.729  13.279 -1.5911  1.5853  0.2964
 1536SOL     OW16240   3.030   4.478   5.026  0.3794 -0.7872  0.0672
 1536SOL    HW116241   2.958   4.498   5.085 -0.7221  3.4450 -2.6708
 1536SOL    HW216242   3.110   4.519   5.058 -0.1690 -0.4496  1.0121
 1537SOL     OW16243   3.494   3.324   4.989  0.2923 -0.0329 -0.5667
 1537SOL    HW116244   3.578   3.366   5.011  0.9398 -1.4687 -0.3407
 1537SOL    HW216245   3.482   3.261   5.060  0.0087 -0.5526 -1.0769
 1538SOL     OW16246   4.112   0.097   5.188 -0.0552 -0.2257 -0.4361
 1538SOL    HW116247   4.195   0.067   5.152  0.4670  1.0736 -0.3017
 1538SOL    HW216248   4.132   0.189   5.202 -1.2939 -0.3502  2.1581
 1539SOL     OW16249   1.299   3.374   8.833  0.1507 -0.2437 -0.8519
 1539SOL    HW116250   1.339   3.321   8.765 -0.7547  1.0793 -2.4106
 1539SOL    HW216251   1.259   3.310   8.892 -0.7167  1.7573  0.7542
 1540SOL     OW16252   2.011   4.377   5.668 -0.1706 -0.2368 -0.2176
 1540SOL    HW116253   1.936   4.416   5.713  0.5870  0.2596  0.6000
 1540SOL    HW216254   2.033   4.309   5.730  0.8090 -0.6505 -1.0272
 1541SOL     OW16255   2.631   1.805  10.221  0.5768 -0.3752 -0.0468
 1541SOL    HW116256   2.672   1.887  10.248 -0.3983  0.4194 -0.9852
 1541SOL    HW216257   2.608   1.820  10.129 -1.0663 -0.4504  0.3588
 1542SOL     OW16258   2.537   2.658   1.959 -0.1763 -0.2095  0.9843
 1542SOL    HW116259   2.627   2.673   1.929 -0.8738 -0.6399 -1.2496
 1542SOL    HW216260   2.489   2.636   1.879  0.3550 -0.8519  0.8359
 1543SOL     OW16261   2.862   0.486   7.740 -0.5428 -0.5953 -0.4274
 1543SOL    HW116262   2.926   0.504   7.672  0.7195 -1.7088  0.4542
 1543SOL    HW216263   2.895   0.539   7.813  2.0498 -3.0963  0.2180
 1544SOL     OW16264   3.835   3.617   5.865  0.2710 -0.4050  0.1916
 1544SOL    HW116265   3.851   3.706   5.836  2.0808  0.2804  3.2090
 1544SOL    HW216266   3.896   3.606   5.938 -0.4753  1.9685  1.1575
 1545SOL     OW16267   2.390   0.916   5.145 -0.7463  0.2833  0.4714
 1545SOL    HW116268   2.323   0.852   5.120  2.0355 -2.0539 -1.0674
 1545SOL    HW216269   2.334   0.982   5.185  0.4190  1.9241 -0.6195
 1546SOL     OW16270   2.373   1.731  16.240 -0.1869 -0.4949 -0.7140
 1546SOL    HW116271   2.335   1.817  16.261  2.6063  0.5008  0.3679
 1546SOL    HW216272   2.460   1.760  16.213 -0.3268  1.3538  0.7941
 1547SOL     OW16273   3.052   4.397  12.856  0.3638  0.2729 -0.0199
 1547SOL    HW116274   3.099   4.314  12.848  1.4590  0.9560 -0.5431
 1547SOL    HW216275   3.100   4.443  12.925  0.7751  2.5611 -1.8442
 1548SOL     OW16276   2.433   4.736  17.421 -0.8094  0.2452 -0.1146
 1548SOL    HW116277   2.483   4.714  17.500 -2.1187  2.7890  1.4450
 1548SOL    HW216278   2.343   4.718  17.449  0.2131 -0.1548  2.9689
 1549SOL     OW16279   3.356   3.124  11.381 -0.4997 -0.6702  0.3010
 1549SOL    HW116280   3.354   3.043  11.330  0.5280 -1.1415  1.0147
 1549SOL    HW216281   3.333   3.186  11.311 -0.9911 -0.9816  0.1876
 1550SOL     OW16282   3.989   1.132  16.995  0.0928 -0.6574  0.5963
 1550SOL    HW116283   3.972   1.181  17.075 -0.0002 -0.8171  0.6749
 1550SOL    HW216284   3.937   1.055  17.018 -0.8470 -0.4218 -0.7252
 1551SOL     OW16285   0.930   3.768   6.920  0.1267  0.8701 -0.1046
 1551SOL    HW116286   0.848   3.795   6.961 -2.1206 -0.7743 -3.4499
 1551SOL    HW216287   0.994   3.819   6.969  0.6503 -1.0609  1.2383
 1552SOL     OW16288   2.716   3.744   7.490  0.1739 -0.0589 -1.1149
 1552SOL    HW116289   2.763   3.730   7.408 -0.0739  0.2722 -1.3112
 1552SOL    HW216290   2.787   3.713   7.547 -2.2217 -0.0697  1.8323
 1553SOL     OW16291   0.536   0.657   5.762  0.4066  0.0153 -0.7238
 1553SOL    HW116292   0.540   0.750   5.740  1.4971 -0.3593 -2.1439
 1553SOL    HW216293   0.444   0.638   5.743  0.3276 -0.2639 -0.0527
 1554SOL     OW16294   3.469   1.549   7.267 -0.1410  0.0127 -0.4201
 1554SOL    HW116295   3.502   1.597   7.191 -0.6226 -0.8640 -1.1988
 1554SOL    HW216296   3.449   1.624   7.323  0.6513 -1.5262  1.9065
 1555SOL     OW16297   0.331   4.002   2.665  0.3379 -0.0619 -0.1145
 1555SOL    HW116298   0.362   3.926   2.616 -2.7854 -2.1160  1.1115
 1555SOL    HW216299   0.239   3.980   2.679  0.4514  0.0987  0.9502
 1556SOL     OW16300   1.233   0.377   8.114 -0.7707  0.1082  0.3788
 1556SOL    HW116301   1.190   0.424   8.042 -0.8639  2.6417  2.1285
 1556SOL    HW216302   1.249   0.291   8.075 -0.9349 -0.1789  0.9495
 1557SOL     OW16303   1.320   2.528  12.417  0.2019 -0.2651  0.0523
 1557SOL    HW116304   1.400   2.476  12.410  0.9103  0.5647  1.9210
 1557SOL    HW216305   1.301   2.529  12.511 -1.1460 -1.2754 -0.2139
 1558SOL     OW16306   4.571   1.770   4.687 -0.1501 -0.4684 -0.4379
 1558SOL    HW116307   4.641   1.835   4.677  0.7185 -1.0918  1.5789
 1558SOL    HW216308   4.532   1.795   4.771 -0.2020  2.7868 -1.4509
 1559SOL     OW16309   1.224   2.543   3.885  0.3831 -0.4893 -0.1310
 1559SOL    HW116310   1.317   2.565   3.875  0.4516 -1.0442 -0.7420
 1559SOL    HW216311   1.179   2.615   3.842 -0.4714 -1.5829 -1.0832
 1560SOL     OW16312   1.200   3.260   3.760 -0.4813  0.1003 -0.3758
 1560SOL    HW116313   1.149   3.322   3.812 -2.7446 -2.6275  0.6726
 1560SOL    HW216314   1.289   3.294   3.759 -0.8826  1.1685  0.5296
 1561SOL     OW16315   4.646   0.521   5.171 -0.1847 -0.2722  0.3309
 1561SOL    HW116316   4.636   0.585   5.100  1.8767 -0.3730 -0.0613
 1561SOL    HW216317   4.729   0.550   5.208 -0.4969 -0.0533  0.8593
 1562SOL     OW16318   4.735   3.067  17.686 -0.6563  0.2355 -0.1115
 1562SOL    HW116319   4.731   3.111  17.601  0.6494  3.8973  1.6875
 1562SOL    HW216320   4.644   3.045  17.706 -0.4296 -0.3007  0.3081
 1563SOL     OW16321   0.521   0.176   6.159  1.0528  0.5047 -0.3682
 1563SOL    HW116322   0.565   0.209   6.081 -0.0540  1.4715 -0.5828
 1563SOL    HW216323   0.434   0.165   6.121  1.1237 -2.7743  0.4935
 1564SOL     OW16324   0.966   0.337   3.973  0.1700  0.1480  0.5392
 1564SOL    HW116325   0.902   0.398   4.009 -0.1168  0.3952 -0.3948
 1564SOL    HW216326   0.979   0.276   4.045  0.2904 -1.4032 -0.7910
 1565SOL     OW16327   4.664   0.613   7.276  0.5127 -0.3892  0.4444
 1565SOL    HW116328   4.618   0.665   7.210  1.0816  1.2541  1.3528
 1565SOL    HW216329   4.659   0.522   7.246 -0.6420  0.3506 -1.6504
 1566SOL     OW16330   0.792   3.766   8.186  0.4936  0.3387  0.3503
 1566SOL    HW116331   0.725   3.734   8.126  1.1576  0.9261 -0.7058
 1566SOL    HW216332   0.752   3.841   8.230 -0.7368  1.0292 -1.9718
 1567SOL     OW16333   4.500   1.591   3.459 -0.3843 -0.4344  0.2317
 1567SOL    HW116334   4.543   1.669   3.423 -0.7285 -0.9989 -1.3878
 1567SOL    HW216335   4.583   1.549   3.480 -0.6041 -0.8786  0.2192
 1568SOL     OW16336   4.393   1.530  13.598  0.3222 -0.0045 -0.6068
 1568SOL    HW116337   4.342   1.595  13.550 -1.1386  0.0070  0.9649
 1568SOL    HW216338   4.455   1.582  13.648  0.7948 -0.9546 -0.2050
 1569SOL     OW16339   4.197   2.272   6.277  0.5122 -0.5052  0.0359
 1569SOL    HW116340   4.287   2.265   6.309  0.3705  1.7524  0.8986
 1569SOL    HW216341   4.145   2.292   6.355  2.6414 -0.9455  1.5590
 1570SOL     OW16342   4.506   2.403   1.703 -0.4328  0.0389 -0.5114
 1570SOL    HW116343   4.511   2.336   1.634  0.3987 -0.3664 -0.0609
 1570SOL    HW216344   4.583   2.449   1.670 -0.2548  0.6535  0.7688
 1571SOL     OW16345   1.162   0.619   4.197  0.1581 -0.5330  0.3982
 1571SOL    HW116346   1.204   0.636   4.113 -0.0315 -1.4771  0.1100
 1571SOL    HW216347   1.186   0.694   4.251 -1.6886  0.0543  0.3910
 1572SOL     OW16348   0.926   2.722  10.212 -0.2046 -0.1788  0.3628
 1572SOL    HW116349   0.949   2.812  10.189 -2.0090  0.5842  1.5187
 1572SOL    HW216350   0.842   2.732  10.258  0.5380  0.3908  1.5916
 1573SOL     OW16351   0.700   3.104   4.754 -0.1724  0.3526 -0.1344
 1573SOL    HW116352   0.652   3.058   4.685 -1.4051  0.6933  0.5062
 1573SOL    HW216353   0.693   3.196   4.730  0.0238  0.3648 -0.1458
 1574SOL     OW16354   2.095   2.644   9.102  0.3434  0.3618 -0.4968
 1574SOL    HW116355   2.143   2.633   9.020  0.8924 -1.1970  0.0281
 1574SOL    HW216356   2.062   2.556   9.120  0.9695  0.2720  0.2178
 1575SOL     OW16357   2.147   0.708   8.398 -0.1397 -0.2235  0.2023
 1575SOL    HW116358   2.199   0.720   8.478 -0.5745  3.2209 -0.0200
 1575SOL    HW216359   2.187   0.773   8.341 -1.9819 -1.0417 -2.0060
 1576SOL     OW16360   0.081   3.327   8.182  0.2138  0.0249  0.1161
 1576SOL    HW116361   0.053   3.254   8.237  4.6719 -0.4641  1.7361
 1576SOL    HW216362   0.120   3.274   8.112  0.1778  0.4354 -0.2163
 1577SOL     OW16363   0.200   3.591  12.001  0.2972 -0.0891 -0.2971
 1577SOL    HW116364   0.143   3.580  11.925 -1.6969  0.4465  1.1095
 1577SOL    HW216365   0.259   3.659  11.967 -1.1096  0.8340 -0.8949
 1578SOL     OW16366   2.385   4.385   7.882 -0.1559  0.3914  0.2662
 1578SOL    HW116367   2.378   4.299   7.842  0.3396  0.4503  0.0524
 1578SOL    HW216368   2.478   4.408   7.893  0.3024 -0.6370 -1.4755
 1579SOL     OW16369   1.021   1.367   3.366 -0.2662 -0.0340  0.2348
 1579SOL    HW116370   1.107   1.335   3.392 -0.2828  0.0848  0.4357
 1579SOL    HW216371   1.014   1.330   3.278 -2.4322  1.9927 -0.4658
 1580SOL     OW16372   1.820   0.744  15.952 -0.7023 -0.5209  0.0582
 1580SOL    HW116373   1.913   0.753  15.969 -0.5991  0.4587 -0.9923
 1580SOL    HW216374   1.821   0.746  15.857 -2.1440 -1.0011  0.0270
 1581SOL     OW16375   0.449   1.464   9.140  0.5057  0.4338 -0.1223
 1581SOL    HW116376   0.469   1.500   9.054 -0.4636 -0.2385 -0.6310
 1581SOL    HW216377   0.412   1.543   9.180 -1.2480 -0.1625 -0.5587
 1582SOL     OW16378   3.316   2.785   8.583 -0.0184 -0.4242  0.5322
 1582SOL    HW116379   3.270   2.786   8.668 -1.8815  1.7540 -0.5070
 1582SOL    HW216380   3.373   2.708   8.590  1.4568  0.5872 -0.4724
 1583SOL     OW16381   1.465   1.406   9.669  0.8014 -0.0035 -0.0264
 1583SOL    HW116382   1.473   1.349   9.593  0.8728  0.0935 -0.0902
 1583SOL    HW216383   1.371   1.427   9.664  0.9751  0.2211 -2.1554
 1584SOL     OW16384   4.631   0.911   8.116  0.4955 -0.2657 -0.0702
 1584SOL    HW116385   4.545   0.881   8.086  0.8155 -0.8742 -0.3735
 1584SOL    HW216386   4.639   1.004   8.092 -2.0573 -0.6605 -2.4975
 1585SOL     OW16387   3.382   1.549   3.886  0.0193 -0.0800 -0.5049
 1585SOL    HW116388   3.326   1.499   3.946  0.6370  0.8860  0.8893
 1585SOL    HW216389   3.336   1.631   3.871  2.0137  0.9213 -1.1311
 1586SOL     OW16390   3.439   2.497   7.763 -0.0181  0.4926 -0.4587
 1586SOL    HW116391   3.352   2.465   7.789 -0.5426  2.2237 -0.1242
 1586SOL    HW216392   3.460   2.563   7.829  0.5892  0.0725 -0.2319
 1587SOL     OW16393   4.678   0.013  11.148 -0.6200  0.2217 -0.1409
 1587SOL    HW116394   4.700   0.037  11.238 -0.3790  0.4642 -0.2625
 1587SOL    HW216395   4.733   0.078  11.105  0.4154 -0.0139  0.8378
 1588SOL     OW16396   3.824   2.544   3.211  0.0661 -0.4514  0.3555
 1588SOL    HW116397   3.753   2.531   3.148 -0.2376 -0.9169  0.7938
 1588SOL    HW216398   3.895   2.487   3.184  2.1313  2.2124  0.1624
 1589SOL     OW16399   0.474   2.051  16.533  0.2260  0.2345 -0.5806
 1589SOL    HW116400   0.469   2.135  16.578 -1.9043  0.1208 -0.6253
 1589SOL    HW216401   0.567   2.028  16.540  0.2040  0.1995 -0.3984
 1590SOL     OW16402   1.887   4.503  16.364  0.4589  0.1113 -0.5073
 1590SOL    HW116403   1.906   4.591  16.395 -1.2196 -0.3686  1.8641
 1590SOL    HW216404   1.961   4.480  16.306  0.2569  0.7495 -1.0144
 1591SOL     OW16405   2.897   2.950   6.253  0.2357 -0.1418 -0.0518
 1591SOL    HW116406   2.965   2.989   6.307  0.4218 -1.2968  0.5439
 1591SOL    HW216407   2.822   2.948   6.313  0.7310  1.0528  0.6065
 1592SOL     OW16408   4.619   2.636   2.875 -0.4140  0.1140  0.3746
 1592SOL    HW116409   4.665   2.629   2.792 -0.9243 -0.4784  0.1359
 1592SOL    HW216410   4.605   2.541   2.882  0.9311 -0.1342 -0.3779
 1593SOL     OW16411   1.339   2.791  10.446  0.1965 -0.2966  0.2095
 1593SOL    HW116412   1.245   2.796  10.426  0.3891 -2.9201 -1.3384
 1593SOL    HW216413   1.362   2.710  10.401 -0.2613 -0.0821 -0.4212
 1594SOL     OW16414   1.155   1.388   6.212  0.2497  0.4738  0.1186
 1594SOL    HW116415   1.119   1.301   6.226  1.2824  0.2738  1.5588
 1594SOL    HW216416   1.178   1.388   6.118  1.6595  1.5421  0.4583
 1595SOL     OW16417   0.759   2.454  15.528 -0.3334 -0.4022  0.2479
 1595SOL    HW116418   0.771   2.542  15.492  1.7768 -0.2446  1.3541
 1595SOL    HW216419   0.835   2.411  15.490  0.6739  1.5996  0.0090
 1596SOL     OW16420   4.078   0.407   5.639 -0.0736 -0.0504  0.1105
 1596SOL    HW116421   4.123   0.362   5.568  1.5631  2.2854 -0.3253
 1596SOL    HW216422   4.156   0.430   5.690  0.2959  0.5497 -0.7343
 1597SOL     OW16423   1.631   2.173   3.642 -0.0189  0.2648 -0.4045
 1597SOL    HW116424   1.600   2.237   3.578  2.9324 -0.2366 -2.3323
 1597SOL    HW216425   1.722   2.199   3.653 -0.3261  1.5482 -0.8446
 1598SOL     OW16426   0.571   0.704   6.032  0.2648 -0.0360 -0.2602
 1598SOL    HW116427   0.543   0.671   5.946 -0.9078 -0.5812  0.3318
 1598SOL    HW216428   0.575   0.625   6.085 -2.5162  0.3001  0.4681
 1599SOL     OW16429   2.439   3.614   8.964  0.0520  0.2066  0.4161
 1599SOL    HW116430   2.403   3.526   8.970  3.0002 -0.8595  2.2379
 1599SOL    HW216431   2.524   3.596   8.923  0.6817  1.0070  1.3887
 1600SOL     OW16432   2.717   4.183  11.917 -0.0901  0.2862  0.1846
 1600SOL    HW116433   2.760   4.239  11.853  0.6449  0.3109  0.6865
 1600SOL    HW216434   2.706   4.105  11.863  2.8185  0.0834 -0.1434
 1601SOL     OW16435   3.553   0.709  12.186 -0.1297 -0.5407 -0.8206
 1601SOL    HW116436   3.484   0.770  12.214 -0.1401 -0.6748 -0.5618
 1601SOL    HW216437   3.515   0.703  12.098 -0.2481 -0.1363 -0.7987
 1602SOL     OW16438   4.038   0.595   7.321  0.1932 -0.2301 -0.6148
 1602SOL    HW116439   4.121   0.615   7.364 -1.1485  1.5000  1.1784
 1602SOL    HW216440   4.012   0.685   7.302  0.4506 -0.5640 -2.4883
 1603SOL     OW16441   4.371   4.208   2.042  0.6056 -0.2474 -0.4872
 1603SOL    HW116442   4.353   4.114   2.038  2.6898 -0.5582 -2.7608
 1603SOL    HW216443   4.279   4.234   2.038  0.4436 -0.9126 -1.1466
 1604SOL     OW16444   4.280   4.332  16.734  0.4646 -0.2797  0.2341
 1604SOL    HW116445   4.333   4.333  16.654 -0.3633 -0.8796 -0.3269
 1604SOL    HW216446   4.198   4.377  16.712  1.8794  2.1048 -0.1786
 1605SOL     OW16447   0.177   0.781   3.247  0.1342 -0.3127 -0.3132
 1605SOL    HW116448   0.192   0.752   3.157 -1.7389  1.1741 -1.0962
 1605SOL    HW216449   0.216   0.706   3.292 -1.2406 -0.3205  0.8656
 1606SOL     OW16450   4.545   4.110   3.648  0.0200 -0.6632  0.0566
 1606SOL    HW116451   4.491   4.119   3.569  0.0128 -2.2201 -0.1194
 1606SOL    HW216452   4.480   4.153   3.704 -1.3287  0.3742 -2.2918
 1607SOL     OW16453   1.895   4.367  13.010 -0.4446  0.1304  0.5563
 1607SOL    HW116454   1.802   4.364  12.988 -0.1265  1.3889 -0.9758
 1607SOL    HW216455   1.905   4.276  13.039  1.1927  0.7109  1.8341
 1608SOL     OW16456   3.942   4.563   3.955 -0.3863 -0.2694 -0.3963
 1608SOL    HW116457   3.913   4.630   4.017  0.2026 -2.5985  2.4075
 1608SOL    HW216458   3.984   4.500   4.014 -1.4874 -0.5129  0.1104
 1609SOL     OW16459   3.760   0.018   2.396 -0.2747  0.6540  0.2820
 1609SOL    HW116460   3.688   0.028   2.334  1.0665  1.7883 -1.1035
 1609SOL    HW216461   3.771   0.109   2.425 -1.5299  0.6563  0.7295
 1610SOL     OW16462   2.104   0.886  17.051  0.1953  0.0797 -0.0238
 1610SOL    HW116463   2.141   0.839  16.977 -1.0028  1.7209 -1.6471
 1610SOL    HW216464   2.031   0.936  17.016 -0.6728 -0.2816  1.2536
 1611SOL     OW16465   4.307   0.797   2.363  0.4485 -0.6332 -0.3068
 1611SOL    HW116466   4.371   0.779   2.432  1.7487  1.9980 -0.8233
 1611SOL    HW216467   4.340   0.751   2.286  2.0323  1.3926 -0.8381
 1612SOL     OW16468   4.588   1.659  14.348  0.7690 -0.6286  0.0311
 1612SOL    HW116469   4.660   1.718  14.370  0.2678  1.2131 -3.0880
 1612SOL    HW216470   4.569   1.696  14.261 -0.2962 -3.4042 -0.9197
 1613SOL     OW16471   3.948   2.809   5.082 -0.3004 -0.0632  0.1626
 1613SOL    HW116472   3.921   2.900   5.068 -0.3953  0.0241  0.9251
 1613SOL    HW216473   3.875   2.777   5.135 -0.8016  1.5177  0.4504
 1614SOL     OW16474   3.232   2.879   8.344 -0.9272  0.3154  0.0828
 1614SOL    HW116475   3.144   2.885   8.382 -0.4592  1.0706  1.0266
 1614SOL    HW216476   3.278   2.855   8.424 -2.2780 -1.9355  0.2114
 1615SOL     OW16477   3.221   3.516   2.390 -0.2746  0.1298 -0.5967
 1615SOL    HW116478   3.240   3.435   2.343 -2.4352 -0.2123 -0.8706
 1615SOL    HW216479   3.130   3.502   2.416  0.5671 -3.6998  0.3508
 1616SOL     OW16480   0.093   1.127   7.851  0.0939 -0.5098  0.0121
 1616SOL    HW116481   0.187   1.144   7.852 -0.5188  2.8239 -0.8228
 1616SOL    HW216482   0.095   1.043   7.804  0.8328 -1.1090  1.1071
 1617SOL     OW16483   4.373   1.281   3.948 -0.2562  0.1398  0.1504
 1617SOL    HW116484   4.363   1.375   3.959  2.7046  0.4761 -0.0038
 1617SOL    HW216485   4.397   1.283   3.855 -3.1796 -0.2433 -0.6151
 1618SOL     OW16486   4.548   2.745   7.456  0.2416 -0.3151 -0.0349
 1618SOL    HW116487   4.521   2.778   7.542 -0.1956 -0.7573 -0.0046
 1618SOL    HW216488   4.579   2.656   7.473 -1.1000 -0.6554  0.5887
 1619SOL     OW16489   4.486   0.497   6.937  0.2475 -0.0230 -0.5356
 1619SOL    HW116490   4.471   0.431   7.005  0.0029  0.3107 -0.2625
 1619SOL    HW216491   4.580   0.506   6.951  0.4259  0.2926 -1.9586
 1620SOL     OW16492   2.127   3.316   1.559  0.0916 -0.0546  0.2245
 1620SOL    HW116493   2.169   3.323   1.646 -0.7581  0.2656  0.6052
 1620SOL    HW216494   2.051   3.266   1.587  0.9493 -0.7363  1.3443
 1621SOL     OW16495   1.223   1.957  17.177 -0.4706  0.5103 -0.2600
 1621SOL    HW116496   1.299   1.903  17.157 -0.1594  0.9944 -0.3869
 1621SOL    HW216497   1.204   1.919  17.263  0.5004 -1.3318 -0.8514
 1622SOL     OW16498   1.509   4.192  11.761  0.0709 -0.0716  0.7105
 1622SOL    HW116499   1.485   4.239  11.841  0.6743  0.1896  0.7343
 1622SOL    HW216500   1.418   4.183  11.734  0.4405  3.3384 -1.7225
 1623SOL     OW16501   1.068   4.056  11.385  0.4103  0.2186 -0.4399
 1623SOL    HW116502   1.027   4.010  11.458  0.2682  0.3803 -0.4191
 1623SOL    HW216503   1.082   4.139  11.432  1.9548 -1.9408  2.9776
 1624SOL     OW16504   0.637   3.816   2.024  0.7881  0.2179 -0.0202
 1624SOL    HW116505   0.594   3.902   2.027  1.0352  0.2871  1.7557
 1624SOL    HW216506   0.559   3.764   2.043  0.2468  1.2575  0.6183
 1625SOL     OW16507   1.630   1.341   1.773 -0.1273  0.0220  0.7421
 1625SOL    HW116508   1.628   1.436   1.760 -3.7476 -0.0162  1.0436
 1625SOL    HW216509   1.724   1.326   1.764 -0.1027 -0.3424  1.6069
 1626SOL     OW16510   1.167   2.372   8.283  0.5893 -1.0843 -0.8649
 1626SOL    HW116511   1.148   2.347   8.193  0.2889 -1.0579 -0.8085
 1626SOL    HW216512   1.242   2.314   8.298  2.3870  1.7584  1.1678
 1627SOL     OW16513   3.898   1.681   2.551 -0.3582  0.2276 -0.1593
 1627SOL    HW116514   3.935   1.707   2.467  0.8145 -0.4554  0.1516
 1627SOL    HW216515   3.834   1.750   2.569 -0.1926  0.5242 -0.7129
 1628SOL     OW16516   0.773   1.516   7.862 -0.1370 -0.3064 -0.0679
 1628SOL    HW116517   0.681   1.543   7.862  0.5073  1.8784 -0.4709
 1628SOL    HW216518   0.769   1.435   7.914 -1.0885 -1.3218 -1.7097
 1629SOL     OW16519   0.367   2.787   4.956  0.2719 -0.0745  0.2557
 1629SOL    HW116520   0.428   2.747   4.895  0.6222  0.3709  0.3140
 1629SOL    HW216521   0.331   2.710   5.001 -2.5944 -0.0705 -2.0550
 1630SOL     OW16522   0.505   4.057   2.069  0.7692  0.5002 -0.0613
 1630SOL    HW116523   0.428   4.033   2.017  0.3270 -0.2361  0.9420
 1630SOL    HW216524   0.511   4.151   2.056 -0.1972  0.8016  1.7555
 1631SOL     OW16525   1.493   2.070   3.848  0.1573 -0.8370 -0.0510
 1631SOL    HW116526   1.420   2.049   3.789 -1.5879  1.1525  1.3615
 1631SOL    HW216527   1.553   2.116   3.789 -2.4827  0.7895 -1.4801
 1632SOL     OW16528   4.525   2.625   5.348  0.5967  0.1279  0.5615
 1632SOL    HW116529   4.486   2.592   5.267  1.5824 -1.1002  0.6018
 1632SOL    HW216530   4.554   2.709   5.312  0.6877 -0.0783  0.1486
 1633SOL     OW16531   0.873   1.937   4.322 -0.0737  0.0746 -0.1295
 1633SOL    HW116532   0.863   1.921   4.228  1.2912  0.3647 -0.3188
 1633SOL    HW216533   0.822   2.018   4.332  1.2451  0.7076  1.4184
 1634SOL     OW16534   0.880   0.375   6.127  0.1284 -0.0302  0.4086
 1634SOL    HW116535   0.931   0.295   6.115 -1.0347 -0.6348 -0.5085
 1634SOL    HW216536   0.910   0.402   6.214 -4.0947  0.9167  1.5972
 1635SOL     OW16537   0.443   2.531   0.230  0.2734  0.6265  0.1285
 1635SOL    HW116538   0.515   2.481   0.191 -2.2852 -1.1006 -2.4388
 1635SOL    HW216539   0.433   2.597   0.161 -1.1153 -0.5154 -0.7847
 1636SOL     OW16540   3.469   2.481   6.167  0.1122  0.6993 -0.3271
 1636SOL    HW116541   3.538   2.419   6.145  0.3566  0.4434  1.1483
 1636SOL    HW216542   3.480   2.557   6.111  0.8816  1.3519  0.7173
 1637SOL     OW16543   3.113   2.402   4.273 -0.1072  0.1290  0.4099
 1637SOL    HW116544   3.032   2.439   4.239 -0.9745 -3.2376 -1.1659
 1637SOL    HW216545   3.155   2.373   4.192  0.7667  0.7844  0.6314
 1638SOL     OW16546   0.547   2.754   1.015 -0.4385  0.6654  0.1009
 1638SOL    HW116547   0.545   2.749   1.111 -2.7053 -1.4133 -0.0630
 1638SOL    HW216548   0.483   2.820   0.990  0.1437  1.2888  0.2374
 1639SOL     OW16549   4.278   0.890   9.078  0.3400 -0.2729  0.0205
 1639SOL    HW116550   4.266   0.841   9.159  0.9346 -0.0286  0.2546
 1639SOL    HW216551   4.188   0.916   9.058  0.5202 -0.9693 -1.7854
 1640SOL     OW16552   0.148   3.938   5.508  0.4535 -0.2648 -0.2327
 1640SOL    HW116553   0.085   3.867   5.522 -1.8650  1.8989  0.2360
 1640SOL    HW216554   0.231   3.892   5.522  0.9663  0.1367 -2.0384
 1641SOL     OW16555   0.139   1.609   2.714  0.6155 -0.9814  0.1564
 1641SOL    HW116556   0.197   1.652   2.777  1.8822 -2.8360  0.2552
 1641SOL    HW216557   0.177   1.523   2.697 -0.5600 -1.4473 -0.1297
 1642SOL     OW16558   4.391   4.088   7.249 -0.1021 -0.1438 -0.0322
 1642SOL    HW116559   4.487   4.089   7.249 -0.0838  0.6033 -4.2268
 1642SOL    HW216560   4.367   4.109   7.158  0.4882  0.6660 -0.0091
 1643SOL     OW16561   4.106   1.508  11.051  0.0615 -0.0110  0.3028
 1643SOL    HW116562   4.027   1.555  11.021 -0.3659 -0.3844  0.8408
 1643SOL    HW216563   4.140   1.498  10.962  1.3670 -0.6117  0.8732
 1644SOL     OW16564   4.477   3.398   3.117 -0.0558  0.5575  0.3954
 1644SOL    HW116565   4.462   3.390   3.023  0.0057  0.4922  0.3913
 1644SOL    HW216566   4.559   3.348   3.120  1.1732  2.6079  1.2129
 1645SOL     OW16567   3.208   3.295   5.545  0.0893  0.6762 -0.1162
 1645SOL    HW116568   3.215   3.379   5.498 -2.0036  0.7161 -0.3511
 1645SOL    HW216569   3.113   3.283   5.547 -0.0177  1.3567 -0.8611
 1646SOL     OW16570   3.736   3.445   8.114 -0.1342  0.0338  0.1845
 1646SOL    HW116571   3.675   3.382   8.075  1.9409 -2.2984  0.6656
 1646SOL    HW216572   3.719   3.430   8.207  0.3543  0.2988  0.3125
 1647SOL     OW16573   1.305   1.081  16.223 -0.2199 -0.2511 -0.1414
 1647SOL    HW116574   1.362   1.117  16.156  2.3825 -1.5934  1.3581
 1647SOL    HW216575   1.245   1.034  16.165  2.4457 -2.1229 -1.3579
 1648SOL     OW16576   2.507   0.046   1.123 -0.2380 -0.0620  0.2147
 1648SOL    HW116577   2.440   4.724   1.099 -0.7389  0.1965  0.9462
 1648SOL    HW216578   2.586   4.735   1.108 -0.9137 -1.2803  0.9841
 1649SOL     OW16579   2.740   3.117   8.724  0.4101  0.1295  0.1584
 1649SOL    HW116580   2.680   3.045   8.747  0.5618  0.0743  0.3857
 1649SOL    HW216581   2.797   3.120   8.801 -0.1363  0.8051  0.5309
 1650SOL     OW16582   1.197   3.219   3.420 -0.3952  0.2723 -0.1194
 1650SOL    HW116583   1.208   3.309   3.388  0.1632  0.6268  1.0882
 1650SOL    HW216584   1.194   3.227   3.515 -0.0069  0.4147 -0.1231
 1651SOL     OW16585   3.583   3.198   5.867 -0.2320  0.0127  0.7076
 1651SOL    HW116586   3.543   3.113   5.844  0.9569 -1.0470  2.5781
 1651SOL    HW216587   3.510   3.257   5.849 -1.6056 -1.1697  2.3061
 1652SOL     OW16588   3.784   2.927  13.574  0.0629 -0.1826 -0.4675
 1652SOL    HW116589   3.710   2.869  13.592  1.1672 -0.4887  3.1964
 1652SOL    HW216590   3.847   2.869  13.530 -0.0015 -0.5606 -0.0646
 1653SOL     OW16591   1.418   4.613  15.893 -0.5663 -0.3032 -0.7168
 1653SOL    HW116592   1.369   4.532  15.901  0.1539 -0.7489 -0.8513
 1653SOL    HW216593   1.497   4.595  15.943 -0.3425  2.2854 -0.0980
 1654SOL     OW16594   4.709   2.835   4.465  0.0956 -0.5438  0.4306
 1654SOL    HW116595   4.642   2.903   4.472  0.0504 -0.5400 -0.0349
 1654SOL    HW216596   4.680   2.771   4.400 -1.6296 -0.0717  0.7242
 1655SOL     OW16597   3.182   0.795   5.930 -0.0581 -1.1638 -0.3786
 1655SOL    HW116598   3.137   0.834   5.855  0.6591 -0.8661 -0.6498
 1655SOL    HW216599   3.162   0.860   5.997  0.5464 -0.2655 -1.0710
 1656SOL     OW16600   1.150   3.989   6.767  0.0278  0.1348  0.3448
 1656SOL    HW116601   1.079   3.929   6.787 -1.6121  1.8902 -0.2856
 1656SOL    HW216602   1.117   4.075   6.792  2.3355  1.6689 -1.8387
 1657SOL     OW16603   3.666   0.402   7.716  0.0435 -0.8182 -0.2186
 1657SOL    HW116604   3.591   0.445   7.675  0.6011  1.4645  1.1463
 1657SOL    HW216605   3.734   0.380   7.652  0.5721 -2.3602  0.8818
 1658SOL     OW16606   4.629   3.426   0.313 -0.2981  0.5085  0.1692
 1658SOL    HW116607   4.721   3.414   0.289 -0.6502  0.5388 -1.2313
 1658SOL    HW216608   4.591   3.376   0.240 -0.1214  0.8480 -0.1541
 1659SOL     OW16609   3.577   4.364   1.375  0.5367  0.1804  0.3866
 1659SOL    HW116610   3.514   4.316   1.429  0.6711 -1.2199 -0.7024
 1659SOL    HW216611   3.583   4.312   1.295 -0.6394 -0.5445  0.7689
 1660SOL     OW16612   1.307   3.104   3.984  0.1272 -0.4925 -0.3341
 1660SOL    HW116613   1.305   3.187   3.937 -0.4038 -0.4682 -0.2685
 1660SOL    HW216614   1.312   3.045   3.909 -0.0309  0.4769 -1.0954
 1661SOL     OW16615   4.276   4.311   4.544  0.3731 -0.3609  0.0523
 1661SOL    HW116616   4.352   4.318   4.602  0.7020  3.9787 -0.8540
 1661SOL    HW216617   4.322   4.317   4.460 -2.5034  2.1958 -1.3307
 1662SOL     OW16618   2.010   0.678  10.750  0.0358 -0.1684  0.1720
 1662SOL    HW116619   2.093   0.696  10.706 -0.5128  1.1782 -0.3468
 1662SOL    HW216620   2.037   0.609  10.810  2.1592  0.8212  0.3618
 1663SOL     OW16621   1.586   0.902  14.935  0.3823  0.0262  0.0825
 1663SOL    HW116622   1.532   0.829  14.903 -3.8084  2.3659  1.8231
 1663SOL    HW216623   1.529   0.978  14.924  0.6839  0.3605  0.8463
 1664SOL     OW16624   1.124   2.143  11.963  0.7616  0.6691  0.3610
 1664SOL    HW116625   1.047   2.197  11.980  0.2826 -0.1994  0.9948
 1664SOL    HW216626   1.119   2.126  11.869 -0.2147 -0.4770  0.6094
 1665SOL     OW16627   3.360   4.117   8.756  0.4694 -0.2013 -0.0369
 1665SOL    HW116628   3.327   4.192   8.706 -1.2518  0.1981  1.7096
 1665SOL    HW216629   3.408   4.160   8.826 -2.7004 -1.6997  3.1005
 1666SOL     OW16630   0.519   4.621   1.581 -0.2732  0.0006 -0.0003
 1666SOL    HW116631   0.433   4.653   1.608 -0.9767  1.0212 -3.3438
 1666SOL    HW216632   0.545   4.689   1.518 -1.2569 -0.4119 -0.8648
 1667SOL     OW16633   2.570   2.103   6.359 -0.1712 -0.0392  0.4651
 1667SOL    HW116634   2.587   2.186   6.404 -3.1487  1.4195 -1.1191
 1667SOL    HW216635   2.660   2.070   6.358 -0.1430  0.0097  1.4059
 1668SOL     OW16636   1.310   2.627   0.612 -0.4128  0.1343 -0.1940
 1668SOL    HW116637   1.237   2.588   0.563  0.5860 -2.5970  0.4913
 1668SOL    HW216638   1.268   2.705   0.650  0.6573 -0.1608  1.5745
 1669SOL     OW16639   4.550   3.145   8.697  0.4598  0.3574  0.1213
 1669SOL    HW116640   4.555   3.051   8.712  1.0646  0.2288 -0.8614
 1669SOL    HW216641   4.456   3.164   8.696 -0.0355 -2.1616 -0.8411
 1670SOL     OW16642   0.895   2.228   4.868 -0.2140 -0.6610 -0.2629
 1670SOL    HW116643   0.830   2.248   4.800  0.4177  0.3907 -0.5499
 1670SOL    HW216644   0.961   2.177   4.820  1.9989 -2.2820  4.4226
 1671SOL     OW16645   4.122   3.741  10.387  0.1190 -0.5211 -0.3894
 1671SOL    HW116646   4.101   3.659  10.432 -2.6264  1.1162  1.3035
 1671SOL    HW216647   4.215   3.735  10.365  0.2395  0.0192 -0.0471
 1672SOL     OW16648   3.210   3.931  12.613 -0.0418  0.0050 -0.4092
 1672SOL    HW116649   3.196   3.868  12.542  1.7467  1.6807 -2.2419
 1672SOL    HW216650   3.175   3.880  12.687  0.4979  0.8754  0.4379
 1673SOL     OW16651   1.168   4.017   5.625  0.4086  0.2132  0.2687
 1673SOL    HW116652   1.143   4.057   5.708  0.2720  2.2017 -0.7398
 1673SOL    HW216653   1.182   3.924   5.645 -0.6998 -0.2491 -1.0925
 1674SOL     OW16654   3.413   4.417   3.341 -0.1333  0.0627 -0.4758
 1674SOL    HW116655   3.443   4.365   3.267  0.3169  0.7759 -0.8025
 1674SOL    HW216656   3.416   4.346   3.404 -1.1797  1.7301  1.4754
 1675SOL     OW16657   1.619   1.138   7.646 -0.5323  0.2073  0.4024
 1675SOL    HW116658   1.527   1.167   7.648 -0.7226 -0.3286 -0.4651
 1675SOL    HW216659   1.663   1.202   7.589 -0.0046 -0.4383  0.0895
 1676SOL     OW16660   0.993   0.430   9.997  0.3555  0.6096 -0.1899
 1676SOL    HW116661   1.087   0.449   9.995  0.6860 -0.9205  0.5802
 1676SOL    HW216662   0.987   0.392   9.909 -0.9470 -1.6753  0.8602
 1677SOL     OW16663   4.519   3.499  15.191  0.0148 -0.2771 -0.3832
 1677SOL    HW116664   4.614   3.509  15.185 -0.0637  0.6907  0.0859
 1677SOL    HW216665   4.504   3.497  15.286  0.1249  1.5549 -0.3256
 1678SOL     OW16666   3.853   1.456  10.703 -0.5853  0.1510 -0.6329
 1678SOL    HW116667   3.934   1.412  10.676  0.0011  1.2975 -0.7571
 1678SOL    HW216668   3.883   1.511  10.776  1.0502 -2.8122  0.9134
 1679SOL     OW16669   3.863   0.649  15.723  0.4616  0.0785  0.0146
 1679SOL    HW116670   3.921   0.588  15.769 -0.8139 -2.9576 -2.4392
 1679SOL    HW216671   3.926   0.715  15.693 -0.0431  1.1817  1.3766
 1680SOL     OW16672   0.205   3.393  13.181  0.2551  0.2155  0.0298
 1680SOL    HW116673   0.118   3.426  13.158 -0.4724 -0.1928  2.1700
 1680SOL    HW216674   0.272   3.428  13.123 -1.6211  1.8393 -1.1422
 1681SOL     OW16675   3.929   1.626   5.130 -0.6128 -0.1476 -0.3258
 1681SOL    HW116676   3.908   1.653   5.040 -2.1543 -1.8558 -0.5008
 1681SOL    HW216677   3.997   1.691   5.142 -1.0223  0.2240 -0.0381
 1682SOL     OW16678   0.568   0.022  11.529 -0.2143  0.2428  0.3515
 1682SOL    HW116679   0.590   4.739  11.619 -0.7632 -0.7310  0.2227
 1682SOL    HW216680   0.501   0.084  11.557 -0.7363 -1.0252  1.9153
 1683SOL     OW16681   1.035   0.819   5.952 -0.2075 -0.1268 -0.3066
 1683SOL    HW116682   0.965   0.764   5.987  1.2346 -0.6756  1.7371
 1683SOL    HW216683   1.065   0.864   6.032  0.8732 -1.8152  0.2357
 1684SOL     OW16684   2.053   1.314   7.492 -0.1483 -0.3670  0.4499
 1684SOL    HW116685   1.989   1.326   7.423  0.4641  2.4501  0.3897
 1684SOL    HW216686   2.030   1.383   7.555  0.1459  0.2587 -0.1295
 1685SOL     OW16687   2.606   3.544   2.447 -0.1038  0.8647  0.2004
 1685SOL    HW116688   2.515   3.513   2.446  1.0454 -2.4754 -1.7318
 1685SOL    HW216689   2.600   3.586   2.362  3.1829  1.8962  0.4878
 1686SOL     OW16690   4.562   4.572   4.106 -0.1188  0.2127 -0.9638
 1686SOL    HW116691   4.625   4.644   4.100  0.7002 -0.4358 -0.2529
 1686SOL    HW216692   4.619   4.497   4.087 -0.8329 -0.5582 -0.0191
 1687SOL     OW16693   4.565   2.259   6.879  0.4911 -0.3207  0.2134
 1687SOL    HW116694   4.656   2.271   6.903  0.6603 -4.3083  1.6440
 1687SOL    HW216695   4.525   2.237   6.964  0.7971 -1.5539  0.0424
 1688SOL     OW16696   2.891   2.744   2.795  0.5605  0.4037  0.7951
 1688SOL    HW116697   2.981   2.775   2.785  0.2233  0.6145 -1.5152
 1688SOL    HW216698   2.852   2.828   2.819 -0.5036  0.6058 -1.6877
 1689SOL     OW16699   1.169   1.320   9.652 -0.4540  0.8304 -0.0753
 1689SOL    HW116700   1.170   1.245   9.711 -1.8196  0.2459 -0.7853
 1689SOL    HW216701   1.099   1.375   9.690 -0.0566  1.5642 -0.3962
 1690SOL     OW16702   0.679   0.962   9.848  0.0465  0.2880 -0.4120
 1690SOL    HW116703   0.773   0.950   9.860  0.0293 -0.3429 -0.8797
 1690SOL    HW216704   0.642   0.874   9.850  1.4245 -0.3522 -3.5851
 1691SOL     OW16705   2.447   0.716   6.271 -0.0245  0.2496 -0.6759
 1691SOL    HW116706   2.364   0.753   6.301  0.3419  0.0086  0.6098
 1691SOL    HW216707   2.473   0.652   6.337  0.7456 -0.5810 -1.7881
 1692SOL     OW16708   1.203   0.237   6.632 -0.8381 -0.2905 -0.6854
 1692SOL    HW116709   1.212   0.173   6.561  0.4145  0.5469 -1.2711
 1692SOL    HW216710   1.144   0.303   6.597  2.6610  3.4483  0.3906
 1693SOL     OW16711   1.379   4.601   1.591 -0.3004  0.2972  0.1719
 1693SOL    HW116712   1.469   4.600   1.559 -0.9919 -0.6728 -1.7510
 1693SOL    HW216713   1.351   4.692   1.582 -0.8042  0.2175  0.8582
 1694SOL     OW16714   3.264   3.074   3.963 -0.6721 -0.4131 -0.1657
 1694SOL    HW116715   3.184   3.055   3.913  0.1659  1.6807 -2.2999
 1694SOL    HW216716   3.247   3.167   3.977 -1.6091 -0.9433  2.2243
 1695SOL     OW16717   4.429   1.771   6.220 -0.4656  0.0095  0.0912
 1695SOL    HW116718   4.492   1.799   6.287 -2.8229  3.3118  0.9260
 1695SOL    HW216719   4.399   1.687   6.255  2.1019 -1.8087 -2.0430
 1696SOL     OW16720   4.443   1.664  10.716 -0.1360  0.2193 -0.3719
 1696SOL    HW116721   4.527   1.682  10.676 -0.3610 -0.2086 -1.0350
 1696SOL    HW216722   4.470   1.669  10.808 -4.0452 -0.6147  0.8202
 1697SOL     OW16723   1.319   0.316   8.384  0.0600  0.1956  0.2365
 1697SOL    HW116724   1.259   0.241   8.385 -0.4951  0.6304 -0.1999
 1697SOL    HW216725   1.312   0.334   8.290 -0.2212  3.0835  0.8160
 1698SOL     OW16726   0.875   0.222   8.844  0.8163  0.2561  0.0283
 1698SOL    HW116727   0.934   0.158   8.885 -1.5181 -1.5120  0.6792
 1698SOL    HW216728   0.785   0.188   8.847 -0.2525  2.8591 -3.0462
 1699SOL     OW16729   0.416   0.397  17.621 -0.6054 -0.2291 -0.2082
 1699SOL    HW116730   0.324   0.421  17.610 -1.1240 -1.7304  0.8613
 1699SOL    HW216731   0.405   0.377  17.714  0.8707 -0.0910 -0.0145
 1700SOL     OW16732   1.889   0.226   8.775  0.2297 -0.3607  0.3294
 1700SOL    HW116733   1.934   0.199   8.855 -3.1989  1.8789  2.9582
 1700SOL    HW216734   1.951   0.204   8.705  0.0769 -0.1625  0.1313
 1701SOL     OW16735   0.695   3.804  13.158  0.0361 -0.2297  0.1501
 1701SOL    HW116736   0.702   3.760  13.073 -1.1807 -0.8437  0.3681
 1701SOL    HW216737   0.612   3.763  13.184 -0.8928  1.4733 -0.1371
 1702SOL     OW16738   0.221   4.677   2.802  0.0190 -0.2830 -0.6311
 1702SOL    HW116739   0.142   4.644   2.758 -1.2163 -0.1600  1.5037
 1702SOL    HW216740   0.270   4.598   2.824  0.0342 -0.0125  0.2962
 1703SOL     OW16741   1.076   3.652   1.692 -0.0382 -0.2679 -0.5224
 1703SOL    HW116742   1.015   3.626   1.761  0.1372  2.5790  0.7125
 1703SOL    HW216743   1.098   3.740   1.723 -2.4125 -0.2785  1.1747
 1704SOL     OW16744   4.585   0.326   3.428 -0.4399  0.0406  0.5120
 1704SOL    HW116745   4.643   0.252   3.409 -0.7677  0.0753 -0.6310
 1704SOL    HW216746   4.643   0.396   3.399 -0.2291 -0.3044  0.1022
 1705SOL     OW16747   3.008   4.211  12.543  0.2562 -0.0682  0.2223
 1705SOL    HW116748   3.019   4.298  12.507  0.1383  0.9154  2.5401
 1705SOL    HW216749   3.042   4.208  12.633  0.7623 -1.8815 -0.0156
 1706SOL     OW16750   2.820   3.208  13.775  0.0747  0.2085 -0.2237
 1706SOL    HW116751   2.814   3.304  13.781  1.7969  0.3494 -0.7146
 1706SOL    HW216752   2.906   3.194  13.735  0.6356 -0.6406  1.2927
 1707SOL     OW16753   2.980   2.308   6.970 -0.4238  0.1869  0.7636
 1707SOL    HW116754   3.067   2.277   6.993 -1.3973 -1.8546  1.6496
 1707SOL    HW216755   2.938   2.225   6.949  0.8322 -0.2800  0.1058
 1708SOL     OW16756   2.904   0.281   2.687  0.2044  0.0574  0.3171
 1708SOL    HW116757   2.935   0.317   2.604 -0.6413 -1.6819 -0.7641
 1708SOL    HW216758   2.893   0.191   2.657 -0.0487  1.2084 -2.9654
 1709SOL     OW16759   1.882   2.836   5.194 -0.4748  0.3941 -0.1471
 1709SOL    HW116760   1.822   2.763   5.207 -1.8754  1.0892 -2.6749
 1709SOL    HW216761   1.931   2.832   5.276  1.3441  0.9530 -1.1987
 1710SOL     OW16762   4.575   0.973  16.769  0.2756 -0.0992  0.1596
 1710SOL    HW116763   4.652   0.969  16.712 -0.3695  0.7879 -0.7698
 1710SOL    HW216764   4.561   0.878  16.771 -0.0368 -0.0901 -1.2402
 1711SOL     OW16765   0.372   0.622   9.627  0.3115  0.4579  0.2133
 1711SOL    HW116766   0.358   0.716   9.612  0.7186  0.0964 -2.4286
 1711SOL    HW216767   0.467   0.612   9.634  0.2877  0.5434  0.6755
 1712SOL     OW16768   2.708   0.256   2.391 -0.3433 -0.0285  0.5074
 1712SOL    HW116769   2.686   0.338   2.348  1.4579  0.4305  0.4746
 1712SOL    HW216770   2.629   0.241   2.443 -1.2173  2.3031 -0.1514
 1713SOL     OW16771   1.846   2.040  15.703 -0.2915  0.1564 -0.2894
 1713SOL    HW116772   1.851   2.121  15.652 -0.1722 -0.0735 -0.6446
 1713SOL    HW216773   1.931   2.044  15.748 -0.5902 -2.4660  0.4637
 1714SOL     OW16774   2.516   4.536   4.198 -0.1417 -0.1879 -0.7559
 1714SOL    HW116775   2.534   4.595   4.124 -0.4996  0.7482 -0.0838
 1714SOL    HW216776   2.520   4.592   4.275 -0.5376  0.2983 -1.0893
 1715SOL     OW16777   2.239   1.148   9.471 -0.0574 -0.3372  0.0356
 1715SOL    HW116778   2.250   1.070   9.417 -1.5470 -1.5872  1.5197
 1715SOL    HW216779   2.157   1.120   9.512 -0.8374  2.2233  0.2288
 1716SOL     OW16780   3.359   1.189  10.898 -0.3245  0.4822 -0.1575
 1716SOL    HW116781   3.388   1.268  10.852  0.0523  1.5560  1.9172
 1716SOL    HW216782   3.369   1.229  10.985 -1.3911 -1.2514  0.7576
 1717SOL     OW16783   0.957   1.476   9.736 -0.1829 -0.9642 -0.5488
 1717SOL    HW116784   0.938   1.565   9.764 -0.1735 -1.3031  0.5306
 1717SOL    HW216785   0.883   1.429   9.773 -0.2652 -0.6820 -0.3541
 1718SOL     OW16786   3.701   2.769  13.277 -0.1693  0.2224  0.3169
 1718SOL    HW116787   3.637   2.754  13.347 -0.4293 -2.2146 -0.4459
 1718SOL    HW216788   3.785   2.765  13.324  0.8378 -3.7139 -1.8106
 1719SOL     OW16789   1.195   2.694   2.405 -0.1188  0.4009 -0.1566
 1719SOL    HW116790   1.127   2.749   2.366 -1.3636 -0.2197  1.1539
 1719SOL    HW216791   1.150   2.630   2.458  2.4619 -1.0374  0.3089
 1720SOL     OW16792   0.250   4.361   5.393 -0.0386 -0.0276  0.0327
 1720SOL    HW116793   0.280   4.292   5.453 -0.1153 -0.7044 -0.7060
 1720SOL    HW216794   0.160   4.372   5.424  0.0726  1.2205 -0.0886
 1721SOL     OW16795   0.575   3.702   8.026 -0.2385 -0.6078 -0.5121
 1721SOL    HW116796   0.551   3.653   8.104 -0.9055 -1.4954 -1.2802
 1721SOL    HW216797   0.491   3.741   8.004 -1.1512 -1.1551  2.0483
 1722SOL     OW16798   3.675   0.459   2.997  0.0095 -0.0122 -0.0768
 1722SOL    HW116799   3.713   0.424   2.916  0.0679 -1.4877  0.5955
 1722SOL    HW216800   3.747   0.462   3.059 -1.5024 -0.4929  1.6919
 1723SOL     OW16801   0.552   0.984   0.417  0.1380 -0.4541 -0.3417
 1723SOL    HW116802   0.471   1.033   0.401 -0.3666 -1.5149 -0.9952
 1723SOL    HW216803   0.519   0.900   0.450 -0.1067 -0.0425  0.4678
 1724SOL     OW16804   3.438   4.610   1.334 -0.5859 -0.2357  0.4156
 1724SOL    HW116805   3.519   4.560   1.342 -0.0174  0.2096 -2.5890
 1724SOL    HW216806   3.393   4.590   1.416  1.8380 -1.7585  1.3581
 1725SOL     OW16807   0.051   2.241   7.059 -0.2094  0.3667 -0.9108
 1725SOL    HW116808   0.129   2.290   7.033  0.5749 -0.5197 -0.2477
 1725SOL    HW216809   0.008   2.317   7.098 -0.2515 -1.1796  2.0772
 1726SOL     OW16810   3.764   0.095   9.240  0.4331 -0.3064  0.0243
 1726SOL    HW116811   3.836   0.087   9.303 -1.1324 -2.0930  1.5965
 1726SOL    HW216812   3.706   0.143   9.299  0.2590 -0.2175 -0.2213
 1727SOL     OW16813   4.489   2.447  10.548 -0.3381  0.2553 -0.0969
 1727SOL    HW116814   4.475   2.395  10.469  2.5674 -0.5537 -0.0710
 1727SOL    HW216815   4.397   2.455  10.575 -0.5268 -0.2063 -0.6178
 1728SOL     OW16816   0.436   2.250  12.203  0.6718 -0.6219  0.9383
 1728SOL    HW116817   0.418   2.338  12.238 -0.9799 -0.0598 -1.3110
 1728SOL    HW216818   0.347   2.214  12.203 -1.0836  3.7049 -0.0169
 1729SOL     OW16819   1.822   1.731  13.220 -0.3976  0.2328 -0.5787
 1729SOL    HW116820   1.902   1.682  13.199  0.0142 -0.8856  3.6800
 1729SOL    HW216821   1.857   1.816  13.248  2.4661 -0.7437 -1.1655
 1730SOL     OW16822   0.924   3.628  13.517 -0.5665  0.0325  0.1468
 1730SOL    HW116823   0.984   3.660  13.449 -0.3936  0.8840  0.7007
 1730SOL    HW216824   0.889   3.711  13.550  0.4717  0.3156  0.5429
 1731SOL     OW16825   1.106   0.108  16.977 -0.2230 -0.0998 -0.1785
 1731SOL    HW116826   1.155   0.172  16.924 -4.5420  4.0974  0.9627
 1731SOL    HW216827   1.044   0.084  16.908 -0.0995  1.9687 -1.0158
 1732SOL     OW16828   4.181   4.517   4.893 -0.1182  0.2396 -0.2548
 1732SOL    HW116829   4.247   4.531   4.961 -1.8137  0.1860  1.3906
 1732SOL    HW216830   4.199   4.593   4.838  0.7214  1.4577  1.6927
 1733SOL     OW16831   0.811   3.596   4.992  0.0990  1.1068 -0.2600
 1733SOL    HW116832   0.716   3.588   4.986  0.3076 -1.3077 -0.3391
 1733SOL    HW216833   0.839   3.589   5.084 -0.2407  0.1550 -0.2316
 1734SOL     OW16834   1.170   1.942   2.256  0.1691  0.2462 -0.0292
 1734SOL    HW116835   1.260   1.908   2.259 -0.1671 -0.7749 -1.6447
 1734SOL    HW216836   1.174   1.996   2.177 -0.3396  0.2643 -0.0401
 1735SOL     OW16837   0.802   4.586   3.519  0.6052  0.3939 -0.2230
 1735SOL    HW116838   0.842   4.528   3.583  2.1034  0.1018 -1.4306
 1735SOL    HW216839   0.735   4.529   3.482  1.0560 -0.2957  0.0291
 1736SOL     OW16840   1.545   3.899   2.697 -0.6636  0.1331 -0.0264
 1736SOL    HW116841   1.531   3.896   2.602  0.5798  0.0359 -0.2037
 1736SOL    HW216842   1.483   3.964   2.729 -0.9477 -1.1343  2.0183
 1737SOL     OW16843   1.493   3.886   8.953  0.1608  0.3195 -0.3953
 1737SOL    HW116844   1.498   3.946   9.027 -0.5214  0.1961 -0.2556
 1737SOL    HW216845   1.469   3.953   8.889  4.4818  2.0329 -0.1989
 1738SOL     OW16846   4.514   2.630   3.808  0.1465  0.2828  0.0209
 1738SOL    HW116847   4.497   2.641   3.714  0.3710 -2.9520 -0.4003
 1738SOL    HW216848   4.607   2.610   3.799 -0.2318 -1.3800 -0.3621
 1739SOL     OW16849   2.024   2.067   3.615  0.3404  0.1436 -0.3601
 1739SOL    HW116850   1.995   2.083   3.705 -2.4229 -1.0890 -1.0523
 1739SOL    HW216851   1.958   2.002   3.591 -0.1378  0.5734 -0.1932
 1740SOL     OW16852   2.484   4.142   2.367  0.6580  0.4551  0.4188
 1740SOL    HW116853   2.402   4.096   2.351  1.7387 -0.4917 -2.4693
 1740SOL    HW216854   2.457   4.171   2.454 -0.2104  1.6428 -0.2396
 1741SOL     OW16855   3.399   3.648   7.397 -0.0538 -0.1273  0.1523
 1741SOL    HW116856   3.416   3.684   7.309 -3.3637 -1.0084 -0.8516
 1741SOL    HW216857   3.490   3.620   7.405 -0.0596 -0.7988 -2.1172
 1742SOL     OW16858   3.344   1.710   1.101  0.3185  0.3955  0.0842
 1742SOL    HW116859   3.297   1.768   1.042 -1.6805 -2.1341 -0.8005
 1742SOL    HW216860   3.319   1.628   1.059  0.0992 -0.0744  1.1195
 1743SOL     OW16861   3.898   1.630   3.718 -0.5740 -0.3092 -0.4324
 1743SOL    HW116862   3.829   1.696   3.733 -0.0242  0.1554  0.0476
 1743SOL    HW216863   3.852   1.575   3.654  1.4502 -3.4429  0.8146
 1744SOL     OW16864   4.280   2.511   5.403 -0.2894  0.0424 -0.4968
 1744SOL    HW116865   4.344   2.439   5.403  2.2436  2.3134 -2.0631
 1744SOL    HW216866   4.336   2.587   5.415  2.6754 -2.3476  0.8684
 1745SOL     OW16867   0.356   0.290   3.881 -0.1009 -0.2467  0.2938
 1745SOL    HW116868   0.417   0.224   3.913 -0.8216 -0.5639  1.0059
 1745SOL    HW216869   0.315   0.305   3.966 -0.4083  1.5553 -0.1582
 1746SOL     OW16870   4.235   3.013  15.117 -0.2754  0.2552  0.2692
 1746SOL    HW116871   4.319   3.037  15.155 -0.0464 -0.9846  0.5295
 1746SOL    HW216872   4.223   3.084  15.054 -0.5356  0.0303  0.0654
 1747SOL     OW16873   3.271   1.256   7.285 -0.6743 -0.4539 -0.1491
 1747SOL    HW116874   3.318   1.338   7.297 -0.4622 -0.6020  0.0338
 1747SOL    HW216875   3.207   1.289   7.221 -0.6745 -0.0071  0.0810
 1748SOL     OW16876   3.197   4.374   2.800  0.3681 -0.5799  0.0259
 1748SOL    HW116877   3.222   4.285   2.773  0.4220 -0.7027  0.4819
 1748SOL    HW216878   3.285   4.409   2.818 -0.5786  1.5109  0.5600
 1749SOL     OW16879   2.835   0.966   4.697  0.5665 -0.2069 -0.5366
 1749SOL    HW116880   2.758   0.931   4.741  1.7523 -2.0334  0.0883
 1749SOL    HW216881   2.868   1.030   4.760  0.6385 -0.4459 -0.3346
 1750SOL     OW16882   1.481   2.469   6.669  0.2843 -0.0898 -0.1637
 1750SOL    HW116883   1.419   2.398   6.684 -1.0176  0.6695 -1.9918
 1750SOL    HW216884   1.564   2.422   6.669  0.0260 -0.5447 -0.1494
 1751SOL     OW16885   3.958   3.394  13.443  0.0982  0.2090 -0.0332
 1751SOL    HW116886   3.998   3.316  13.405 -2.9773 -0.4072 -1.9878
 1751SOL    HW216887   3.872   3.366  13.473  0.0134  0.7853  0.2793
 1752SOL     OW16888   3.623   0.273   4.728  0.2143 -0.1934 -0.5374
 1752SOL    HW116889   3.677   0.218   4.785  0.9139  1.6635  0.5897
 1752SOL    HW216890   3.567   0.210   4.683 -1.1486  0.6671 -0.0549
 1753SOL     OW16891   0.315   4.440   4.862  0.0745  0.0661  0.0904
 1753SOL    HW116892   0.346   4.436   4.952  1.6422  0.0847 -0.4537
 1753SOL    HW216893   0.386   4.389   4.823  0.3294 -1.0158  2.0010
 1754SOL     OW16894   4.614   2.356   2.817 -0.2300  0.7024  0.3780
 1754SOL    HW116895   4.659   2.277   2.787 -3.4038 -0.8638 -0.2129
 1754SOL    HW216896   4.572   2.391   2.738 -0.2428 -2.7191 -1.1380
 1755SOL     OW16897   2.019   1.420  17.307  0.1109  0.9908  0.5833
 1755SOL    HW116898   2.062   1.396  17.389 -1.2668 -0.9258  0.7334
 1755SOL    HW216899   1.949   1.477  17.339  0.8491  2.3660 -0.2316
 1756SOL     OW16900   2.862   4.174   6.709  0.7722  0.6370 -0.3496
 1756SOL    HW116901   2.839   4.179   6.802 -1.0011  3.1730 -0.9198
 1756SOL    HW216902   2.867   4.080   6.694 -2.9611  0.6616 -1.8772
 1757SOL     OW16903   1.979   4.035   3.592  0.6930 -0.1748  0.4402
 1757SOL    HW116904   1.962   3.967   3.527  1.0648 -1.0932  1.3122
 1757SOL    HW216905   2.027   3.991   3.663 -0.0787  1.1416  1.7868
 1758SOL     OW16906   4.691   3.166   2.455  0.2199  0.1881  0.2168
 1758SOL    HW116907   4.597   3.152   2.461  0.3256 -0.9225 -0.7285
 1758SOL    HW216908   4.704   3.225   2.529 -0.1926 -0.3277  0.7005
 1759SOL     OW16909   0.414   1.107  11.330  0.2833 -0.2793 -0.1100
 1759SOL    HW116910   0.398   1.200  11.342 -0.1743 -0.0408 -2.6478
 1759SOL    HW216911   0.503   1.112  11.295  0.7606  2.7283  1.6215
 1760SOL     OW16912   1.352   1.227   8.066 -0.2956 -0.1195 -0.0853
 1760SOL    HW116913   1.435   1.213   8.111 -0.1979  0.6612 -0.0279
 1760SOL    HW216914   1.332   1.139   8.034  0.9909 -0.5768  0.3561
 1761SOL     OW16915   4.406   0.667   3.933 -0.4190 -0.1322  0.0848
 1761SOL    HW116916   4.442   0.637   3.850 -3.6037 -0.6647 -1.0996
 1761SOL    HW216917   4.375   0.749   3.894  0.2182 -1.7245 -3.7662
 1762SOL     OW16918   1.772   3.508   9.363  0.4698 -0.3343  0.1259
 1762SOL    HW116919   1.775   3.412   9.366 -0.3345 -0.3251  1.5617
 1762SOL    HW216920   1.863   3.535   9.355  0.1918  0.8432  0.9981
 1763SOL     OW16921   3.623   2.695  14.630 -0.2369  0.3985 -0.2708
 1763SOL    HW116922   3.555   2.715  14.565 -2.0604 -1.7835  0.9682
 1763SOL    HW216923   3.698   2.740  14.591 -0.4699  0.0794 -1.0826
 1764SOL     OW16924   0.303   0.158  10.036  0.0208 -0.3752 -0.3021
 1764SOL    HW116925   0.355   0.219  10.088 -0.1029 -0.2798 -0.2887
 1764SOL    HW216926   0.265   0.211   9.966  0.0525  1.1147  0.8239
 1765SOL     OW16927   2.262   1.752   0.125 -0.0996  0.9099 -0.3142
 1765SOL    HW116928   2.225   1.825   0.075  1.8260  1.5673 -0.7764
 1765SOL    HW216929   2.356   1.754   0.104 -0.1254 -0.7139 -0.5980
 1766SOL     OW16930   0.033   0.056   4.108  0.2064  0.2206 -0.0993
 1766SOL    HW116931   4.731   0.135   4.074  1.0536  0.7364  0.0266
 1766SOL    HW216932   0.108   0.055   4.048  0.5049  0.0722  0.2766
 1767SOL     OW16933   3.531   1.022   9.887 -0.0563 -0.1317  0.9973
 1767SOL    HW116934   3.472   1.031   9.961 -1.7362 -0.2791 -0.3241
 1767SOL    HW216935   3.523   0.926   9.885 -1.4856  0.0057  0.1462
 1768SOL     OW16936   2.916   0.836  17.273  0.4895  0.0074 -0.1166
 1768SOL    HW116937   2.878   0.907  17.325  0.7964  0.6088 -0.7062
 1768SOL    HW216938   2.994   0.886  17.249 -0.8484  1.5377 -1.2643
 1769SOL     OW16939   2.661   3.345  17.652 -0.5308  0.1976 -0.4498
 1769SOL    HW116940   2.602   3.285  17.606 -0.9754 -0.7316  1.3623
 1769SOL    HW216941   2.743   3.296  17.662 -0.6711 -0.2051 -1.2746
 1770SOL     OW16942   3.659   2.312   9.071  0.0004  0.5339 -0.2003
 1770SOL    HW116943   3.658   2.249   9.143  3.3268  1.0631  0.3337
 1770SOL    HW216944   3.643   2.395   9.116  1.6189  1.0472 -0.5352
 1771SOL     OW16945   1.330   1.932   5.029  0.0754  0.4618  0.2032
 1771SOL    HW116946   1.409   1.937   4.976 -0.0321  2.1995  0.1804
 1771SOL    HW216947   1.353   1.873   5.101  0.3196  0.6003  0.2400
 1772SOL     OW16948   4.707   3.661  13.912 -0.2354  0.4124 -0.2943
 1772SOL    HW116949   0.047   3.611  13.906 -1.2605 -1.2740 -0.1175
 1772SOL    HW216950   4.680   3.618  13.993  0.5029 -0.9045 -0.7587
 1773SOL     OW16951   1.799   4.548  12.565  0.4846  0.5731  0.4075
 1773SOL    HW116952   1.841   4.464  12.587  2.1410  0.9699 -1.1904
 1773SOL    HW216953   1.752   4.513  12.489  3.5599 -0.5660 -1.0049
 1774SOL     OW16954   4.577   1.831   7.696 -0.0033 -0.8224  0.1124
 1774SOL    HW116955   4.566   1.742   7.663 -2.4508 -0.8556  1.0075
 1774SOL    HW216956   4.488   1.862   7.710  0.1494  0.1431 -1.0531
 1775SOL     OW16957   2.588   1.306   1.547 -0.9618 -0.2483 -0.0746
 1775SOL    HW116958   2.601   1.286   1.640  2.1536  0.8629 -0.2807
 1775SOL    HW216959   2.596   1.401   1.538 -1.8373 -0.1101  0.6138
 1776SOL     OW16960   4.422   3.913   2.824 -0.4086 -0.1486 -0.0452
 1776SOL    HW116961   4.420   3.986   2.763  1.3750  0.5322  0.7286
 1776SOL    HW216962   4.343   3.937   2.872  0.5079  0.8202  0.9513
 1777SOL     OW16963   3.681   2.422  14.600 -0.7553 -0.0583 -0.8724
 1777SOL    HW116964   3.773   2.435  14.579 -0.3733 -0.3134  0.6479
 1777SOL    HW216965   3.666   2.502  14.651 -2.1322 -0.3436 -0.8333
 1778SOL     OW16966   4.498   1.531   7.143  0.0732  0.4825 -0.5632
 1778SOL    HW116967   4.441   1.454   7.156  0.4933 -0.0068 -1.5654
 1778SOL    HW216968   4.542   1.526   7.227 -0.6115 -1.4729 -0.3016
 1779SOL     OW16969   4.216   3.357   5.084 -0.3348  0.7727 -0.0444
 1779SOL    HW116970   4.311   3.349   5.095 -0.1896  1.1713 -1.0037
 1779SOL    HW216971   4.220   3.437   5.031  1.2529  0.5363 -0.2688
 1780SOL     OW16972   3.075   2.825   5.675  0.4189  1.0426  0.3441
 1780SOL    HW116973   3.152   2.770   5.691 -0.0118  0.2534 -0.2573
 1780SOL    HW216974   3.119   2.895   5.629 -0.9795  2.0879  0.5835
 1781SOL     OW16975   2.643   4.335   2.308 -0.3941  0.1308 -0.4285
 1781SOL    HW116976   2.592   4.258   2.331 -0.9814  0.6866  0.1267
 1781SOL    HW216977   2.602   4.395   2.371 -0.9557  0.4164 -1.0691
 1782SOL     OW16978   2.625   3.941   7.062  0.0260 -0.3536 -0.0659
 1782SOL    HW116979   2.540   3.898   7.075  0.8632 -0.9453  3.5148
 1782SOL    HW216980   2.648   3.908   6.976 -1.6549  1.0877 -1.0972
 1783SOL     OW16981   0.373   2.688   5.584 -0.4737  0.4205  0.3366
 1783SOL    HW116982   0.433   2.667   5.512 -1.3765 -2.4017  0.4260
 1783SOL    HW216983   0.291   2.692   5.535  0.4421 -3.4597 -1.5811
 1784SOL     OW16984   3.859   1.745   4.896 -0.4299 -0.1352 -0.4187
 1784SOL    HW116985   3.782   1.775   4.849 -0.5733 -0.8919 -0.6645
 1784SOL    HW216986   3.910   1.825   4.885  2.0098 -1.3645  2.0723
 1785SOL     OW16987   2.889   2.934  12.486  0.0620 -0.2845 -0.2609
 1785SOL    HW116988   2.845   2.851  12.469  0.0481 -0.3792  0.2510
 1785SOL    HW216989   2.958   2.920  12.551 -0.2215 -0.7965 -0.0728
 1786SOL     OW16990   0.200   4.484   8.915  0.0624  0.5282 -0.3509
 1786SOL    HW116991   0.244   4.547   8.857  1.9133 -0.0746  0.4071
 1786SOL    HW216992   0.279   4.467   8.967  0.0086  0.3116 -0.3398
 1787SOL     OW16993   2.255   3.679   3.262 -0.0497  0.3610 -0.3134
 1787SOL    HW116994   2.263   3.768   3.228 -1.3175 -0.1098 -1.8104
 1787SOL    HW216995   2.215   3.690   3.349  1.2283 -1.8935  0.5808
 1788SOL     OW16996   3.033   4.574   6.849 -0.4211 -0.4654  0.5285
 1788SOL    HW116997   3.032   4.531   6.764  0.0893 -1.3558  0.9769
 1788SOL    HW216998   3.066   4.498   6.897 -1.2227  0.4694  2.5887
 1789SOL     OW16999   1.848   2.273   5.088 -0.4595  0.3291  0.0507
 1789SOL    HW117000   1.776   2.325   5.052 -1.0191 -1.8623 -2.0169
 1789SOL    HW217001   1.879   2.331   5.157 -0.1402 -0.5164  0.6082
 1790SOL     OW17002   2.117   1.541   9.043  0.2835  0.3585 -0.1790
 1790SOL    HW117003   2.107   1.486   9.121  1.4655  1.7791  0.9902
 1790SOL    HW217004   2.045   1.511   8.988 -0.3547  0.7512  0.4415
 1791SOL     OW17005   1.762   1.396  15.739 -0.0685 -0.0978  0.2907
 1791SOL    HW117006   1.740   1.476  15.787  0.8192  1.6497 -2.1685
 1791SOL    HW217007   1.760   1.418  15.645  1.8520  1.9752  0.7330
 1792SOL     OW17008   4.096   2.578   7.600  0.5325  0.2996  0.0678
 1792SOL    HW117009   4.071   2.523   7.675  0.1647 -1.2741 -1.2153
 1792SOL    HW217010   4.088   2.665   7.640  3.7780  0.4306  0.4298
 1793SOL     OW17011   3.702   0.178  10.574 -0.1896 -0.1874  0.6781
 1793SOL    HW117012   3.718   0.173  10.480  0.0660  0.5098  0.6827
 1793SOL    HW217013   3.707   0.274  10.571 -0.0919 -0.2348 -0.8321
 1794SOL     OW17014   0.750   0.662   4.558 -0.2641  0.1487  0.2009
 1794SOL    HW117015   0.694   0.640   4.483 -2.0774  1.1560  1.2601
 1794SOL    HW217016   0.683   0.684   4.623  0.8442  0.6988  1.1670
 1795SOL     OW17017   3.185   2.140   1.720  0.1339  0.3835  0.0030
 1795SOL    HW117018   3.234   2.193   1.658  1.0558 -0.2715  0.1671
 1795SOL    HW217019   3.252   2.130   1.788 -0.5253  2.6407  0.9727
 1796SOL     OW17020   1.808   0.980   2.195 -0.4626  0.0071  0.1997
 1796SOL    HW117021   1.831   1.007   2.284  0.1500  1.2820 -0.3298
 1796SOL    HW217022   1.716   0.953   2.195 -0.6153  0.5174 -0.8295
 1797SOL     OW17023   0.884   0.952   9.047 -0.5667  0.5276  0.0057
 1797SOL    HW117024   0.918   0.874   9.092  1.3036  0.6553 -1.1798
 1797SOL    HW217025   0.960   1.009   9.036 -0.1419  0.2209  1.3083
 1798SOL     OW17026   0.953   1.601   6.117  0.6533  0.0724 -0.4001
 1798SOL    HW117027   0.859   1.614   6.111  0.3840 -2.4464 -1.7155
 1798SOL    HW217028   0.974   1.635   6.203 -2.3593  1.6277 -0.2921
 1799SOL     OW17029   2.157   3.706   5.160  0.0782 -0.3731 -0.0166
 1799SOL    HW117030   2.150   3.774   5.093  3.3925 -0.2948 -0.3173
 1799SOL    HW217031   2.082   3.651   5.137  0.6306 -1.7702  1.5323
 1800SOL     OW17032   2.966   3.044   5.988  0.5028 -1.0434  0.3568
 1800SOL    HW117033   2.921   3.030   6.072  0.2367 -1.4725  0.1457
 1800SOL    HW217034   2.895   3.013   5.931  0.7004  1.9088 -1.4916
 1801SOL     OW17035   0.465   4.517   2.999 -0.0192 -0.4120 -0.0556
 1801SOL    HW117036   0.400   4.461   3.042 -2.9384  2.9191 -0.1015
 1801SOL    HW217037   0.547   4.483   3.034 -0.6583  1.3186  3.0792
 1802SOL     OW17038   3.403   2.433   9.858  0.0221 -0.3385  0.5618
 1802SOL    HW117039   3.406   2.341   9.884 -0.2952 -0.2601  0.8738
 1802SOL    HW217040   3.321   2.426   9.808  1.3105  0.1551 -1.6084
 1803SOL     OW17041   1.134   1.124   6.182 -0.3434  0.4024 -0.1877
 1803SOL    HW117042   1.207   1.118   6.120 -1.1623 -1.1120 -1.0263
 1803SOL    HW217043   1.130   1.033   6.212  0.2708  0.3281 -0.3193
 1804SOL     OW17044   0.279   1.361   1.112 -0.0144 -0.0886  0.2424
 1804SOL    HW117045   0.342   1.292   1.134 -1.9083 -0.9155  3.0982
 1804SOL    HW217046   0.216   1.306   1.066  0.0179  0.4486 -0.4463
 1805SOL     OW17047   2.970   3.440   3.253 -0.5403  0.2920 -1.0231
 1805SOL    HW117048   2.991   3.348   3.235 -0.1983 -0.1178  1.4537
 1805SOL    HW217049   2.894   3.414   3.305  0.4336  0.6753  0.5864
 1806SOL     OW17050   1.195   2.937   6.687 -0.6970  0.3367 -0.3571
 1806SOL    HW117051   1.176   3.016   6.637  1.0136 -0.4080 -2.1999
 1806SOL    HW217052   1.264   2.897   6.634 -0.7595 -1.4558  0.9091
 1807SOL     OW17053   1.475   2.963   2.669 -0.0180 -0.0746 -0.0047
 1807SOL    HW117054   1.532   3.027   2.626  1.0032 -0.6581  0.4848
 1807SOL    HW217055   1.467   2.893   2.604 -0.0109 -0.5353  0.4997
 1808SOL     OW17056   4.555   2.621   9.622  0.0529  0.7480  0.2806
 1808SOL    HW117057   4.556   2.552   9.556  0.3401 -0.1873  1.2630
 1808SOL    HW217058   4.630   2.670   9.588  0.9397 -1.0665 -0.3670
 1809SOL     OW17059   0.473   4.464   7.480  0.2257  0.5991 -0.4671
 1809SOL    HW117060   0.448   4.393   7.539 -0.4501 -0.3077 -1.8400
 1809SOL    HW217061   0.407   4.527   7.507  0.0995  1.4474 -2.7517
 1810SOL     OW17062   1.800   1.792   8.711  0.1559  0.1219 -0.3010
 1810SOL    HW117063   1.824   1.714   8.661  2.3054  0.7516 -0.2431
 1810SOL    HW217064   1.705   1.788   8.700 -0.3195  2.0760  3.1054
 1811SOL     OW17065   3.723   0.804   3.630 -0.1675  0.0786 -0.6323
 1811SOL    HW117066   3.704   0.725   3.681  0.2430 -1.3507 -2.6380
 1811SOL    HW217067   3.818   0.802   3.644 -0.3447 -0.8993  0.4317
 1812SOL     OW17068   0.290   1.454   5.851  0.1357  0.4310  0.2632
 1812SOL    HW117069   0.294   1.478   5.944 -1.3915 -0.7850  0.6399
 1812SOL    HW217070   0.196   1.443   5.840  0.2979 -2.8982  2.1885
 1813SOL     OW17071   2.734   0.348   5.120  0.6630 -0.2840 -0.7515
 1813SOL    HW117072   2.804   0.373   5.181  0.5224  0.4029 -0.8668
 1813SOL    HW217073   2.776   0.356   5.035  0.9608 -1.5764 -0.7210
 1814SOL     OW17074   2.776   4.659  15.607  0.1532 -0.0356  0.0709
 1814SOL    HW117075   2.684   4.648  15.583 -0.4550  1.7195  1.5652
 1814SOL    HW217076   2.807   4.626  15.523 -0.7489 -1.0743  0.1491
 1815SOL     OW17077   0.371   0.334   5.431  0.1486 -0.0119  0.5390
 1815SOL    HW117078   0.281   0.318   5.402 -0.0302 -1.4316  1.8868
 1815SOL    HW217079   0.419   0.344   5.349 -0.8551 -0.5219 -0.1106
 1816SOL     OW17080   1.694   2.936   2.229 -0.3395  0.5113  0.8062
 1816SOL    HW117081   1.676   2.884   2.151 -0.0693  3.3842 -1.1771
 1816SOL    HW217082   1.771   2.887   2.259 -0.2260  1.1730  1.5953
 1817SOL     OW17083   1.937   0.135  11.087 -0.6999 -0.3284 -0.3928
 1817SOL    HW117084   1.922   0.162  11.177  0.6474 -1.9808  0.3266
 1817SOL    HW217085   1.847   0.146  11.055 -0.4044  3.9324  0.2700
 1818SOL     OW17086   3.880   1.999  10.702  0.0205 -0.2811  0.2203
 1818SOL    HW117087   3.874   1.984  10.608 -0.9440 -0.7967  0.3625
 1818SOL    HW217088   3.811   2.064  10.717  1.5564  1.6420 -1.0577
 1819SOL     OW17089   0.460   4.650   3.725 -0.3365  0.0748 -0.6852
 1819SOL    HW117090   0.439   4.610   3.640 -1.2413 -2.6250  0.7922
 1819SOL    HW217091   0.447   4.569   3.774  1.3090  0.6604  0.7159
 1820SOL     OW17092   2.424   1.155  13.088  0.3392  0.1767 -0.0367
 1820SOL    HW117093   2.517   1.136  13.072  1.1272  1.4421  2.9664
 1820SOL    HW217094   2.398   1.079  13.139 -2.1391  1.5499  0.6952
 1821SOL     OW17095   0.393   4.143   5.616  0.6517 -0.1557  0.2478
 1821SOL    HW117096   0.449   4.142   5.538  0.6429  2.4276  0.2144
 1821SOL    HW217097   0.340   4.064   5.598 -0.7815  0.2620  2.6856
 1822SOL     OW17098   2.850   0.746   6.001 -0.1119  0.2630  0.1506
 1822SOL    HW117099   2.911   0.817   6.022  0.2153  0.0546 -0.0980
 1822SOL    HW217100   2.812   0.779   5.920 -1.7979 -0.0073  0.8264
 1823SOL     OW17101   1.170   0.732   7.156  0.0397  0.1555  0.1795
 1823SOL    HW117102   1.174   0.678   7.077  2.0914  0.3917  0.1252
 1823SOL    HW217103   1.081   0.766   7.170 -0.9880 -1.4083 -2.4886
 1824SOL     OW17104   2.993   1.068  11.122  0.3777 -0.0788 -0.1900
 1824SOL    HW117105   3.069   1.112  11.160  0.0219 -0.2316  0.6988
 1824SOL    HW217106   2.934   1.047  11.194 -1.2808 -1.4227 -1.9487
 1825SOL     OW17107   2.447   3.853   4.527 -0.0195  0.5416  0.4987
 1825SOL    HW117108   2.526   3.828   4.576 -0.4786  0.4909  1.2197
 1825SOL    HW217109   2.382   3.799   4.571 -0.2696  0.4234 -0.0142
 1826SOL     OW17110   4.083   0.178  17.348  0.1022 -0.6281 -0.0928
 1826SOL    HW117111   4.168   0.204  17.382 -0.9755  0.0754  2.0363
 1826SOL    HW217112   4.058   0.112  17.412  1.0251 -3.3095 -2.5205
 1827SOL     OW17113   3.579   2.725   0.936 -0.5020  0.6492 -0.3233
 1827SOL    HW117114   3.620   2.701   0.853  3.0493  2.2991  0.9605
 1827SOL    HW217115   3.621   2.810   0.945  1.0216 -0.0605 -0.7880
 1828SOL     OW17116   3.882   2.839   7.995  0.0529  0.4171  0.0180
 1828SOL    HW117117   3.820   2.819   8.066  2.9346  0.0487  2.4192
 1828SOL    HW217118   3.907   2.921   8.036 -1.2840  0.5657  0.5493
 1829SOL     OW17119   0.394   2.697   7.383 -0.1151 -0.3050  0.4967
 1829SOL    HW117120   0.433   2.646   7.313 -1.0158  0.2575 -0.4104
 1829SOL    HW217121   0.381   2.630   7.451  0.0063 -0.9826 -0.1534
 1830SOL     OW17122   2.145   1.204   1.571 -0.1946 -0.4877 -0.8957
 1830SOL    HW117123   2.238   1.225   1.568 -0.0843 -0.8706 -0.1044
 1830SOL    HW217124   2.144   1.190   1.666 -1.4065  1.8157 -0.5671
 1831SOL     OW17125   0.832   2.221  10.110  0.1686  0.3811  0.2231
 1831SOL    HW117126   0.766   2.255  10.050  1.4268 -0.0744 -1.4448
 1831SOL    HW217127   0.899   2.207  10.043  0.9645 -0.9277  1.2735
 1832SOL     OW17128   3.683   3.150   5.471  0.0922  0.1612  0.1836
 1832SOL    HW117129   3.606   3.111   5.428 -0.4999  1.8165 -0.2348
 1832SOL    HW217130   3.741   3.074   5.472 -0.0182  0.0644 -0.3766
 1833SOL     OW17131   3.412   0.819   6.930  0.2094  0.0021 -0.4311
 1833SOL    HW117132   3.378   0.787   6.846  1.6690 -3.0566  0.1349
 1833SOL    HW217133   3.481   0.879   6.900 -0.1756  0.1743 -0.9715
 1834SOL     OW17134   2.354   2.311   5.399 -0.5198 -0.1684 -0.1455
 1834SOL    HW117135   2.372   2.384   5.458  0.9870  0.0756 -0.9105
 1834SOL    HW217136   2.433   2.321   5.346 -1.0932  2.7033 -0.4747
 1835SOL     OW17137   1.882   3.969   7.967 -0.2511 -0.1221 -0.0520
 1835SOL    HW117138   1.804   3.958   7.914 -0.9588 -0.2305  1.0094
 1835SOL    HW217139   1.900   4.061   7.949  1.3024  0.1471  2.7994
 1836SOL     OW17140   2.800   0.738   2.155  0.3959  0.0422 -0.1662
 1836SOL    HW117141   2.771   0.829   2.156 -1.2144 -0.4617 -0.0105
 1836SOL    HW217142   2.825   0.728   2.064 -0.3945  1.8622 -0.5667
 1837SOL     OW17143   0.384   0.423   9.410 -0.4263  0.3817 -0.5027
 1837SOL    HW117144   0.387   0.443   9.504  2.7685  1.2058 -0.7861
 1837SOL    HW217145   0.295   0.444   9.381 -0.1349  0.8215 -1.0731
 1838SOL     OW17146   4.476   1.119   0.212  0.5753  0.3796  0.1875
 1838SOL    HW117147   4.396   1.134   0.261  1.0301  0.6959  0.8445
 1838SOL    HW217148   4.489   1.203   0.168 -0.2287 -0.5486 -1.7865
 1839SOL     OW17149   1.407   0.709  14.826 -0.0009 -0.0610  0.2387
 1839SOL    HW117150   1.420   0.672  14.739  0.9637  0.2152  0.2583
 1839SOL    HW217151   1.314   0.696  14.843  0.5349 -1.7348  1.9031
 1840SOL     OW17152   0.218   1.612   3.058  0.3910  0.0052 -0.3425
 1840SOL    HW117153   0.276   1.542   3.090  1.4305  1.6587  1.3865
 1840SOL    HW217154   0.274   1.645   2.988  2.3024 -0.6315  0.8584
 1841SOL     OW17155   4.599   0.563   3.725  0.8951 -0.7213 -0.3791
 1841SOL    HW117156   4.676   0.600   3.767  0.2939  0.3812 -0.2682
 1841SOL    HW217157   4.608   0.468   3.729  1.3849 -0.6891 -0.6159
 1842SOL     OW17158   3.502   0.830   4.725 -0.2792  0.4839  0.1627
 1842SOL    HW117159   3.579   0.835   4.782 -0.6066  0.4338  0.6148
 1842SOL    HW217160   3.506   0.737   4.703  1.8117  0.5603  0.2525
 1843SOL     OW17161   4.103   3.145  17.088 -0.2890  0.3860 -0.0860
 1843SOL    HW117162   4.110   3.132  17.183  3.3943  2.3671 -0.0672
 1843SOL    HW217163   4.043   3.078  17.055  1.7582 -2.2455  1.4914
 1844SOL     OW17164   1.550   1.558  14.206 -0.1210  0.1562 -0.3705
 1844SOL    HW117165   1.570   1.650  14.223  1.1642 -0.4140  1.3199
 1844SOL    HW217166   1.469   1.536  14.252  0.7507 -1.1192  0.5800
 1845SOL     OW17167   0.102   1.847   8.060 -0.0413 -0.0501 -0.4789
 1845SOL    HW117168   0.175   1.895   8.021 -0.0518 -0.0231 -0.4653
 1845SOL    HW217169   0.123   1.854   8.153 -2.9031 -0.3015  0.1909
 1846SOL     OW17170   3.327   3.381   9.473 -0.3738 -0.2880 -1.0130
 1846SOL    HW117171   3.386   3.355   9.543  2.1363  0.3300 -2.9002
 1846SOL    HW217172   3.335   3.476   9.474 -1.1615 -0.2177 -1.2225
 1847SOL     OW17173   0.571   3.175   4.313  0.0701  0.6880 -0.2650
 1847SOL    HW117174   0.605   3.265   4.308 -0.8765  0.9989 -1.3084
 1847SOL    HW217175   0.566   3.154   4.219  0.1924 -2.6604  0.5084
 1848SOL     OW17176   4.575   1.179   7.798 -0.5901  0.2219  0.0214
 1848SOL    HW117177   4.567   1.271   7.823 -0.4654  0.3902 -0.5392
 1848SOL    HW217178   4.656   1.164   7.847 -1.2541  0.4841  1.1864
 1849SOL     OW17179   2.661   4.002   8.758 -0.3198 -0.2266 -0.0041
 1849SOL    HW117180   2.640   3.987   8.666 -1.5479  0.3238  0.1880
 1849SOL    HW217181   2.669   3.911   8.786  0.6339  0.4420  1.9050
 1850SOL     OW17182   2.581   0.440   2.950 -1.0104  0.1685  0.1062
 1850SOL    HW117183   2.674   0.462   2.951 -0.8224 -0.6347  0.0293
 1850SOL    HW217184   2.580   0.374   2.882  0.9235 -1.8380  2.0225
 1851SOL     OW17185   2.358   0.397  12.950  0.4445 -0.0109  0.2976
 1851SOL    HW117186   2.322   0.309  12.940  2.9465 -1.0964  0.7955
 1851SOL    HW217187   2.452   0.378  12.952  0.1848 -1.3523 -0.3279
 1852SOL     OW17188   4.005   1.220   7.289 -0.1329 -0.0745  0.4605
 1852SOL    HW117189   4.025   1.211   7.195  2.5700  0.7131  0.9587
 1852SOL    HW217190   3.921   1.176   7.300 -0.1433 -0.2988 -0.4412
 1853SOL     OW17191   4.683   3.080   1.566 -0.6288 -0.3711  0.5163
 1853SOL    HW117192   4.667   3.032   1.485  0.0205 -0.5270  0.4759
 1853SOL    HW217193   0.033   3.107   1.555 -0.3639 -1.5132 -0.1373
 1854SOL     OW17194   3.497   0.223   2.654 -0.0844 -0.2073  0.0189
 1854SOL    HW117195   3.570   0.271   2.615 -1.3124 -0.5636 -2.7374
 1854SOL    HW217196   3.435   0.231   2.582  0.4964  0.7340 -0.3826
 1855SOL     OW17197   3.569   3.923  16.568  0.1262 -0.7488 -0.6463
 1855SOL    HW117198   3.646   3.924  16.511  1.0214 -0.6389  0.5703
 1855SOL    HW217199   3.533   4.010  16.551  0.3350 -0.4187  0.5823
 1856SOL     OW17200   3.031   2.081   1.327 -0.2676  0.1805 -0.8755
 1856SOL    HW117201   3.026   2.024   1.403  3.1098  1.8246  0.5673
 1856SOL    HW217202   2.939   2.096   1.305 -0.7663 -0.5990  0.6699
 1857SOL     OW17203   0.920   1.901   4.742 -0.4187  0.0204  0.1879
 1857SOL    HW117204   0.955   1.973   4.690 -0.6607  0.0494  0.0643
 1857SOL    HW217205   0.967   1.923   4.823  1.0784 -1.0124 -0.4118
 1858SOL     OW17206   0.650   3.437   4.218 -0.2225  0.1150  0.6551
 1858SOL    HW117207   0.582   3.483   4.170 -0.1043  1.2488  1.5684
 1858SOL    HW217208   0.698   3.510   4.257 -1.2726  0.1217  1.9244
 1859SOL     OW17209   3.081   0.953   7.254 -0.1931 -0.0470 -0.1239
 1859SOL    HW117210   3.072   1.021   7.188  0.3696 -0.9518 -1.1268
 1859SOL    HW217211   3.091   1.007   7.333 -0.5513  1.6051 -1.2172
 1860SOL     OW17212   1.410   2.548  10.052  0.1244 -0.5564 -0.1045
 1860SOL    HW117213   1.368   2.583  10.131 -1.3868  2.7415 -2.3779
 1860SOL    HW217214   1.453   2.629  10.025 -1.9601  0.4609 -0.3532
 1861SOL     OW17215   0.751   2.002   8.553 -0.1496 -0.4435 -0.1135
 1861SOL    HW117216   0.802   2.067   8.601 -1.0759  0.9733 -1.0430
 1861SOL    HW217217   0.730   1.947   8.628  3.4875  0.1788  1.3909
 1862SOL     OW17218   1.577   0.888   4.734 -0.0163  0.1061 -0.1693
 1862SOL    HW117219   1.485   0.892   4.707 -0.3454  0.6543  1.0065
 1862SOL    HW217220   1.619   0.944   4.669  0.7861 -0.0704  0.2019
 1863SOL     OW17221   1.351   2.548   5.052  0.0261  0.2268 -0.8064
 1863SOL    HW117222   1.306   2.476   5.007  0.8540  0.0227 -1.3143
 1863SOL    HW217223   1.391   2.496   5.122  0.3178  0.7145 -0.6107
 1864SOL     OW17224   4.732   2.032  13.714  0.3440  0.1972  0.3996
 1864SOL    HW117225   4.715   2.103  13.775  2.3518  0.3097  0.8242
 1864SOL    HW217226   4.671   2.056  13.644  0.5665  1.3952  0.6144
 1865SOL     OW17227   2.996   3.908  15.249 -0.6070 -0.9394  0.1220
 1865SOL    HW117228   3.019   3.829  15.298 -1.4278 -1.8147 -0.9063
 1865SOL    HW217229   2.982   3.965  15.325  2.7853  1.0149 -0.6970
 1866SOL     OW17230   1.567   3.588  10.005  0.1020  0.3784 -0.0638
 1866SOL    HW117231   1.495   3.605   9.944  1.1256  0.0549 -1.3549
 1866SOL    HW217232   1.617   3.535   9.943  3.5484  1.5136  1.7508
 1867SOL     OW17233   3.005   2.033   8.958 -0.9200  0.0877 -0.0638
 1867SOL    HW117234   2.917   1.995   8.965 -0.3270 -1.2919 -0.2287
 1867SOL    HW217235   2.987   2.122   8.925  0.9989  0.6632  0.4634
 1868SOL     OW17236   3.279   3.115  16.142 -0.2170  0.7764 -0.0483
 1868SOL    HW117237   3.222   3.153  16.209 -0.5368 -3.5628  2.1272
 1868SOL    HW217238   3.357   3.168  16.154  1.1565 -1.0367 -0.9861
 1869SOL     OW17239   3.731   3.863   8.592 -0.3582  0.2249  0.2876
 1869SOL    HW117240   3.700   3.861   8.502 -1.0051 -0.0523  0.5156
 1869SOL    HW217241   3.791   3.933   8.567 -0.5883  0.0160 -0.8430
 1870SOL     OW17242   3.946   4.149   4.759 -0.4990 -0.4326 -0.0661
 1870SOL    HW117243   3.899   4.231   4.743 -1.1535 -0.3927  2.0365
 1870SOL    HW217244   3.883   4.082   4.732 -0.0648 -1.1522  0.6799
 1871SOL     OW17245   0.537   1.232   5.733  0.7307  0.3817  0.1957
 1871SOL    HW117246   0.620   1.278   5.743  0.8638  0.4632 -1.2936
 1871SOL    HW217247   0.479   1.281   5.675  0.2856  1.4079  1.4991
 1872SOL     OW17248   0.363   2.067  11.545  0.1001 -0.0605 -0.7779
 1872SOL    HW117249   0.449   2.070  11.502  1.1233  0.2452  1.2645
 1872SOL    HW217250   0.347   1.972  11.552 -2.2646  0.5020  1.4687
 1873SOL     OW17251   2.410   0.206   4.588 -0.2013  0.1009 -0.0892
 1873SOL    HW117252   2.316   0.224   4.581 -0.5346 -1.1676  0.9757
 1873SOL    HW217253   2.405   0.133   4.650 -0.5132 -0.7037 -1.0467
 1874SOL     OW17254   3.040   3.273  13.211 -0.1892 -0.3236 -0.4683
 1874SOL    HW117255   2.946   3.288  13.218  0.3684  3.6427 -1.7396
 1874SOL    HW217256   3.048   3.187  13.171 -2.1722 -0.7335  0.0268
 1875SOL     OW17257   3.644   2.697  12.984  0.4207 -0.0446 -0.2588
 1875SOL    HW117258   3.686   2.740  12.909  1.7453 -2.8160 -1.0893
 1875SOL    HW217259   3.689   2.713  13.066 -0.9696  0.2799  0.4415
 1876SOL     OW17260   1.147   2.295   6.425 -0.3626 -0.2613 -0.0939
 1876SOL    HW117261   1.083   2.235   6.387  0.3674 -0.0727 -1.6410
 1876SOL    HW217262   1.165   2.348   6.347  2.2856  0.3521  0.9028
 1877SOL     OW17263   2.292   1.017   1.347 -0.2993 -0.6163  0.4204
 1877SOL    HW117264   2.280   0.923   1.341 -0.5939 -0.5779  0.3960
 1877SOL    HW217265   2.339   1.023   1.430  0.5736  0.0689 -0.1126
 1878SOL     OW17266   3.853   2.541   2.881 -0.1934 -0.2152 -0.1586
 1878SOL    HW117267   3.825   2.630   2.904 -1.8355 -0.9496  0.6956
 1878SOL    HW217268   3.792   2.488   2.933 -0.1374 -0.1406 -0.0154
 1879SOL     OW17269   2.103   0.978  14.752  0.6173  0.2904 -0.1079
 1879SOL    HW117270   2.110   0.997  14.659  1.7674  1.4394  0.2208
 1879SOL    HW217271   2.009   0.993  14.764  0.5055  0.7049 -1.5825
 1880SOL     OW17272   4.172   1.324   8.257 -0.0743  0.0831  0.3341
 1880SOL    HW117273   4.203   1.390   8.195 -1.1160 -0.0711 -0.3562
 1880SOL    HW217274   4.229   1.335   8.334  0.1994 -0.9631  0.2747
 1881SOL     OW17275   2.136   3.036   6.367 -0.0360  0.1782  0.3435
 1881SOL    HW117276   2.116   3.120   6.326 -0.5974 -0.6384 -1.0656
 1881SOL    HW217277   2.057   2.989   6.341 -0.1450  0.6562 -0.1976
 1882SOL     OW17278   2.710   2.013   5.950 -0.4836  0.2259 -0.1364
 1882SOL    HW117279   2.656   1.978   5.880 -0.9663 -0.7608  0.7289
 1882SOL    HW217280   2.793   1.965   5.954 -1.0869 -0.7619  0.5525
 1883SOL     OW17281   3.687   1.246   2.583 -0.3548  0.1699 -0.6166
 1883SOL    HW117282   3.769   1.225   2.539  0.8504  0.2400  1.5655
 1883SOL    HW217283   3.714   1.333   2.614 -2.2843  0.3796  0.4786
 1884SOL     OW17284   2.177   3.698   6.731 -0.0510  0.1133 -0.0003
 1884SOL    HW117285   2.138   3.696   6.644 -0.9402 -0.9960  0.4264
 1884SOL    HW217286   2.252   3.754   6.711 -2.7411  2.9999 -2.0099
 1885SOL     OW17287   2.392   4.113   5.969  0.4268 -0.3728  0.3024
 1885SOL    HW117288   2.402   4.153   6.055  0.2330  1.3781 -0.4832
 1885SOL    HW217289   2.319   4.059   5.999  0.1003  0.0121  0.2078
 1886SOL     OW17290   4.501   1.835   4.941  0.1189 -0.4391 -0.3542
 1886SOL    HW117291   4.443   1.777   4.990  0.1314 -0.5700 -0.4936
 1886SOL    HW217292   4.468   1.918   4.976 -0.2555  0.2102 -2.2122
 1887SOL     OW17293   0.934   3.163   8.754  0.3091 -0.0303  0.1006
 1887SOL    HW117294   1.016   3.195   8.792 -0.2038  0.7017  0.5888
 1887SOL    HW217295   0.890   3.136   8.835  2.2159 -0.3146  1.0459
 1888SOL     OW17296   2.340   1.840   1.676 -0.1281  0.3002  0.2240
 1888SOL    HW117297   2.365   1.818   1.587 -1.6853 -1.5000  0.2158
 1888SOL    HW217298   2.246   1.823   1.669 -0.1357  1.1279 -1.7313
 1889SOL     OW17299   4.688   3.377   8.749  0.4099 -0.1032 -0.0830
 1889SOL    HW117300   4.700   3.349   8.658 -0.8123  1.3388 -0.6748
 1889SOL    HW217301   4.626   3.314   8.785 -0.2981 -0.2273 -1.5439
 1890SOL     OW17302   0.520   0.574   0.792 -0.3394 -0.2855  0.8117
 1890SOL    HW117303   0.474   0.551   0.712 -1.1819  2.9738  0.3819
 1890SOL    HW217304   0.483   0.660   0.808 -0.6404 -0.3209  0.3016
 1891SOL     OW17305   1.690   1.664  17.134  0.3902 -0.3224 -0.6899
 1891SOL    HW117306   1.771   1.633  17.176  0.1380 -0.1270 -0.0571
 1891SOL    HW217307   1.675   1.586  17.080 -0.4831 -0.5309 -0.1423
 1892SOL     OW17308   2.029   3.183   3.678  0.6135 -0.0540  0.2116
 1892SOL    HW117309   2.079   3.241   3.736  1.8109  2.5313 -3.4076
 1892SOL    HW217310   1.975   3.240   3.624 -0.5171 -0.5500  0.7989
 1893SOL     OW17311   4.533   3.987   6.914 -0.2541  0.0142 -0.3955
 1893SOL    HW117312   4.620   4.004   6.950 -0.5499 -0.7209  0.6948
 1893SOL    HW217313   4.556   4.004   6.823  2.5487 -0.5783  0.2264
 1894SOL     OW17314   4.053   0.674   3.896 -0.6620 -0.0513  0.0334
 1894SOL    HW117315   4.037   0.721   3.814  0.3451  1.4168  0.6868
 1894SOL    HW217316   4.024   0.586   3.872  1.0763 -1.4074  2.8432
 1895SOL     OW17317   2.648   2.796   4.744 -0.2893 -0.4898 -0.1646
 1895SOL    HW117318   2.713   2.727   4.754 -1.1372 -1.2414  0.1534
 1895SOL    HW217319   2.647   2.810   4.649 -1.6458  0.8009  0.0365
 1896SOL     OW17320   1.431   0.974   9.609  0.3437 -0.1637 -0.0024
 1896SOL    HW117321   1.405   0.910   9.543 -0.0918 -0.5326  0.5274
 1896SOL    HW217322   1.405   0.931   9.691 -1.5518  1.1346  0.1011
 1897SOL     OW17323   3.302   2.368   1.063 -0.1785 -0.4730  0.3241
 1897SOL    HW117324   3.384   2.404   1.097  1.6758 -3.3511 -1.0971
 1897SOL    HW217325   3.305   2.280   1.102  3.6223 -0.9291 -0.9691
 1898SOL     OW17326   1.299   0.029   5.454  0.1099 -0.6575  0.4530
 1898SOL    HW117327   1.296   0.052   5.547 -1.2808 -0.6423  0.3922
 1898SOL    HW217328   1.358   0.098   5.422  0.7442 -0.1866  2.6161
 1899SOL     OW17329   2.500   0.677   5.798  0.2440 -0.2203 -1.0901
 1899SOL    HW117330   2.417   0.630   5.807  0.2016  0.0366 -0.0975
 1899SOL    HW217331   2.539   0.643   5.718  1.6176 -2.0856  0.3517
 1900SOL     OW17332   1.394   0.602  12.297  0.2902  0.2429 -0.1183
 1900SOL    HW117333   1.398   0.540  12.370  0.0789  1.3365  0.8197
 1900SOL    HW217334   1.457   0.566  12.235 -0.4435 -2.4826  0.7124
 1901SOL     OW17335   3.735   2.867  10.154 -0.1454 -0.5086 -0.0849
 1901SOL    HW117336   3.804   2.882  10.088  0.9977  0.0239  1.2253
 1901SOL    HW217337   3.763   2.927  10.223 -0.2649  2.1884 -2.3484
 1902SOL     OW17338   0.293   3.419  17.127 -0.3813  0.3407  0.7035
 1902SOL    HW117339   0.387   3.431  17.113 -0.8229  0.7656 -1.7968
 1902SOL    HW217340   0.268   3.353  17.063  1.4635 -1.2020  1.5904
 1903SOL     OW17341   3.202   2.786   4.765  0.2090  0.9427 -0.4433
 1903SOL    HW117342   3.129   2.828   4.811 -0.3945  0.4627 -0.9508
 1903SOL    HW217343   3.182   2.802   4.672 -0.7346 -0.6815 -0.5231
 1904SOL     OW17344   3.362   4.194  17.194  0.2556  0.1081 -0.9455
 1904SOL    HW117345   3.451   4.174  17.225  0.3747  0.4881 -1.0503
 1904SOL    HW217346   3.381   4.210  17.101  1.2104 -0.0068 -0.7726
 1905SOL     OW17347   1.593   4.573  13.019  0.2247 -0.1488  0.1779
 1905SOL    HW117348   1.645   4.651  13.043  2.4724 -0.8602 -2.3356
 1905SOL    HW217349   1.512   4.611  13.052  0.0022 -0.8319  0.4042
 1906SOL     OW17350   0.061   2.993   8.608 -0.1047  0.1714 -0.2400
 1906SOL    HW117351   0.040   3.074   8.562 -0.5523 -0.6218 -1.4182
 1906SOL    HW217352   4.716   2.959   8.632  0.8003 -1.0371  1.2499
 1907SOL     OW17353   0.057   0.270  11.615 -0.0814 -0.5891 -0.4683
 1907SOL    HW117354   4.722   0.279  11.672 -1.3847 -0.4862 -2.1905
 1907SOL    HW217355   0.104   0.210  11.673  0.2951  1.8377  1.6883
 1908SOL     OW17356   0.727   0.259   2.663  0.1083  0.1344 -0.0947
 1908SOL    HW117357   0.718   0.298   2.576 -1.5166 -0.0905 -0.0334
 1908SOL    HW217358   0.770   0.175   2.650 -1.0799 -0.4429 -0.3316
 1909SOL     OW17359   4.375   1.310   1.951  0.1768  0.0177  0.5392
 1909SOL    HW117360   4.441   1.357   1.900  0.5502  0.6125  1.5538
 1909SOL    HW217361   4.334   1.380   2.002 -1.5227 -0.3460 -0.3442
 1910SOL     OW17362   3.651   0.509   5.491  0.0128 -0.0703  0.0153
 1910SOL    HW117363   3.723   0.503   5.553 -0.5337 -3.4193  0.3422
 1910SOL    HW217364   3.587   0.448   5.529  0.7440 -0.3490  0.7831
 1911SOL     OW17365   4.204   0.368   2.824  0.6664 -0.0515 -0.3120
 1911SOL    HW117366   4.262   0.438   2.855 -0.3743  1.1293 -1.0830
 1911SOL    HW217367   4.259   0.318   2.764  0.7074 -2.8438  2.0129
 1912SOL     OW17368   3.339   3.911  16.984 -0.5584 -0.0674  0.3612
 1912SOL    HW117369   3.250   3.900  17.017 -1.5071  1.0268 -1.8064
 1912SOL    HW217370   3.324   3.949  16.897 -1.9252 -1.8071 -0.1682
 1913SOL     OW17371   2.511   3.470  12.082 -0.6698  0.3418  0.4439
 1913SOL    HW117372   2.439   3.529  12.062 -0.6183  0.2000 -0.1659
 1913SOL    HW217373   2.587   3.528  12.087  1.1174 -1.9579  0.2133
 1914SOL     OW17374   2.772   0.649   4.408 -0.4614 -0.1058 -0.0975
 1914SOL    HW117375   2.718   0.569   4.409  0.1607 -0.5157  0.3443
 1914SOL    HW217376   2.711   0.710   4.450 -2.1644 -0.7324 -1.6279
 1915SOL     OW17377   1.231   0.542   1.627  0.6295  0.0372  0.1677
 1915SOL    HW117378   1.163   0.609   1.626  1.5186  0.9623  0.9051
 1915SOL    HW217379   1.211   0.508   1.714 -0.8833  0.1313 -0.1564
 1916SOL     OW17380   2.167   0.995   7.022 -0.3097  0.0853  0.3183
 1916SOL    HW117381   2.225   0.932   7.066 -0.1193 -0.4553 -0.6963
 1916SOL    HW217382   2.223   1.053   6.969 -0.5092 -1.7811 -1.9748
 1917SOL     OW17383   3.757   4.320  16.569 -0.2506 -0.2560 -0.2109
 1917SOL    HW117384   3.772   4.410  16.541  2.5689 -0.9070 -0.7463
 1917SOL    HW217385   3.797   4.270  16.498  1.0197  1.7885 -0.9141
 1918SOL     OW17386   0.803   4.696   7.848  0.0661  0.5799  0.4159
 1918SOL    HW117387   0.745   4.696   7.772 -1.1563  0.1505  1.3391
 1918SOL    HW217388   0.740   4.725   7.913 -2.0160 -1.5579 -0.6139
 1919SOL     OW17389   0.701   4.438   3.061 -0.5753  0.1351  0.7181
 1919SOL    HW117390   0.736   4.350   3.073  3.1100  1.6997  1.4084
 1919SOL    HW217391   0.778   4.493   3.073 -0.3424 -0.0403  0.0475
 1920SOL     OW17392   2.485   4.039   6.316  0.6133  0.4144 -0.4372
 1920SOL    HW117393   2.421   4.111   6.313  0.9825  0.7519 -0.1406
 1920SOL    HW217394   2.462   3.991   6.395  1.8436 -2.3113 -1.7154
 1921SOL     OW17395   3.145   1.903   2.922  0.2220  0.5604  0.3366
 1921SOL    HW117396   3.216   1.954   2.963  2.3733 -2.0808 -0.0664
 1921SOL    HW217397   3.105   1.869   3.002 -1.6881  1.2233 -0.3548
 1922SOL     OW17398   4.487   0.424  15.175 -0.6207  0.7602 -0.2599
 1922SOL    HW117399   4.503   0.476  15.254  1.3180 -0.7157  0.3429
 1922SOL    HW217400   4.443   0.492  15.125  0.5559  1.4334 -0.3708
 1923SOL     OW17401   3.819   0.528   0.860  1.3802  0.2121 -0.1391
 1923SOL    HW117402   3.731   0.563   0.848 -0.2731 -3.7352  0.4320
 1923SOL    HW217403   3.870   0.603   0.888  1.7989 -0.1892  0.1629
 1924SOL     OW17404   3.121   2.297   8.686  0.0537  0.0800  0.1802
 1924SOL    HW117405   3.034   2.276   8.720 -0.0102 -0.7144 -0.4655
 1924SOL    HW217406   3.110   2.379   8.639  0.4822 -0.6003 -1.1326
 1925SOL     OW17407   2.616   1.279   3.722  0.1808 -0.1038  0.3370
 1925SOL    HW117408   2.565   1.247   3.648  2.3388 -2.0496 -0.2997
 1925SOL    HW217409   2.558   1.319   3.786 -1.8777 -0.6578 -1.2042
 1926SOL     OW17410   1.196   2.287   5.275 -0.0775  0.5854 -0.6205
 1926SOL    HW117411   1.175   2.196   5.296 -0.5114  0.5450 -1.2309
 1926SOL    HW217412   1.113   2.324   5.245  0.1814  0.5404 -1.3895
 1927SOL     OW17413   4.571   4.486   9.983  0.1756  0.4081  0.2035
 1927SOL    HW117414   4.651   4.539   9.984  0.1634  0.4392 -0.8966
 1927SOL    HW217415   4.608   4.398   9.982 -0.4396  0.1355  1.4452
 1928SOL     OW17416   2.896   2.707   3.228  0.1338  0.6420  0.2272
 1928SOL    HW117417   2.912   2.643   3.297  0.9152  0.4460 -0.1442
 1928SOL    HW217418   2.838   2.656   3.172  2.4191 -1.8274  0.1596
 1929SOL     OW17419   3.171   0.830   3.587 -0.5451 -0.0819 -0.3713
 1929SOL    HW117420   3.195   0.870   3.671 -1.7185 -0.8063  0.3161
 1929SOL    HW217421   3.189   0.742   3.620 -2.7639 -0.7736 -0.9929
 1930SOL     OW17422   3.705   1.228   4.802 -0.3484  0.1417  0.0728
 1930SOL    HW117423   3.764   1.241   4.728 -0.6509 -2.4593 -0.6338
 1930SOL    HW217424   3.619   1.216   4.760 -0.6533  0.1529  0.6975
 1931SOL     OW17425   2.049   2.447  11.475  0.9093  0.1771  0.5632
 1931SOL    HW117426   1.972   2.390  11.480  1.4462 -0.5271  0.7424
 1931SOL    HW217427   2.123   2.386  11.480 -0.3797 -1.3810  0.6892
 1932SOL     OW17428   1.683   1.980   9.642  0.6950 -0.1033 -0.2436
 1932SOL    HW117429   1.687   2.070   9.675 -2.9343 -0.8643  2.2029
 1932SOL    HW217430   1.603   1.952   9.687  0.9446 -0.1392  0.1743
 1933SOL     OW17431   0.665   0.146   8.415  0.4422 -0.1598 -0.1375
 1933SOL    HW117432   0.740   0.190   8.376  0.0394  0.0918 -0.6295
 1933SOL    HW217433   0.604   0.148   8.341 -0.3041 -0.9153  0.4495
 1934SOL     OW17434   2.849   2.656  15.476 -0.5013 -0.3395  0.6878
 1934SOL    HW117435   2.799   2.582  15.441  1.2197 -1.5153  0.6965
 1934SOL    HW217436   2.802   2.719  15.422  0.5259  0.0492  0.2522
 1935SOL     OW17437   2.815   2.080   5.648 -0.4817  0.7674  0.4489
 1935SOL    HW117438   2.731   2.127   5.642  1.0095  3.0750 -2.1483
 1935SOL    HW217439   2.833   2.108   5.738 -0.9644  2.1029  0.1308
 1936SOL     OW17440   0.335   0.607  16.596 -0.7231  0.3020  0.0445
 1936SOL    HW117441   0.307   0.645  16.679 -2.9907 -0.2152 -0.4703
 1936SOL    HW217442   0.261   0.629  16.539 -0.5720 -1.0529 -0.6746
 1937SOL     OW17443   1.433   3.411  16.727 -0.1218  0.1627 -0.6277
 1937SOL    HW117444   1.481   3.469  16.786 -1.7772  1.4650 -0.5939
 1937SOL    HW217445   1.506   3.358  16.694  1.7476  0.4582  3.0759
 1938SOL     OW17446   1.384   0.046   8.920 -0.4962 -0.5584 -0.3172
 1938SOL    HW117447   1.394   4.700   8.960 -0.4086  0.0766  1.0341
 1938SOL    HW217448   1.393   0.024   8.827 -0.1329 -1.9569  0.0462
 1939SOL     OW17449   3.878   2.729   3.885 -0.5402 -0.0067 -0.2548
 1939SOL    HW117450   3.822   2.797   3.848  0.4706  0.6047 -0.6524
 1939SOL    HW217451   3.969   2.754   3.870 -0.2350 -1.4612 -0.9092
 1940SOL     OW17452   2.896   2.521  12.522 -0.1613 -0.0024 -0.2930
 1940SOL    HW117453   2.862   2.559  12.603 -0.8877  0.6557 -0.9042
 1940SOL    HW217454   2.926   2.605  12.486  0.1575 -0.2450 -0.5936
 1941SOL     OW17455   1.630   0.767  12.273 -0.3888  0.2529 -0.2323
 1941SOL    HW117456   1.546   0.813  12.268 -1.1693 -1.2730 -0.9960
 1941SOL    HW217457   1.627   0.721  12.357 -0.7736  1.3803  0.3617
 1942SOL     OW17458   3.685   1.214   3.651  0.1982  0.0772 -0.0102
 1942SOL    HW117459   3.597   1.228   3.617  1.1976 -0.0592 -2.6644
 1942SOL    HW217460   3.682   1.120   3.671  2.1258 -0.4551 -2.1755
 1943SOL     OW17461   1.785   0.626   3.252 -0.1542  0.1832  0.2985
 1943SOL    HW117462   1.800   0.552   3.311  1.0514 -0.6601 -1.0723
 1943SOL    HW217463   1.690   0.640   3.252 -0.1502  0.1929  0.9948
 1944SOL     OW17464   4.410   3.146   2.533 -0.0813  0.0855  0.3438
 1944SOL    HW117465   4.345   3.213   2.511 -1.6806 -0.1599  4.3848
 1944SOL    HW217466   4.357   3.072   2.563 -1.2955 -0.0437 -2.0819
 1945SOL     OW17467   2.950   0.355  10.878  0.2425  0.4105 -0.4387
 1945SOL    HW117468   2.929   0.277  10.827  1.3769 -0.6713  0.7605
 1945SOL    HW217469   2.966   0.318  10.965  0.4432  0.0092 -0.6471
 1946SOL     OW17470   0.794   4.327   2.473  0.2318 -0.1616 -0.2583
 1946SOL    HW117471   0.795   4.421   2.455 -0.6268 -0.5961 -2.4412
 1946SOL    HW217472   0.851   4.297   2.403  2.1285  1.2744  0.6678
 1947SOL     OW17473   3.528   0.213  12.804  0.0063 -0.7131 -0.4523
 1947SOL    HW117474   3.514   0.266  12.882  0.4092 -0.3221 -0.6459
 1947SOL    HW217475   3.505   0.123  12.827  0.2056 -0.1855  1.7953
 1948SOL     OW17476   3.723   2.803   8.194  0.4679  0.0362 -0.1029
 1948SOL    HW117477   3.635   2.838   8.179  0.3346 -0.8919 -1.5679
 1948SOL    HW217478   3.712   2.745   8.270 -0.2648  1.3114  0.7536
 1949SOL     OW17479   1.834   1.409   8.371 -0.2478  0.5637 -0.0227
 1949SOL    HW117480   1.904   1.397   8.308 -0.4952  1.0327 -0.3894
 1949SOL    HW217481   1.767   1.343   8.352 -0.7824 -0.1227  4.0880
 1950SOL     OW17482   2.736   3.601  15.016 -0.3637 -0.7723  0.3180
 1950SOL    HW117483   2.825   3.634  15.001 -1.0772  0.1532 -1.8203
 1950SOL    HW217484   2.745   3.512  14.982  1.1434 -0.6136  0.2766
 1951SOL     OW17485   3.693   3.028  13.099 -0.8379  0.6087 -0.0436
 1951SOL    HW117486   3.784   3.037  13.071  0.0928  0.9441  3.1006
 1951SOL    HW217487   3.690   2.944  13.146  0.1268  0.9175  0.5602
 1952SOL     OW17488   4.659   4.343   8.219 -0.1767  0.1666 -0.6188
 1952SOL    HW117489   4.715   4.316   8.292  0.6712  2.3311 -0.4655
 1952SOL    HW217490   4.573   4.323   8.256 -1.2481  2.7508 -1.6918
 1953SOL     OW17491   0.946   3.797   1.178  0.0751  0.0554 -0.5981
 1953SOL    HW117492   0.990   3.826   1.098 -0.7258  1.6214 -0.4564
 1953SOL    HW217493   1.003   3.728   1.212  0.9156  0.1274 -1.8536
 1954SOL     OW17494   0.331   2.218   8.276  0.4730 -0.1096  0.3804
 1954SOL    HW117495   0.357   2.287   8.338  0.9630  0.1040 -0.0591
 1954SOL    HW217496   0.327   2.138   8.328 -1.4019  0.2763  0.8288
 1955SOL     OW17497   3.303   2.374  17.744  0.1735 -0.2449  0.2210
 1955SOL    HW117498   3.323   2.313   0.054  0.7111 -0.3081  0.0165
 1955SOL    HW217499   3.226   2.423   0.010 -2.9351 -3.5045 -2.8069
 1956SOL     OW17500   3.155   1.067   4.369  0.5274 -0.8564  0.2664
 1956SOL    HW117501   3.125   1.080   4.459  0.1942  2.3313 -0.2786
 1956SOL    HW217502   3.079   1.104   4.324  0.9955  0.8371  0.8700
 1957SOL     OW17503   0.316   0.556   5.571  0.3351 -0.2109  0.8324
 1957SOL    HW117504   0.349   0.617   5.505  1.5363 -2.1104 -0.3232
 1957SOL    HW217505   0.367   0.479   5.545  0.3462 -0.0704  0.4393
 1958SOL     OW17506   2.834   0.988   2.656  0.0192  0.7247 -0.1268
 1958SOL    HW117507   2.908   0.954   2.604  0.2689 -0.4577  1.0146
 1958SOL    HW217508   2.833   0.933   2.734  2.3471 -3.2385 -2.9294
 1959SOL     OW17509   2.118   3.469  17.736 -0.5947  0.1695  0.1940
 1959SOL    HW117510   2.029   3.491   0.001 -0.0647  0.6415  1.6280
 1959SOL    HW217511   2.139   3.547  17.684 -0.3689  0.7216  1.1053
 1960SOL     OW17512   1.595   4.216   1.940 -0.0300 -0.0959 -0.3954
 1960SOL    HW117513   1.541   4.296   1.935 -0.0466 -0.0760  0.0784
 1960SOL    HW217514   1.535   4.146   1.915 -0.9896  0.6486 -0.1776
 1961SOL     OW17515   0.611   3.088   5.540 -0.3914 -0.1385  0.8349
 1961SOL    HW117516   0.594   3.089   5.634  1.6448 -0.5426  1.1916
 1961SOL    HW217517   0.705   3.077   5.525 -0.1995  1.2758  0.9776
 1962SOL     OW17518   0.489   1.903   1.784 -0.2771  0.4313  0.3533
 1962SOL    HW117519   0.559   1.866   1.731  0.8684  0.0130  2.1551
 1962SOL    HW217520   0.473   1.841   1.856  4.9852 -0.5947  0.6192
 1963SOL     OW17521   3.691   3.927   5.224  0.2465  0.2698 -0.3283
 1963SOL    HW117522   3.748   3.853   5.203 -0.4502 -0.6201  0.8797
 1963SOL    HW217523   3.739   3.983   5.285 -2.1264  1.1756  0.7086
 1964SOL     OW17524   3.314   3.746   2.518  0.1937 -0.6430  0.5060
 1964SOL    HW117525   3.296   3.668   2.465  2.0393 -0.0760 -0.9841
 1964SOL    HW217526   3.221   3.767   2.516  1.1062  3.7966  3.5794
 1965SOL     OW17527   0.266   1.542  12.666 -0.3347  0.0669  0.1521
 1965SOL    HW117528   0.270   1.624  12.715 -0.2404  1.9344 -2.9340
 1965SOL    HW217529   0.179   1.555  12.628 -0.6308 -0.1630  0.7559
 1966SOL     OW17530   4.447   0.120   1.808  0.4653 -0.0824  0.2507
 1966SOL    HW117531   4.526   0.086   1.851  1.3233  1.3725 -0.1963
 1966SOL    HW217532   4.389   0.143   1.881 -1.2628  0.7106 -1.3954
 1967SOL     OW17533   2.335   3.784   3.833  0.2517 -0.3269  0.5969
 1967SOL    HW117534   2.416   3.833   3.843  1.1968 -1.9556  0.8186
 1967SOL    HW217535   2.367   3.701   3.798 -0.6261  0.1822 -1.4459
 1968SOL     OW17536   2.069   0.767   4.538  0.2778 -0.5018  0.0498
 1968SOL    HW117537   2.105   0.855   4.550 -0.1420 -0.3521  0.2041
 1968SOL    HW217538   2.103   0.753   4.450 -0.5302 -0.2313 -0.3049
 1969SOL     OW17539   0.938   0.176   4.549  0.3022 -0.2042  0.0201
 1969SOL    HW117540   0.886   0.172   4.629  1.5424 -0.8060  0.7808
 1969SOL    HW217541   0.965   0.267   4.559 -0.1391  0.0118 -0.7009
 1970SOL     OW17542   3.090   0.495   2.999 -0.3130 -0.0939  0.3707
 1970SOL    HW117543   3.149   0.449   3.059  0.5912  0.7904  0.1525
 1970SOL    HW217544   3.079   0.583   3.035  1.0576 -0.0387  0.6264
 1971SOL     OW17545   0.908   1.989  12.345  0.0981  0.0268 -0.5830
 1971SOL    HW117546   0.840   2.053  12.325 -0.8716 -1.1120 -0.9527
 1971SOL    HW217547   0.973   2.058  12.360  0.4320 -0.5860  0.8190
 1972SOL     OW17548   2.823   3.240   5.331 -0.4525  0.4298 -0.1581
 1972SOL    HW117549   2.775   3.322   5.345 -1.0995  0.1963 -0.9859
 1972SOL    HW217550   2.888   3.262   5.264 -0.8788  2.7219  0.1833
 1973SOL     OW17551   4.271   2.462   0.559 -0.3281  0.2613  0.2311
 1973SOL    HW117552   4.189   2.511   0.561 -0.3482  0.2764 -0.7314
 1973SOL    HW217553   4.248   2.376   0.523 -1.0517 -1.2274  4.3295
 1974SOL     OW17554   3.452   4.425   8.515 -0.0020  0.2389  0.3019
 1974SOL    HW117555   3.424   4.477   8.590  1.5417  1.4819  0.0166
 1974SOL    HW217556   3.402   4.343   8.518 -0.0879  0.2300 -0.9940
 1975SOL     OW17557   0.250   3.838   9.161 -0.3329 -0.5527  0.3092
 1975SOL    HW117558   0.186   3.865   9.096 -1.0418  0.0026  1.2413
 1975SOL    HW217559   0.260   3.920   9.210 -0.8798  0.5000 -1.3627
 1976SOL     OW17560   2.108   1.832   9.045  0.1831  0.6861  0.1910
 1976SOL    HW117561   2.150   1.780   8.977 -2.0469 -0.4370 -0.3204
 1976SOL    HW217562   2.078   1.763   9.104  0.1268  1.0514  0.5881
 1977SOL     OW17563   4.726   1.822   3.997  0.4210 -0.0537 -0.1116
 1977SOL    HW117564   0.034   1.861   4.069 -2.5505  3.5561 -0.0267
 1977SOL    HW217565   0.032   1.870   3.929  0.2949  1.3234  0.7717
 1978SOL     OW17566   1.170   3.465  10.156  0.0828  0.0755  0.7356
 1978SOL    HW117567   1.253   3.425  10.132 -1.0248 -1.1803 -0.9520
 1978SOL    HW217568   1.192   3.558  10.154  1.1768 -0.2169 -0.2240
 1979SOL     OW17569   2.048   3.333   5.106  0.5798 -0.0110  0.1697
 1979SOL    HW117570   2.035   3.290   5.021 -1.8199  2.0055 -0.4826
 1979SOL    HW217571   1.987   3.407   5.098 -0.5412 -1.2001 -2.2453
 1980SOL     OW17572   2.513   1.667   2.832  0.3567  0.6256  0.1466
 1980SOL    HW117573   2.521   1.722   2.910  0.2558  2.4761 -1.1602
 1980SOL    HW217574   2.525   1.581   2.872 -0.7457  1.1850  1.6739
 1981SOL     OW17575   0.695   4.253   5.478  0.6454  0.6222  0.5566
 1981SOL    HW117576   0.721   4.167   5.511 -0.0385 -0.3893 -1.5516
 1981SOL    HW217577   0.691   4.304   5.559  4.4556  0.5392  0.7756
 1982SOL     OW17578   2.166   4.343   7.101  0.2868 -0.1686 -0.1150
 1982SOL    HW117579   2.082   4.306   7.126 -0.0838  1.4309  1.0812
 1982SOL    HW217580   2.167   4.415   7.165 -0.8398  0.7815 -1.1604
 1983SOL     OW17581   1.078   2.780   1.158  0.0535  0.7817 -0.0738
 1983SOL    HW117582   1.004   2.838   1.143 -0.3739  0.1659 -0.3213
 1983SOL    HW217583   1.143   2.851   1.161  1.0986 -0.2255  1.0779
 1984SOL     OW17584   1.055   2.142  15.755  0.0651  0.1980 -0.4028
 1984SOL    HW117585   1.033   2.075  15.690 -0.8652 -0.1019  0.2141
 1984SOL    HW217586   0.982   2.204  15.757  0.3235  0.4532  0.9967
 1985SOL     OW17587   1.362   1.102   2.898 -0.1012 -0.3909 -0.4834
 1985SOL    HW117588   1.310   1.081   2.820  0.3849  1.2891 -1.2609
 1985SOL    HW217589   1.423   1.029   2.891 -2.9038 -2.7657 -0.0981
 1986SOL     OW17590   0.503   3.692   5.897 -0.0116 -0.3833  0.0646
 1986SOL    HW117591   0.566   3.652   5.957  0.8677 -0.2493 -0.7579
 1986SOL    HW217592   0.496   3.620   5.834 -1.1746 -0.4322  0.2551
 1987SOL     OW17593   3.561   2.997  12.865 -0.0366  0.3427  0.4374
 1987SOL    HW117594   3.474   3.037  12.860  0.3803  1.1086 -0.8259
 1987SOL    HW217595   3.591   3.009  12.955  2.5591  2.6631 -0.7376
 1988SOL     OW17596   1.451   3.857   3.996 -0.0976  0.3955 -0.7076
 1988SOL    HW117597   1.388   3.843   4.066  0.5949  2.4233  0.3148
 1988SOL    HW217598   1.536   3.887   4.030 -0.1097  0.6471 -0.9037
 1989SOL     OW17599   4.553   0.954   0.430 -0.0125 -0.1656 -0.2441
 1989SOL    HW117600   4.545   1.014   0.356 -0.4508 -0.8525 -0.7582
 1989SOL    HW217601   4.503   0.880   0.397  1.3277 -0.9513 -0.5259
 1990SOL     OW17602   0.654   3.726   0.317  0.5351 -0.1208  0.2024
 1990SOL    HW117603   0.714   3.736   0.391  2.2375 -0.1795 -1.1501
 1990SOL    HW217604   0.566   3.711   0.350  0.2845  0.8562 -0.0320
 1991SOL     OW17605   4.565   1.342  14.863 -0.0492  0.0181  0.2190
 1991SOL    HW117606   4.606   1.265  14.824  0.0319  0.2586 -0.1766
 1991SOL    HW217607   4.493   1.308  14.917 -0.5301 -1.4049 -1.3204
 1992SOL     OW17608   4.096   0.111  16.805 -0.3339  0.0710  0.0825
 1992SOL    HW117609   4.101   0.159  16.887 -0.3441  1.5843 -0.7956
 1992SOL    HW217610   4.181   0.068  16.811 -1.8454 -2.8678  0.4367
 1993SOL     OW17611   1.717   0.856   0.053 -0.1249 -0.1186 -0.6707
 1993SOL    HW117612   1.649   0.789   0.046 -1.8499  1.7024 -1.5022
 1993SOL    HW217613   1.722   0.874  17.720 -3.5190  0.9347 -0.6463
 1994SOL     OW17614   1.341   0.500   2.124 -0.0742 -0.4143 -0.5109
 1994SOL    HW117615   1.398   0.576   2.123 -0.5664 -0.0372  0.3652
 1994SOL    HW217616   1.381   0.438   2.063  1.1415 -1.6498  1.5141
 1995SOL     OW17617   2.155   0.462   6.470  0.1261 -0.3605 -0.9299
 1995SOL    HW117618   2.238   0.430   6.505 -0.9061 -1.9655  0.0146
 1995SOL    HW217619   2.105   0.389   6.506 -1.1017  0.1788 -1.5308
 1996SOL     OW17620   2.232   4.285   9.077 -0.1435 -0.1880  0.8691
 1996SOL    HW117621   2.279   4.226   9.017 -0.8450 -1.4578  1.5888
 1996SOL    HW217622   2.289   4.283   9.154  1.5380 -1.3053 -0.4055
 1997SOL     OW17623   2.627   2.432   3.341  0.1139 -0.6424  0.2140
 1997SOL    HW117624   2.631   2.510   3.397  2.4345 -0.8601  0.3312
 1997SOL    HW217625   2.539   2.403   3.365 -0.3583  0.6926  0.0770
 1998SOL     OW17626   3.536   0.524   2.192  1.2090  0.0425 -0.0372
 1998SOL    HW117627   3.599   0.453   2.204 -0.5789 -1.9775 -2.4734
 1998SOL    HW217628   3.456   0.474   2.174  1.8330  0.2525 -3.3895
 1999SOL     OW17629   2.225   3.412   1.335  0.4838  0.6402 -0.6201
 1999SOL    HW117630   2.151   3.473   1.327 -0.1775 -0.1177 -0.2312
 1999SOL    HW217631   2.220   3.381   1.425 -1.2938 -2.4745 -1.7826
 2000SOL     OW17632   1.997   1.766   6.679 -0.8980  0.3078  0.8332
 2000SOL    HW117633   1.913   1.788   6.637 -0.8472 -0.8852  0.1287
 2000SOL    HW217634   2.043   1.745   6.598 -2.0673 -1.2504  0.5698
 2001SOL     OW17635   2.049   4.729   7.388  0.0565 -0.0738  0.3490
 2001SOL    HW117636   2.073   4.738   7.480  0.1065  0.0406  0.3251
 2001SOL    HW217637   1.971   0.044   7.383  0.3759  0.2753 -0.7445
 2002SOL     OW17638   1.854   3.488   0.338  0.3016 -0.1098  0.2145
 2002SOL    HW117639   1.815   3.516   0.255  0.3857  0.8179  0.4792
 2002SOL    HW217640   1.835   3.544   0.413  1.0180 -0.2225  0.4791
 2003SOL     OW17641   0.909   1.353   6.361 -0.3872  0.8240 -0.3422
 2003SOL    HW117642   0.971   1.408   6.313 -0.7477 -0.0346 -1.7937
 2003SOL    HW217643   0.868   1.418   6.418 -0.2262  0.5090  0.1268
 2004SOL     OW17644   1.107   1.859  12.977 -0.0984  0.0317 -0.3454
 2004SOL    HW117645   1.174   1.877  12.912 -0.3181 -1.5635 -1.0202
 2004SOL    HW217646   1.049   1.935  12.970  1.1127  0.7201 -2.6358
 2005SOL     OW17647   1.511   4.001   7.281 -0.2797 -0.6182 -0.3853
 2005SOL    HW117648   1.485   4.050   7.203  0.4558  0.3836 -0.0021
 2005SOL    HW217649   1.441   3.936   7.271 -0.4625 -0.3292 -0.9694
 2006SOL     OW17650   4.168   1.471  15.542  0.0907  0.7300 -0.0076
 2006SOL    HW117651   4.102   1.541  15.542 -1.2642 -0.5640 -0.8298
 2006SOL    HW217652   4.241   1.505  15.490 -1.7936  1.3218 -2.2323
 2007SOL     OW17653   0.826   4.375   0.402  0.0226  0.4869  0.2191
 2007SOL    HW117654   0.864   4.358   0.488 -1.4561 -0.9512  0.5990
 2007SOL    HW217655   0.904   4.394   0.350 -0.4730 -0.6583 -0.9592
 2008SOL     OW17656   0.150   4.075  13.592  0.0178  0.0671 -0.2787
 2008SOL    HW117657   0.157   3.984  13.620  2.0915  0.4344  0.3714
 2008SOL    HW217658   0.241   4.105  13.595  0.4314 -0.9896 -1.6772
 2009SOL     OW17659   1.658   2.728   4.063 -0.4000  0.6008  0.5611
 2009SOL    HW117660   1.714   2.716   4.140 -0.2683 -1.3708  0.1640
 2009SOL    HW217661   1.722   2.761   4.000  2.1453 -1.1015  2.3053
 2010SOL     OW17662   4.060   4.673   6.605  0.1954  0.0941 -0.7896
 2010SOL    HW117663   4.113   4.604   6.645 -0.5544  0.2582  0.4920
 2010SOL    HW217664   4.049   4.723   6.686 -1.2436 -1.7097  0.1176
 2011SOL     OW17665   1.277   3.283   8.468 -0.0879 -0.4029 -0.7896
 2011SOL    HW117666   1.339   3.268   8.539 -2.0068 -0.3138  0.9000
 2011SOL    HW217667   1.279   3.379   8.464 -0.9458 -0.3840 -0.6894
 2012SOL     OW17668   0.628   2.105   3.614  0.4503 -0.2162  0.4071
 2012SOL    HW117669   0.620   2.083   3.707  0.6347  2.1381  0.9801
 2012SOL    HW217670   0.690   2.177   3.620 -0.1556  0.5777 -2.5827
 2013SOL     OW17671   4.095   4.703   3.215  0.3266  0.0669  0.5395
 2013SOL    HW117672   4.031   4.634   3.229  0.1265 -0.0969 -1.2146
 2013SOL    HW217673   4.086   4.722   3.122 -1.0299  0.5820  0.7727
 2014SOL     OW17674   4.382   0.662   3.307  0.9390 -0.0834  0.1281
 2014SOL    HW117675   4.321   0.731   3.330  0.4681 -0.7875  0.9790
 2014SOL    HW217676   4.441   0.694   3.239  2.2516  1.0743  1.7999
 2015SOL     OW17677   3.459   4.400   7.853  0.0357  0.0935 -0.2823
 2015SOL    HW117678   3.457   4.369   7.944 -1.8033  0.7852 -0.0899
 2015SOL    HW217679   3.465   4.312   7.815  1.4422 -0.1278  0.4397
 2016SOL     OW17680   0.111   0.921  16.927 -0.4256 -0.6265  0.0515
 2016SOL    HW117681   0.110   1.008  16.887 -1.2487 -1.0925 -0.9531
 2016SOL    HW217682   0.161   0.951  17.003  0.6840  1.0239 -1.3400
 2017SOL     OW17683   0.907   3.047   4.449  0.1781 -0.1689  0.2773
 2017SOL    HW117684   0.824   3.002   4.434 -0.7365  1.3419  0.7810
 2017SOL    HW217685   0.946   3.065   4.363  0.7574 -0.6875  0.4357
 2018SOL     OW17686   4.214   4.567   7.858  0.9744 -0.3658  0.6251
 2018SOL    HW117687   4.218   4.479   7.819  1.1662 -0.9371  1.9313
 2018SOL    HW217688   4.119   4.578   7.868  1.1528  0.7395  1.0906
 2019SOL     OW17689   4.269   3.088   6.910 -0.0967 -0.1536  0.3828
 2019SOL    HW117690   4.342   3.033   6.884  0.0947  1.3444 -2.3058
 2019SOL    HW217691   4.299   3.144   6.981  1.7115 -3.2340  2.0079
 2020SOL     OW17692   2.190   3.577  13.601  0.9433 -0.2581  0.3007
 2020SOL    HW117693   2.193   3.609  13.511  2.3406  3.0800  1.4981
 2020SOL    HW217694   2.164   3.486  13.590  0.0769 -0.0454  0.6395
 2021SOL     OW17695   4.735   4.339   7.869  0.0326  0.7425 -0.1468
 2021SOL    HW117696   0.006   4.292   7.952 -0.2646 -0.6814 -0.9040
 2021SOL    HW217697   4.649   4.380   7.881 -1.0852 -1.7431  0.4870
 2022SOL     OW17698   0.664   3.992   8.350  0.3190  0.4580  0.3818
 2022SOL    HW117699   0.687   4.067   8.294  0.9961 -0.2320 -0.2630
 2022SOL    HW217700   0.590   4.032   8.396  1.7693  2.3894  0.9802
 2023SOL     OW17701   1.830   4.219   8.472 -0.4506 -0.2224  0.3500
 2023SOL    HW117702   1.779   4.137   8.471 -0.2248 -0.3496 -1.5874
 2023SOL    HW217703   1.863   4.219   8.382 -0.2698  0.4461  0.4159
 2024SOL     OW17704   3.463   2.861   4.877  0.3752 -0.0181  0.2536
 2024SOL    HW117705   3.472   2.829   4.788 -0.1493 -3.1375  1.3217
 2024SOL    HW217706   3.369   2.873   4.889  0.5744  1.1082  0.6947
 2025SOL     OW17707   2.046   1.901  13.330  0.5782 -0.1301  0.7670
 2025SOL    HW117708   2.131   1.885  13.288  1.1084 -2.6395  2.8137
 2025SOL    HW217709   2.056   1.868  13.419  1.2283 -1.6153  0.1568
 2026SOL     OW17710   3.842   3.545   4.293 -0.0915  0.1577 -0.3494
 2026SOL    HW117711   3.809   3.455   4.287  0.7747 -0.0854 -1.5305
 2026SOL    HW217712   3.929   3.519   4.325 -0.7025 -3.4475 -1.6386
 2027SOL     OW17713   0.955   4.317   4.703 -0.3088  0.1751 -0.0475
 2027SOL    HW117714   0.998   4.341   4.785 -1.7527  2.5867  0.0041
 2027SOL    HW217715   1.013   4.253   4.662  0.4588  0.8623 -0.0267
 2028SOL     OW17716   1.788   2.335   3.968  0.0850 -0.4737 -0.5600
 2028SOL    HW117717   1.759   2.309   4.055 -1.3734  0.3403 -0.8107
 2028SOL    HW217718   1.845   2.408   3.994 -0.3908 -0.5025  0.5327
 2029SOL     OW17719   3.482   0.757   2.050  0.2348 -0.1136  0.3812
 2029SOL    HW117720   3.388   0.773   2.059  0.2500 -0.1200  0.5587
 2029SOL    HW217721   3.506   0.702   2.125 -1.1236 -0.5685  0.4816
 2030SOL     OW17722   4.530   2.263   1.477 -0.1933 -0.3437  0.0154
 2030SOL    HW117723   4.606   2.284   1.423 -1.0446 -2.2040 -1.8810
 2030SOL    HW217724   4.515   2.179   1.435 -0.4876  0.6539 -1.8837
 2031SOL     OW17725   3.579   2.301  11.545 -0.1944 -0.1552 -0.2183
 2031SOL    HW117726   3.572   2.346  11.629 -1.8232 -0.2617 -0.2810
 2031SOL    HW217727   3.543   2.368  11.487  1.2014  3.4046  3.0274
 2032SOL     OW17728   1.652   4.712   7.531  0.3009  0.3134  0.1841
 2032SOL    HW117729   1.680   4.631   7.487  1.8052  0.4001  1.0076
 2032SOL    HW217730   1.687   4.703   7.619 -0.9322  0.8784  0.7277
 2033SOL     OW17731   4.509   3.744   1.914  0.2179 -0.1652  0.3463
 2033SOL    HW117732   4.448   3.789   1.974 -0.2973 -0.6130  0.1603
 2033SOL    HW217733   4.459   3.663   1.901  0.4176 -0.0596 -0.9885
 2034SOL     OW17734   4.288   3.629   4.999 -0.0932 -0.1992  0.2496
 2034SOL    HW117735   4.274   3.670   4.913 -0.7230 -1.0246 -0.0424
 2034SOL    HW217736   4.381   3.643   5.018  0.2014  1.3923 -2.3784
 2035SOL     OW17737   4.529   2.900   8.403 -0.0492 -0.5529 -0.3006
 2035SOL    HW117738   4.482   2.983   8.397  1.2220  0.1161 -0.9096
 2035SOL    HW217739   4.459   2.840   8.375  0.2297 -1.5912  1.1884
 2036SOL     OW17740   2.337   0.540   3.043 -0.4195 -0.3798  0.2378
 2036SOL    HW117741   2.418   0.517   2.996 -1.1620 -0.5699 -0.9582
 2036SOL    HW217742   2.323   0.460   3.093 -1.5793  1.1129  2.2946
 2037SOL     OW17743   3.558   4.298   4.175 -0.0242  0.3465 -0.5597
 2037SOL    HW117744   3.547   4.203   4.184  1.7360  0.2633  0.6870
 2037SOL    HW217745   3.604   4.325   4.255 -0.9226 -2.0372  0.7721
 2038SOL     OW17746   4.283   1.094   3.371  0.2998 -0.0645  0.6199
 2038SOL    HW117747   4.375   1.071   3.377  0.3908  0.0689 -0.1301
 2038SOL    HW217748   4.285   1.142   3.288 -1.8790 -0.3724  0.3929
 2039SOL     OW17749   3.235   1.170   2.459  0.6471  0.1992 -0.4977
 2039SOL    HW117750   3.237   1.260   2.428 -0.8780  0.5630  0.4831
 2039SOL    HW217751   3.285   1.167   2.540  1.0187 -0.4891 -0.7528
 2040SOL     OW17752   2.565   2.618   6.385  0.1093  0.3974  0.5554
 2040SOL    HW117753   2.660   2.619   6.376  0.1806  1.8347  1.4300
 2040SOL    HW217754   2.541   2.537   6.339 -0.6996  0.0681  1.5533
 2041SOL     OW17755   1.442   2.512   2.786  0.0324  0.2951  0.8181
 2041SOL    HW117756   1.422   2.422   2.763  0.6870  1.0568 -2.6537
 2041SOL    HW217757   1.374   2.543   2.845 -1.4810 -2.6097  0.5659
 2042SOL     OW17758   2.498   1.817   4.423  0.4797 -0.0225  0.0903
 2042SOL    HW117759   2.540   1.811   4.337  1.1765 -0.9142  0.4983
 2042SOL    HW217760   2.479   1.910   4.433  1.8084  0.2879 -0.3157
 2043SOL     OW17761   1.085   3.846  17.331 -0.2478  0.5103 -0.2897
 2043SOL    HW117762   1.119   3.771  17.282  0.3553 -1.1996  2.7348
 2043SOL    HW217763   1.154   3.912  17.329  1.0610 -0.9245 -2.3691
 2044SOL     OW17764   0.264   1.980   9.006  0.2894 -0.5590 -0.6174
 2044SOL    HW117765   0.261   1.949   9.096 -0.8262  4.2846  1.0137
 2044SOL    HW217766   0.232   2.069   9.016 -0.7416 -0.8438 -1.3975
 2045SOL     OW17767   1.694   1.109   3.976  0.6092  0.1597  0.5354
 2045SOL    HW117768   1.668   1.191   4.019  0.5642  0.7465 -0.6044
 2045SOL    HW217769   1.613   1.084   3.932  0.4039  1.9424 -0.0985
 2046SOL     OW17770   3.016   0.580   3.719  0.5167  0.2297  0.1136
 2046SOL    HW117771   2.946   0.646   3.719  1.2737  1.0342 -0.9808
 2046SOL    HW217772   3.041   0.570   3.810  0.0165  1.4087  0.3900
 2047SOL     OW17773   2.570   1.285   1.844 -0.4237 -0.2630 -0.3685
 2047SOL    HW117774   2.552   1.378   1.857  0.6173  0.0842 -1.4343
 2047SOL    HW217775   2.569   1.259   1.936 -0.4117 -1.5520 -0.7389
 2048SOL     OW17776   0.399   2.988   0.654 -0.2244 -0.2691 -0.3020
 2048SOL    HW117777   0.379   2.926   0.584  3.8480 -1.9249  0.0494
 2048SOL    HW217778   0.356   3.071   0.632  0.9128  0.5310  0.4885
 2049SOL     OW17779   1.728   0.481   1.376 -0.1906 -0.5403 -0.1331
 2049SOL    HW117780   1.776   0.553   1.416 -1.5175  0.3303 -0.1132
 2049SOL    HW217781   1.794   0.413   1.390  0.2856 -0.1468 -0.4567
 2050SOL     OW17782   4.126   4.618   1.683  0.2671  0.7181 -0.0316
 2050SOL    HW117783   4.107   4.688   1.620  0.2806  1.2929  0.6033
 2050SOL    HW217784   4.202   4.572   1.647  0.0651 -0.1240  0.6109
 2051SOL     OW17785   3.211   0.215  13.315 -0.0398 -0.1107 -0.5050
 2051SOL    HW117786   3.140   0.166  13.357 -1.1992  0.9070 -1.3018
 2051SOL    HW217787   3.191   0.217  13.221 -0.4514 -0.1364 -0.4204
 2052SOL     OW17788   4.341   0.318   8.365 -0.4183  0.6679 -0.0853
 2052SOL    HW117789   4.347   0.370   8.445  2.5749 -1.7926  1.3466
 2052SOL    HW217790   4.273   0.258   8.395  1.0392 -1.9441 -1.9712
 2053SOL     OW17791   4.563   3.050   8.006  0.2365  0.2554 -0.2650
 2053SOL    HW117792   4.631   3.065   8.072 -0.8557  1.5318  0.5418
 2053SOL    HW217793   4.495   3.113   8.025 -1.8539 -1.7512 -1.1047
 2054SOL     OW17794   1.882   3.138  12.087 -0.5553  1.1036 -0.7926
 2054SOL    HW117795   1.803   3.112  12.040 -1.0459 -0.2896  0.8222
 2054SOL    HW217796   1.832   3.176  12.160  1.4247  1.4707  0.3741
 2055SOL     OW17797   4.188   1.774  10.700  0.1729 -0.2377 -0.3523
 2055SOL    HW117798   4.281   1.749  10.705  0.2233  0.3984  1.9337
 2055SOL    HW217799   4.174   1.712  10.629  1.6258  0.1523 -0.9923
 2056SOL     OW17800   0.762   3.743   7.568  0.2251  0.4621  0.2940
 2056SOL    HW117801   0.781   3.831   7.600  0.2049 -0.2584  2.2826
 2056SOL    HW217802   0.691   3.708   7.622 -0.8923  1.5268 -0.5055
 2057SOL     OW17803   0.398   2.608   4.346  0.1326  0.4222  0.4926
 2057SOL    HW117804   0.428   2.663   4.418  2.5436 -0.8282  0.4530
 2057SOL    HW217805   0.469   2.545   4.335  0.8200  1.0734  1.2061
 2058SOL     OW17806   2.901   2.402   7.378 -0.1299  0.2423  0.1653
 2058SOL    HW117807   2.930   2.485   7.341  0.3313 -0.9860 -2.1998
 2058SOL    HW217808   2.989   2.384   7.411 -0.8028 -0.0237  1.8230
 2059SOL     OW17809   3.061   3.183   6.311 -0.3476 -0.7935 -0.2885
 2059SOL    HW117810   3.083   3.222   6.395 -1.5873  0.6013 -0.6155
 2059SOL    HW217811   3.031   3.252   6.252  1.0349 -1.2449 -1.5144
 2060SOL     OW17812   4.110   1.815   3.897  0.4913  0.1201  0.1459
 2060SOL    HW117813   4.043   1.765   3.850 -0.1035 -0.6741  1.8470
 2060SOL    HW217814   4.085   1.811   3.989  0.7912  0.0291  0.2229
 2061SOL     OW17815   2.166   1.614   3.455 -0.0574  0.1437 -0.1377
 2061SOL    HW117816   2.107   1.591   3.384  0.5968  0.7594 -0.8922
 2061SOL    HW217817   2.105   1.658   3.514  1.4974  0.0100  1.5809
 2062SOL     OW17818   3.130   3.730   3.948  0.2481 -0.5868 -0.3974
 2062SOL    HW117819   3.128   3.788   3.871 -1.7451 -0.7575 -0.4755
 2062SOL    HW217820   3.211   3.684   3.926 -0.3926 -1.4910 -0.8743
 2063SOL     OW17821   0.536   2.983   2.023 -0.2633 -0.2469 -0.2869
 2063SOL    HW117822   0.451   2.956   1.988 -0.6155  0.8435 -0.3020
 2063SOL    HW217823   0.536   3.075   1.994 -1.5305 -0.4785 -1.0262
 2064SOL     OW17824   4.466   0.325   2.073 -0.2744 -0.0397  0.2668
 2064SOL    HW117825   4.517   0.394   2.032 -0.9742 -0.4717 -1.3104
 2064SOL    HW217826   4.462   0.254   2.009  0.3580 -0.1983  0.4036
 2065SOL     OW17827   0.919   2.893   8.630  0.8016 -0.1856 -0.0099
 2065SOL    HW117828   0.956   2.980   8.643 -1.0095  0.6247 -0.3391
 2065SOL    HW217829   0.844   2.920   8.576  0.0932  0.4195  1.2958
 2066SOL     OW17830   3.162   1.032   3.119 -0.0232 -0.1934  0.3518
 2066SOL    HW117831   3.209   0.985   3.050  1.2264 -0.0637  1.1159
 2066SOL    HW217832   3.194   1.121   3.107  0.3073 -0.7950 -3.1436
 2067SOL     OW17833   1.747   3.636   3.576 -0.9431 -0.2190 -0.4698
 2067SOL    HW117834   1.747   3.724   3.614 -0.4113 -0.3528 -0.1457
 2067SOL    HW217835   1.653   3.620   3.567 -0.5807 -2.2555 -0.7305
 2068SOL     OW17836   4.184   3.133  17.739  0.7095  0.8193  0.5801
 2068SOL    HW117837   4.163   3.223  17.712 -0.9799  0.4135  0.5381
 2068SOL    HW217838   4.186   3.087  17.656  2.5537 -2.5778  2.5054
 2069SOL     OW17839   0.872   2.250   9.229 -0.0490  0.0774 -0.4699
 2069SOL    HW117840   0.822   2.178   9.191 -1.3310  1.2473 -0.9995
 2069SOL    HW217841   0.872   2.309   9.154 -0.5660  0.0324 -0.5006
 2070SOL     OW17842   3.730   0.120   4.075  0.7736 -0.3028  0.1456
 2070SOL    HW117843   3.639   0.100   4.052  0.0377  1.4680  1.5839
 2070SOL    HW217844   3.750   0.044   4.129  0.0453  0.1980  1.1132
 2071SOL     OW17845   4.056   2.731   5.364 -0.1671 -0.1784 -0.3595
 2071SOL    HW117846   4.041   2.641   5.336 -0.6611 -0.9296  2.3306
 2071SOL    HW217847   4.101   2.772   5.289 -0.6337  0.8206 -0.1025
 2072SOL     OW17848   0.405   2.895  10.437 -0.0760 -0.1130  0.3611
 2072SOL    HW117849   0.445   2.926  10.518  1.2460  0.6328 -0.5810
 2072SOL    HW217850   0.465   2.828  10.402 -0.4205  1.2258 -2.7464
 2073SOL     OW17851   4.353   2.129   3.373  0.3152  0.0941 -0.0392
 2073SOL    HW117852   4.357   2.129   3.468  0.1969 -2.1903 -0.0445
 2073SOL    HW217853   4.410   2.205   3.356 -0.4788  0.6934 -0.0579
 2074SOL     OW17854   2.475   3.601  13.662  0.0009 -0.4765  0.3790
 2074SOL    HW117855   2.486   3.693  13.686  0.2677 -0.7444  1.2941
 2074SOL    HW217856   2.380   3.588  13.661  0.2519 -2.5003  2.4182
 2075SOL     OW17857   4.341   0.619  15.015 -0.1240  0.2166  0.2363
 2075SOL    HW117858   4.299   0.561  14.952 -0.6120  1.1945 -0.3296
 2075SOL    HW217859   4.309   0.703  14.984  1.2127  0.5760 -0.1557
 2076SOL     OW17860   3.109   0.990   8.621 -0.0208  0.1998  0.1719
 2076SOL    HW117861   3.133   0.958   8.708 -1.6844  1.0074  0.9293
 2076SOL    HW217862   3.084   1.079   8.648 -0.2490  1.1332 -3.1837
 2077SOL     OW17863   2.625   0.445   4.231  0.0008 -0.5265 -0.5851
 2077SOL    HW117864   2.706   0.399   4.208  0.0606  0.3995 -2.2653
 2077SOL    HW217865   2.569   0.369   4.240 -0.1072 -0.5589 -1.4803
 2078SOL     OW17866   1.998   1.734   3.636 -0.3176  0.4059  0.0658
 2078SOL    HW117867   1.959   1.651   3.610  2.6854 -0.8988 -0.2340
 2078SOL    HW217868   1.931   1.798   3.611  0.3677  1.3787  0.7033
 2079SOL     OW17869   1.662   3.317  13.439 -0.2746 -0.5802 -0.5040
 2079SOL    HW117870   1.567   3.311  13.429 -0.1695 -0.2624 -1.6575
 2079SOL    HW217871   1.688   3.261  13.367  0.6605 -1.1052  0.2417
 2080SOL     OW17872   2.065   1.634   9.432 -0.2983 -0.5118 -0.0528
 2080SOL    HW117873   1.998   1.669   9.373 -0.7410 -2.0280 -0.4542
 2080SOL    HW217874   2.099   1.554   9.392  0.8196  0.5876 -1.3099
 2081SOL     OW17875   2.838   4.552  17.478 -0.2232 -0.9651 -0.0230
 2081SOL    HW117876   2.809   4.541  17.387  1.8293 -1.7597 -0.5729
 2081SOL    HW217877   2.933   4.542  17.477  0.1391  2.2109  1.1593
 2082SOL     OW17878   3.314   0.357   8.763  0.2763  0.0283  0.4556
 2082SOL    HW117879   3.240   0.305   8.733  0.0831  0.3771  0.3255
 2082SOL    HW217880   3.274   0.435   8.801  1.2740  0.4668  0.6045
 2083SOL     OW17881   1.005   0.781  11.297 -0.2472 -0.0782  0.5687
 2083SOL    HW117882   1.042   0.737  11.220  0.1743 -1.4576  1.5619
 2083SOL    HW217883   1.046   0.867  11.297  1.1374 -0.7385  0.0993
 2084SOL     OW17884   2.852   2.224   5.254  0.4330 -0.4554 -0.4151
 2084SOL    HW117885   2.927   2.213   5.195  0.9929 -0.7069  0.3516
 2084SOL    HW217886   2.894   2.192   5.334  3.6422 -1.0918 -2.3400
 2085SOL     OW17887   2.352   4.101  16.026  0.3040 -0.1487 -0.2918
 2085SOL    HW117888   2.426   4.123  16.081 -1.0514 -1.6789  2.1374
 2085SOL    HW217889   2.291   4.173  16.043  0.0845 -0.6801  1.1519
 2086SOL     OW17890   4.054   0.877   1.540 -0.4254 -0.1566  0.2977
 2086SOL    HW117891   3.967   0.908   1.516 -1.6317 -2.9546  1.0885
 2086SOL    HW217892   4.034   0.847   1.629  1.7287 -0.6790  0.6088
 2087SOL     OW17893   0.162   0.428   7.149  0.5338  0.2175 -0.3305
 2087SOL    HW117894   0.155   0.513   7.191 -2.9860  0.0001 -0.4565
 2087SOL    HW217895   0.121   0.452   7.066 -0.3060  0.5760  0.1881
 2088SOL     OW17896   3.767   3.365  11.642  0.7789  0.2610 -0.2198
 2088SOL    HW117897   3.676   3.393  11.638  0.1277 -2.0201 -1.2992
 2088SOL    HW217898   3.802   3.381  11.555  0.4396 -1.7945 -0.7268
 2089SOL     OW17899   2.717   1.896   1.465 -0.0762  0.4297  0.0505
 2089SOL    HW117900   2.807   1.863   1.464  1.2080  3.9391 -0.6838
 2089SOL    HW217901   2.735   1.969   1.523  0.0038 -0.4817  1.1779
 2090SOL     OW17902   3.102   4.345  17.258 -0.4608 -0.0158  0.0304
 2090SOL    HW117903   3.196   4.331  17.262 -0.3641  0.1642 -1.5948
 2090SOL    HW217904   3.086   4.398  17.337  1.7530  2.2529 -1.0503
 2091SOL     OW17905   3.273   2.561   3.552 -0.3127 -0.3147  0.9681
 2091SOL    HW117906   3.354   2.581   3.600 -0.3401 -0.5932  1.1276
 2091SOL    HW217907   3.314   2.518   3.476  0.8811  1.8804  0.3657
 2092SOL     OW17908   1.554   2.639  10.318 -0.0763  0.2236  0.6939
 2092SOL    HW117909   1.531   2.724  10.280  0.1846 -0.8344 -1.7763
 2092SOL    HW217910   1.590   2.598  10.240  0.5400  0.4837  0.8430
 2093SOL     OW17911   3.841   2.108   2.719 -0.2419 -0.0678  0.0073
 2093SOL    HW117912   3.907   2.103   2.649  0.5642 -1.6920  0.8814
 2093SOL    HW217913   3.867   2.027   2.763 -0.6216 -0.5492 -0.6458
 2094SOL     OW17914   3.225   0.101  13.647  0.4185  0.2927  0.2251
 2094SOL    HW117915   3.157   0.088  13.580  1.1798  1.0347 -0.6891
 2094SOL    HW217916   3.262   0.189  13.642 -0.3785  0.5460 -1.3221
 2095SOL     OW17917   1.243   2.275   3.831  0.0658  0.0910  0.4324
 2095SOL    HW117918   1.220   2.366   3.850 -2.7597 -0.5614  0.0224
 2095SOL    HW217919   1.329   2.271   3.873 -0.1886  1.7086  1.1139
 2096SOL     OW17920   2.014   3.296   1.171 -0.1336  0.1161 -0.0275
 2096SOL    HW117921   1.927   3.268   1.198 -1.0617 -0.6647 -3.8432
 2096SOL    HW217922   2.064   3.225   1.213  1.5892  0.3256 -1.7560
 2097SOL     OW17923   0.632   1.770   9.031  0.0655 -0.1671 -0.6627
 2097SOL    HW117924   0.669   1.684   9.049 -0.7573 -0.2272  0.7670
 2097SOL    HW217925   0.622   1.803   9.121  2.1835 -0.3310 -0.3812
 2098SOL     OW17926   4.615   3.594   3.398  0.2544  0.3286  0.1009
 2098SOL    HW117927   4.528   3.600   3.359  1.8641 -1.1805 -3.7650
 2098SOL    HW217928   4.604   3.632   3.485 -1.6154 -1.2148  0.5395
 2099SOL     OW17929   2.891   3.291   2.939 -0.4885  0.1024 -0.2559
 2099SOL    HW117930   2.855   3.378   2.957 -1.2059 -0.4695  1.0982
 2099SOL    HW217931   2.982   3.316   2.924 -0.9406  1.3235 -0.9002
 2100SOL     OW17932   1.053   0.408   9.614  0.3765 -0.5382 -0.2604
 2100SOL    HW117933   1.027   0.353   9.688  0.2402  0.4614  0.4321
 2100SOL    HW217934   1.148   0.396   9.617  0.2429 -2.7354 -3.9202
 2101SOL     OW17935   3.065   3.923  12.096 -0.0072 -0.8002 -0.8053
 2101SOL    HW117936   3.160   3.933  12.090 -0.0994  0.8972  0.4756
 2101SOL    HW217937   3.038   3.977  12.170 -1.7047  1.7162 -3.2189
 2102SOL     OW17938   4.522   1.308   5.777  0.3313  0.5259 -0.3032
 2102SOL    HW117939   4.532   1.252   5.700 -1.0694  1.2939 -1.0440
 2102SOL    HW217940   4.605   1.356   5.776  0.6133  0.0266 -0.7195
 2103SOL     OW17941   0.206   0.426   9.714  0.2610  0.6184  0.4385
 2103SOL    HW117942   0.279   0.406   9.772 -0.2524  0.9626  1.2056
 2103SOL    HW217943   0.248   0.500   9.670  0.8565 -1.1424 -1.9813
 2104SOL     OW17944   2.761   1.039  17.398 -0.3234 -0.1718 -0.0055
 2104SOL    HW117945   2.762   1.133  17.382  1.5804  0.0203  1.1526
 2104SOL    HW217946   2.759   1.043  17.494 -2.4111 -1.2863 -0.0139
 2105SOL     OW17947   2.693   2.653   3.495  0.0874 -0.9922  0.0369
 2105SOL    HW117948   2.784   2.672   3.519  1.2779 -0.7379 -4.5485
 2105SOL    HW217949   2.653   2.691   3.573 -0.3813 -1.7998  0.1808
 2106SOL     OW17950   3.818   3.164   5.760  0.1474  0.0704 -0.5178
 2106SOL    HW117951   3.728   3.187   5.786  0.2463 -0.8582  0.6095
 2106SOL    HW217952   3.807   3.071   5.744 -0.7305  0.3012 -1.2881
 2107SOL     OW17953   2.117   1.096   8.407 -0.1910 -0.1276 -0.4717
 2107SOL    HW117954   2.164   1.097   8.491  1.5533  1.8757 -1.4564
 2107SOL    HW217955   2.189   1.058   8.357  0.0115  0.1613 -0.3994
 2108SOL     OW17956   0.152   2.386   2.282  0.3660  0.2345 -0.6165
 2108SOL    HW117957   0.166   2.464   2.335  0.6564 -0.3647  0.1891
 2108SOL    HW217958   0.223   2.329   2.310 -0.2090  0.6436  1.6635
 2109SOL     OW17959   4.682   0.830  12.118  0.1289 -0.4680 -0.3050
 2109SOL    HW117960   4.740   0.774  12.170  1.1735  0.7732 -0.1468
 2109SOL    HW217961   4.604   0.808  12.169  2.0975 -1.4333  2.3082
 2110SOL     OW17962   3.556   3.137   8.298  0.5156  0.2943  0.0623
 2110SOL    HW117963   3.492   3.127   8.368  2.7085 -1.6882  1.7919
 2110SOL    HW217964   3.628   3.173   8.351  2.7379 -3.3796 -0.4462
 2111SOL     OW17965   4.122   3.894   0.840  0.1051 -0.1551  0.0795
 2111SOL    HW117966   4.124   3.853   0.927 -0.3237  0.2891  0.2958
 2111SOL    HW217967   4.035   3.867   0.811  1.0261 -1.8006 -1.1210
 2112SOL     OW17968   1.687   0.331   5.056 -0.1054 -0.3582 -0.1598
 2112SOL    HW117969   1.766   0.340   5.109 -0.7190  1.4560  0.4622
 2112SOL    HW217970   1.705   0.252   5.005  0.5579  0.5189 -1.2809
 2113SOL     OW17971   1.863   3.786   9.175  0.1517  0.0830 -0.9279
 2113SOL    HW117972   1.900   3.771   9.088  0.3746 -1.6718 -0.5420
 2113SOL    HW217973   1.892   3.874   9.199  1.0100 -1.0463  2.2712
 2114SOL     OW17974   4.237   2.032   5.129  0.2700 -0.3487 -0.1014
 2114SOL    HW117975   4.301   2.082   5.180  2.4868  0.6186 -3.8331
 2114SOL    HW217976   4.184   2.105   5.097 -1.9823 -1.6259  0.6635
 2115SOL     OW17977   1.114   4.129   9.640 -0.3191  0.2795  0.5458
 2115SOL    HW117978   1.020   4.134   9.658 -0.7195 -1.2879 -1.0580
 2115SOL    HW217979   1.145   4.190   9.707  0.9430 -0.5801  0.7546
 2116SOL     OW17980   4.715   1.974   7.138  0.2811  0.9342 -0.1501
 2116SOL    HW117981   4.734   2.067   7.128 -0.0253  1.2139  1.9160
 2116SOL    HW217982   4.620   1.974   7.153  0.6273 -0.8957  2.1073
 2117SOL     OW17983   0.075   3.052  17.131 -0.2418  0.4300  0.1674
 2117SOL    HW117984   4.724   3.077  17.131 -0.5444 -0.7197  0.8367
 2117SOL    HW217985   0.114   3.137  17.110  0.4352  0.0706 -0.0193
 2118SOL     OW17986   0.019   0.362  10.607  0.6536 -0.3865  0.8469
 2118SOL    HW117987   0.041   0.449  10.574  0.9671 -1.4146 -1.6121
 2118SOL    HW217988   0.081   0.364  10.680 -0.2256  0.9600  1.5418
 2119SOL     OW17989   0.675   1.409  13.552  0.3017  0.1545 -0.2674
 2119SOL    HW117990   0.690   1.465  13.476  0.0713  0.7776  0.1552
 2119SOL    HW217991   0.762   1.370  13.559  0.3718  1.0303  3.9059
 2120SOL     OW17992   2.042   3.645   7.530  0.4870 -0.4299  0.8051
 2120SOL    HW117993   2.103   3.632   7.457 -0.5720  1.9219 -0.5096
 2120SOL    HW217994   2.030   3.554   7.554  1.5076 -0.4102  1.4173
 2121SOL     OW17995   2.328   2.677  16.393  0.1725  0.1330 -0.0951
 2121SOL    HW117996   2.369   2.593  16.373 -0.4604 -0.1020 -0.3906
 2121SOL    HW217997   2.396   2.735  16.357  0.1294 -1.8212 -3.3158
 2122SOL     OW17998   0.755   1.305  14.128  0.3288  0.1365  0.2001
 2122SOL    HW117999   0.667   1.274  14.147  0.1839  1.3270  1.4991
 2122SOL    HW218000   0.761   1.304  14.032 -3.9731 -0.1763 -0.0577
 2123SOL     OW18001   1.891   0.396   3.760 -0.2052  0.7309 -0.6009
 2123SOL    HW118002   1.962   0.333   3.766  1.6354  3.2190  4.0249
 2123SOL    HW218003   1.889   0.423   3.852 -0.2975 -0.7645 -0.1599
 2124SOL     OW18004   0.650   0.307  11.652 -0.4853 -0.0811  0.5904
 2124SOL    HW118005   0.687   0.280  11.568  1.9571  0.5090  1.4801
 2124SOL    HW218006   0.561   0.270  11.653 -1.6840  2.8469  4.0194
 2125SOL     OW18007   0.439   3.783   4.472  0.2819  0.3165 -0.1999
 2125SOL    HW118008   0.456   3.797   4.379 -1.8358  2.7106 -0.2181
 2125SOL    HW218009   0.349   3.751   4.469  0.5276 -0.6105  2.0659
 2126SOL     OW18010   0.339   1.513   6.646 -0.5253  0.6932  0.3821
 2126SOL    HW118011   0.305   1.448   6.585  1.2655 -0.0523  0.1876
 2126SOL    HW218012   0.408   1.538   6.584  0.0206 -2.2051 -0.1418
 2127SOL     OW18013   1.994   1.784  11.232 -0.9089 -0.0495 -0.2030
 2127SOL    HW118014   1.977   1.836  11.311 -0.1110  2.7615 -1.8664
 2127SOL    HW218015   1.920   1.822  11.185  0.3836  1.1976 -1.2246
 2128SOL     OW18016   3.154   4.068   2.289  0.0648 -0.3970  0.4151
 2128SOL    HW118017   3.235   4.017   2.285 -0.1229 -0.5353 -1.6224
 2128SOL    HW218018   3.188   4.146   2.334  0.3912  0.2195 -0.8979
 2129SOL     OW18019   4.376   0.899  13.454 -0.4217 -0.1241 -0.2494
 2129SOL    HW118020   4.364   0.960  13.381  0.5094 -0.8947 -1.0519
 2129SOL    HW218021   4.408   0.961  13.520 -0.2805 -0.2694 -0.1783
 2130SOL     OW18022   1.307   1.823  14.176  0.0265  0.2786 -0.4553
 2130SOL    HW118023   1.217   1.794  14.186  0.0579  0.6235  0.7713
 2130SOL    HW218024   1.290   1.874  14.097  0.7239 -0.4305 -1.0621
 2131SOL     OW18025   2.247   1.689  13.314  0.6190 -0.3168  0.4909
 2131SOL    HW118026   2.280   1.704  13.225  2.0413 -0.0170  1.0577
 2131SOL    HW218027   2.327   1.658  13.357  2.2219  0.6259 -1.7994
 2132SOL     OW18028   4.647   3.510  14.318  0.2867 -0.0072  0.1685
 2132SOL    HW118029   4.728   3.513  14.369  0.4098  0.7552 -0.0805
 2132SOL    HW218030   4.677   3.484  14.231  0.5263  2.0524 -0.3460
 2133SOL     OW18031   2.690   0.587   1.709  0.2010 -0.2758  0.9968
 2133SOL    HW118032   2.779   0.614   1.731  0.6251 -1.2422  0.5001
 2133SOL    HW218033   2.670   0.502   1.750  0.4608 -1.6087 -1.6036
 2134SOL     OW18034   4.106   4.536   8.620 -0.7858  0.3833 -0.0003
 2134SOL    HW118035   4.057   4.571   8.546  1.9554 -0.9606 -2.4365
 2134SOL    HW218036   4.031   4.502   8.669 -0.0956  3.2337  3.0034
 2135SOL     OW18037   2.743   4.178  14.459  0.6332  0.5997  0.0452
 2135SOL    HW118038   2.657   4.140  14.477 -0.0437  1.6448 -0.9671
 2135SOL    HW218039   2.782   4.095  14.432  0.1296 -0.6639  3.2124
 2136SOL     OW18040   4.093   0.362   1.788  0.1139  0.3887 -0.4255
 2136SOL    HW118041   4.050   0.330   1.708  2.6012 -0.1278 -1.5841
 2136SOL    HW218042   4.078   0.285   1.843 -0.1011  1.5918  1.1712
 2137SOL     OW18043   4.051   1.928   3.153 -0.6448  0.2231  0.4424
 2137SOL    HW118044   4.037   1.952   3.244  2.3265  1.2451  0.6228
 2137SOL    HW218045   3.959   1.930   3.125 -0.6179 -0.2425  0.3191
 2138SOL     OW18046   0.148   2.350   7.765  0.5386  0.1427  0.0231
 2138SOL    HW118047   0.173   2.367   7.856 -2.0893  1.7510  0.4332
 2138SOL    HW218048   0.111   2.438   7.760 -0.3401 -0.1766  0.8825
 2139SOL     OW18049   3.202   3.388  13.990 -0.7425  0.0259 -0.2246
 2139SOL    HW118050   3.136   3.432  13.936 -0.5832 -1.0348 -1.2632
 2139SOL    HW218051   3.239   3.463  14.038 -2.0937  1.1775 -0.9860
 2140SOL     OW18052   3.577   3.539   0.803 -0.0806 -0.1135  0.1927
 2140SOL    HW118053   3.569   3.446   0.827  0.7390 -0.3723 -0.5467
 2140SOL    HW218054   3.524   3.538   0.724 -0.5080 -0.5929  0.4803
 2141SOL     OW18055   1.436   2.673   6.844  0.1721  0.2052 -0.2534
 2141SOL    HW118056   1.346   2.703   6.831 -0.6512 -1.7791  0.8932
 2141SOL    HW218057   1.440   2.610   6.773 -0.2151 -0.0893 -0.0181
 2142SOL     OW18058   1.128   4.318   8.426  0.7696  0.0677  0.3057
 2142SOL    HW118059   1.221   4.320   8.405  0.3145  1.5047 -1.5834
 2142SOL    HW218060   1.094   4.259   8.359 -1.6047  2.4893 -0.5912
 2143SOL     OW18061   2.340   2.450   4.691  0.5036 -0.4687  0.4420
 2143SOL    HW118062   2.357   2.510   4.764  1.8208 -0.5932  0.2257
 2143SOL    HW218063   2.378   2.365   4.714  0.8613 -0.7259 -1.1024
 2144SOL     OW18064   0.739   1.119  12.461 -0.4483 -0.2953  0.4807
 2144SOL    HW118065   0.807   1.061  12.495 -0.6025  0.7369  2.5325
 2144SOL    HW218066   0.719   1.174  12.537  2.7329  0.8327  0.4947
 2145SOL     OW18067   1.858   4.525   1.633  0.3048  0.3853 -0.0020
 2145SOL    HW118068   1.917   4.452   1.617  1.0405  0.7463  1.0146
 2145SOL    HW218069   1.781   4.498   1.583 -1.0393  1.1739  1.6291
 2146SOL     OW18070   1.535   0.525  13.100  0.0498  0.3065 -0.2079
 2146SOL    HW118071   1.502   0.477  13.024  0.9627  1.5599 -1.4133
 2146SOL    HW218072   1.580   0.456  13.149  1.5790  1.2142 -0.3266
 2147SOL     OW18073   1.947   3.905   7.480 -0.2158 -0.0315  0.1144
 2147SOL    HW118074   1.888   3.917   7.406 -0.1367  2.3009  0.4217
 2147SOL    HW218075   1.950   3.810   7.492  2.2414  0.0288  0.1484
 2148SOL     OW18076   1.530   3.473   0.263  0.9832  0.0339  0.6229
 2148SOL    HW118077   1.562   3.438   0.180  0.0056  1.3881 -0.3219
 2148SOL    HW218078   1.535   3.390   0.311  4.3964  0.2498  0.6070
 2149SOL     OW18079   2.131   0.194  14.247 -0.5252  0.0482 -0.3496
 2149SOL    HW118080   2.217   0.175  14.285 -1.1292 -0.5828  0.7222
 2149SOL    HW218081   2.114   0.115  14.195 -5.2763  0.6712  0.2392
 2150SOL     OW18082   0.054   0.711   4.121 -0.2701 -0.2396  0.7157
 2150SOL    HW118083   0.057   0.672   4.034 -1.6044 -0.3293  0.7016
 2150SOL    HW218084   4.722   0.660   4.157 -0.2707  0.9327  2.4135
 2151SOL     OW18085   1.581   2.117   5.673 -0.4875  0.0532  0.0946
 2151SOL    HW118086   1.615   2.033   5.706  1.4065  0.3173 -1.1817
 2151SOL    HW218087   1.532   2.149   5.749  0.0154  1.9878 -0.3911
 2152SOL     OW18088   2.528   4.373   1.390  0.0043  1.0718  0.1526
 2152SOL    HW118089   2.497   4.373   1.480 -1.1336  0.8254 -0.2428
 2152SOL    HW218090   2.603   4.432   1.390 -0.4360  1.6196  0.0276
 2153SOL     OW18091   1.578   3.742   1.490 -0.0685  0.0301 -0.1070
 2153SOL    HW118092   1.495   3.695   1.503  0.0411 -0.6254 -1.7115
 2153SOL    HW218093   1.584   3.816   1.551 -0.5749  0.1334 -0.1814
 2154SOL     OW18094   2.346   0.162   8.498 -0.0176  0.0896 -0.5774
 2154SOL    HW118095   2.405   0.208   8.439 -0.6781  0.9768 -0.5500
 2154SOL    HW218096   2.407   0.100   8.538  0.8370  1.8753  0.8910
 2155SOL     OW18097   0.051   2.459   5.586  0.5590 -0.2470 -0.0650
 2155SOL    HW118098   4.728   2.423   5.647 -0.6053  3.6979  1.0431
 2155SOL    HW218099   0.086   2.532   5.637 -0.6968  0.0783  0.3092
 2156SOL     OW18100   4.175   3.052   4.481  0.0307  0.3055  0.3788
 2156SOL    HW118101   4.213   3.065   4.568 -0.6342  1.7698  0.4485
 2156SOL    HW218102   4.095   3.103   4.495 -0.4424  0.2146 -1.8799
 2157SOL     OW18103   0.567   0.046   8.952  0.1543 -0.1334 -0.2387
 2157SOL    HW118104   0.630   4.724   8.916 -1.2689 -0.8557 -1.4708
 2157SOL    HW218105   0.484   0.033   8.905 -0.3313 -0.4697  0.7187
 2158SOL     OW18106   3.462   2.860   3.957  0.4757  0.0279  0.4060
 2158SOL    HW118107   3.435   2.781   4.005  1.6558 -1.0085 -0.6584
 2158SOL    HW218108   3.396   2.921   3.989  0.3706  0.1450 -0.0365
 2159SOL     OW18109   0.549   1.017   5.364 -0.1554 -0.0036 -0.0477
 2159SOL    HW118110   0.582   0.931   5.338 -0.9631 -0.9162  1.9530
 2159SOL    HW218111   0.522   1.042   5.276 -0.1388  1.1214  0.2698
 2160SOL     OW18112   2.203   4.055   2.142  0.2827 -0.0784  0.2876
 2160SOL    HW118113   2.177   4.053   2.235 -3.6329 -1.8141 -0.8206
 2160SOL    HW218114   2.265   4.126   2.128  1.1916 -0.8268  0.5443
 2161SOL     OW18115   3.498   0.610   7.229  0.1530  0.4237 -0.0015
 2161SOL    HW118116   3.457   0.688   7.191 -0.5474 -0.4765 -1.0818
 2161SOL    HW218117   3.527   0.559   7.153 -0.5267  1.2802 -0.8368
 2162SOL     OW18118   3.248   2.116   8.488  0.3236  0.0362  0.3598
 2162SOL    HW118119   3.231   2.170   8.566 -0.7440 -0.8435  0.7289
 2162SOL    HW218120   3.164   2.071   8.477  0.4786 -0.3681  0.8274
 2163SOL     OW18121   1.525   1.113   2.406 -0.1384 -0.0799  0.1864
 2163SOL    HW118122   1.616   1.120   2.434 -0.3125 -0.8208  0.9406
 2163SOL    HW218123   1.471   1.155   2.473 -0.8037 -0.1704 -0.2905
 2164SOL     OW18124   3.353   2.676   7.505 -0.1746  0.8766  0.7619
 2164SOL    HW118125   3.388   2.707   7.589  1.2379  0.2725  0.3862
 2164SOL    HW218126   3.259   2.690   7.523 -0.4854 -1.8163  1.1719
 2165SOL     OW18127   3.390   4.477  11.052  0.2285  0.3650 -0.0148
 2165SOL    HW118128   3.436   4.539  10.996  1.4387 -0.5814 -0.0875
 2165SOL    HW218129   3.455   4.465  11.122  0.7144  0.7843 -0.3937
 2166SOL     OW18130   2.178   1.582   4.179  0.2515  0.3124 -0.1513
 2166SOL    HW118131   2.204   1.587   4.087  0.4137 -0.8304 -0.1645
 2166SOL    HW218132   2.082   1.582   4.181  0.2298 -2.1154 -0.6709
 2167SOL     OW18133   1.501   1.970   5.296  0.2937 -0.1069  0.1567
 2167SOL    HW118134   1.572   1.986   5.359 -0.3371 -0.5562  0.9781
 2167SOL    HW218135   1.524   2.037   5.231  1.4874 -0.5099  0.1602
 2168SOL     OW18136   2.145   4.610   1.463 -0.0306 -0.0796 -0.3483
 2168SOL    HW118137   2.184   4.539   1.412 -2.7482 -0.4350 -1.8851
 2168SOL    HW218138   2.224   4.651   1.499 -0.3079 -0.8866  1.1482
 2169SOL     OW18139   2.397   2.815   9.386  0.4864 -0.8576 -0.6961
 2169SOL    HW118140   2.414   2.899   9.344  1.7882 -0.4478  0.6313
 2169SOL    HW218141   2.475   2.797   9.439 -0.1142 -0.4906  0.3139
 2170SOL     OW18142   3.234   1.749   6.024  0.1425  0.4157 -0.0948
 2170SOL    HW118143   3.272   1.769   6.110  0.3735  1.0857 -0.3606
 2170SOL    HW218144   3.316   1.728   5.979 -0.2108  1.5505 -1.2536
 2171SOL     OW18145   1.470   2.464   8.174  0.4035 -0.2084  0.7173
 2171SOL    HW118146   1.462   2.411   8.253 -3.2737  0.2083  0.6409
 2171SOL    HW218147   1.475   2.392   8.112  0.9880 -0.2543  0.8134
 2172SOL     OW18148   1.141   4.698   5.230  0.1932  0.1246 -0.2975
 2172SOL    HW118149   1.138   0.016   5.305  2.0021 -0.3739  0.1461
 2172SOL    HW218150   1.191   4.626   5.268 -0.3911  0.8136  1.7795
 2173SOL     OW18151   2.816   0.391   3.310 -0.3683  0.0779  0.1620
 2173SOL    HW118152   2.873   0.323   3.276 -0.4321 -0.2126  0.6299
 2173SOL    HW218153   2.755   0.344   3.368  1.2342 -1.1704  0.8300
 2174SOL     OW18154   4.439   4.193   3.280  0.0806 -0.1279 -0.0543
 2174SOL    HW118155   4.385   4.272   3.269 -0.6889 -0.7435 -0.7421
 2174SOL    HW218156   4.405   4.153   3.361 -1.3603 -1.6222 -1.3961
 2175SOL     OW18157   2.190   0.102  11.309 -0.6169  0.2841 -0.2139
 2175SOL    HW118158   2.145   0.023  11.340  0.4831 -1.4694 -3.1229
 2175SOL    HW218159   2.209   0.076  11.219  0.8507  1.9414 -0.3804
 2176SOL     OW18160   0.084   3.013   2.050 -0.1461 -0.6702 -0.7366
 2176SOL    HW118161   4.737   3.040   2.022 -0.8432 -1.3238  0.8472
 2176SOL    HW218162   0.059   2.968   2.131 -2.6523  1.1391 -0.4811
 2177SOL     OW18163   2.514   1.785   3.310  0.2464 -0.6860  0.0870
 2177SOL    HW118164   2.602   1.819   3.328 -0.1604  0.4711 -0.1225
 2177SOL    HW218165   2.480   1.773   3.399  0.6839 -0.4808  0.2839
 2178SOL     OW18166   1.352   0.982   9.018  0.4082 -0.3647  0.0785
 2178SOL    HW118167   1.293   0.911   8.993  0.5900 -0.4867 -0.0010
 2178SOL    HW218168   1.289   1.036   9.067  0.6902 -0.3510  0.4241
 2179SOL     OW18169   2.793   4.294   2.080 -0.0022  0.0913 -0.5489
 2179SOL    HW118170   2.729   4.246   2.027  0.9819 -1.6636 -0.1476
 2179SOL    HW218171   2.742   4.340   2.146  4.1796  0.9308  2.0937
 2180SOL     OW18172   3.407   0.026  13.373  0.4384 -0.7438  0.3749
 2180SOL    HW118173   3.339   4.699  13.368 -0.5059  0.1492  0.8995
 2180SOL    HW218174   3.354   0.099  13.342 -1.6333 -1.4988  2.1284
 2181SOL     OW18175   1.155   1.645   9.034 -0.1861  0.0425  0.3458
 2181SOL    HW118176   1.220   1.599   8.981 -0.8877 -0.5451  0.0004
 2181SOL    HW218177   1.193   1.656   9.121 -0.9609  0.0738  0.6825
 2182SOL     OW18178   3.315   3.185   1.499  0.3288  0.2699  0.1941
 2182SOL    HW118179   3.266   3.150   1.425 -1.5656 -1.4779  2.2765
 2182SOL    HW218180   3.287   3.275   1.482 -0.2086  0.0121 -0.2828
 2183SOL     OW18181   0.279   4.734  13.751 -0.3395 -0.2572 -0.4082
 2183SOL    HW118182   0.260   0.087  13.746 -0.9569 -0.4497 -1.8506
 2183SOL    HW218183   0.311   4.715  13.663  0.8993  2.0095 -0.4561
 2184SOL     OW18184   3.877   2.308   0.249  0.2112  0.0523 -0.0868
 2184SOL    HW118185   3.817   2.301   0.323 -1.4275  1.2081 -1.3272
 2184SOL    HW218186   3.823   2.372   0.204  0.4575 -0.3500 -0.9691
 2185SOL     OW18187   1.555   3.629  15.382  0.0327  0.6176  0.0994
 2185SOL    HW118188   1.570   3.720  15.408  0.5917 -0.4287  3.3790
 2185SOL    HW218189   1.462   3.632  15.356  0.6650  4.4473 -1.8143
 2186SOL     OW18190   2.990   0.303   9.050  0.6381  0.1705 -0.2031
 2186SOL    HW118191   3.061   0.267   8.997  1.9906  1.2826  0.8837
 2186SOL    HW218192   2.951   0.217   9.068  1.5429 -0.0851  0.5690
 2187SOL     OW18193   3.000   3.060   9.238  0.0568 -0.2567 -0.0017
 2187SOL    HW118194   3.052   3.130   9.279 -1.2888 -0.1432  1.5273
 2187SOL    HW218195   2.924   3.118   9.228  0.7442  0.4276 -1.2269
 2188SOL     OW18196   3.022   0.063  13.459  0.1453 -0.2240 -0.3278
 2188SOL    HW118197   2.963   4.729  13.447  0.1556  0.1150 -2.6371
 2188SOL    HW218198   2.955   0.131  13.463  0.7306  0.3020  0.2405
 2189SOL     OW18199   0.284   3.223  10.885  0.4835  1.0139 -0.1856
 2189SOL    HW118200   0.262   3.185  10.969  1.2454  0.0310 -0.4271
 2189SOL    HW218201   0.277   3.144  10.831 -1.3219  1.4458 -0.5504
 2190SOL     OW18202   2.214   0.633  10.060 -0.2306 -0.6867  0.0704
 2190SOL    HW118203   2.171   0.621   9.976  0.3855 -0.4671 -0.2768
 2190SOL    HW218204   2.306   0.640  10.034 -0.6276  2.8042 -0.4450
 2191SOL     OW18205   4.519   4.540  10.856  0.1948  0.0735 -0.4367
 2191SOL    HW118206   4.523   4.634  10.870 -1.6640  0.4100 -2.2133
 2191SOL    HW218207   4.604   4.525  10.898 -1.0275 -2.0432  1.2903
 2192SOL     OW18208   4.059   2.380   8.300 -0.3190 -0.1089 -0.5052
 2192SOL    HW118209   4.079   2.372   8.393  0.7486 -2.4363 -0.9283
 2192SOL    HW218210   4.069   2.475   8.293  0.2398 -0.1988 -0.9583
 2193SOL     OW18211   4.223   1.410   3.236 -0.3861 -0.0931  0.4706
 2193SOL    HW118212   4.147   1.457   3.201  0.7592  0.6851 -0.9854
 2193SOL    HW218213   4.210   1.418   3.330 -1.4103  1.0694  0.2400
 2194SOL     OW18214   3.588   1.818   9.340 -0.1362  0.2340 -0.4842
 2194SOL    HW118215   3.566   1.729   9.311 -0.8406 -0.1075  1.0797
 2194SOL    HW218216   3.607   1.855   9.254  0.4420  0.0307 -0.4428
 2195SOL     OW18217   4.725   3.252   3.204 -0.2876  0.8695  0.0375
 2195SOL    HW118218   4.731   3.158   3.218 -1.9759  0.9929  1.6171
 2195SOL    HW218219   4.654   3.271   3.266 -1.2567  2.3131 -1.5379
 2196SOL     OW18220   2.144   3.817  14.332  0.4528 -0.0274  0.1843
 2196SOL    HW118221   2.121   3.905  14.361 -1.8015 -0.5285 -0.0930
 2196SOL    HW218222   2.175   3.780  14.414  2.2527  1.6503  0.2506
 2197SOL     OW18223   2.203   0.893   6.306  0.4709  0.1297 -0.3773
 2197SOL    HW118224   2.165   0.980   6.295  0.7343  0.1567 -1.1016
 2197SOL    HW218225   2.123   0.841   6.312  0.7341  0.0208  2.0687
 2198SOL     OW18226   1.321   2.478   2.217  0.3193  0.4700  0.4711
 2198SOL    HW118227   1.319   2.385   2.240  0.8100  0.0581 -1.1404
 2198SOL    HW218228   1.263   2.518   2.282 -0.0866  0.3382  0.1903
 2199SOL     OW18229   2.886   2.769   5.437  0.0072 -0.2338  0.7668
 2199SOL    HW118230   2.883   2.788   5.343 -1.5163  0.7169  1.0096
 2199SOL    HW218231   2.980   2.786   5.443 -0.0606  1.0766 -1.5829
 2200SOL     OW18232   3.032   4.544   3.942 -0.0641  0.3270 -0.0463
 2200SOL    HW118233   3.086   4.538   4.021  0.2245  2.2486 -0.0946
 2200SOL    HW218234   2.952   4.503   3.975  0.5369 -0.8529 -0.0735
 2201SOL     OW18235   2.852   2.640  14.742  0.0430  0.4741  0.0901
 2201SOL    HW118236   2.813   2.650  14.829 -0.5807  0.6222 -0.2107
 2201SOL    HW218237   2.772   2.645  14.690 -0.0266  0.4566  0.1955
 2202SOL     OW18238   1.487   4.352   2.565  1.2210 -0.4202  0.7561
 2202SOL    HW118239   1.436   4.431   2.549  1.3066 -0.1970  1.5980
 2202SOL    HW218240   1.555   4.379   2.627  1.6931  0.3864 -0.1108
 2203SOL     OW18241   1.556   3.070   6.953  0.2562 -0.2314 -0.6610
 2203SOL    HW118242   1.578   2.982   6.984  1.4021 -0.2285 -1.4670
 2203SOL    HW218243   1.623   3.086   6.887  0.0031 -1.4289 -1.2046
 2204SOL     OW18244   0.676   3.294  15.664  0.3927  0.2160  0.7445
 2204SOL    HW118245   0.648   3.204  15.650 -0.0621  0.3764  0.6318
 2204SOL    HW218246   0.593   3.338  15.647  0.0095 -0.7624  0.0890
 2205SOL     OW18247   0.926   1.914  10.047 -0.0009 -0.1719 -0.2281
 2205SOL    HW118248   0.864   1.854  10.090 -2.3259  0.7267 -2.2838
 2205SOL    HW218249   0.937   1.983  10.112 -0.5727  1.7800 -2.1846
 2206SOL     OW18250   0.722   1.222   1.513  0.3441 -0.6682  0.1857
 2206SOL    HW118251   0.759   1.208   1.426  0.5289 -2.3529  0.5329
 2206SOL    HW218252   0.799   1.195   1.563 -0.9893 -2.1020  1.4818
 2207SOL     OW18253   3.847   3.139  13.704 -0.1794 -0.2998  0.3190
 2207SOL    HW118254   3.796   3.193  13.643 -1.2774 -1.3752  0.2692
 2207SOL    HW218255   3.836   3.057  13.655  0.6614 -1.5506  2.2458
 2208SOL     OW18256   3.741   1.173   7.296  0.9004 -0.5993 -0.0637
 2208SOL    HW118257   3.703   1.251   7.338  1.3528 -0.7030  0.5422
 2208SOL    HW218258   3.659   1.131   7.269  0.3518 -0.2340  1.0288
 2209SOL     OW18259   0.092   3.855   8.763  0.6476 -0.0136 -0.5803
 2209SOL    HW118260   0.144   3.779   8.736 -0.9148 -0.8792 -1.1397
 2209SOL    HW218261   0.072   3.903   8.683 -2.7823 -1.4058 -0.5340
 2210SOL     OW18262   2.809   4.400  14.333 -0.3215 -0.5250 -0.5735
 2210SOL    HW118263   2.793   4.311  14.366 -2.7598  0.2477  0.3666
 2210SOL    HW218264   2.883   4.382  14.275  0.1497  1.4163 -0.5598
 2211SOL     OW18265   2.055   1.572  13.142  0.0922 -0.7673  0.1805
 2211SOL    HW118266   2.115   1.609  13.207  0.6460  1.8407 -1.7962
 2211SOL    HW218267   2.088   1.483  13.131  1.0072 -0.6094  1.6835
 2212SOL     OW18268   1.773   3.411   6.654  0.2742  0.1627 -0.2855
 2212SOL    HW118269   1.719   3.484   6.624  0.0277  1.0965  2.4201
 2212SOL    HW218270   1.856   3.429   6.610  1.2965  1.0538  2.0239
 2213SOL     OW18271   3.376   2.069   6.905 -0.4994 -0.5277  0.0296
 2213SOL    HW118272   3.304   2.098   6.962  0.2273  0.9472  0.2185
 2213SOL    HW218273   3.388   2.146   6.849  0.5622 -0.5822  0.1682
 2214SOL     OW18274   3.647   2.603   8.404 -0.0381  0.6816 -0.2625
 2214SOL    HW118275   3.566   2.556   8.384 -0.2328  0.7514  0.3716
 2214SOL    HW218276   3.612   2.663   8.470  1.5329  0.1005  1.1126
 2215SOL     OW18277   2.698   0.090   5.212  0.1046  0.1253  0.3669
 2215SOL    HW118278   2.741   0.091   5.298  0.4819 -3.1721  0.2086
 2215SOL    HW218279   2.710   0.179   5.179 -2.1600 -0.2529 -1.4681
 2216SOL     OW18280   1.594   1.635   9.713 -0.8709 -0.1005  0.1527
 2216SOL    HW118281   1.538   1.573   9.667  1.5195 -0.7025 -1.9660
 2216SOL    HW218282   1.534   1.689   9.764  0.9996  1.9242  0.2688
 2217SOL     OW18283   0.026   4.174   2.859 -0.7430 -0.1647 -0.3498
 2217SOL    HW118284   0.103   4.201   2.909 -0.6869 -2.6012  0.8863
 2217SOL    HW218285   4.706   4.180   2.932 -1.7310  1.8163 -1.3636
 2218SOL     OW18286   0.362   3.775   2.868 -0.1177 -0.5320 -0.6370
 2218SOL    HW118287   0.431   3.749   2.807  0.1610 -0.3399 -0.4009
 2218SOL    HW218288   0.307   3.834   2.817  2.0756  0.1850 -2.1999
 2219SOL     OW18289   2.023   0.673  12.137  0.0406 -0.0994  0.4877
 2219SOL    HW118290   1.955   0.710  12.080 -0.5365 -1.2428  0.4283
 2219SOL    HW218291   2.080   0.654  12.062  0.2179  0.3409  0.5116
 2220SOL     OW18292   0.246   4.631   7.533  0.8087  0.0687  0.1516
 2220SOL    HW118293   0.178   4.588   7.584  1.2219 -0.6549  0.0983
 2220SOL    HW218294   0.210   4.720   7.534 -0.9452 -0.6657  1.0216
 2221SOL     OW18295   4.007   2.088  10.412  0.1134 -0.1293  0.5319
 2221SOL    HW118296   3.916   2.101  10.385  0.2384  1.1069  0.7391
 2221SOL    HW218297   4.034   2.016  10.355  0.0819  1.5192 -1.5590
 2222SOL     OW18298   1.600   2.292   6.282 -0.1358 -0.6320 -0.2223
 2222SOL    HW118299   1.657   2.267   6.355  0.7109  1.9156 -0.0232
 2222SOL    HW218300   1.578   2.383   6.304  2.3268  0.0313 -0.5748
 2223SOL     OW18301   1.388   2.250   8.350  0.1404  0.1623 -0.0363
 2223SOL    HW118302   1.392   2.171   8.297 -0.8458  0.8773 -1.2007
 2223SOL    HW218303   1.481   2.255   8.371  0.2015  1.1608 -0.5395
 2224SOL     OW18304   2.771   3.165   6.726  0.0772  0.0910  0.2810
 2224SOL    HW118305   2.772   3.205   6.639 -1.2123  0.4355  0.4273
 2224SOL    HW218306   2.715   3.224   6.775 -2.8829 -1.5428 -1.1138
 2225SOL     OW18307   3.936   1.560   7.706  0.3869  0.0205 -0.3509
 2225SOL    HW118308   3.965   1.526   7.622  1.9196  0.6315 -0.0645
 2225SOL    HW218309   3.867   1.498   7.728  0.4850  0.4943  1.3372
 2226SOL     OW18310   4.235   1.833   7.283 -0.6947 -0.7370 -0.6278
 2226SOL    HW118311   4.176   1.909   7.287 -0.6186 -0.7701  1.2115
 2226SOL    HW218312   4.213   1.782   7.206 -3.4772  0.5595 -0.6928
 2227SOL     OW18313   3.735   3.862   1.818  0.4634  0.3984 -0.1975
 2227SOL    HW118314   3.758   3.917   1.893  0.5759 -1.1409  0.9228
 2227SOL    HW218315   3.754   3.772   1.846  1.6669  0.8188  0.3658
 2228SOL     OW18316   2.591   1.607  16.589 -0.4088 -0.5088 -0.4086
 2228SOL    HW118317   2.495   1.606  16.590 -0.4549  1.9108 -1.6116
 2228SOL    HW218318   2.609   1.519  16.620 -0.9192  1.0558  4.2923
 2229SOL     OW18319   4.730   0.335   5.422 -0.0153  0.3492  0.0075
 2229SOL    HW118320   0.029   0.422   5.419  1.9921 -0.6221 -1.6972
 2229SOL    HW218321   0.026   0.300   5.341  2.9851 -0.2683  1.6361
 2230SOL     OW18322   2.662   3.556   6.161 -0.9011 -0.3867 -0.1272
 2230SOL    HW118323   2.649   3.500   6.084 -0.4686  0.3684 -0.7456
 2230SOL    HW218324   2.593   3.622   6.153 -0.7773 -0.0168  1.8237
 2231SOL     OW18325   1.128   2.619   1.862  0.0063 -0.0154  0.0424
 2231SOL    HW118326   1.125   2.593   1.769  0.3496 -1.3013  0.3912
 2231SOL    HW218327   1.204   2.676   1.856 -1.5546  2.1738  1.0273
 2232SOL     OW18328   4.080   1.382  16.924 -0.5687  0.6822 -0.0782
 2232SOL    HW118329   4.026   1.308  16.953 -0.2409  0.4051 -0.1796
 2232SOL    HW218330   4.086   1.365  16.830  1.3182  0.2939  0.1086
 2233SOL     OW18331   2.184   0.996  15.004  0.4255  0.1411  0.3609
 2233SOL    HW118332   2.243   1.071  14.996  1.6352 -1.0414 -1.6344
 2233SOL    HW218333   2.167   0.972  14.913 -0.5127 -1.3907  0.9354
 2234SOL     OW18334   4.126   4.165  12.956 -0.3260 -0.0200 -0.4657
 2234SOL    HW118335   4.168   4.116  13.026 -2.4053 -1.5552 -0.2811
 2234SOL    HW218336   4.038   4.126  12.961 -1.1346  1.9633  0.6746
 2235SOL     OW18337   0.761   3.455   2.259  0.4913 -0.0975  0.0349
 2235SOL    HW118338   0.737   3.492   2.174 -1.4233 -2.1264 -0.3097
 2235SOL    HW218339   0.676   3.463   2.303  0.2254 -1.9321 -0.1303
 2236SOL     OW18340   0.227   3.027  14.061 -0.2651 -0.0241  0.0885
 2236SOL    HW118341   0.296   2.979  14.016 -0.2492 -0.0452  0.1352
 2236SOL    HW218342   0.159   3.023  13.994  0.2329 -1.2776 -0.3355
 2237SOL     OW18343   3.203   2.378   6.166  0.1551  0.4139  0.2526
 2237SOL    HW118344   3.168   2.466   6.174 -1.4537 -0.1178 -0.9146
 2237SOL    HW218345   3.293   2.401   6.146  0.3915 -1.4921 -0.8312
 2238SOL     OW18346   2.382   4.128   8.919  0.6882  0.1336  0.0088
 2238SOL    HW118347   2.349   4.115   8.830 -0.2667 -0.8481  0.5044
 2238SOL    HW218348   2.403   4.036   8.936  0.4069  0.0529 -0.0609
 2239SOL     OW18349   3.455   1.308   9.433  0.5229 -0.0617 -0.1346
 2239SOL    HW118350   3.455   1.246   9.506  2.1624 -0.5283 -0.5130
 2239SOL    HW218351   3.392   1.265   9.376  1.4943  0.9127 -1.9569
 2240SOL     OW18352   1.360   3.255  11.294 -0.3799  0.4884 -0.2746
 2240SOL    HW118353   1.363   3.351  11.300 -0.5560  0.6445 -2.8021
 2240SOL    HW218354   1.451   3.227  11.283 -0.8737 -1.3864  0.5189
 2241SOL     OW18355   2.464   1.750  13.495  0.6017  0.6885  1.0065
 2241SOL    HW118356   2.486   1.736  13.587  0.2520  0.9588  1.1329
 2241SOL    HW218357   2.388   1.808  13.507 -0.6037 -0.3334 -1.6086
 2242SOL     OW18358   1.515   2.507   4.188 -0.1324 -0.0586 -0.4892
 2242SOL    HW118359   1.493   2.542   4.274 -1.3123 -0.3636 -0.6633
 2242SOL    HW218360   1.546   2.587   4.147  0.5528 -0.9581 -1.7198
 2243SOL     OW18361   0.769   0.519  16.538 -0.4841  0.2124 -0.7964
 2243SOL    HW118362   0.759   0.437  16.586  2.8101 -0.3083 -1.0368
 2243SOL    HW218363   0.777   0.592  16.599  0.0930  0.0288 -0.6591
 2244SOL     OW18364   3.147   0.642   6.194 -0.7538 -0.8532 -0.1751
 2244SOL    HW118365   3.147   0.555   6.155 -2.8680 -1.2980  0.8172
 2244SOL    HW218366   3.169   0.688   6.114  1.3905  0.3524  1.0914
 2245SOL     OW18367   2.601   2.283   9.096 -0.5507 -0.2742 -0.3282
 2245SOL    HW118368   2.647   2.251   9.018  0.9291  4.5327 -1.4342
 2245SOL    HW218369   2.662   2.255   9.164  0.7640  0.5369 -1.1798
 2246SOL     OW18370   3.406   2.708   2.740 -0.3929  0.9635 -0.0303
 2246SOL    HW118371   3.445   2.793   2.722  0.3448  0.5036 -0.6062
 2246SOL    HW218372   3.312   2.726   2.747 -0.1927  1.4260  1.5371
 2247SOL     OW18373   3.618   0.986  14.958 -0.6928  0.2634  0.8192
 2247SOL    HW118374   3.608   1.074  14.922  2.0470  0.0686 -0.4442
 2247SOL    HW218375   3.528   0.954  14.960  0.1705 -2.3500 -4.7280
 2248SOL     OW18376   2.697   3.409   5.941  0.0800 -0.5480  0.4263
 2248SOL    HW118377   2.636   3.424   5.869  0.8042 -2.4748 -0.5742
 2248SOL    HW218378   2.779   3.432   5.897  0.3538 -0.3043  1.0556
 2249SOL     OW18379   3.966   0.698   7.724  0.2764 -0.4690  0.1900
 2249SOL    HW118380   3.895   0.671   7.782  0.2958  1.9614  1.3147
 2249SOL    HW218381   3.940   0.783   7.690  2.1599 -0.3090 -0.8710
 2250SOL     OW18382   4.027   0.937   4.560 -0.0272  0.0642 -0.0930
 2250SOL    HW118383   3.996   0.922   4.470  1.2822  0.0983 -0.5528
 2250SOL    HW218384   4.122   0.937   4.547  0.1109 -1.1048  0.9274
 2251SOL     OW18385   2.674   0.265   7.749  0.6041 -0.0368  0.2321
 2251SOL    HW118386   2.751   0.321   7.742  0.8722 -0.7172 -2.1818
 2251SOL    HW218387   2.631   0.298   7.671 -3.1761 -0.3362  2.2115
 2252SOL     OW18388   2.221   2.351   5.032 -0.0967  0.8644 -0.1586
 2252SOL    HW118389   2.228   2.271   4.980 -0.2425  1.0867 -0.5173
 2252SOL    HW218390   2.288   2.327   5.096  0.3154 -0.1976 -0.9946
 2253SOL     OW18391   3.253   0.354   3.160 -0.2713 -0.2840  0.6062
 2253SOL    HW118392   3.304   0.310   3.229  3.8707  0.3276 -2.1040
 2253SOL    HW218393   3.256   0.285   3.093 -0.2210  0.7509 -0.4450
 2254SOL     OW18394   3.143   4.247   6.215  0.3661  0.7165  0.2358
 2254SOL    HW118395   3.067   4.251   6.273  0.0620  0.6211 -0.1617
 2254SOL    HW218396   3.140   4.155   6.189  0.1372  1.0018 -0.7661
 2255SOL     OW18397   3.206   3.922   8.658 -0.0144  0.0869  0.6102
 2255SOL    HW118398   3.170   3.959   8.578  1.3178  0.7173  0.3031
 2255SOL    HW218399   3.269   3.988   8.687 -0.5112  1.6978 -1.9736
 2256SOL     OW18400   0.043   4.464   6.745  0.2653 -0.1769 -0.2733
 2256SOL    HW118401   0.133   4.431   6.737  0.1579 -0.9621  1.8798
 2256SOL    HW218402   0.052   4.543   6.691 -1.4329 -0.6929 -1.3234
 2257SOL     OW18403   0.752   1.390   5.653 -0.5599 -0.5087 -0.0853
 2257SOL    HW118404   0.747   1.455   5.723 -2.6160 -0.2159 -0.5049
 2257SOL    HW218405   0.840   1.418   5.629 -1.5460  2.2535 -0.4570
 2258SOL     OW18406   4.202   1.888   2.449 -0.5165 -0.5757  0.5299
 2258SOL    HW118407   4.260   1.915   2.378 -1.5487 -1.8406 -0.7845
 2258SOL    HW218408   4.150   1.819   2.408 -0.2609 -0.4988  0.0700
 2259SOL     OW18409   4.094   3.405   7.855  0.6201 -0.1167  0.1773
 2259SOL    HW118410   4.122   3.437   7.941  1.0884  0.5852 -0.2373
 2259SOL    HW218411   4.097   3.488   7.809  1.0501  0.4355  1.1920
 2260SOL     OW18412   2.838   3.142  17.722  0.6511 -0.3206 -0.0317
 2260SOL    HW118413   2.856   3.160   0.053 -1.7263  0.7660  0.2316
 2260SOL    HW218414   2.755   3.095  17.734  1.2602 -1.5421 -0.6848
 2261SOL     OW18415   4.341   1.384   0.867 -0.9402 -0.2002  0.2718
 2261SOL    HW118416   4.429   1.417   0.852 -1.3793  1.0768  0.4510
 2261SOL    HW218417   4.347   1.294   0.836  1.0393 -0.2957  0.9764
 2262SOL     OW18418   0.123   4.615   9.978 -0.4386  0.3828  0.5196
 2262SOL    HW118419   0.104   4.708   9.988  1.7085  0.7160  1.5201
 2262SOL    HW218420   0.218   4.608   9.990 -0.5616 -1.8774  0.2956
 2263SOL     OW18421   3.904   4.538   3.315 -0.0663  0.6000  0.1193
 2263SOL    HW118422   3.936   4.588   3.390 -1.7435  0.1189  1.1669
 2263SOL    HW218423   3.922   4.446   3.337  2.5169  1.4639  1.6563
 2264SOL     OW18424   2.103   3.584   0.458  1.1132  0.0795 -0.4333
 2264SOL    HW118425   2.051   3.504   0.451 -0.5103  1.1219 -0.4686
 2264SOL    HW218426   2.047   3.641   0.512  0.8942 -2.0302  1.5534
 2265SOL     OW18427   0.991   4.491   7.846 -0.0953  0.1522  0.0073
 2265SOL    HW118428   1.067   4.544   7.822  1.2790 -1.3773  0.9581
 2265SOL    HW218429   0.918   4.548   7.821  1.1899  2.3170  1.2227
 2266SOL     OW18430   4.460   2.064  17.445  0.1384  0.1173 -0.2996
 2266SOL    HW118431   4.455   2.022  17.359  1.6811 -1.2776  0.2967
 2266SOL    HW218432   4.387   2.124  17.432 -1.1861 -1.9115 -2.0718
 2267SOL     OW18433   0.111   2.032   6.072  0.0801  0.0255  0.4615
 2267SOL    HW118434   0.027   2.068   6.100 -0.9616 -2.4805  0.5536
 2267SOL    HW218435   0.132   2.095   6.003  1.3366 -2.0332 -1.0170
 2268SOL     OW18436   3.610   0.675   7.563 -0.1632  0.4348 -0.6544
 2268SOL    HW118437   3.534   0.618   7.573  0.9106 -1.4622 -3.3721
 2268SOL    HW218438   3.679   0.635   7.615 -1.3617 -1.6149 -0.6560
 2269SOL     OW18439   2.344   1.150   7.975 -0.0990  0.3290  0.0700
 2269SOL    HW118440   2.266   1.169   8.026 -0.5211 -0.8818 -0.1093
 2269SOL    HW218441   2.343   1.217   7.907  2.6962  0.8600  0.5500
 2270SOL     OW18442   2.277   3.044   3.071  0.5053 -0.2245  0.3237
 2270SOL    HW118443   2.333   3.000   3.134  0.6842  1.5383  1.4036
 2270SOL    HW218444   2.340   3.083   3.010 -0.7703  3.5297  1.3519
 2271SOL     OW18445   1.109   2.025   4.399 -0.1760  0.3332 -0.1104
 2271SOL    HW118446   1.165   1.966   4.349  0.3495  0.5629  0.2054
 2271SOL    HW218447   1.021   1.990   4.384 -0.4723  2.5351 -3.6053
 2272SOL     OW18448   1.515   1.277   9.018 -0.0112 -0.3295 -0.4704
 2272SOL    HW118449   1.524   1.219   8.942  0.6082 -0.8674  0.0091
 2272SOL    HW218450   1.598   1.262   9.062 -0.1754  3.2996  1.0456
 2273SOL     OW18451   0.677   3.906   4.588  0.2773  0.4313  0.2368
 2273SOL    HW118452   0.644   3.987   4.627  2.4438  1.9776 -1.1181
 2273SOL    HW218453   0.596   3.870   4.551 -0.4132 -1.6677  3.8170
 2274SOL     OW18454   3.565   3.841   4.948  0.6836 -0.3194  0.1338
 2274SOL    HW118455   3.636   3.905   4.946  0.8904 -0.5238  1.1779
 2274SOL    HW218456   3.491   3.898   4.924  0.6808 -1.4491 -2.5025
 2275SOL     OW18457   1.463   4.637   7.158  0.3268  0.5053  0.2450
 2275SOL    HW118458   1.377   4.596   7.150  1.2346 -1.5735  1.1831
 2275SOL    HW218459   1.445   4.702   7.225  0.4302  0.2628  0.5089
 2276SOL     OW18460   4.249   0.670   8.302  0.4598 -0.2454 -0.2480
 2276SOL    HW118461   4.173   0.694   8.250 -0.7822  0.8542  2.0543
 2276SOL    HW218462   4.324   0.692   8.248  1.4106 -0.5458  0.9453
 2277SOL     OW18463   2.531   4.413   0.512  0.6256 -0.6512  0.3511
 2277SOL    HW118464   2.572   4.442   0.431  0.1720  1.5332  0.9057
 2277SOL    HW218465   2.503   4.325   0.487 -0.9906  0.4599 -1.7050
 2278SOL     OW18466   2.518   0.885   5.378  0.3538  0.5666 -0.3972
 2278SOL    HW118467   2.507   0.887   5.283 -1.3219  0.8749 -0.1822
 2278SOL    HW218468   2.430   0.896   5.414  1.0458  1.6473  0.9534
 2279SOL     OW18469   0.677   3.135  14.570  0.5897  0.4218 -0.1532
 2279SOL    HW118470   0.678   3.222  14.609 -2.4569  0.4565 -0.1465
 2279SOL    HW218471   0.755   3.094  14.608  0.0879 -0.4369 -0.0467
 2280SOL     OW18472   3.589   2.633   2.092 -0.1340  0.1481 -0.6167
 2280SOL    HW118473   3.676   2.596   2.107 -0.3443 -0.0121  0.2024
 2280SOL    HW218474   3.532   2.556   2.083  0.5387 -0.3057 -0.9261
 2281SOL     OW18475   1.101   3.635  13.720 -0.0896 -0.4708 -0.4472
 2281SOL    HW118476   1.171   3.623  13.655  0.1247  2.9429 -0.8763
 2281SOL    HW218477   1.019   3.623  13.671 -1.3983 -1.3138  1.9680
 2282SOL     OW18478   1.361   3.737   4.415  0.5063  0.1439  0.2351
 2282SOL    HW118479   1.363   3.825   4.452 -2.7443  0.6035 -0.7066
 2282SOL    HW218480   1.401   3.693   4.490 -0.9154  1.9468  2.0626
 2283SOL     OW18481   3.946   0.087   9.441  0.2235 -0.6495 -0.4127
 2283SOL    HW118482   3.968   0.139   9.518 -0.5731 -1.3247  0.2795
 2283SOL    HW218483   3.961   4.740   9.475 -0.4697 -0.4275  0.4757
 2284SOL     OW18484   2.633   3.479   3.066 -0.2213  0.9387 -0.0011
 2284SOL    HW118485   2.702   3.543   3.050  0.3616  0.6108  1.2636
 2284SOL    HW218486   2.597   3.511   3.149  2.3921 -3.5338  2.8664
 2285SOL     OW18487   2.901   0.473   5.885 -0.0850  0.3479 -0.0403
 2285SOL    HW118488   2.952   0.524   5.822 -0.2209 -0.1115 -0.5251
 2285SOL    HW218489   2.904   0.530   5.962  0.1182  1.3456 -0.7989
 2286SOL     OW18490   3.139   4.604  16.072 -0.3374 -0.0159 -0.2878
 2286SOL    HW118491   3.133   4.519  16.027 -1.5224  0.5978 -1.3104
 2286SOL    HW218492   3.169   4.665  16.005  0.4696 -0.5369 -0.3982
 2287SOL     OW18493   1.430   0.682   2.630  0.1553  0.3117  0.0217
 2287SOL    HW118494   1.471   0.602   2.599  0.6359  0.4178  0.3777
 2287SOL    HW218495   1.378   0.647   2.702  1.0310  2.3520  1.6506
 2288SOL     OW18496   3.837   0.009   0.191 -0.1399  0.7210 -0.5334
 2288SOL    HW118497   3.883   0.080   0.148 -0.3452  0.1392 -1.7126
 2288SOL    HW218498   3.751   0.049   0.202  0.7982  2.4313  0.3974
 2289SOL     OW18499   0.553   3.849   3.623 -0.5852 -0.5318  0.2014
 2289SOL    HW118500   0.633   3.897   3.644 -1.5061  0.4599  1.4996
 2289SOL    HW218501   0.597   3.801   3.553  0.4973  3.0054 -1.5541
 2290SOL     OW18502   0.241   2.443   7.032  0.6667  0.6044  0.0783
 2290SOL    HW118503   0.332   2.460   7.057 -0.0462  2.0679  1.7067
 2290SOL    HW218504   0.207   2.468   7.118 -1.4160 -0.4430 -0.4381
 2291SOL     OW18505   4.507   1.824   0.239 -0.9611  0.6368 -0.7959
 2291SOL    HW118506   4.431   1.807   0.183 -2.0651  1.5061  0.4631
 2291SOL    HW218507   4.500   1.748   0.297 -0.6565  1.1012 -0.1504
 2292SOL     OW18508   2.603   0.009   4.035  0.2691 -0.2117 -0.0583
 2292SOL    HW118509   2.649   4.723   3.956 -1.7673 -0.6431 -1.1126
 2292SOL    HW218510   2.677   0.022   4.095 -0.4336  0.3447  0.6929
 2293SOL     OW18511   0.037   2.588   3.765 -0.1686  0.1397 -0.4762
 2293SOL    HW118512   0.114   2.620   3.717 -1.1426  0.3085 -1.9179
 2293SOL    HW218513   0.060   2.495   3.768 -1.7891 -0.2303  0.6316
 2294SOL     OW18514   2.308   2.178   6.913  0.5029  0.1443 -0.7652
 2294SOL    HW118515   2.356   2.230   6.978 -0.7597  1.3966 -0.8366
 2294SOL    HW218516   2.219   2.213   6.914 -0.3538 -2.0999  0.7484
 2295SOL     OW18517   3.636   4.084   8.730 -0.0676  0.3307 -0.0743
 2295SOL    HW118518   3.557   4.058   8.682  0.6937 -3.0659  0.4619
 2295SOL    HW218519   3.700   4.063   8.662 -0.3994 -2.0793  0.3417
 2296SOL     OW18520   1.553   2.962   8.295 -0.3373  0.1686  0.3246
 2296SOL    HW118521   1.465   2.999   8.289 -0.9865 -0.8246  4.0694
 2296SOL    HW218522   1.581   2.989   8.207  1.6248 -1.3257  0.4807
 2297SOL     OW18523   2.875   1.855   0.259  0.2996  0.1198 -0.4397
 2297SOL    HW118524   2.940   1.786   0.271  0.6063  0.3486 -0.8169
 2297SOL    HW218525   2.800   1.799   0.236  0.4680  0.8083 -2.6409
 2298SOL     OW18526   4.315   1.497   4.426  0.2590  0.2132 -1.1483
 2298SOL    HW118527   4.398   1.507   4.380  0.7685  0.3634 -0.1924
 2298SOL    HW218528   4.337   1.516   4.517  2.2961 -0.4832 -1.4967
 2299SOL     OW18529   2.089   4.490   6.507 -0.4244  0.9433  0.4125
 2299SOL    HW118530   2.030   4.457   6.438  1.4831 -1.1910 -0.1816
 2299SOL    HW218531   2.078   4.418   6.570  1.0672 -0.8104 -1.3206
 2300SOL     OW18532   1.154   1.688   1.817 -0.3737  0.0385  0.3127
 2300SOL    HW118533   1.072   1.642   1.803  0.7089 -1.8124  0.0875
 2300SOL    HW218534   1.216   1.628   1.776 -0.3784 -0.1337  0.5570
 2301SOL     OW18535   1.973   4.680   2.880 -0.1533 -0.1689  0.5625
 2301SOL    HW118536   1.967   0.034   2.892  0.5788 -0.1238  0.5619
 2301SOL    HW218537   2.058   4.661   2.919  0.6111  1.3528 -0.3652
 2302SOL     OW18538   2.826   4.269  11.673  0.6972  0.1225  0.0490
 2302SOL    HW118539   2.772   4.344  11.647  0.3111 -0.6693 -1.3855
 2302SOL    HW218540   2.789   4.209  11.609  1.3828 -0.2606  0.0154
 2303SOL     OW18541   4.281   2.285   2.439  0.1487 -0.0965  0.2356
 2303SOL    HW118542   4.321   2.228   2.506 -0.1046 -1.1437 -0.5006
 2303SOL    HW218543   4.329   2.367   2.454 -3.5858  2.4399 -1.9698
 2304SOL     OW18544   1.312   0.053   4.517  0.2919  0.0618  0.8372
 2304SOL    HW118545   1.378   4.739   4.475  0.5025  1.4640 -0.6811
 2304SOL    HW218546   1.249   4.731   4.550 -0.2975  0.6761  0.8848
 2305SOL     OW18547   0.387   0.886   9.610  0.2141  0.3865  0.0122
 2305SOL    HW118548   0.340   0.923   9.535  0.8582 -1.5086 -1.3387
 2305SOL    HW218549   0.478   0.877   9.580 -0.1150  1.7476 -1.3849
 2306SOL     OW18550   3.266   2.508   6.571 -0.4023 -0.5858 -0.5282
 2306SOL    HW118551   3.207   2.559   6.626  0.6499 -2.1829  2.0731
 2306SOL    HW218552   3.274   2.567   6.496 -0.0137 -0.9537 -0.7714
 2307SOL     OW18553   2.455   1.145   3.541  0.1125 -0.2001 -0.1190
 2307SOL    HW118554   2.365   1.142   3.507 -0.7831  0.9533  2.1471
 2307SOL    HW218555   2.491   1.068   3.497  2.8659  1.1097 -0.1131
 2308SOL     OW18556   3.513   2.936  11.975  0.6687  0.1229  0.2280
 2308SOL    HW118557   3.509   3.029  11.999  0.4964 -0.7727  3.6203
 2308SOL    HW218558   3.606   2.918  11.966  1.0689  1.6127  1.2073
 2309SOL     OW18559   0.631   0.301   1.520  0.2498 -0.4372 -0.2176
 2309SOL    HW118560   0.645   0.355   1.442  0.7871 -0.5131 -0.1682
 2309SOL    HW218561   0.551   0.251   1.500 -0.5771  0.8515 -0.1258
 2310SOL     OW18562   0.565   0.881   9.202 -0.2421  0.2138  0.0862
 2310SOL    HW118563   0.519   0.798   9.186  0.3136 -0.2103  0.7140
 2310SOL    HW218564   0.598   0.870   9.291  1.3471 -0.3946 -0.5901
 2311SOL     OW18565   2.948   3.262   5.570  0.1527  0.5474  0.4538
 2311SOL    HW118566   2.869   3.232   5.614 -0.7726 -2.4594 -3.2716
 2311SOL    HW218567   2.919   3.263   5.479  0.5339 -0.5823  0.3303
 2312SOL     OW18568   0.558   0.942   4.108  0.0270 -0.5217 -0.4395
 2312SOL    HW118569   0.642   0.988   4.109  0.7037 -1.8447  2.2339
 2312SOL    HW218570   0.553   0.924   4.201 -0.7963  2.1140  0.0345
 2313SOL     OW18571   3.064   0.350   9.581 -0.0784 -0.1605 -0.2396
 2313SOL    HW118572   2.982   0.363   9.627 -0.4515  1.6036 -1.3935
 2313SOL    HW218573   3.042   0.308   9.498 -1.4694 -1.3141  0.7061
 2314SOL     OW18574   4.112   3.207   3.622  0.2631 -0.3156 -0.0918
 2314SOL    HW118575   4.136   3.118   3.647  0.7037 -1.1560 -3.5258
 2314SOL    HW218576   4.190   3.257   3.644 -0.0626 -1.4438  3.6191
 2315SOL     OW18577   2.892   2.234   4.005 -0.1899  0.2414  0.1726
 2315SOL    HW118578   2.965   2.184   4.040  0.2196 -0.5109 -1.7688
 2315SOL    HW218579   2.885   2.188   3.921  0.6390 -0.4366  0.4903
 2316SOL     OW18580   3.866   2.114   5.332  0.2054 -0.2250  0.3048
 2316SOL    HW118581   3.783   2.068   5.342 -0.7740  1.2089 -1.1123
 2316SOL    HW218582   3.868   2.122   5.236 -0.5592  1.1134  0.4034
 2317SOL     OW18583   2.585   3.876   2.839 -0.2242 -0.4643  0.1711
 2317SOL    HW118584   2.668   3.880   2.885 -0.9663  1.6920  1.3201
 2317SOL    HW218585   2.537   3.924   2.905 -0.2179 -1.9081  1.2319
 2318SOL     OW18586   0.711   0.228  11.926  0.2210 -0.4000 -0.5514
 2318SOL    HW118587   0.723   0.295  11.858  2.1325  1.0963  1.2455
 2318SOL    HW218588   0.640   0.269  11.975  0.7263 -0.5006  0.2705
 2319SOL     OW18589   4.450   2.828   0.200 -0.3507 -0.8472  0.3719
 2319SOL    HW118590   4.469   2.735   0.210  0.8581 -0.3046  2.9419
 2319SOL    HW218591   4.514   2.864   0.261  0.4258 -0.8324 -0.4519
 2320SOL     OW18592   3.309   4.086   2.838  0.1356  0.2423  0.0007
 2320SOL    HW118593   3.390   4.095   2.787 -1.0235  0.3980 -1.8094
 2320SOL    HW218594   3.246   4.042   2.781 -0.5303 -0.0695  0.9839
 2321SOL     OW18595   1.874   3.413   5.674 -0.5073 -0.0063 -0.2957
 2321SOL    HW118596   1.919   3.366   5.604 -2.2355  0.4379 -1.7100
 2321SOL    HW218597   1.787   3.375   5.671 -1.0132  1.2810 -1.4687
 2322SOL     OW18598   2.465   4.422   8.222  0.1754  0.0317  0.7626
 2322SOL    HW118599   2.427   4.509   8.228  1.7946  1.0144 -3.0486
 2322SOL    HW218600   2.535   4.437   8.157  0.2439  0.1516  0.8650
 2323SOL     OW18601   2.035   0.285   1.790  0.4815 -0.1656 -0.0671
 2323SOL    HW118602   2.042   0.354   1.856 -0.4938  0.6189 -0.8019
 2323SOL    HW218603   1.998   0.209   1.835 -2.3127  0.7776 -0.8280
 2324SOL     OW18604   3.777   4.657   8.878 -0.4752 -0.2172  0.3963
 2324SOL    HW118605   3.738   4.740   8.905 -2.2074 -0.4037 -1.6072
 2324SOL    HW218606   3.780   4.613   8.963  2.5710  0.6172  0.7363
 2325SOL     OW18607   1.355   4.385  17.633 -0.1136 -0.6179  0.0755
 2325SOL    HW118608   1.329   4.293  17.638  0.8307 -0.8544  0.6432
 2325SOL    HW218609   1.370   4.409  17.541 -0.3242 -3.7697 -0.7924
 2326SOL     OW18610   1.159   4.172   6.541 -0.5431  0.2303  0.0643
 2326SOL    HW118611   1.089   4.237   6.536 -0.5005  0.1897 -1.1501
 2326SOL    HW218612   1.145   4.097   6.599 -0.3595  0.5142  0.4784
 2327SOL     OW18613   0.044   2.684   4.691  0.4371  0.6580  0.2206
 2327SOL    HW118614   0.062   2.724   4.606  0.0712 -1.0662 -0.6545
 2327SOL    HW218615   4.698   2.716   4.714 -0.6965 -1.2939 -1.3817
 2328SOL     OW18616   4.261   2.110  13.959 -0.2636 -0.2548 -0.1293
 2328SOL    HW118617   4.219   2.162  13.891  1.3142 -0.5714 -1.3325
 2328SOL    HW218618   4.239   2.164  14.036 -2.1495  0.1423 -0.9538
 2329SOL     OW18619   3.360   0.330   3.447 -0.4279  0.5066 -0.1149
 2329SOL    HW118620   3.311   0.276   3.509 -0.5331  0.9172  0.1627
 2329SOL    HW218621   3.301   0.403   3.468 -2.0058 -1.0025  0.6438
 2330SOL     OW18622   3.400   3.643   3.953  0.2701 -0.5428 -0.1582
 2330SOL    HW118623   3.434   3.731   3.941 -1.8997  0.0540 -1.9242
 2330SOL    HW218624   3.396   3.627   4.047 -2.0638  0.6898 -0.0373
 2331SOL     OW18625   3.828   1.707   9.103  0.0108 -0.4997 -0.7046
 2331SOL    HW118626   3.824   1.659   9.020 -0.8989 -0.3316 -0.7599
 2331SOL    HW218627   3.908   1.673   9.143 -0.6831 -1.4411 -0.0972
 2332SOL     OW18628   2.751   2.346   4.683  0.0663  0.2181 -0.1961
 2332SOL    HW118629   2.717   2.399   4.612  1.0944  2.1650  0.7645
 2332SOL    HW218630   2.819   2.296   4.637 -0.6622  0.6827 -1.7776
 2333SOL     OW18631   3.839   4.626   4.224  0.2634 -0.0214 -0.2854
 2333SOL    HW118632   3.774   4.600   4.289  0.4486  0.4500  0.0949
 2333SOL    HW218633   3.910   4.647   4.285 -0.4464 -2.4035  1.3839
 2334SOL     OW18634   0.672   1.129   9.103 -0.6938 -0.0818 -0.3565
 2334SOL    HW118635   0.617   1.055   9.130 -1.7659  0.0237 -2.2874
 2334SOL    HW218636   0.746   1.077   9.070  0.0752  0.9326 -0.2057
 2335SOL     OW18637   1.216   2.299   8.939  0.2018 -0.2952 -0.3204
 2335SOL    HW118638   1.167   2.368   8.896 -0.0863 -0.9460 -1.0346
 2335SOL    HW218639   1.304   2.318   8.906  0.6325 -1.3741  0.1913
 2336SOL     OW18640   0.340   3.251   6.432 -0.2977 -0.5147 -0.3513
 2336SOL    HW118641   0.318   3.316   6.498  2.1156  0.4924 -0.5439
 2336SOL    HW218642   0.278   3.183   6.459 -1.5860  0.9372  0.3538
 2337SOL     OW18643   1.667   4.480   7.227 -0.3113 -0.0423  0.7217
 2337SOL    HW118644   1.747   4.521   7.192 -0.1021 -0.4818  0.6845
 2337SOL    HW218645   1.594   4.526   7.186  0.2433 -0.2952 -0.5433
 2338SOL     OW18646   2.423   2.121   1.657 -0.7639  0.2151 -0.0634
 2338SOL    HW118647   2.412   2.029   1.631  1.2787 -0.1291  0.2349
 2338SOL    HW218648   2.511   2.127   1.695 -0.8467  1.5392 -0.0936
 2339SOL     OW18649   0.250   2.262  16.068 -0.1204  0.1993  0.4116
 2339SOL    HW118650   0.160   2.286  16.046 -0.8323 -0.6566  2.4240
 2339SOL    HW218651   0.257   2.297  16.157 -0.8385  0.4378  0.3754
 2340SOL     OW18652   3.281   3.773   4.972 -0.0085  0.0479  0.0315
 2340SOL    HW118653   3.209   3.772   4.909 -0.4545  0.0080  0.5419
 2340SOL    HW218654   3.279   3.679   4.988  0.2280  0.1263  0.5215
 2341SOL     OW18655   2.005   0.404   5.597  0.1763 -0.2588 -0.5405
 2341SOL    HW118656   2.004   0.383   5.691 -1.1755 -1.5959 -0.8503
 2341SOL    HW218657   2.098   0.420   5.585  0.5803  0.2048  3.1241
 2342SOL     OW18658   4.418   1.571   8.394 -0.2873 -0.5168  0.3082
 2342SOL    HW118659   4.502   1.527   8.410  0.0355 -0.5468 -1.5389
 2342SOL    HW218660   4.378   1.514   8.329 -0.1515  0.9632 -1.0594
 2343SOL     OW18661   0.117   0.919   2.884  0.2131  0.2684  0.6368
 2343SOL    HW118662   0.059   0.988   2.917 -1.0172 -1.2794  1.7002
 2343SOL    HW218663   0.169   0.965   2.819 -1.5014 -0.9341 -1.5808
 2344SOL     OW18664   0.124   0.704   5.691 -0.3421 -0.3453 -0.3070
 2344SOL    HW118665   0.092   0.772   5.632  1.5319 -1.3603 -2.5507
 2344SOL    HW218666   0.163   0.649   5.623 -0.8496  1.3219 -1.9407
 2345SOL     OW18667   0.439   1.324   3.257 -0.6968 -0.1484  0.4305
 2345SOL    HW118668   0.514   1.304   3.200 -0.2892 -3.7821  2.2491
 2345SOL    HW218669   0.401   1.236   3.260 -1.7016  0.2505 -0.7228
 2346SOL     OW18670   1.851   1.883  13.852  0.4442 -0.4735  0.2249
 2346SOL    HW118671   1.840   1.844  13.939 -1.7848  2.3355  1.2203
 2346SOL    HW218672   1.799   1.830  13.792  0.3330  1.0069 -0.9783
 2347SOL     OW18673   0.062   1.279   7.237 -0.4551  0.3900  0.7712
 2347SOL    HW118674   0.004   1.328   7.295 -2.4889 -1.2849  0.1192
 2347SOL    HW218675   0.075   1.196   7.284 -1.0554  0.6794  1.4566
 2348SOL     OW18676   0.316   3.047   6.008 -0.0887 -0.5320 -0.1184
 2348SOL    HW118677   0.327   2.957   5.977 -1.8373 -0.6239 -0.4801
 2348SOL    HW218678   0.235   3.031   6.057 -0.4552  1.0809 -0.2018
 2349SOL     OW18679   1.009   0.711   1.589  0.6566 -0.0410  0.0926
 2349SOL    HW118680   1.037   0.792   1.547 -1.1478  0.5739  0.0597
 2349SOL    HW218681   0.978   0.664   1.511  1.3701  0.7055 -0.6432
 2350SOL     OW18682   0.425   0.628   3.352 -0.2544  0.3020  0.0806
 2350SOL    HW118683   0.490   0.559   3.340  0.0125  0.0116  3.0999
 2350SOL    HW218684   0.467   0.681   3.421  0.7327 -1.8058  1.0829
 2351SOL     OW18685   0.853   2.271   4.115 -0.1590 -0.0938 -0.4303
 2351SOL    HW118686   0.884   2.357   4.087  2.5461 -1.3775 -1.3881
 2351SOL    HW218687   0.897   2.223   4.045  1.3797  2.2578 -1.0748
 2352SOL     OW18688   2.931   3.062   4.278 -0.3685 -0.3956 -0.2749
 2352SOL    HW118689   2.846   3.062   4.234  0.9478  1.5423 -2.8483
 2352SOL    HW218690   2.927   3.144   4.326  1.2438  0.3020 -1.2896
 2353SOL     OW18691   2.992   0.120  15.187  0.1699  0.2677 -0.2043
 2353SOL    HW118692   3.066   0.151  15.134 -0.2859  1.1791 -0.3145
 2353SOL    HW218693   2.927   0.178  15.147 -1.2506 -2.4734 -1.8827
 2354SOL     OW18694   4.017   3.649  11.057 -0.1981  0.2347  0.0315
 2354SOL    HW118695   4.090   3.710  11.067 -0.4536  0.2553  1.6969
 2354SOL    HW218696   4.066   3.569  11.075 -0.6606  0.0023  0.2610
 2355SOL     OW18697   2.770   3.460  15.271 -0.0677  0.0553 -0.0956
 2355SOL    HW118698   2.748   3.538  15.220  0.9078 -0.7707 -1.7696
 2355SOL    HW218699   2.865   3.459  15.285 -0.0665 -1.2838 -0.2242
 2356SOL     OW18700   1.174   4.257   3.092 -0.2488 -0.4489  0.0403
 2356SOL    HW118701   1.253   4.291   3.050 -0.4598  0.0000  0.0051
 2356SOL    HW218702   1.129   4.210   3.023  0.3334 -0.0351 -0.6305
 2357SOL     OW18703   2.778   0.854   5.763  0.0500 -0.3141 -0.4904
 2357SOL    HW118704   2.836   0.796   5.714  1.3254  2.4810 -2.3193
 2357SOL    HW218705   2.753   0.914   5.693  0.1699 -0.1491 -0.3905
 2358SOL     OW18706   0.887   3.086   2.668 -0.1995  0.1318 -0.4495
 2358SOL    HW118707   0.876   3.004   2.620 -0.4189  0.0525 -0.2638
 2358SOL    HW218708   0.983   3.094   2.669 -0.0848 -1.3369 -0.1063
 2359SOL     OW18709   1.024   1.910  17.751  0.0014  0.0098  0.0378
 2359SOL    HW118710   1.054   1.840  17.694  0.7898  0.3978 -0.0176
 2359SOL    HW218711   0.949   1.868   0.033  0.6289 -1.8850 -0.7243
 2360SOL     OW18712   4.209   4.162  14.665  0.3562 -0.3442 -0.0258
 2360SOL    HW118713   4.190   4.071  14.686 -0.3273  0.0052  0.8238
 2360SOL    HW218714   4.142   4.203  14.719  1.2994  1.1240  0.0493
 2361SOL     OW18715   1.575   2.990   6.472 -0.6867 -0.0088 -0.6186
 2361SOL    HW118716   1.606   3.076   6.441  0.6105 -0.5683 -0.8870
 2361SOL    HW218717   1.598   2.997   6.565  1.4062 -3.3187 -0.8779
 2362SOL     OW18718   1.146   3.230   7.045  0.4377  0.9573 -0.3778
 2362SOL    HW118719   1.066   3.180   7.063  0.9824  0.5952  1.0372
 2362SOL    HW218720   1.211   3.167   7.017  1.1984  1.8545 -0.6412
 2363SOL     OW18721   3.438   1.591   9.083  0.1831  0.1967 -0.2597
 2363SOL    HW118722   3.465   1.563   9.171  1.3120  0.7351 -0.4281
 2363SOL    HW218723   3.460   1.515   9.029  0.2723 -0.1934  0.3179
 2364SOL     OW18724   0.401   0.543  14.704 -0.4813 -0.2132 -0.0217
 2364SOL    HW118725   0.465   0.517  14.770  0.0655  0.5191 -0.2663
 2364SOL    HW218726   0.461   0.593  14.649  1.5383 -3.3674 -0.6995
 2365SOL     OW18727   4.024   4.264   8.075  0.0550 -0.1622  0.1860
 2365SOL    HW118728   4.052   4.352   8.101  1.2198 -0.4989  0.0866
 2365SOL    HW218729   4.088   4.231   8.011 -1.3553  0.5657 -1.6025
 2366SOL     OW18730   0.161   2.358   9.154  0.4943  0.2420 -0.0036
 2366SOL    HW118731   0.247   2.359   9.195  0.3752 -1.2876  0.2724
 2366SOL    HW218732   0.178   2.297   9.083  0.1897 -0.5470  0.6081
 2367SOL     OW18733   0.828   2.221   7.802  0.0264  0.1937 -0.0103
 2367SOL    HW118734   0.806   2.191   7.714 -3.1389 -0.2050  0.9045
 2367SOL    HW218735   0.761   2.286   7.823 -0.4318 -0.3239  0.1113
 2368SOL     OW18736   3.393   1.034   6.339 -0.6243 -0.2415 -0.5291
 2368SOL    HW118737   3.459   0.981   6.384 -0.8406  1.5987  1.9863
 2368SOL    HW218738   3.390   1.114   6.391 -1.2311 -1.0317  0.6396
 2369SOL     OW18739   0.934   2.519   3.726  0.1310  0.0506 -0.0411
 2369SOL    HW118740   0.990   2.480   3.659  1.3958 -1.5478  1.9670
 2369SOL    HW218741   0.937   2.607   3.688 -0.5538  0.2533  0.3849
 2370SOL     OW18742   0.578   4.680   7.054 -0.1184  0.1267  0.1105
 2370SOL    HW118743   0.646   4.616   7.079 -1.4774 -0.6219  1.9252
 2370SOL    HW218744   0.572   4.709   7.145  0.3784  1.3455 -0.2499
 2371SOL     OW18745   2.585   2.257  10.933 -0.0054  0.1734  0.8715
 2371SOL    HW118746   2.622   2.317  10.998  0.2108  1.5084 -0.4863
 2371SOL    HW218747   2.494   2.253  10.962  0.0383  0.8693  1.1210
 2372SOL     OW18748   4.636   4.449   3.697  0.3004  0.0414 -0.4896
 2372SOL    HW118749   4.651   4.361   3.730  0.6177 -0.0758 -0.9402
 2372SOL    HW218750   4.625   4.429   3.604  0.7322 -3.3740  0.1992
 2373SOL     OW18751   1.719   1.262  17.185  0.3049 -0.4853  0.3543
 2373SOL    HW118752   1.663   1.323  17.233 -1.0795 -0.4601 -1.2871
 2373SOL    HW218753   1.764   1.208  17.250  2.1857 -0.3341 -0.8210
 2374SOL     OW18754   0.900   3.750   2.179  0.1972  0.1674 -0.6684
 2374SOL    HW118755   0.821   3.804   2.172  0.0870  0.5333  3.4973
 2374SOL    HW218756   0.887   3.680   2.115 -0.4992 -0.7364  0.4619
 2375SOL     OW18757   1.454   3.244   1.820 -0.0694  0.7482  0.0031
 2375SOL    HW118758   1.384   3.303   1.795 -0.6800 -0.3645 -0.9357
 2375SOL    HW218759   1.461   3.181   1.748  1.2625 -1.4826  2.0968
 2376SOL     OW18760   3.541   3.187   8.835 -0.0976  0.1675  0.4900
 2376SOL    HW118761   3.490   3.189   8.754  2.0539  2.5554 -0.8206
 2376SOL    HW218762   3.464   3.175   8.891 -0.5284 -0.7529 -0.3036
 2377SOL     OW18763   4.137   0.143   2.265  0.3160  0.4397 -0.0253
 2377SOL    HW118764   4.066   0.081   2.247 -0.0179  1.3636 -1.9411
 2377SOL    HW218765   4.081   0.221   2.261 -0.8110 -0.4439 -1.7317
 2378SOL     OW18766   3.017   2.447   1.130 -0.0570 -0.7678  0.2973
 2378SOL    HW118767   3.057   2.512   1.188  0.6007 -0.6200 -0.3214
 2378SOL    HW218768   3.088   2.435   1.067 -0.3566  1.5042 -0.4626
 2379SOL     OW18769   0.806   1.616  12.196  0.2016 -0.0521 -0.2811
 2379SOL    HW118770   0.894   1.614  12.233 -0.7263 -3.3509  1.7988
 2379SOL    HW218771   0.767   1.687  12.247  1.7627  1.7928 -1.6215
 2380SOL     OW18772   1.350   1.239   5.183  0.5237  0.7406  0.4846
 2380SOL    HW118773   1.275   1.272   5.133  1.6832  1.3310 -0.8724
 2380SOL    HW218774   1.401   1.219   5.105 -0.2542  0.5333  0.0263
 2381SOL     OW18775   0.038   1.194  14.470  0.1589  0.1918 -0.2047
 2381SOL    HW118776   0.126   1.187  14.432  0.3906  0.5294  0.2673
 2381SOL    HW218777   4.741   1.247  14.401  0.4559 -1.5681 -1.7259
 2382SOL     OW18778   3.431   0.010   2.828  0.0979 -0.4368 -0.0668
 2382SOL    HW118779   3.441   0.055   2.744 -2.7898  2.2349  1.0035
 2382SOL    HW218780   3.460   0.071   2.896  3.2858 -2.7766  0.6667
 2383SOL     OW18781   4.314   0.981   5.064 -0.2214 -0.2822  0.1147
 2383SOL    HW118782   4.323   0.885   5.066  2.1321 -0.0629  0.0764
 2383SOL    HW218783   4.269   0.984   4.980 -0.0321  2.1702  0.1206
 2384SOL     OW18784   2.865   3.691   7.277 -0.1854  0.3011  0.7738
 2384SOL    HW118785   2.935   3.744   7.238 -0.2508  1.3261  2.0512
 2384SOL    HW218786   2.823   3.666   7.194  0.2443  0.9486  0.3613
 2385SOL     OW18787   0.015   0.910   4.306 -0.0216  0.5335 -0.2267
 2385SOL    HW118788   4.676   0.951   4.274  0.0157  1.4841  0.8935
 2385SOL    HW218789   0.028   0.844   4.238  3.4703  1.0243 -0.0321
 2386SOL     OW18790   0.624   0.696   9.976  0.3189 -0.2883  0.5738
 2386SOL    HW118791   0.671   0.718  10.056  1.0458  0.3586 -0.0406
 2386SOL    HW218792   0.535   0.721  10.004 -0.5762 -1.6158 -1.0794
 2387SOL     OW18793   0.729   2.587   9.009 -0.9559 -0.7047  0.3091
 2387SOL    HW118794   0.641   2.553   8.993  0.4531 -2.5734 -3.4709
 2387SOL    HW218795   0.758   2.602   8.919 -0.8155  3.5108  1.0382
 2388SOL     OW18796   0.373   2.388   8.556  0.2235 -0.9291  0.2292
 2388SOL    HW118797   0.298   2.442   8.583  0.4019 -0.0902 -0.9466
 2388SOL    HW218798   0.390   2.345   8.640  1.0815  1.1042  1.0936
 2389SOL     OW18799   3.522   2.709   5.926  0.1231  0.0047 -0.2892
 2389SOL    HW118800   3.614   2.706   5.952 -0.2796  1.8943  1.4150
 2389SOL    HW218801   3.498   2.802   5.925 -4.0114 -1.0404 -1.2643
 2390SOL     OW18802   1.868   1.886   5.251 -0.3409  0.7248 -0.5138
 2390SOL    HW118803   1.821   1.947   5.307 -2.5654 -0.5422 -0.9507
 2390SOL    HW218804   1.954   1.897   5.290 -1.2003 -2.3259  2.2460
 2391SOL     OW18805   0.234   0.206   4.719 -0.8137  0.0013 -0.2665
 2391SOL    HW118806   0.259   0.235   4.632  0.0335 -2.0929 -0.7176
 2391SOL    HW218807   0.269   0.118   4.710  0.0292  0.1720  1.3121
 2392SOL     OW18808   0.686   3.443   2.875  0.0933  0.0106 -0.4302
 2392SOL    HW118809   0.639   3.361   2.858 -2.7216  1.2806  1.2596
 2392SOL    HW218810   0.778   3.429   2.857 -0.0633 -0.9443 -0.4767
 2393SOL     OW18811   0.554   0.712  13.470 -0.3784  0.0516  0.1198
 2393SOL    HW118812   0.561   0.807  13.472 -1.9783  0.1899 -1.0083
 2393SOL    HW218813   0.461   0.694  13.463 -1.1686  3.4688  2.2482
 2394SOL     OW18814   1.145   4.596  10.300 -0.2826 -0.6344 -0.3021
 2394SOL    HW118815   1.093   4.525  10.338 -0.8694  0.8860  1.7328
 2394SOL    HW218816   1.124   4.671  10.355 -1.7433 -1.5969  0.4506
 2395SOL     OW18817   0.486   2.175   5.912 -0.4602  0.3381 -0.5536
 2395SOL    HW118818   0.447   2.236   5.975 -0.2160 -1.0158  0.9103
 2395SOL    HW218819   0.564   2.148   5.960 -1.2128 -0.6099  0.1270
 2396SOL     OW18820   2.576   0.063   2.582  0.2903 -0.3744  0.6166
 2396SOL    HW118821   2.609   0.142   2.625  2.6320 -1.0667  0.0917
 2396SOL    HW218822   2.640   0.005   2.624  0.7881 -0.0804  0.2522
 2397SOL     OW18823   1.587   2.646   9.194 -0.1720 -0.0095  0.8939
 2397SOL    HW118824   1.673   2.611   9.217  0.4880 -0.9106 -3.0522
 2397SOL    HW218825   1.588   2.662   9.100 -0.6977  0.2255  0.9278
 2398SOL     OW18826   3.216   1.745   6.332 -0.1296  0.0800  0.8917
 2398SOL    HW118827   3.198   1.666   6.281  0.8718  1.1339 -1.0787
 2398SOL    HW218828   3.310   1.742   6.350 -0.0584  1.9589  0.8026
 2399SOL     OW18829   3.852   3.696   5.195  0.1311  0.3796 -0.6468
 2399SOL    HW118830   3.947   3.699   5.203  0.0872 -0.6101  0.1674
 2399SOL    HW218831   3.831   3.637   5.267 -0.0020  0.6443 -0.4661
 2400SOL     OW18832   0.394   1.930   7.956  0.2242 -0.0954  0.1028
 2400SOL    HW118833   0.448   1.973   8.023  1.5711 -1.3081 -0.2196
 2400SOL    HW218834   0.352   1.999   7.906  0.1246  0.3186  0.7528
 2401SOL     OW18835   2.507   2.941   7.400 -0.0325 -0.1626 -0.3291
 2401SOL    HW118836   2.598   2.946   7.371 -1.1399  1.9040 -3.4745
 2401SOL    HW218837   2.471   2.879   7.337  0.6192 -0.1371 -0.7293
 2402SOL     OW18838   3.198   0.656   0.284  0.1784  0.4319 -1.0469
 2402SOL    HW118839   3.203   0.704   0.367  0.2193 -4.9999  2.0454
 2402SOL    HW218840   3.159   0.571   0.302 -0.3700  0.5657 -1.5758
 2403SOL     OW18841   4.266   0.524  17.345 -0.1469 -0.3357 -0.2907
 2403SOL    HW118842   4.299   0.595  17.399 -0.8648 -2.3354  2.7443
 2403SOL    HW218843   4.213   0.572  17.280 -1.4265 -0.5473  0.6034
 2404SOL     OW18844   1.015   2.036  16.374 -0.1122 -0.1560  0.1259
 2404SOL    HW118845   1.075   1.966  16.347  0.6394  0.0071  1.3873
 2404SOL    HW218846   1.023   2.024  16.469 -2.4550 -1.8042  0.1094
 2405SOL     OW18847   4.388   4.430  11.815  0.2329 -0.1874  0.5110
 2405SOL    HW118848   4.438   4.501  11.775 -0.0855 -0.6006 -0.6151
 2405SOL    HW218849   4.379   4.376  11.736 -0.3354 -1.0790  1.1749
 2406SOL     OW18850   0.960   3.060   4.738 -0.0029  0.0672  0.0114
 2406SOL    HW118851   0.948   3.040   4.645  1.7227  1.4783 -0.5221
 2406SOL    HW218852   0.871   3.077   4.767 -0.1154  1.2389 -0.9721
 2407SOL     OW18853   4.006   4.677   7.066 -0.0457 -0.2060  0.0881
 2407SOL    HW118854   3.986   4.736   7.138 -0.2905  1.0712 -1.0315
 2407SOL    HW218855   4.086   4.632   7.094  1.0105  1.1660 -0.7566
 2408SOL     OW18856   4.207   3.158   7.284  0.4101 -0.2466 -0.0949
 2408SOL    HW118857   4.280   3.183   7.341  0.3563  0.7486 -0.4580
 2408SOL    HW218858   4.250   3.084   7.242  2.2845  0.8513 -0.1380
 2409SOL     OW18859   3.377   1.113   5.249 -0.2333  0.3244  0.0111
 2409SOL    HW118860   3.442   1.184   5.255  0.4941 -0.4381  1.0360
 2409SOL    HW218861   3.414   1.051   5.312  0.0495  0.9808  0.4909
 2410SOL     OW18862   3.660   1.732  12.949  0.1043  0.0367 -0.4008
 2410SOL    HW118863   3.670   1.657  12.891 -1.6795  0.9526 -1.9220
 2410SOL    HW218864   3.751   1.754  12.965 -0.3140  0.2896  1.6095
 2411SOL     OW18865   2.005   0.386  13.503  0.0229 -0.0549  0.6674
 2411SOL    HW118866   2.005   0.374  13.408  1.6525 -0.9863  0.7813
 2411SOL    HW218867   2.063   0.461  13.512 -0.5037  0.6220 -1.6826
 2412SOL     OW18868   1.193   0.265  12.696  0.5357 -0.1988 -0.4799
 2412SOL    HW118869   1.116   0.224  12.657 -0.1152  1.6827 -1.1734
 2412SOL    HW218870   1.169   0.308  12.779  2.1576 -2.2092  1.0366
 2413SOL     OW18871   2.067   0.862   6.802 -0.0251 -0.1868  0.0599
 2413SOL    HW118872   2.074   0.908   6.886 -0.6912 -1.0044  0.5591
 2413SOL    HW218873   2.029   0.782   6.837  0.1357 -0.6430 -0.8283
 2414SOL     OW18874   1.171   1.869   8.464  0.3429  0.0619 -0.2502
 2414SOL    HW118875   1.258   1.828   8.467 -1.3764 -3.9120 -3.8301
 2414SOL    HW218876   1.190   1.935   8.398 -1.4048  0.0137 -0.7973
 2415SOL     OW18877   2.415   1.151   6.950  0.0671  0.6593 -0.0266
 2415SOL    HW118878   2.443   1.239   6.922  0.1043  1.8150  3.6187
 2415SOL    HW218879   2.453   1.157   7.038  0.7768  1.4534 -0.3789
 2416SOL     OW18880   2.384   2.490   7.923  0.1568  0.6471 -0.1881
 2416SOL    HW118881   2.320   2.541   7.874  1.0334  0.1154 -1.8776
 2416SOL    HW218882   2.467   2.508   7.879  0.3107 -3.3777 -1.5438
 2417SOL     OW18883   2.666   0.067   7.945  0.2722 -0.5096  0.0641
 2417SOL    HW118884   2.691   0.140   7.889 -1.4441  1.2449  1.5845
 2417SOL    HW218885   2.590   0.111   7.984 -1.1957 -0.9049 -2.3123
 2418SOL     OW18886   0.183   4.136   3.382  0.4465  0.5090  0.7098
 2418SOL    HW118887   0.137   4.070   3.435 -2.5865  1.9078 -0.1483
 2418SOL    HW218888   0.197   4.086   3.302 -0.9836 -0.7968  1.2487
 2419SOL     OW18889   3.276   2.227   8.976  0.3300  0.2169 -0.8486
 2419SOL    HW118890   3.250   2.145   9.017 -0.7798  0.2711 -1.4546
 2419SOL    HW218891   3.361   2.202   8.939  0.4584  0.4104 -0.6847
 2420SOL     OW18892   1.210   0.926   3.239 -0.0856  0.1517 -0.1411
 2420SOL    HW118893   1.143   0.951   3.176 -0.8823 -0.7225  0.3546
 2420SOL    HW218894   1.156   0.872   3.297 -0.9016 -0.3133 -1.3351
 2421SOL     OW18895   1.792   3.690   5.586  0.1593  0.0270 -0.1007
 2421SOL    HW118896   1.828   3.629   5.650 -0.9780 -0.6255 -0.0890
 2421SOL    HW218897   1.761   3.626   5.523  2.5448 -1.3702  0.1489
 2422SOL     OW18898   1.256   2.344   4.903 -0.4387  0.4741 -0.4870
 2422SOL    HW118899   1.192   2.279   4.931 -1.5585  1.5453 -0.5359
 2422SOL    HW218900   1.319   2.286   4.860 -0.9422 -2.1956  2.4163
 2423SOL     OW18901   0.236   1.346  17.183  0.4806 -0.4017 -0.0161
 2423SOL    HW118902   0.178   1.416  17.212  0.7816  0.6192 -1.8894
 2423SOL    HW218903   0.318   1.395  17.189  0.4447 -0.4370  0.7602
 2424SOL     OW18904   0.382   1.812   7.670  0.0856  0.2693 -0.0052
 2424SOL    HW118905   0.303   1.845   7.712 -1.0230  1.0982 -2.7513
 2424SOL    HW218906   0.348   1.750   7.605  1.3642  0.4092 -0.8163
 2425SOL     OW18907   1.328   2.224   2.278 -0.2866  0.2452 -0.4157
 2425SOL    HW118908   1.307   2.145   2.330 -0.0573 -0.4817 -1.4313
 2425SOL    HW218909   1.418   2.195   2.260  0.1259  0.3174  1.4691
 2426SOL     OW18910   1.308   2.728   6.176 -0.2303 -0.1786 -0.6540
 2426SOL    HW118911   1.362   2.699   6.250  0.0299 -0.9427 -1.1373
 2426SOL    HW218912   1.230   2.673   6.184  0.0172 -0.4553 -0.0890
 2427SOL     OW18913   1.190   0.040  14.375 -0.1699  0.6137  0.3777
 2427SOL    HW118914   1.120   4.716  14.380 -0.2624  0.6583 -0.2938
 2427SOL    HW218915   1.254   0.010  14.440  2.8210  2.0857 -1.9053
 2428SOL     OW18916   2.647   3.033  14.793 -0.0534  0.2553 -0.5945
 2428SOL    HW118917   2.600   2.950  14.790  0.4077 -0.0392  0.4910
 2428SOL    HW218918   2.584   3.078  14.736 -2.1585 -0.4938  1.1311
 2429SOL     OW18919   2.673   0.783  17.063  0.1214 -0.5656  0.5382
 2429SOL    HW118920   2.749   0.840  17.076 -0.4405  0.0228  1.2015
 2429SOL    HW218921   2.645   0.811  16.977  1.1065  0.6234  0.6041
 2430SOL     OW18922   2.498   4.669  14.968  0.2432 -0.2586  0.4711
 2430SOL    HW118923   2.450   4.613  15.029 -2.7186 -1.9482 -3.4562
 2430SOL    HW218924   2.462   0.008  15.007  0.0438 -0.5199  0.8244
 2431SOL     OW18925   4.605   1.857   3.426 -0.1335 -0.2309  0.4686
 2431SOL    HW118926   4.539   1.910   3.470  0.0143  0.0934  0.2967
 2431SOL    HW218927   4.597   1.881   3.334 -0.2572  0.4431  0.6507
 2432SOL     OW18928   1.146   3.272   4.745  0.8091  0.1505  0.3963
 2432SOL    HW118929   1.114   3.274   4.835  0.0073  0.8962  0.0928
 2432SOL    HW218930   1.100   3.194   4.717 -0.8695  0.8525  1.1961
 2433SOL     OW18931   3.530   0.732   9.892 -0.0718 -0.2394 -0.3936
 2433SOL    HW118932   3.529   0.703   9.801  1.8643 -0.1507 -0.4416
 2433SOL    HW218933   3.555   0.649   9.932 -0.1063 -1.1098 -2.1670
 2434SOL     OW18934   1.890   4.203  16.211  0.3199 -0.5128  0.0885
 2434SOL    HW118935   1.970   4.242  16.246 -0.8852  0.7340  1.4616
 2434SOL    HW218936   1.833   4.237  16.280 -1.0005  2.9985 -2.7486
 2435SOL     OW18937   1.649   2.539  11.367  0.4327  0.6242  0.3615
 2435SOL    HW118938   1.593   2.609  11.401  1.4600  1.4442  0.3692
 2435SOL    HW218939   1.686   2.583  11.291 -0.8236  0.2035 -0.5092
 2436SOL     OW18940   2.044   0.797   0.960  0.0528  0.1954  0.4726
 2436SOL    HW118941   2.087   0.758   1.036 -0.9125  2.0239  1.9384
 2436SOL    HW218942   2.015   0.879   0.998 -3.8320 -0.9551 -0.0845
 2437SOL     OW18943   0.521   4.222   9.013  0.2370  0.4275 -0.6315
 2437SOL    HW118944   0.552   4.165   9.083 -0.6341  0.2266 -0.4137
 2437SOL    HW218945   0.456   4.158   8.984  0.9996 -0.8401  0.4564
 2438SOL     OW18946   0.267   3.944   1.922  0.3124  0.0170  0.1544
 2438SOL    HW118947   0.172   3.937   1.936  0.0694 -0.2557 -1.6865
 2438SOL    HW218948   0.265   4.018   1.862 -2.4756 -1.1880 -1.2402
 2439SOL     OW18949   1.197   3.710   5.830 -0.1811  0.1587 -0.4899
 2439SOL    HW118950   1.149   3.632   5.856  1.2966 -0.9099 -0.9908
 2439SOL    HW218951   1.287   3.678   5.825 -0.3950 -0.6158  0.7655
 2440SOL     OW18952   0.130   3.409   1.866 -0.0987 -0.6926  0.1948
 2440SOL    HW118953   0.100   3.491   1.905 -1.7682 -1.1356 -0.1565
 2440SOL    HW218954   0.050   3.356   1.872 -0.7428 -0.2547 -4.4580
 2441SOL     OW18955   3.155   1.593   9.097  0.0656  0.7060 -0.3839
 2441SOL    HW118956   3.234   1.612   9.046 -1.1816 -1.4773 -3.1526
 2441SOL    HW218957   3.188   1.599   9.186  2.5921 -0.8647 -1.2053
 2442SOL     OW18958   3.168   2.915   3.409 -0.6148 -0.0576 -0.6686
 2442SOL    HW118959   3.193   2.946   3.496  1.2453 -0.7486 -0.9658
 2442SOL    HW218960   3.106   2.984   3.385 -1.1152  0.1389  1.1975
 2443SOL     OW18961   3.778   2.488  12.248 -0.0950 -0.0288  0.4187
 2443SOL    HW118962   3.790   2.398  12.278  0.0627  0.2293  1.1180
 2443SOL    HW218963   3.836   2.485  12.172  0.7853  0.6790  1.0690
 2444SOL     OW18964   2.259   1.206   7.666 -0.0930  0.3616 -0.2203
 2444SOL    HW118965   2.185   1.224   7.608 -0.2023  1.5033  0.2675
 2444SOL    HW218966   2.316   1.152   7.611  1.8507  3.0462 -0.8485
 2445SOL     OW18967   0.036   0.497   6.933  0.4126 -0.0327 -0.0008
 2445SOL    HW118968   0.052   0.443   6.855  0.4427  1.1642 -0.8135
 2445SOL    HW218969   0.049   0.587   6.906 -0.6187 -0.7285 -2.8026
 2446SOL     OW18970   3.572   4.339  15.364 -0.7067  0.7893  0.4537
 2446SOL    HW118971   3.500   4.338  15.301 -1.6615 -1.9835  1.5936
 2446SOL    HW218972   3.583   4.433  15.379  1.3315  0.9428 -1.8353
 2447SOL     OW18973   0.819   4.203   9.107  0.0997  0.1210 -0.0424
 2447SOL    HW118974   0.853   4.150   9.034  0.4461 -2.5896  2.0941
 2447SOL    HW218975   0.745   4.145   9.125 -0.0395  0.4598  0.4754
 2448SOL     OW18976   3.365   4.730   4.290  0.0411 -0.2453 -0.3545
 2448SOL    HW118977   3.388   4.721   4.198  1.5580 -0.8748  0.0698
 2448SOL    HW218978   3.271   4.739   4.282  0.0286 -0.6305 -0.6456
 2449SOL     OW18979   0.948   0.175   3.760 -0.5245 -0.3554 -0.1115
 2449SOL    HW118980   0.947   0.238   3.832  1.4082 -0.1016 -0.3041
 2449SOL    HW218981   0.859   0.163   3.728 -0.2702 -3.2053  0.2322
 2450SOL     OW18982   0.063   1.879   6.602  0.4004 -1.0393  0.0259
 2450SOL    HW118983   0.019   1.794   6.609 -1.2508 -0.0547  1.5552
 2450SOL    HW218984   0.063   1.911   6.692  1.0354 -0.4208 -0.1899
 2451SOL     OW18985   1.921   0.668   5.555  0.6486  0.1948  0.0437
 2451SOL    HW118986   1.917   0.598   5.619 -1.3401 -0.4147 -0.7538
 2451SOL    HW218987   2.016   0.670   5.544  0.6820 -2.5730 -0.0633
 2452SOL     OW18988   3.317   3.994  16.706  0.2597  0.3697  0.2415
 2452SOL    HW118989   3.309   4.062  16.640 -1.1865 -0.4924 -0.4785
 2452SOL    HW218990   3.401   3.954  16.684  0.1391 -0.0530  0.5352
 2453SOL     OW18991   1.712   1.243   9.813 -0.0697 -0.7576 -0.3500
 2453SOL    HW118992   1.779   1.295   9.769  0.7436  0.0495  1.8546
 2453SOL    HW218993   1.713   1.158   9.770  1.7912 -1.7561  1.6575
 2454SOL     OW18994   3.659   2.165   6.207 -0.5041  0.0759 -0.2111
 2454SOL    HW118995   3.615   2.193   6.287 -0.3005  0.2653 -0.1668
 2454SOL    HW218996   3.712   2.089   6.232  0.2980  0.4277 -0.8342
 2455SOL     OW18997   2.562   3.783  11.922  0.2604 -0.8290 -0.4034
 2455SOL    HW118998   2.571   3.789  12.017 -0.1834 -1.7147 -0.3060
 2455SOL    HW218999   2.471   3.775  11.893  0.3103 -1.8482 -0.2728
 2456SOL     OW19000   0.176   2.576   7.265 -0.6646  0.0248 -0.1627
 2456SOL    HW119001   0.226   2.557   7.345 -0.7382 -1.4159 -0.4426
 2456SOL    HW219002   0.111   2.640   7.293  0.0450  0.7223 -0.1288
 2457SOL     OW19003   1.135   1.014   4.517  0.2648  0.3956  0.1971
 2457SOL    HW119004   1.061   1.028   4.575  0.9548  0.5437  1.0407
 2457SOL    HW219005   1.100   1.058   4.439  0.4558  0.4277  0.1271
 2458SOL     OW19006   3.268   2.056   3.535 -0.3977  0.1101 -0.1595
 2458SOL    HW119007   3.232   2.002   3.464  0.0701  1.7827 -1.6602
 2458SOL    HW219008   3.203   2.043   3.604 -0.7664 -1.6747 -0.8257
 2459SOL     OW19009   0.290   1.217   4.509  0.2029  0.1683 -0.0434
 2459SOL    HW119010   0.352   1.145   4.523 -0.0230 -0.3930 -1.9541
 2459SOL    HW219011   0.220   1.190   4.568 -0.1933  2.1842  0.4181
 2460SOL     OW19012   4.338   4.632   8.535  0.2972  0.3948  0.4485
 2460SOL    HW119013   4.264   4.576   8.556  0.9701  0.0034  1.8014
 2460SOL    HW219014   4.386   4.614   8.616  2.0695 -1.1971 -0.9485
 2461SOL     OW19015   4.451   3.947   7.976  0.2974  0.7937  0.3003
 2461SOL    HW119016   4.361   3.959   8.008  0.4994  0.1640  1.1015
 2461SOL    HW219017   4.499   3.922   8.055  0.4024 -3.1310 -1.0373
 2462SOL     OW19018   1.633   3.651   9.019  0.5620 -0.1224  0.4113
 2462SOL    HW119019   1.708   3.682   9.070  0.6220 -1.3962  1.0946
 2462SOL    HW219020   1.590   3.733   8.994 -0.6539 -1.1512 -0.8806
 2463SOL     OW19021   4.471   1.234  16.774 -0.4879  0.3373 -0.2575
 2463SOL    HW119022   4.497   1.142  16.773 -2.2190 -0.1504 -0.4454
 2463SOL    HW219023   4.475   1.249  16.868  0.2998 -1.7162  0.0342
 2464SOL     OW19024   4.420   2.740  15.423 -0.1927 -0.6319 -0.3171
 2464SOL    HW119025   4.419   2.836  15.429  2.4137 -0.6621  0.4825
 2464SOL    HW219026   4.512   2.731  15.398 -0.5582 -0.9235 -1.5710
 2465SOL     OW19027   2.024   1.662   2.048 -0.1657 -0.2358  0.2226
 2465SOL    HW119028   2.057   1.593   2.105  2.2615  1.2517  0.6525
 2465SOL    HW219029   2.109   1.687   2.012 -0.0930  0.8743  1.1302
 2466SOL     OW19030   1.075   4.178   3.357 -0.0552  0.1451  0.2751
 2466SOL    HW119031   1.094   4.181   3.263  1.1938 -0.4256  0.5068
 2466SOL    HW219032   1.119   4.095   3.373  1.9836  0.9648 -1.1150
 2467SOL     OW19033   1.298   2.902   5.002 -0.1293  0.4252  0.3193
 2467SOL    HW119034   1.330   2.927   4.915  0.6234  2.0922  1.0611
 2467SOL    HW219035   1.203   2.905   5.000 -0.1519 -2.9530 -2.9452
 2468SOL     OW19036   3.399   4.473  10.390  0.2180  0.0422  0.1488
 2468SOL    HW119037   3.407   4.465  10.295 -0.4599  0.6590  0.0425
 2468SOL    HW219038   3.348   4.396  10.415  1.0047 -0.0739  1.3412
 2469SOL     OW19039   1.972   4.058   8.895 -0.1772  0.1173  0.1524
 2469SOL    HW119040   1.885   4.062   8.855  0.1217 -1.0001 -0.6225
 2469SOL    HW219041   1.977   4.140   8.944  2.4198 -0.5076  0.8808
 2470SOL     OW19042   0.772   2.984  11.238  0.1351  0.2635 -0.1620
 2470SOL    HW119043   0.710   2.916  11.266  0.3387  0.8397  1.7173
 2470SOL    HW219044   0.751   2.984  11.145  3.1201  0.0132 -0.8335
 2471SOL     OW19045   0.343   4.687  10.937 -0.2387 -0.4945 -0.3592
 2471SOL    HW119046   0.268   4.637  10.969 -1.9107  1.8907 -0.5400
 2471SOL    HW219047   0.417   4.633  10.965  0.5072  0.6075 -0.1608
 2472SOL     OW19048   3.411   1.233   8.084 -0.5035  0.5148 -0.8318
 2472SOL    HW119049   3.487   1.269   8.130  1.7079  1.5448 -5.3239
 2472SOL    HW219050   3.335   1.273   8.127 -0.7321 -0.8390  0.0371
 2473SOL     OW19051   1.417   3.220   5.387 -0.1761  0.2005 -0.2254
 2473SOL    HW119052   1.431   3.311   5.363  0.1340  0.7278  1.9707
 2473SOL    HW219053   1.503   3.186   5.362 -0.4126  1.1362 -2.2922
 2474SOL     OW19054   1.416   2.057   6.746 -0.3486  0.0102  0.1813
 2474SOL    HW119055   1.406   1.963   6.760  0.9892  0.0069  1.1022
 2474SOL    HW219056   1.470   2.091   6.817 -1.2176  0.6943  0.5200
 2475SOL     OW19057   3.672   3.118  11.342  0.9501  0.2378  0.2534
 2475SOL    HW119058   3.689   3.208  11.370  0.5695  1.4477 -3.4344
 2475SOL    HW219059   3.581   3.108  11.372  1.0266 -0.7921  0.1438
 2476SOL     OW19060   4.626   4.174   3.094  0.1154  0.5636 -0.2377
 2476SOL    HW119061   4.544   4.189   3.141 -0.9154  1.2390 -2.2541
 2476SOL    HW219062   4.682   4.243   3.131  2.2504 -0.3072 -1.8221
 2477SOL     OW19063   4.424   3.965  11.798  0.1115 -0.0910  0.4176
 2477SOL    HW119064   4.498   3.979  11.857  1.6373 -0.4930 -1.3958
 2477SOL    HW219065   4.371   4.044  11.809  0.9871  0.5335  0.2114
 2478SOL     OW19066   0.153   3.420   5.942  0.2648  0.4361  0.1797
 2478SOL    HW119067   0.124   3.399   6.031  2.0643 -1.4093  0.3142
 2478SOL    HW219068   0.231   3.366   5.935  0.5585  0.7653  0.9009
 2479SOL     OW19069   2.389   1.078   1.657 -0.2181 -0.7083  0.4384
 2479SOL    HW119070   2.422   1.131   1.730 -0.1169 -1.4011  0.8976
 2479SOL    HW219071   2.461   1.074   1.593 -0.7853 -1.2235 -0.1662
 2480SOL     OW19072   1.017   1.664   8.144  0.7824  0.4542  0.2274
 2480SOL    HW119073   0.971   1.682   8.063  2.4472  1.5709 -0.4759
 2480SOL    HW219074   1.101   1.640   8.105  1.0297 -1.4972  1.8925
 2481SOL     OW19075   0.664   3.748   6.574  0.0968  0.0855  0.1001
 2481SOL    HW119076   0.674   3.816   6.508 -3.1463 -0.7708 -1.2720
 2481SOL    HW219077   0.758   3.734   6.582 -0.0116 -0.1607  0.9275
 2482SOL     OW19078   2.188   3.069   8.988 -0.4353 -0.0221  0.2117
 2482SOL    HW119079   2.171   2.999   9.052 -0.9247 -1.9895 -2.0619
 2482SOL    HW219080   2.269   3.032   8.953 -0.7272 -0.2017 -0.2851
 2483SOL     OW19081   3.878   3.733   6.543  0.0338 -0.4697  0.4038
 2483SOL    HW119082   3.790   3.703   6.521 -0.7105  0.9514  1.4278
 2483SOL    HW219083   3.883   3.661   6.606  1.2233 -1.2038 -0.5300
 2484SOL     OW19084   2.602   1.649  12.700  0.5406 -0.0963 -0.0588
 2484SOL    HW119085   2.646   1.731  12.723 -1.5161  1.3784 -1.4442
 2484SOL    HW219086   2.651   1.615  12.626  0.1411 -0.4116 -0.1761
 2485SOL     OW19087   0.111   2.218   5.286 -0.0766  0.1493  0.4443
 2485SOL    HW119088   0.021   2.237   5.312  0.2747 -1.1910  2.6861
 2485SOL    HW219089   0.111   2.127   5.256 -0.4849  0.1352  0.4854
 2486SOL     OW19090   1.665   1.094   9.312 -0.0349 -0.2482  0.6319
 2486SOL    HW119091   1.690   1.009   9.348 -1.8229 -0.8957  0.3146
 2486SOL    HW219092   1.663   1.076   9.218 -1.8747 -1.0622  0.8382
 2487SOL     OW19093   3.882   2.440   2.401 -0.1401 -0.6253  0.2543
 2487SOL    HW119094   3.880   2.435   2.306  0.7097  0.3744  0.1923
 2487SOL    HW219095   3.803   2.393   2.428  0.0875 -2.4328 -2.2641
 2488SOL     OW19096   0.689   1.489   6.170 -0.4456 -0.3567  0.2040
 2488SOL    HW119097   0.599   1.485   6.203 -0.1891  0.5658  1.0076
 2488SOL    HW219098   0.717   1.399   6.189 -0.3659 -0.7787 -1.9639
 2489SOL     OW19099   3.668   4.685   5.676 -0.2614  0.5276 -0.0445
 2489SOL    HW119100   3.691   4.670   5.768  0.2398 -0.9020 -0.3893
 2489SOL    HW219101   3.731   0.007   5.642 -1.0868  1.2855 -0.1656
 2490SOL     OW19102   2.645   2.402   6.898  0.2573  0.5616 -0.2921
 2490SOL    HW119103   2.677   2.465   6.833 -2.6135  0.7737 -1.5145
 2490SOL    HW219104   2.555   2.428   6.918 -0.9261 -1.3447 -3.1456
 2491SOL     OW19105   3.816   4.602   2.625 -0.0121 -0.1069  0.0495
 2491SOL    HW119106   3.807   4.652   2.544  3.7275  1.7362  0.7612
 2491SOL    HW219107   3.827   4.675   2.687  2.0474  1.9585 -2.7165
 2492SOL     OW19108   4.496   3.731   5.796 -0.4026  0.6236  0.0175
 2492SOL    HW119109   4.588   3.748   5.816  0.3916 -2.9608 -0.5953
 2492SOL    HW219110   4.451   3.723   5.880  0.1300 -1.4941  0.1044
 2493SOL     OW19111   2.558   0.061  11.457  1.1933 -0.2455 -0.5217
 2493SOL    HW119112   2.465   0.075  11.438  0.8811 -1.5669  0.0415
 2493SOL    HW219113   2.590   0.141  11.498 -0.5786  0.6695 -0.8924
 2494SOL     OW19114   0.698   1.083  12.196 -0.0814  0.1509 -0.1270
 2494SOL    HW119115   0.724   1.068  12.288  1.5746  0.2456 -0.5751
 2494SOL    HW219116   0.628   1.144  12.218 -0.1857  0.1327 -0.4140
 2495SOL     OW19117   0.911   1.534   1.977 -0.1926 -0.5046 -0.0873
 2495SOL    HW119118   0.839   1.589   2.008  0.2531 -0.8353  1.5127
 2495SOL    HW219119   0.988   1.584   2.006 -0.8324  1.0950 -1.1377
 2496SOL     OW19120   3.017   0.635   9.486 -0.0106 -0.6736 -0.6443
 2496SOL    HW119121   3.045   0.554   9.530  0.9048 -0.0105 -0.0126
 2496SOL    HW219122   3.021   0.683   9.568  0.2928  0.2704 -1.2148
 2497SOL     OW19123   0.778   1.191   5.144 -0.3018 -0.1271 -0.7363
 2497SOL    HW119124   0.753   1.279   5.116 -1.2624  0.7046  2.6807
 2497SOL    HW219125   0.773   1.203   5.239  2.2181  1.4830 -0.8074
 2498SOL     OW19126   1.916   2.185   7.149 -0.1298  0.3485  0.5331
 2498SOL    HW119127   1.966   2.198   7.230  0.8501  0.2858 -0.0683
 2498SOL    HW219128   1.862   2.264   7.144 -0.1738  0.3437  0.9095
 2499SOL     OW19129   0.962   1.383   4.493 -0.4329  0.3771  0.3854
 2499SOL    HW119130   1.019   1.439   4.546  0.3208 -0.9541  0.9669
 2499SOL    HW219131   0.886   1.441   4.483 -0.1187  0.7363  0.0508
 2500SOL     OW19132   4.009   2.403   6.813 -0.1523 -0.3361  0.1149
 2500SOL    HW119133   4.096   2.445   6.811 -0.3041 -0.1190 -1.5134
 2500SOL    HW219134   3.974   2.441   6.894 -0.3974 -2.1597  0.8500
 2501SOL     OW19135   0.207   4.512  10.718  0.1375 -0.3340  0.1465
 2501SOL    HW119136   0.247   4.576  10.660  0.8484 -1.1566 -0.2737
 2501SOL    HW219137   0.182   4.438  10.662 -0.5747 -1.3930  1.8602
 2502SOL     OW19138   1.934   0.892   1.550 -0.2101  0.4247 -1.1673
 2502SOL    HW119139   1.933   0.845   1.467  0.4056  0.6125 -1.2802
 2502SOL    HW219140   1.885   0.825   1.598 -2.2456  1.8467 -1.3033
 2503SOL     OW19141   3.581   2.894   8.882  0.1308  0.5150  0.2672
 2503SOL    HW119142   3.525   2.920   8.955 -0.5751 -1.3485  0.3778
 2503SOL    HW219143   3.606   2.979   8.845 -2.0404  0.4862 -1.2120
 2504SOL     OW19144   3.261   0.790   1.129  0.5921  0.5780 -0.5532
 2504SOL    HW119145   3.236   0.812   1.218  1.9679  3.6534 -0.9444
 2504SOL    HW219146   3.178   0.800   1.083  0.7973  1.4591 -0.7251
 2505SOL     OW19147   3.655   4.602   6.786 -0.2240  0.3819 -0.8580
 2505SOL    HW119148   3.676   4.695   6.785 -2.8217  0.9494 -2.0657
 2505SOL    HW219149   3.733   4.557   6.819 -1.1042  0.0959  0.8533
 2506SOL     OW19150   1.106   2.013   6.594 -0.6998  0.4375 -0.4086
 2506SOL    HW119151   1.148   2.016   6.508 -1.7751  0.2577 -0.9395
 2506SOL    HW219152   1.018   1.977   6.581 -1.1881  1.6392 -0.4091
 2507SOL     OW19153   3.664   0.797  11.497  0.1733 -0.3429 -0.2201
 2507SOL    HW119154   3.571   0.815  11.489  0.2161  0.4130  1.1050
 2507SOL    HW219155   3.667   0.751  11.413  1.5189  1.7584 -1.3329
 2508SOL     OW19156   3.174   4.602  13.362  0.2984  0.2918  0.7541
 2508SOL    HW119157   3.104   4.667  13.374 -1.4455 -1.2564 -0.8846
 2508SOL    HW219158   3.151   4.524  13.413  1.3893 -1.6608 -1.7751
 2509SOL     OW19159   3.483   0.807   5.152  0.8185  0.4021 -0.8636
 2509SOL    HW119160   3.445   0.879   5.102  0.6405 -0.1010 -1.4451
 2509SOL    HW219161   3.545   0.857   5.206 -2.4703  0.6162  2.7322
 2510SOL     OW19162   1.442   3.221   2.405 -0.1086 -0.2590 -0.0352
 2510SOL    HW119163   1.441   3.312   2.434 -0.5861 -0.1449 -0.4001
 2510SOL    HW219164   1.510   3.190   2.464 -0.8167 -0.6779  0.5694
 2511SOL     OW19165   1.937   2.476  16.763 -0.2212  0.2322  0.4789
 2511SOL    HW119166   1.924   2.381  16.762 -0.7697  0.3093  0.3548
 2511SOL    HW219167   1.847   2.509  16.763 -0.3085 -0.0111  0.6006
 2512SOL     OW19168   0.814   2.217   4.373 -0.6428 -0.2748 -0.0790
 2512SOL    HW119169   0.811   2.242   4.280 -0.4792  2.7058  0.7317
 2512SOL    HW219170   0.907   2.193   4.379 -0.2370  1.1486 -0.7225
 2513SOL     OW19171   4.532   4.364  10.325 -0.0337 -0.1757 -0.3767
 2513SOL    HW119172   4.611   4.397  10.284  0.7107  0.0915  1.2697
 2513SOL    HW219173   4.520   4.424  10.399  2.0335 -1.1405  0.7281
 2514SOL     OW19174   1.857   3.956   8.245 -0.1765  0.3757  0.1309
 2514SOL    HW119175   1.777   4.000   8.274  0.4281  1.3491  0.3302
 2514SOL    HW219176   1.868   3.968   8.151  1.8117 -0.2776  0.2822
 2515SOL     OW19177   1.511   2.340   9.360  0.1969 -0.1585 -0.7149
 2515SOL    HW119178   1.570   2.274   9.395  0.2849  0.4679  0.3010
 2515SOL    HW219179   1.450   2.284   9.312  0.7287 -1.5845  0.2614
 2516SOL     OW19180   0.648   3.965  15.894  0.1408 -0.1977  0.4078
 2516SOL    HW119181   0.644   4.033  15.827 -0.5390  0.2064  0.8437
 2516SOL    HW219182   0.662   3.893  15.832 -2.4643 -0.2422 -0.1454
 2517SOL     OW19183   0.585   1.554   5.431 -0.0886 -0.0945  0.1615
 2517SOL    HW119184   0.636   1.480   5.463 -0.5368 -0.6819 -0.4953
 2517SOL    HW219185   0.502   1.508   5.417 -0.2682  0.3385 -0.2176
 2518SOL     OW19186   1.777   4.285   5.465  0.1677 -0.3425  0.3522
 2518SOL    HW119187   1.702   4.290   5.523  1.0017 -1.1625  1.4927
 2518SOL    HW219188   1.835   4.217   5.499 -0.1591 -0.9288 -0.2650
 2519SOL     OW19189   2.328   1.925   2.567  0.1586 -0.4440 -0.2524
 2519SOL    HW119190   2.266   1.922   2.640 -0.0497 -0.0170 -0.4091
 2519SOL    HW219191   2.331   1.831   2.550  0.8247 -0.2769 -1.0698
 2520SOL     OW19192   3.298   0.787   7.177  0.2858 -0.1610  0.4593
 2520SOL    HW119193   3.313   0.814   7.086 -2.6684 -1.3917 -0.4128
 2520SOL    HW219194   3.239   0.856   7.205  0.6233  0.2997  0.0348
 2521SOL     OW19195   2.047   4.078  16.973 -0.6864 -0.0268  0.3166
 2521SOL    HW119196   2.059   3.983  16.978 -2.0576 -0.2158  0.0679
 2521SOL    HW219197   2.118   4.113  17.026  0.8775  1.1107 -2.5428
 2522SOL     OW19198   0.530   3.919   0.775  0.5192  0.7014 -0.2038
 2522SOL    HW119199   0.453   3.864   0.789  0.5014  0.8945  0.5062
 2522SOL    HW219200   0.502   4.008   0.752 -0.9795  0.5954  1.1984
 2523SOL     OW19201   3.047   0.021   4.371 -0.0010 -0.6778 -0.1822
 2523SOL    HW119202   3.005   0.106   4.388  0.5213 -0.1490 -1.5244
 2523SOL    HW219203   3.034   4.715   4.454 -2.0752 -0.1105 -0.1841
 2524SOL     OW19204   2.835   1.914  15.236 -0.1864 -0.0703  0.3726
 2524SOL    HW119205   2.843   1.902  15.142  0.4599  1.4729  0.2379
 2524SOL    HW219206   2.751   1.877  15.262  1.2708 -2.0381  2.3146
 2525SOL     OW19207   0.382   1.540   2.501  0.2460 -0.1090 -0.1751
 2525SOL    HW119208   0.315   1.508   2.441  0.0684  0.1761 -0.1255
 2525SOL    HW219209   0.431   1.459   2.519 -3.5408 -2.5098 -0.7398
 2526SOL     OW19210   1.439   0.266   9.111 -0.2700  0.2731 -0.2048
 2526SOL    HW119211   1.500   0.241   9.180  0.5913  0.7332 -0.7954
 2526SOL    HW219212   1.429   0.185   9.061 -0.0823  0.8934 -1.2578
 2527SOL     OW19213   1.217   0.783  12.362 -0.0329 -0.0192 -0.2533
 2527SOL    HW119214   1.268   0.862  12.345 -1.8618  0.8937 -1.4917
 2527SOL    HW219215   1.284   0.719  12.338  0.1058 -0.4075  1.1592
 2528SOL     OW19216   4.274   1.505  15.056 -0.0168  0.3623 -0.3004
 2528SOL    HW119217   4.338   1.434  15.060 -1.2533 -0.6544  1.1548
 2528SOL    HW219218   4.254   1.495  14.962  1.4232 -0.8413 -0.4820
 2529SOL     OW19219   4.485   3.891  13.685  1.1023  0.1533  0.0282
 2529SOL    HW119220   4.439   3.941  13.617  1.9344  0.2277 -0.4756
 2529SOL    HW219221   4.544   3.957  13.721 -0.7539  1.0946  1.3995
 2530SOL     OW19222   3.268   2.034   6.218 -0.4526  0.3238 -0.7781
 2530SOL    HW119223   3.332   1.962   6.219  0.9539  1.5485 -1.5415
 2530SOL    HW219224   3.294   2.076   6.136  2.1945  0.4654  0.1027
 2531SOL     OW19225   4.591   4.430   1.445  0.5785  0.1633 -0.1894
 2531SOL    HW119226   4.594   4.448   1.351  0.6052  0.4210 -0.1383
 2531SOL    HW219227   4.569   4.337   1.442  0.0171  0.2405  1.7264
 2532SOL     OW19228   3.971   2.108   7.730  0.2586 -0.0426 -0.5939
 2532SOL    HW119229   4.009   2.131   7.645  0.4008  0.8506 -0.2957
 2532SOL    HW219230   3.929   2.023   7.719  1.8051 -0.6707 -1.6363
 2533SOL     OW19231   2.681   1.550   8.751 -0.1143 -0.7604 -0.1115
 2533SOL    HW119232   2.758   1.604   8.771 -0.1102 -1.3672  1.4728
 2533SOL    HW219233   2.723   1.472   8.714 -1.4302 -0.7729 -1.5565
 2534SOL     OW19234   1.358   3.407   7.011  0.3462  0.0988  0.1995
 2534SOL    HW119235   1.359   3.379   6.920  0.3277 -0.2790  0.3158
 2534SOL    HW219236   1.298   3.346   7.054  0.9749 -0.7348 -0.1063
 2535SOL     OW19237   2.801   3.372   7.635  0.4230  0.0820 -0.3559
 2535SOL    HW119238   2.832   3.462   7.646  2.1280 -0.3443 -1.5923
 2535SOL    HW219239   2.883   3.322   7.646 -0.1140 -0.9630 -1.0866
 2536SOL     OW19240   2.340   4.088   8.601  0.1593 -1.0545  0.6024
 2536SOL    HW119241   2.402   4.015   8.601  1.6234  0.1817  0.6917
 2536SOL    HW219242   2.372   4.166   8.555 -0.1641 -1.4545 -0.2966
 2537SOL     OW19243   1.052   4.355   2.787  0.7364  0.3031  0.1680
 2537SOL    HW119244   1.025   4.265   2.804  1.0390 -0.0025 -0.9489
 2537SOL    HW219245   1.075   4.348   2.694 -0.5623 -0.9266 -0.0559
 2538SOL     OW19246   3.270   3.460   7.084 -0.2711  0.2645 -0.3299
 2538SOL    HW119247   3.312   3.544   7.101  0.1435 -0.4461  2.1538
 2538SOL    HW219248   3.313   3.418   7.158  2.0287 -0.3912 -2.0597
 2539SOL     OW19249   2.415   2.992   5.415 -0.3680 -0.3150 -0.0911
 2539SOL    HW119250   2.411   3.014   5.322  0.6952  1.9679  0.3849
 2539SOL    HW219251   2.456   2.906   5.409  0.4840 -0.1009  2.4367
 2540SOL     OW19252   4.434   3.253   2.857 -0.1381  0.4796 -0.5941
 2540SOL    HW119253   4.487   3.227   2.781 -0.2361 -1.2949 -0.0638
 2540SOL    HW219254   4.457   3.171   2.902  3.2792  0.7939 -1.7263
 2541SOL     OW19255   2.155   1.935   5.415 -0.0737 -0.1898  0.5662
 2541SOL    HW119256   2.141   2.029   5.407 -2.7310 -0.6510 -0.2796
 2541SOL    HW219257   2.214   1.926   5.490  0.4632  0.8438  0.2623
 2542SOL     OW19258   3.249   1.212  11.218  0.6055  0.4205 -0.0701
 2542SOL    HW119259   3.235   1.229  11.311  1.4974  0.6293  0.0260
 2542SOL    HW219260   3.274   1.298  11.185  0.5869  0.6327  0.4622
 2543SOL     OW19261   4.696   0.545  14.206  0.2379  0.0342  0.0737
 2543SOL    HW119262   0.035   0.518  14.251  1.4356 -0.4340 -2.3158
 2543SOL    HW219263   4.695   0.496  14.123  1.6488  2.1487 -1.2060
 2544SOL     OW19264   0.596   0.815   4.359  0.1062  0.0235  0.5781
 2544SOL    HW119265   0.518   0.787   4.406  0.1357 -1.6201 -0.3615
 2544SOL    HW219266   0.611   0.741   4.300  0.4741  1.5741 -1.2944
 2545SOL     OW19267   0.389   2.925  17.620 -0.3510  0.1654  0.0433
 2545SOL    HW119268   0.399   2.936  17.526 -0.7536  0.5177  0.0421
 2545SOL    HW219269   0.399   3.018  17.640 -0.4655  0.2257 -0.1873
 2546SOL     OW19270   3.877   3.794   7.257 -0.1665  0.1630 -0.0976
 2546SOL    HW119271   3.954   3.843   7.229  0.4598  0.4484  2.1280
 2546SOL    HW219272   3.836   3.763   7.176 -0.0789 -0.9406  0.2761
 2547SOL     OW19273   3.440   2.490   0.589  0.2344 -0.5974 -0.3814
 2547SOL    HW119274   3.387   2.433   0.533  0.8817 -0.7731 -0.8113
 2547SOL    HW219275   3.388   2.571   0.587 -0.8886 -1.3079 -0.0840
 2548SOL     OW19276   2.586   1.467   5.030 -0.3438  0.0455  0.3885
 2548SOL    HW119277   2.508   1.485   4.978 -0.4190 -0.9844  0.1486
 2548SOL    HW219278   2.648   1.534   5.001 -0.5916 -0.2715 -0.8603
 2549SOL     OW19279   0.250   0.767   8.569  0.1064  0.2270 -0.1890
 2549SOL    HW119280   0.158   0.769   8.598  0.4191 -0.3656  0.8679
 2549SOL    HW219281   0.290   0.765   8.656 -1.0543 -2.2117  0.2686
 2550SOL     OW19282   1.823   2.120   6.804 -0.2267 -0.4908 -0.7124
 2550SOL    HW119283   1.783   2.048   6.852  0.0388 -0.2217 -0.0901
 2550SOL    HW219284   1.909   2.080   6.791 -0.4526 -0.6630 -1.6972
 2551SOL     OW19285   1.797   3.201  14.840 -0.4380  0.5195  0.5118
 2551SOL    HW119286   1.811   3.296  14.849  1.3508  0.3593 -0.5309
 2551SOL    HW219287   1.729   3.205  14.772  0.5826  3.2986 -0.3492
 2552SOL     OW19288   0.583   0.636   5.329 -0.1083 -0.0501  0.2358
 2552SOL    HW119289   0.654   0.586   5.287 -0.6135 -0.8119  0.2926
 2552SOL    HW219290   0.611   0.636   5.420  0.5070 -0.0997  0.0510
 2553SOL     OW19291   2.200   1.755   8.803 -0.1569  0.4683  0.5558
 2553SOL    HW119292   2.293   1.746   8.781 -0.7504 -2.5901 -0.6685
 2553SOL    HW219293   2.167   1.667   8.785  0.0234  1.3197 -3.8299
 2554SOL     OW19294   4.487   1.805   6.634 -0.0159  0.3564 -0.2041
 2554SOL    HW119295   4.467   1.791   6.726 -2.8188 -0.3094 -0.9330
 2554SOL    HW219296   4.430   1.743   6.589  0.2911  0.7457 -1.1434
 2555SOL     OW19297   4.216   0.482   2.486  0.3180 -0.0792  0.6946
 2555SOL    HW119298   4.248   0.538   2.416 -2.9624  0.8283 -0.0769
 2555SOL    HW219299   4.125   0.507   2.503  0.2964 -1.5705  2.8457
 2556SOL     OW19300   2.909   4.074  15.447  0.0730  0.6437 -0.0031
 2556SOL    HW119301   2.914   4.041  15.537  0.4159 -0.4410 -0.4159
 2556SOL    HW219302   2.843   4.141  15.465 -0.3361  0.2870 -0.1827
 2557SOL     OW19303   2.383   3.974   1.937 -0.0856  0.9414 -0.1913
 2557SOL    HW119304   2.297   3.958   1.974  0.1458  0.5527  0.1778
 2557SOL    HW219305   2.379   3.923   1.856  1.9292 -0.5595  0.6515
 2558SOL     OW19306   1.262   3.668   7.058  0.0986 -0.2152 -0.2903
 2558SOL    HW119307   1.294   3.581   7.033 -1.4494 -0.3318 -1.8233
 2558SOL    HW219308   1.189   3.683   6.998  0.7296 -1.3650 -1.3268
 2559SOL     OW19309   3.885   1.420   0.596  0.2352 -0.1353  0.3541
 2559SOL    HW119310   3.937   1.470   0.533 -1.2963  0.8768 -0.0937
 2559SOL    HW219311   3.946   1.363   0.643 -0.6675  0.2263  1.9563
 2560SOL     OW19312   0.482   0.156   8.185  0.3860 -0.1457  0.8375
 2560SOL    HW119313   0.395   0.136   8.218  1.4696 -3.1667  1.8939
 2560SOL    HW219314   0.492   0.251   8.195  1.0772 -0.2253  0.9101
 2561SOL     OW19315   4.010   3.792   2.157 -0.0040  0.0443  0.3616
 2561SOL    HW119316   4.081   3.782   2.220 -0.0315 -1.6568  0.1292
 2561SOL    HW219317   3.978   3.702   2.145  1.9434 -0.8414  1.7675
 2562SOL     OW19318   1.153   2.790   0.864 -0.6466 -0.2302  0.0350
 2562SOL    HW119319   1.060   2.771   0.850 -0.3932 -1.1513 -0.3748
 2562SOL    HW219320   1.151   2.759   0.954 -1.0481  0.4296  0.2593
 2563SOL     OW19321   4.176   1.321   7.804 -0.4020 -0.1077 -0.7625
 2563SOL    HW119322   4.117   1.306   7.877  1.6400  0.2742  0.9771
 2563SOL    HW219323   4.167   1.244   7.747  0.6899 -1.2664  0.6317
 2564SOL     OW19324   2.038   0.862   2.488  0.3645 -0.0318 -0.2975
 2564SOL    HW119325   2.036   0.795   2.557  0.5634 -0.6110 -0.8572
 2564SOL    HW219326   2.129   0.849   2.463 -0.2509 -1.5171 -1.7478
 2565SOL     OW19327   1.799   2.565   1.999  0.4041  0.3129 -0.0208
 2565SOL    HW119328   1.789   2.661   2.002 -0.8637  0.1758  0.4201
 2565SOL    HW219329   1.813   2.550   2.092 -0.6392 -4.4300 -0.6501
 2566SOL     OW19330   4.238   0.430   1.476 -0.5500  0.5152  0.5862
 2566SOL    HW119331   4.301   0.494   1.512 -1.9458  1.3468  1.5579
 2566SOL    HW219332   4.304   0.369   1.444 -0.8236 -0.7221  2.3814
 2567SOL     OW19333   2.825   4.528   5.490  0.2030 -0.2514  0.1069
 2567SOL    HW119334   2.754   4.463   5.497 -1.8472  1.8555 -1.2273
 2567SOL    HW219335   2.906   4.489   5.523 -0.4119 -0.4241  1.4161
 2568SOL     OW19336   1.788   4.432   7.664  0.4735 -0.0253 -0.7681
 2568SOL    HW119337   1.843   4.387   7.727 -1.2959  1.3090  1.7387
 2568SOL    HW219338   1.780   4.358   7.604  0.8468  0.3269 -1.2532
 2569SOL     OW19339   4.256   2.636   6.985 -0.1834 -0.1726  0.3418
 2569SOL    HW119340   4.260   2.564   6.923  0.3942  1.3837 -1.4519
 2569SOL    HW219341   4.324   2.691   6.946 -2.9802  2.8510 -0.2420
 2570SOL     OW19342   1.413   1.007  13.244 -0.3223 -0.3985 -0.0940
 2570SOL    HW119343   1.501   0.982  13.215  0.7556  1.4110  1.6209
 2570SOL    HW219344   1.370   0.929  13.210  0.3831 -0.1474 -1.5652
 2571SOL     OW19345   1.604   1.010   5.871 -0.3776  0.1044  0.4694
 2571SOL    HW119346   1.698   0.997   5.869  0.2261  4.8922 -1.5810
 2571SOL    HW219347   1.577   1.013   5.780 -0.7645 -0.1457  0.5728
 2572SOL     OW19348   1.171   1.104   2.398 -0.2634  0.0385  0.0869
 2572SOL    HW119349   1.216   1.034   2.446 -2.4843  0.0669  2.2237
 2572SOL    HW219350   1.153   1.059   2.316 -1.0453  0.0558  0.2447
 2573SOL     OW19351   1.924   1.988   4.321 -0.3055 -0.3798 -0.1674
 2573SOL    HW119352   1.858   1.970   4.388 -1.3949 -1.0654 -1.4198
 2573SOL    HW219353   1.995   1.989   4.385 -1.4259 -3.1457  1.1229
 2574SOL     OW19354   4.351   1.096   6.446 -0.0715  0.1395 -0.2653
 2574SOL    HW119355   4.296   1.168   6.476  1.1100  0.5659  0.9009
 2574SOL    HW219356   4.356   1.104   6.351 -0.9385 -2.9523 -0.5579
 2575SOL     OW19357   4.041   2.405   3.143  0.1609  0.1277  0.1155
 2575SOL    HW119358   4.130   2.371   3.134  0.9961  1.6677  2.3107
 2575SOL    HW219359   4.001   2.372   3.063  0.7294 -1.8748  0.6526
 2576SOL     OW19360   1.462   1.817  17.197  0.5143 -0.3312  0.4567
 2576SOL    HW119361   1.546   1.776  17.179 -0.3749 -1.5236 -0.8834
 2576SOL    HW219362   1.428   1.769  17.273 -1.5402 -0.1836 -0.3603
 2577SOL     OW19363   0.613   2.319   3.997 -0.1805 -0.4397 -0.0281
 2577SOL    HW119364   0.692   2.301   4.048  0.2713 -0.4312 -0.7313
 2577SOL    HW219365   0.594   2.410   4.020 -2.2351 -0.3719 -1.9912
 2578SOL     OW19366   2.153   3.979   6.068  0.1030 -0.4321 -0.4471
 2578SOL    HW119367   2.136   4.008   6.158  0.1043  2.3560 -1.3499
 2578SOL    HW219368   2.068   3.941   6.045 -0.5766  0.5858  0.3849
 2579SOL     OW19369   2.180   2.872   9.209  0.0499  0.4165 -0.8492
 2579SOL    HW119370   2.130   2.804   9.164  1.6022 -1.4516  0.2759
 2579SOL    HW219371   2.245   2.828   9.264 -2.0187 -2.1187 -0.4584
 2580SOL     OW19372   0.174   3.754   5.044 -0.2227 -0.2225  0.9466
 2580SOL    HW119373   0.092   3.803   5.050 -0.7591 -1.3122  2.4409
 2580SOL    HW219374   0.227   3.785   5.119  0.0428  0.8953  0.3002
 2581SOL     OW19375   1.805   4.123   1.816  0.4807  0.2269  0.1017
 2581SOL    HW119376   1.860   4.099   1.891  0.8840 -2.0991 -0.9441
 2581SOL    HW219377   1.722   4.138   1.861  0.0927  1.2136 -0.9507
 2582SOL     OW19378   3.533   0.961   4.026  0.2509  0.1884  0.3888
 2582SOL    HW119379   3.584   0.960   3.944  1.5286 -0.8817  1.1993
 2582SOL    HW219380   3.474   0.886   4.028  0.8339 -0.2938 -0.6917
 2583SOL     OW19381   2.442   2.687   1.353 -0.8305  0.0570  0.1892
 2583SOL    HW119382   2.421   2.614   1.410 -0.9532  0.8704  1.1775
 2583SOL    HW219383   2.370   2.747   1.370  0.1279  1.5530 -0.9741
 2584SOL     OW19384   2.827   4.304  17.145 -0.0582  0.6339 -0.7166
 2584SOL    HW119385   2.905   4.285  17.197  0.8040  1.3825 -1.7302
 2584SOL    HW219386   2.828   4.400  17.146 -0.7690  0.6406 -0.6690
 2585SOL     OW19387   4.634   0.894   6.875  0.3439  0.1775 -0.2226
 2585SOL    HW119388   4.715   0.843   6.879  0.1406 -0.1801 -0.5843
 2585SOL    HW219389   4.584   0.842   6.812 -0.6782  1.8905 -0.8150
 2586SOL     OW19390   1.488   4.662   4.324 -1.0534 -0.1287  0.1934
 2586SOL    HW119391   1.484   4.663   4.228  1.6049 -0.7628  0.0599
 2586SOL    HW219392   1.581   4.682   4.333 -1.5250  1.6250  0.9846
 2587SOL     OW19393   1.483   2.241   2.916 -0.1655  0.7771 -0.8110
 2587SOL    HW119394   1.456   2.249   2.825  1.7367 -0.8076 -1.5130
 2587SOL    HW219395   1.576   2.263   2.912 -0.5616  2.4398 -1.0749
 2588SOL     OW19396   3.620   3.077   1.926 -0.5050  0.5549  0.0434
 2588SOL    HW119397   3.649   3.168   1.934  0.1575  0.3769 -0.3490
 2588SOL    HW219398   3.589   3.072   1.836  0.0450  3.2602 -0.3097
 2589SOL     OW19399   1.889   2.266   2.799  0.0621  0.1504  0.0292
 2589SOL    HW119400   1.985   2.262   2.799  0.0488  0.0687  1.5268
 2589SOL    HW219401   1.853   2.221   2.875  3.4619 -1.4784  0.6719
 2590SOL     OW19402   2.541   1.868   8.016  0.2708  0.2019  0.3867
 2590SOL    HW119403   2.491   1.786   8.016  1.6593 -0.6411  0.7842
 2590SOL    HW219404   2.466   1.920   8.044 -1.2892 -1.1553 -1.2558
 2591SOL     OW19405   3.074   3.801   3.071 -0.0761  0.1112  0.5100
 2591SOL    HW119406   3.143   3.795   3.137 -0.7349 -0.6062  1.1299
 2591SOL    HW219407   3.110   3.785   2.983 -0.8649  1.5687 -0.0717
 2592SOL     OW19408   4.480   4.658   9.014  0.4122  0.6380 -0.5103
 2592SOL    HW119409   4.422   4.631   9.085  0.2575  1.0430 -0.4834
 2592SOL    HW219410   4.563   4.631   9.054 -0.5377 -0.5169  0.6865
 2593SOL     OW19411   0.228   3.697  13.040 -0.3238  0.1802 -0.5293
 2593SOL    HW119412   0.269   3.624  12.994 -2.1964 -3.2431  3.1857
 2593SOL    HW219413   0.243   3.777  12.989  1.5468  0.5512  0.5989
 2594SOL     OW19414   1.244   3.487  13.270  0.4544 -0.2761 -0.3244
 2594SOL    HW119415   1.186   3.562  13.257 -0.6142 -1.1617 -0.6633
 2594SOL    HW219416   1.261   3.506  13.362 -0.8966 -1.2277  0.1277
 2595SOL     OW19417   0.673   1.944   6.265  0.0474 -0.3710 -0.2371
 2595SOL    HW119418   0.675   2.031   6.226  0.0422 -1.6829 -3.1525
 2595SOL    HW219419   0.765   1.917   6.266  0.8680  2.4339  0.4843
 2596SOL     OW19420   4.483   3.509   4.418 -0.4532 -0.4373  0.0765
 2596SOL    HW119421   4.467   3.533   4.509  1.4720 -1.4393  0.6822
 2596SOL    HW219422   4.490   3.593   4.373 -1.4492 -0.8991 -0.9475
 2597SOL     OW19423   0.920   1.318  13.664  0.9916  0.0524  0.7345
 2597SOL    HW119424   0.852   1.314  13.732 -1.2614  2.3768 -1.4017
 2597SOL    HW219425   0.992   1.278  13.713  1.3298 -0.0033  0.1892
 2598SOL     OW19426   0.776   2.527   0.692 -0.1221 -0.0104  0.2220
 2598SOL    HW119427   0.824   2.457   0.648 -0.2427 -0.1118  0.2512
 2598SOL    HW219428   0.788   2.597   0.628  0.8520  0.1369  0.5635
 2599SOL     OW19429   0.122   1.500   9.058 -0.5339 -0.6285 -0.4494
 2599SOL    HW119430   0.196   1.561   9.068 -0.5303 -0.6359 -0.4307
 2599SOL    HW219431   0.151   1.433   8.996  0.3608 -0.2622 -0.4339
 2600SOL     OW19432   3.088   3.751   9.550 -0.1556 -0.4878 -0.0475
 2600SOL    HW119433   3.147   3.702   9.493  0.1566 -0.1807  0.0112
 2600SOL    HW219434   3.036   3.674   9.572 -0.3987 -0.3442 -0.1170
 2601SOL     OW19435   1.527   0.091   3.451  0.1260  0.5287 -0.0691
 2601SOL    HW119436   1.580   0.011   3.449 -0.8876 -0.1739  0.9580
 2601SOL    HW219437   1.556   0.120   3.537 -0.7127  1.5375 -0.1377
 2602SOL     OW19438   1.361   3.447   6.575 -0.2024 -0.0782 -0.6586
 2602SOL    HW119439   1.265   3.452   6.568 -0.1389  2.6235  0.3111
 2602SOL    HW219440   1.369   3.402   6.659 -1.0750  0.0111 -0.5274
 2603SOL     OW19441   4.453   1.998   7.269 -0.0577 -0.1471  0.3665
 2603SOL    HW119442   4.400   1.923   7.294  1.3431 -1.8992 -1.8303
 2603SOL    HW219443   4.394   2.044   7.209  0.4763  0.7441  0.5251
 2604SOL     OW19444   0.058   4.654   9.563  0.0969 -0.0991  0.6446
 2604SOL    HW119445   0.059   0.009   9.566 -0.6072 -0.0170 -1.8009
 2604SOL    HW219446   4.720   4.638   9.616 -0.7301 -0.1526 -0.6073
 2605SOL     OW19447   0.752   2.453   7.390 -0.3181 -0.1306  0.1653
 2605SOL    HW119448   0.708   2.498   7.462 -1.8209 -0.5661 -0.4666
 2605SOL    HW219449   0.829   2.424   7.439  0.2185  0.0729 -0.5800
 2606SOL     OW19450   0.440   4.485   9.238 -0.2973 -0.2905 -0.0320
 2606SOL    HW119451   0.520   4.536   9.233  0.0702 -0.8951 -0.3133
 2606SOL    HW219452   0.437   4.465   9.144  2.4808  1.0741 -0.3900
 2607SOL     OW19453   0.363   2.684  17.441 -0.3772 -0.2075 -0.0687
 2607SOL    HW119454   0.324   2.614  17.493  1.0463 -1.0396 -0.1345
 2607SOL    HW219455   0.293   2.745  17.416  2.2847  3.0889  0.6238
 2608SOL     OW19456   2.400   2.709  13.538 -0.6185 -0.5972 -0.4398
 2608SOL    HW119457   2.414   2.670  13.452  0.7329 -0.7286 -0.1614
 2608SOL    HW219458   2.477   2.763  13.553 -1.7474  1.3531 -1.6796
 2609SOL     OW19459   4.554   0.965   4.896 -0.0322 -0.6607  0.2644
 2609SOL    HW119460   4.504   0.959   4.814 -0.9368  0.4668  0.7258
 2609SOL    HW219461   4.512   1.033   4.949  1.3104  2.4603 -2.6413
 2610SOL     OW19462   0.822   0.647   1.061 -0.3349  0.1814 -0.5268
 2610SOL    HW119463   0.825   0.665   0.967 -0.8207  1.3326 -0.3121
 2610SOL    HW219464   0.732   0.668   1.084 -1.1326 -2.3883 -1.2197
 2611SOL     OW19465   2.244   1.494  13.842 -0.2043 -0.0576  0.4470
 2611SOL    HW119466   2.172   1.524  13.898 -1.0677 -0.8492 -0.2253
 2611SOL    HW219467   2.263   1.582  13.810  2.5993 -1.1303 -0.8392
 2612SOL     OW19468   1.656   1.874   3.149 -0.0785 -0.1071  0.4525
 2612SOL    HW119469   1.731   1.822   3.121  1.2643  0.9186  2.1887
 2612SOL    HW219470   1.599   1.852   3.075  2.3800 -0.6348 -1.2613
 2613SOL     OW19471   2.447   4.316   4.378 -0.3502 -0.5744 -0.2823
 2613SOL    HW119472   2.446   4.407   4.348  0.2496 -1.2263 -2.2967
 2613SOL    HW219473   2.507   4.321   4.452  2.2383  0.9079 -2.4745
 2614SOL     OW19474   0.032   0.182  16.049 -0.1002  0.1234  0.1779
 2614SOL    HW119475   0.001   0.134  16.126  1.5949  0.3773  1.0301
 2614SOL    HW219476   4.726   0.266  16.056 -1.4087 -0.5515 -0.5418
 2615SOL     OW19477   1.829   4.182   4.606 -0.3410 -0.2460  0.0887
 2615SOL    HW119478   1.856   4.130   4.682  0.7074 -1.0083 -0.7994
 2615SOL    HW219479   1.889   4.148   4.539 -0.3905  0.6129 -0.3913
 2616SOL     OW19480   2.551   1.696   9.397  0.2035 -0.1109  0.7617
 2616SOL    HW119481   2.617   1.718   9.462  0.8662 -1.6614  0.6110
 2616SOL    HW219482   2.473   1.731   9.441 -0.0583 -0.3999  0.5341
 2617SOL     OW19483   0.826   0.344  10.196 -0.5952  0.0979  0.1210
 2617SOL    HW119484   0.873   0.392  10.128 -0.0419  0.8379  1.0251
 2617SOL    HW219485   0.802   0.262  10.153 -0.6449  1.1304 -1.8180
 2618SOL     OW19486   4.066   0.527   9.400 -0.5537  0.2049  0.1849
 2618SOL    HW119487   4.079   0.583   9.323  1.8149 -1.4207 -0.5969
 2618SOL    HW219488   3.973   0.509   9.386 -1.0907  2.9460  0.2673
 2619SOL     OW19489   0.725   3.388   9.554  0.2108  0.1639  0.0268
 2619SOL    HW119490   0.749   3.439   9.631  2.9724  0.8901 -1.3056
 2619SOL    HW219491   0.809   3.353   9.524 -0.9489 -0.2801 -2.7579
 2620SOL     OW19492   0.575   1.173   3.586  0.4315  0.6361 -0.8442
 2620SOL    HW119493   0.613   1.246   3.536 -0.1352  1.8534  0.4974
 2620SOL    HW219494   0.648   1.141   3.639 -2.0787 -3.3831  0.1412
 2621SOL     OW19495   4.411   1.207   3.664  0.2180 -0.4531 -0.2198
 2621SOL    HW119496   4.368   1.123   3.653  1.2012 -1.0107  0.1320
 2621SOL    HW219497   4.348   1.276   3.644  0.0434 -0.6231 -0.2464
 2622SOL     OW19498   3.787   0.460  12.555 -0.2368  0.9457 -0.3941
 2622SOL    HW119499   3.758   0.494  12.471 -1.0059  0.2134 -0.4218
 2622SOL    HW219500   3.848   0.394  12.522  0.0706  1.0265  0.0067
 2623SOL     OW19501   4.687   1.586   2.077  0.3261 -0.2833 -0.0381
 2623SOL    HW119502   4.661   1.667   2.033  0.7523 -1.3159 -2.1864
 2623SOL    HW219503   4.645   1.583   2.163  0.9137 -0.6544  0.2327
 2624SOL     OW19504   2.347   1.237  12.461  0.5658 -0.3955 -0.2678
 2624SOL    HW119505   2.321   1.195  12.379 -0.6232  1.0752 -0.6268
 2624SOL    HW219506   2.356   1.159  12.515 -0.4257 -1.1676 -1.2151
 2625SOL     OW19507   4.217   2.520   6.121 -0.0676 -0.4083 -0.0709
 2625SOL    HW119508   4.235   2.430   6.149 -2.3358 -0.3361  1.5929
 2625SOL    HW219509   4.126   2.529   6.149  0.5846 -0.8866  2.2046
 2626SOL     OW19510   3.418   2.545   3.971  0.2222 -0.2524  0.0637
 2626SOL    HW119511   3.464   2.541   4.055  2.0293  1.2252 -0.8417
 2626SOL    HW219512   3.471   2.492   3.911 -0.4212  1.9652 -2.4265
 2627SOL     OW19513   3.726   1.762   2.853 -0.3879 -0.0419 -0.5176
 2627SOL    HW119514   3.723   1.796   2.764 -0.5797 -2.3779 -1.3804
 2627SOL    HW219515   3.821   1.760   2.863 -0.7621 -0.3915  3.0627
 2628SOL     OW19516   0.233   2.099   7.808  0.3726 -0.3814 -0.4044
 2628SOL    HW119517   0.184   2.051   7.741  1.2941 -1.4766 -0.2883
 2628SOL    HW219518   0.232   2.191   7.780 -1.7305 -0.8007 -1.7149
 2629SOL     OW19519   3.958   3.037   2.028 -0.1410  0.0931 -0.2536
 2629SOL    HW119520   3.901   2.967   2.059 -1.6613  1.9959  1.2105
 2629SOL    HW219521   4.045   2.999   2.043 -0.7124 -0.9954  0.3240
 2630SOL     OW19522   0.688   0.837  14.855  0.2866 -0.4895 -0.3594
 2630SOL    HW119523   0.623   0.784  14.902 -1.6437  0.3573 -2.0604
 2630SOL    HW219524   0.653   0.821  14.767 -0.5255  0.5821 -0.2257
 2631SOL     OW19525   1.148   2.049   5.995 -0.0410 -0.6348 -0.2271
 2631SOL    HW119526   1.204   2.025   6.068  0.8181 -0.5571 -0.8678
 2631SOL    HW219527   1.126   1.960   5.967  3.4571 -2.1331  1.7910
 2632SOL     OW19528   0.748   0.134   9.749 -0.9701  0.1999 -0.2913
 2632SOL    HW119529   0.669   0.119   9.800 -2.0964  2.1995 -1.4484
 2632SOL    HW219530   0.728   0.213   9.699  0.9545  0.0145 -1.3943
 2633SOL     OW19531   0.981   1.223  14.268  0.1297 -0.7492 -0.0680
 2633SOL    HW119532   0.900   1.219  14.217 -1.3503 -0.3743  2.2340
 2633SOL    HW219533   1.040   1.249  14.197 -0.5903 -1.2746 -0.8606
 2634SOL     OW19534   3.275   1.544   2.600 -0.3249  0.7622  0.1043
 2634SOL    HW119535   3.250   1.636   2.609  2.0325  1.3218  0.8006
 2634SOL    HW219536   3.210   1.512   2.663  1.5852 -2.7626  0.2903
 2635SOL     OW19537   4.521   1.149   5.504  0.5721 -0.0030  0.3656
 2635SOL    HW119538   4.453   1.114   5.447 -0.5808  1.7623  0.6589
 2635SOL    HW219539   4.518   1.241   5.476  2.3502  0.5215  1.8852
 2636SOL     OW19540   3.843   3.092   6.920  0.7781 -0.5123  0.4925
 2636SOL    HW119541   3.803   3.157   6.978 -1.8023 -0.9483 -0.7930
 2636SOL    HW219542   3.833   3.142   6.839  0.1990 -2.8842 -0.9035
 2637SOL     OW19543   1.318   3.082   8.238  0.1128 -0.0950 -0.2423
 2637SOL    HW119544   1.314   3.116   8.327 -1.7910  2.8338 -1.4562
 2637SOL    HW219545   1.305   3.168   8.198  0.0858  0.3154  0.6652
 2638SOL     OW19546   0.387   3.717   2.002 -0.0522  0.1697 -0.1894
 2638SOL    HW119547   0.352   3.670   1.926  0.3111  1.5832 -1.2234
 2638SOL    HW219548   0.348   3.800   1.973  0.1878  0.1222 -0.6624
 2639SOL     OW19549   1.378   2.401   9.612 -0.0239  0.0004  0.0706
 2639SOL    HW119550   1.407   2.396   9.521 -0.9439  0.6901 -0.2612
 2639SOL    HW219551   1.283   2.391   9.611  0.0914 -0.9253 -1.7127
 2640SOL     OW19552   0.621   2.712  17.526 -0.0348 -0.4740 -0.2070
 2640SOL    HW119553   0.646   2.705  17.618 -0.1907  0.1359 -0.1197
 2640SOL    HW219554   0.527   2.695  17.531 -0.4167  1.5909 -0.6169
 2641SOL     OW19555   1.553   4.024  12.919  0.4885 -0.0727  0.3004
 2641SOL    HW119556   1.510   3.938  12.921  1.1764 -0.4423 -0.4818
 2641SOL    HW219557   1.579   4.038  12.827 -0.8616 -2.4241 -0.4384
 2642SOL     OW19558   3.242   4.648   1.693 -0.3847  0.2091 -0.2055
 2642SOL    HW119559   3.279   4.709   1.630 -0.2445  1.3744  1.0117
 2642SOL    HW219560   3.263   4.687   1.778  1.7956  2.3116 -1.7190
 2643SOL     OW19561   3.022   4.358   4.763 -0.6268  0.0444 -0.3184
 2643SOL    HW119562   3.116   4.358   4.743 -0.2103  0.5627  1.6711
 2643SOL    HW219563   3.016   4.381   4.855  1.8706  1.5641 -0.5251
 2644SOL     OW19564   3.406   1.512   9.638 -0.1249 -0.1583  0.3940
 2644SOL    HW119565   3.393   1.418   9.649 -4.6173  0.4880  0.4288
 2644SOL    HW219566   3.491   1.513   9.593  0.4866  0.0258  1.5680
 2645SOL     OW19567   3.610   4.013   4.239  0.1795 -0.1151  0.1959
 2645SOL    HW119568   3.676   3.964   4.190 -0.4507  0.4689 -1.2295
 2645SOL    HW219569   3.652   4.029   4.324 -1.8485  0.5428  1.0549
 2646SOL     OW19570   1.171   1.469   4.159  0.0291 -0.0236 -0.0182
 2646SOL    HW119571   1.117   1.505   4.229  1.3089  1.3090  0.2916
 2646SOL    HW219572   1.223   1.406   4.209 -0.6911 -1.1729 -0.7267
 2647SOL     OW19573   4.597   0.048  16.259  0.4600  0.2884 -0.0734
 2647SOL    HW119574   4.575   0.133  16.297  1.5877  1.2169 -1.4950
 2647SOL    HW219575   4.604   4.741  16.342 -1.6056 -0.0722 -0.1110
 2648SOL     OW19576   2.612   0.208   3.084  0.3622 -0.0110  0.2098
 2648SOL    HW119577   2.519   0.201   3.107  0.1897 -0.4676 -0.6104
 2648SOL    HW219578   2.620   0.300   3.061 -2.4615  0.2056  0.1385
 2649SOL     OW19579   4.235   0.961   5.733  0.1993  0.3445  0.6632
 2649SOL    HW119580   4.270   1.034   5.682  1.3669  0.3104  1.4082
 2649SOL    HW219581   4.232   0.890   5.669  1.8258 -0.7989  1.8698
 2650SOL     OW19582   4.205   0.285  12.507  0.1196 -0.0937  0.3225
 2650SOL    HW119583   4.120   0.262  12.470 -0.6117  4.1496 -0.6127
 2650SOL    HW219584   4.238   0.198  12.529  0.4076 -0.0699 -0.0140
 2651SOL     OW19585   4.339   2.458  17.698 -0.1020 -0.6266  0.2741
 2651SOL    HW119586   4.267   2.481  17.757 -0.1702  0.0956 -0.0934
 2651SOL    HW219587   4.390   2.389  17.741  0.8224  0.1063  0.3420
 2652SOL     OW19588   1.429   1.263  15.429  0.1738 -0.3275  0.3349
 2652SOL    HW119589   1.336   1.266  15.410  0.4354  0.3862 -0.8816
 2652SOL    HW219590   1.456   1.255  15.337  0.3642 -0.6477  0.4168
 2653SOL     OW19591   3.815   0.959   1.427 -0.1337 -0.2421  0.0835
 2653SOL    HW119592   3.780   1.047   1.414 -1.1198 -0.5080  0.8872
 2653SOL    HW219593   3.775   0.913   1.354  1.5958 -1.0456 -0.3427
 2654SOL     OW19594   0.048   4.458   7.648 -0.4279  0.3379  0.0446
 2654SOL    HW119595   4.713   4.515   7.659  0.7907  2.1348 -0.8878
 2654SOL    HW219596   0.041   4.400   7.723 -0.0979  2.1200  1.4449
 2655SOL     OW19597   0.727   3.577   8.724  0.1995 -0.4946  0.2141
 2655SOL    HW119598   0.700   3.493   8.761 -1.9080  0.5428  1.0240
 2655SOL    HW219599   0.758   3.558   8.636 -0.5083  2.1831 -0.6186
 2656SOL     OW19600   2.673   1.431   4.032  0.8197 -0.3479 -0.2023
 2656SOL    HW119601   2.641   1.521   4.039 -2.1257 -1.3601 -0.5822
 2656SOL    HW219602   2.608   1.381   3.983  2.6092 -2.2591 -0.6164
 2657SOL     OW19603   1.870   3.493  14.870  0.1460  0.1030  0.0664
 2657SOL    HW119604   1.870   3.465  14.962 -0.3776  0.2425  0.1118
 2657SOL    HW219605   1.939   3.557  14.857  0.5245  0.0514  1.7345
 2658SOL     OW19606   4.256   4.732  17.182 -0.4837 -0.3015 -0.2456
 2658SOL    HW119607   4.278   4.671  17.252 -1.0981 -1.8061 -1.3442
 2658SOL    HW219608   4.187   0.039  17.227  0.3310  1.8231 -1.2237
 2659SOL     OW19609   3.627   0.833   0.977  0.3015  0.3434  0.2763
 2659SOL    HW119610   3.626   0.928   0.968  1.9138  0.2742 -0.6546
 2659SOL    HW219611   3.639   0.808   0.886 -1.6053  0.5669 -0.0397
 2660SOL     OW19612   3.983   2.665   6.680  0.1708 -0.1146  0.0482
 2660SOL    HW119613   4.008   2.746   6.725 -0.1765 -0.0853  0.1841
 2660SOL    HW219614   3.923   2.627   6.744 -0.1654  0.5418  0.1199
 2661SOL     OW19615   0.465   3.487   5.724 -0.0692 -0.5575 -0.2978
 2661SOL    HW119616   0.553   3.490   5.687 -0.2688  0.9439 -0.6695
 2661SOL    HW219617   0.445   3.419   5.661 -0.9341  1.2834 -2.0128
 2662SOL     OW19618   1.446   3.462  17.702  0.4731 -0.2123  0.3051
 2662SOL    HW119619   1.449   3.465  17.606  1.5499  1.0279  0.3764
 2662SOL    HW219620   1.535   3.486  17.728 -0.5386  0.1873  3.2890
 2663SOL     OW19621   1.586   2.374   1.963  0.3514 -0.2853  0.3686
 2663SOL    HW119622   1.514   2.436   1.976 -0.4710 -0.8729 -1.3744
 2663SOL    HW219623   1.655   2.439   1.977  0.0585  0.0314  0.3140
 2664SOL     OW19624   2.094   0.354   6.809 -0.3133  0.7639  0.2836
 2664SOL    HW119625   2.069   0.440   6.844 -1.0749  1.6076 -2.2637
 2664SOL    HW219626   2.006   0.318   6.800 -1.0511  2.6600 -0.1840
 2665SOL     OW19627   2.063   0.928  17.321  0.1162  0.1462  0.0497
 2665SOL    HW119628   2.153   0.912  17.350 -0.1759 -1.5308  0.0723
 2665SOL    HW219629   2.082   0.919  17.227 -2.3119 -0.1280 -0.4114
 2666SOL     OW19630   0.254   0.400   8.653 -0.2304 -0.0005 -0.3457
 2666SOL    HW119631   0.327   0.379   8.595  0.6573 -0.9650  1.1101
 2666SOL    HW219632   0.297   0.405   8.738 -0.7793  1.7569 -0.1781
 2667SOL     OW19633   2.107   3.353   3.113 -0.2224  0.2532  0.3078
 2667SOL    HW119634   2.087   3.332   3.022  1.1514 -1.4512  0.4002
 2667SOL    HW219635   2.203   3.349   3.110 -0.1885  0.3718  1.4446
 2668SOL     OW19636   2.657   4.247  15.505 -0.1640 -0.2130  0.0567
 2668SOL    HW119637   2.630   4.315  15.444  1.3711  0.1662 -0.2137
 2668SOL    HW219638   2.588   4.229  15.568 -0.9113  1.6802 -0.2397
 2669SOL     OW19639   3.896   2.776  12.783 -0.3778 -0.4859  0.0892
 2669SOL    HW119640   3.919   2.685  12.765 -1.0822 -0.7072  0.3533
 2669SOL    HW219641   3.963   2.822  12.731  0.0787 -0.4394  0.7157
 2670SOL     OW19642   3.073   1.941   2.014  0.1110  0.1040 -0.2454
 2670SOL    HW119643   3.122   2.003   2.068 -3.5033  0.8651  2.1338
 2670SOL    HW219644   3.114   1.860   2.045  0.4843  1.0427  1.7260
 2671SOL     OW19645   3.875   3.346   3.686 -0.4803  0.6207 -0.0978
 2671SOL    HW119646   3.858   3.333   3.779  1.2576  2.5075  0.4920
 2671SOL    HW219647   3.940   3.277   3.671 -0.2043  1.0915 -1.0646
 2672SOL     OW19648   3.563   3.145   6.790 -0.0786  0.4799 -0.7965
 2672SOL    HW119649   3.523   3.118   6.707 -0.1825  0.1214 -0.6272
 2672SOL    HW219650   3.654   3.153   6.763 -0.0561 -1.9642 -1.4049
 2673SOL     OW19651   4.529   0.039  12.982 -0.0055  0.1430 -0.0547
 2673SOL    HW119652   4.453   4.722  12.976 -0.0390 -0.1163  2.5618
 2673SOL    HW219653   4.594   4.712  13.000 -2.4691 -1.9978  0.8463
 2674SOL     OW19654   2.442   3.700   9.470 -0.1796  0.4354 -0.1894
 2674SOL    HW119655   2.432   3.612   9.435 -2.1628  0.4311  0.3869
 2674SOL    HW219656   2.353   3.734   9.467 -0.0187  0.8371 -0.3635
 2675SOL     OW19657   0.119   4.688   3.164  0.2683 -0.3311 -0.8256
 2675SOL    HW119658   0.076   4.731   3.238  0.0292 -3.2850  0.7344
 2675SOL    HW219659   0.053   4.713   3.099  1.3509  2.2535 -0.9289
 2676SOL     OW19660   3.283   0.394  13.719 -0.6690  0.0079  0.4344
 2676SOL    HW119661   3.254   0.484  13.733  0.3666  0.8984 -3.0916
 2676SOL    HW219662   3.330   0.400  13.636 -0.6969  0.4819  0.4493
 2677SOL     OW19663   1.094   1.482  16.074 -0.6436 -0.3802 -0.5402
 2677SOL    HW119664   1.043   1.525  16.143  0.3293  1.4825 -0.9744
 2677SOL    HW219665   1.160   1.444  16.132  0.6032  2.7847  0.1619
 2678SOL     OW19666   0.939   0.685  16.872  0.3310 -0.1708  0.1142
 2678SOL    HW119667   0.849   0.692  16.838  0.8656 -0.0905 -1.2552
 2678SOL    HW219668   0.952   0.591  16.866 -1.8363 -0.4902  0.2174
 2679SOL     OW19669   2.261   1.004   9.841 -0.0894 -0.2096 -0.1347
 2679SOL    HW119670   2.196   1.074   9.839 -0.1035 -0.1963  0.7587
 2679SOL    HW219671   2.323   1.045   9.901 -1.3946  0.3801  0.8187
 2680SOL     OW19672   4.002   0.084   7.301  0.0763 -0.3534 -0.6100
 2680SOL    HW119673   4.050   0.073   7.383 -2.3538  1.2446  1.0154
 2680SOL    HW219674   3.911   0.092   7.331 -0.0757  0.9563 -1.4203
 2681SOL     OW19675   2.590   1.548   1.417  0.4418 -0.2508 -0.1801
 2681SOL    HW119676   2.505   1.545   1.373 -0.3925  0.0594  1.4189
 2681SOL    HW219677   2.649   1.513   1.350  0.1679  0.5704 -0.8396
 2682SOL     OW19678   1.313   0.402   3.509  0.4613  0.2880  0.3598
 2682SOL    HW119679   1.318   0.472   3.575 -0.2351  0.8563 -0.1963
 2682SOL    HW219680   1.224   0.410   3.474  0.2843 -1.2138  0.4569
 2683SOL     OW19681   1.003   1.045   1.825  0.4825  0.0801 -0.0954
 2683SOL    HW119682   1.018   0.958   1.862  0.0441 -0.4700 -1.1911
 2683SOL    HW219683   1.005   1.097   1.906  0.6655  1.2083 -0.8257
 2684SOL     OW19684   3.347   2.780  15.033  0.2429 -0.6014 -0.2259
 2684SOL    HW119685   3.297   2.698  15.042  0.4806 -0.9553 -2.0060
 2684SOL    HW219686   3.348   2.815  15.122  0.9176 -1.9305  0.2834
 2685SOL     OW19687   0.310   0.090  16.985 -0.3781 -0.3348 -0.3909
 2685SOL    HW119688   0.315   0.007  16.939  0.1194  0.1058 -1.1301
 2685SOL    HW219689   0.250   0.146  16.936 -0.1555  0.3681  0.1360
 2686SOL     OW19690   1.506   0.516   5.614 -0.1836  0.0431  0.0567
 2686SOL    HW119691   1.511   0.588   5.677 -0.7430 -1.6679  2.0813
 2686SOL    HW219692   1.550   0.544   5.534  2.7326 -0.6653  1.4441
 2687SOL     OW19693   4.650   0.228  10.352  0.0017 -0.5109  0.6563
 2687SOL    HW119694   4.702   0.232  10.432 -0.3195 -0.5409  0.8668
 2687SOL    HW219695   4.670   0.136  10.335 -0.0026 -0.5400  0.8082
 2688SOL     OW19696   4.548   1.355  13.490 -0.4991  0.6548 -0.6691
 2688SOL    HW119697   4.616   1.418  13.517  0.5012 -0.1202 -1.3808
 2688SOL    HW219698   4.477   1.403  13.532  0.5393 -0.7268  2.6175
 2689SOL     OW19699   3.791   2.859  14.481 -0.2269  0.2991  0.2430
 2689SOL    HW119700   3.856   2.856  14.410  0.0794  1.0089  0.4822
 2689SOL    HW219701   3.834   2.923  14.539  2.4344 -1.5881  0.3676
 2690SOL     OW19702   0.672   1.622   2.081 -0.1085 -0.2808  0.1589
 2690SOL    HW119703   0.594   1.643   2.029 -0.5615  1.4033  1.5293
 2690SOL    HW219704   0.687   1.704   2.129 -0.5228 -0.1665  0.0942
 2691SOL     OW19705   3.714   0.057   1.461  0.1829 -1.3970 -0.3188
 2691SOL    HW119706   3.706   0.145   1.424 -0.0781 -1.8707 -1.3719
 2691SOL    HW219707   3.753   0.014   1.386 -0.9732  0.4114 -1.9626
 2692SOL     OW19708   2.364   0.486  15.975 -0.1031  0.1331  0.2888
 2692SOL    HW119709   2.421   0.467  16.050  1.5025 -2.7184 -1.6567
 2692SOL    HW219710   2.279   0.454  16.006 -0.1881 -0.8753 -0.9617
 2693SOL     OW19711   2.292   1.037  12.248 -0.3178 -0.0176 -0.4742
 2693SOL    HW119712   2.241   0.960  12.272  2.4185 -1.3281  1.1551
 2693SOL    HW219713   2.360   1.013  12.185  1.0413  1.6235  0.3443
 2694SOL     OW19714   3.014   1.147   2.892 -0.0287  0.1032 -0.2690
 2694SOL    HW119715   3.077   1.086   2.853 -0.6188 -1.5484  1.3747
 2694SOL    HW219716   3.081   1.206   2.926 -2.2168  1.6021  1.4613
 2695SOL     OW19717   2.515   0.309   8.309  0.0884  0.4330 -0.1749
 2695SOL    HW119718   2.572   0.333   8.236 -1.6789  0.4332 -1.5543
 2695SOL    HW219719   2.444   0.275   8.254  1.7915 -1.3442 -1.3099
 2696SOL     OW19720   1.816   0.170  13.814 -0.3142 -0.2994 -0.2579
 2696SOL    HW119721   1.725   0.185  13.792 -0.2003 -0.7792 -1.0410
 2696SOL    HW219722   1.806   0.116  13.893  0.7693 -1.7614 -1.1157
 2697SOL     OW19723   0.239   4.621   1.887 -0.5057  0.1778 -0.2281
 2697SOL    HW119724   0.214   4.612   1.795  2.5535  0.0012 -1.0450
 2697SOL    HW219725   0.269   4.533   1.909 -0.1408  0.1964 -0.6540
 2698SOL     OW19726   0.471   0.826   6.661  0.5691  0.4899 -0.0370
 2698SOL    HW119727   0.502   0.868   6.581  1.1368 -1.6488 -0.9527
 2698SOL    HW219728   0.480   0.732   6.644 -0.0010  0.0713  1.9602
 2699SOL     OW19729   2.335   3.864   2.398 -0.1415 -0.2905  0.3300
 2699SOL    HW119730   2.424   3.854   2.430 -0.5816 -0.6014  1.4511
 2699SOL    HW219731   2.284   3.808   2.456 -0.9029 -1.9227 -1.9056
 2700SOL     OW19732   4.381   3.223   8.112 -0.2310  0.3398  0.5449
 2700SOL    HW119733   4.342   3.309   8.130  0.7402  1.2051 -1.4550
 2700SOL    HW219734   4.306   3.167   8.133  0.1870 -0.6339 -0.6040
 2701SOL     OW19735   4.200   2.336   2.056  0.3513  0.6800 -0.2106
 2701SOL    HW119736   4.285   2.322   2.014  0.4271  0.2771  0.0776
 2701SOL    HW219737   4.192   2.264   2.119 -0.9246 -0.4045 -1.6104
 2702SOL     OW19738   3.617   2.939   5.668 -0.1544  0.3259  0.1706
 2702SOL    HW119739   3.607   3.005   5.599 -0.9176  0.4259  0.3796
 2702SOL    HW219740   3.566   2.862   5.641 -0.6479  0.6382  0.2096
 2703SOL     OW19741   3.285   4.220   6.651 -0.0802  0.2646  0.5737
 2703SOL    HW119742   3.240   4.137   6.637  0.5117  0.1095 -0.3845
 2703SOL    HW219743   3.339   4.227   6.572 -0.0553  2.2551  0.7475
 2704SOL     OW19744   0.489   3.125   8.639 -0.2205 -0.4811  0.0756
 2704SOL    HW119745   0.465   3.032   8.646 -0.9928 -0.3115 -0.3697
 2704SOL    HW219746   0.415   3.163   8.687  0.8671  0.1063  1.2861
 2705SOL     OW19747   0.087   3.482   2.852  0.0485 -0.3544  0.1613
 2705SOL    HW119748   0.152   3.506   2.919 -2.3517 -0.2830  2.4593
 2705SOL    HW219749   0.008   3.530   2.875 -0.0063  0.1233 -1.0083
 2706SOL     OW19750   0.933   4.405   5.934 -0.2001  0.1161 -0.4992
 2706SOL    HW119751   0.975   4.452   6.006 -0.0982 -0.7313 -0.0033
 2706SOL    HW219752   0.847   4.376   5.967  0.4773 -0.3305  0.8941
 2707SOL     OW19753   1.544   1.005   3.740  0.1838 -0.6304  0.0008
 2707SOL    HW119754   1.466   1.056   3.716 -0.2721 -2.0365 -1.5322
 2707SOL    HW219755   1.612   1.033   3.678 -0.7443  1.8068  0.0797
 2708SOL     OW19756   4.569   1.705   8.887 -0.5560  0.3815  0.0872
 2708SOL    HW119757   4.515   1.628   8.897 -0.4405  0.1677 -0.8968
 2708SOL    HW219758   4.561   1.743   8.974 -0.3525 -0.6409  0.5519
 2709SOL     OW19759   4.541   3.050   7.384  0.4315 -0.2617  0.4549
 2709SOL    HW119760   4.579   3.040   7.297 -1.4846  0.2514 -0.4327
 2709SOL    HW219761   4.550   2.965   7.426 -1.3538 -0.5537  0.2250
 2710SOL     OW19762   4.026   3.926   8.220  0.0809 -0.0618  0.0184
 2710SOL    HW119763   4.069   4.002   8.180  1.7936 -0.8303  0.3621
 2710SOL    HW219764   3.987   3.886   8.142 -0.3739  0.5610 -0.0752
 2711SOL     OW19765   2.875   1.590   2.855  0.3846 -0.0715 -0.2739
 2711SOL    HW119766   2.894   1.673   2.811 -1.2207  0.6040  0.3206
 2711SOL    HW219767   2.780   1.594   2.840  0.7680  1.6734 -2.2622
 2712SOL     OW19768   4.740   3.569  16.751 -0.2961  0.0230  0.0877
 2712SOL    HW119769   4.733   3.654  16.708 -2.9262 -0.6622 -0.8116
 2712SOL    HW219770   4.692   3.591  16.831 -0.3670  0.1328  0.0132
 2713SOL     OW19771   0.792   3.644   3.599 -0.3166 -0.0430 -0.0437
 2713SOL    HW119772   0.748   3.676   3.520 -0.2945 -0.5197 -0.2530
 2713SOL    HW219773   0.840   3.571   3.559 -1.0954 -1.0924  0.9476
 2714SOL     OW19774   3.598   3.822   5.828 -0.3010  0.0813  0.1441
 2714SOL    HW119775   3.513   3.778   5.824 -1.3160  2.2667 -1.8451
 2714SOL    HW219776   3.617   3.821   5.735  1.8316 -1.4244  0.5932
 2715SOL     OW19777   2.503   3.209   4.756 -0.5505  0.1633  0.0890
 2715SOL    HW119778   2.422   3.170   4.724 -0.4927  0.1814 -0.0796
 2715SOL    HW219779   2.571   3.163   4.706  1.9336  2.4837  1.3484
 2716SOL     OW19780   0.272   1.353   8.881  0.0497 -0.3836 -0.1879
 2716SOL    HW119781   0.316   1.422   8.832  0.3932 -2.1388 -2.3391
 2716SOL    HW219782   0.314   1.275   8.844  2.4203  1.6150 -1.6940
 2717SOL     OW19783   4.408   1.982  17.185  0.8029  0.2262 -0.4637
 2717SOL    HW119784   4.433   2.043  17.116  2.6885 -0.5226 -0.4363
 2717SOL    HW219785   4.316   1.961  17.170  0.5350  0.8103  0.3527
 2718SOL     OW19786   4.515   4.631  15.513 -0.4951  1.1861 -0.2653
 2718SOL    HW119787   4.468   4.552  15.541  1.8094 -0.1558 -0.1414
 2718SOL    HW219788   4.460   4.662  15.441 -0.3269 -0.2343 -1.0071
 2719SOL     OW19789   0.620   2.471   4.397 -0.2022  0.2442  0.0696
 2719SOL    HW119790   0.641   2.378   4.406 -0.2031  0.0999 -1.3786
 2719SOL    HW219791   0.575   2.498   4.477  1.4889  2.5758  0.2218
 2720SOL     OW19792   4.210   3.539   9.494  0.2742 -0.5198  0.4294
 2720SOL    HW119793   4.287   3.560   9.548 -0.2773 -2.0212  1.7867
 2720SOL    HW219794   4.186   3.632   9.495 -0.3437 -0.6787 -1.6259
 2721SOL     OW19795   1.710   1.268   8.747  0.0603  0.2789 -0.3746
 2721SOL    HW119796   1.783   1.211   8.720  0.2806  1.2489 -1.8451
 2721SOL    HW219797   1.641   1.202   8.739 -0.1601  0.4863 -0.1687
 2722SOL     OW19798   2.652   1.361   2.493  0.0749  0.7693 -0.1951
 2722SOL    HW119799   2.608   1.283   2.460  2.3086 -0.4394 -0.3228
 2722SOL    HW219800   2.584   1.426   2.480  0.5521  1.4884  0.8903
 2723SOL     OW19801   3.430   0.038   9.519 -0.3815  0.6126 -0.1571
 2723SOL    HW119802   3.390   4.714   9.462 -0.9159  1.4480 -0.7363
 2723SOL    HW219803   3.360   0.055   9.582 -1.2893  1.1355 -1.3009
 2724SOL     OW19804   0.237   1.284   2.689 -0.2977 -0.0051  0.2915
 2724SOL    HW119805   0.278   1.264   2.774 -2.7665 -0.7258  1.3067
 2724SOL    HW219806   0.238   1.197   2.649  1.8339 -0.5182  1.4157
 2725SOL     OW19807   0.202   3.651   7.787 -0.0508 -0.0665  0.3669
 2725SOL    HW119808   0.131   3.675   7.728 -1.3349  0.2921  2.0549
 2725SOL    HW219809   0.170   3.571   7.828  0.0648 -0.5947 -0.5704
 2726SOL     OW19810   4.648   3.672   3.022 -0.2004 -0.2505 -0.4402
 2726SOL    HW119811   4.673   3.764   3.032 -2.6164  0.1040  2.3751
 2726SOL    HW219812   4.670   3.645   3.111  0.2092  0.3656 -0.3555
 2727SOL     OW19813   0.939   4.432   5.234  0.3134  0.4859  0.1108
 2727SOL    HW119814   0.853   4.460   5.268  0.1853 -0.4451  0.5400
 2727SOL    HW219815   0.992   4.455   5.310 -0.1437 -1.9542  1.1800
 2728SOL     OW19816   1.099   1.110  10.128  0.0503  0.2984  0.6104
 2728SOL    HW119817   1.184   1.088  10.164  0.1227  0.0780  0.3008
 2728SOL    HW219818   1.048   1.124  10.208  0.3198 -2.0986  1.2016
 2729SOL     OW19819   3.022   0.008   7.078  0.6839 -0.4769 -0.3709
 2729SOL    HW119820   3.058   4.678   7.026  0.7133 -0.9585  0.3146
 2729SOL    HW219821   3.055   0.090   7.040  2.4721 -0.4660  1.1992
 2730SOL     OW19822   3.940   1.572   8.238 -0.1466  0.1029 -0.6174
 2730SOL    HW119823   3.893   1.494   8.268  1.9131 -0.8738  0.0785
 2730SOL    HW219824   3.961   1.552   8.147 -0.3699 -3.7433  0.1613
 2731SOL     OW19825   0.413   3.820   7.032 -0.0273 -0.7712  0.3350
 2731SOL    HW119826   0.369   3.819   7.117  0.9622 -0.4761  0.8505
 2731SOL    HW219827   0.394   3.908   7.000  0.7547 -1.1480 -1.1790
 2732SOL     OW19828   0.332   3.052   2.214  0.3077 -0.1801 -0.1253
 2732SOL    HW119829   0.410   3.052   2.159 -0.9011  2.1764 -1.8058
 2732SOL    HW219830   0.315   3.146   2.212 -0.3731 -0.3077 -0.3298
 2733SOL     OW19831   0.658   1.708   8.108 -0.2756  0.1879  0.6035
 2733SOL    HW119832   0.611   1.677   8.031 -0.0546 -0.4152  0.7071
 2733SOL    HW219833   0.662   1.803   8.096  0.5032 -0.0364 -0.8030
 2734SOL     OW19834   3.515   1.697   6.430 -0.1153  0.8776 -0.1760
 2734SOL    HW119835   3.605   1.687   6.462  0.3038  0.7420 -1.3798
 2734SOL    HW219836   3.472   1.717   6.513 -0.7538 -1.8251  0.1410
 2735SOL     OW19837   0.258   0.167   6.378  0.1691  0.0978 -0.0790
 2735SOL    HW119838   0.259   0.236   6.311 -0.9155  0.9588  0.7990
 2735SOL    HW219839   0.339   0.117   6.366  1.2400  1.2002  2.4915
 2736SOL     OW19840   3.705   1.120  13.176  0.3615  0.1185 -0.6142
 2736SOL    HW119841   3.773   1.178  13.140  0.4676  1.5039  1.7792
 2736SOL    HW219842   3.666   1.185  13.234  1.9572 -1.3116  2.0449
 2737SOL     OW19843   4.286   2.236   7.559 -0.1518  0.0764  0.3579
 2737SOL    HW119844   4.287   2.246   7.654  0.2473  2.3950  0.1289
 2737SOL    HW219845   4.356   2.171   7.555 -0.1313  0.1579 -0.6430
 2738SOL     OW19846   3.772   3.999   2.678  0.1965  0.5200 -0.2037
 2738SOL    HW119847   3.761   3.998   2.773  0.4478  1.3250 -0.1644
 2738SOL    HW219848   3.820   3.921   2.652 -0.5824 -0.1266  0.3119
 2739SOL     OW19849   4.275   3.885   5.336 -0.2112 -0.1826 -0.3632
 2739SOL    HW119850   4.338   3.953   5.360 -0.9614  0.3812  0.0134
 2739SOL    HW219851   4.203   3.947   5.321 -1.2155 -1.2518 -0.0449
 2740SOL     OW19852   4.178   1.917   8.999  0.0334  0.0576 -0.3878
 2740SOL    HW119853   4.163   1.858   8.925  0.7339  1.4503 -1.6688
 2740SOL    HW219854   4.207   1.999   8.958  0.9495 -0.2085 -0.2662
 2741SOL     OW19855   4.723   2.523   0.759  0.6515  0.0044  0.0753
 2741SOL    HW119856   4.683   2.514   0.673  1.4782 -1.4373 -0.1692
 2741SOL    HW219857   0.052   2.581   0.731 -0.3700  1.4744  0.5459
 2742SOL     OW19858   4.342   3.538   1.921  0.7281 -0.0511  0.0947
 2742SOL    HW119859   4.356   3.509   2.011 -0.9096  3.0256  1.3286
 2742SOL    HW219860   4.246   3.541   1.923  0.6028 -2.4138 -2.9901
 2743SOL     OW19861   3.657   1.405   7.463 -0.0443 -0.3125  0.2861
 2743SOL    HW119862   3.584   1.445   7.415  0.0030 -0.2079  0.3015
 2743SOL    HW219863   3.636   1.442   7.549 -1.3114  1.9830 -0.9995
 2744SOL     OW19864   3.485   3.652   3.048  0.1182 -0.8509  0.1689
 2744SOL    HW119865   3.543   3.621   2.980  0.2082 -0.4889  0.0792
 2744SOL    HW219866   3.424   3.579   3.058 -0.3540 -0.6129 -0.9904
 2745SOL     OW19867   1.913   0.432   1.568  0.3261  0.2920  0.0092
 2745SOL    HW119868   1.916   0.491   1.643 -0.8951  1.1905 -0.6580
 2745SOL    HW219869   1.950   0.351   1.604  1.2614 -0.0835 -1.7906
 2746SOL     OW19870   1.419   4.093   6.508  0.1639 -0.1169 -0.5385
 2746SOL    HW119871   1.413   4.089   6.412 -3.7139 -0.9790 -0.2656
 2746SOL    HW219872   1.325   4.103   6.523  0.1223  0.4304 -1.1500
 2747SOL     OW19873   4.018   1.963   4.944  0.2050  0.1025 -0.1270
 2747SOL    HW119874   4.053   2.052   4.943 -0.6758  0.4463 -0.1475
 2747SOL    HW219875   4.051   1.934   5.030  0.1659 -3.1578 -1.1880
 2748SOL     OW19876   1.150   4.511   1.849 -0.3014 -0.6679 -0.0291
 2748SOL    HW119877   1.112   4.488   1.934 -2.9403  0.9051 -0.7964
 2748SOL    HW219878   1.100   4.588   1.823 -1.9897 -1.3028  1.2987
 2749SOL     OW19879   2.413   1.520  16.889  0.0888 -0.0427 -0.2162
 2749SOL    HW119880   2.504   1.508  16.859 -0.0463  0.6290 -0.9053
 2749SOL    HW219881   2.365   1.504  16.808 -1.2930 -1.1152  0.8281
 2750SOL     OW19882   0.005   2.983  13.871  0.1516  0.4061 -0.0818
 2750SOL    HW119883   0.014   2.890  13.853 -0.7964  0.4122 -0.5630
 2750SOL    HW219884   4.734   3.024  13.785 -0.2018  1.4600  0.4685
 2751SOL     OW19885   1.640   3.956   7.837  0.1326 -0.8002 -0.0528
 2751SOL    HW119886   1.635   3.951   7.741 -0.6343  1.2877 -0.1242
 2751SOL    HW219887   1.558   3.910   7.856  0.7403 -1.7687  0.2483
 2752SOL     OW19888   4.442   0.243  13.205 -0.3053 -0.2438 -0.1955
 2752SOL    HW119889   4.462   0.154  13.174  1.4093  0.9567 -2.5105
 2752SOL    HW219890   4.516   0.247  13.266  1.0992  1.4654 -2.0317
 2753SOL     OW19891   3.230   3.290   7.690 -0.1977 -0.2923  0.2816
 2753SOL    HW119892   3.241   3.343   7.611 -0.7129 -0.6371 -0.0168
 2753SOL    HW219893   3.320   3.285   7.723 -0.2874 -1.7390  0.3175
 2754SOL     OW19894   1.018   3.475   9.898 -0.9661  0.7019 -0.3226
 2754SOL    HW119895   1.080   3.430   9.955 -1.0398  2.4551  1.1372
 2754SOL    HW219896   1.083   3.490   9.829  0.5239  1.4129  1.2193
 2755SOL     OW19897   3.271   4.012   4.006 -0.4510 -0.6583  0.0992
 2755SOL    HW119898   3.342   3.956   3.973 -1.3748 -0.4611 -2.2675
 2755SOL    HW219899   3.269   4.078   3.936 -0.4482 -0.3247  0.4166
 2756SOL     OW19900   4.632   3.781   9.218 -0.6087 -0.5595 -0.0511
 2756SOL    HW119901   4.642   3.851   9.154 -0.7010 -0.7482 -0.2733
 2756SOL    HW219902   4.707   3.730   9.186 -0.1905  1.3247 -2.0737
 2757SOL     OW19903   3.916   0.258  10.778 -0.0333  0.3846  0.1174
 2757SOL    HW119904   3.900   0.163  10.775 -0.4129  0.4636 -0.3596
 2757SOL    HW219905   4.011   0.250  10.768 -0.1928  0.2094 -1.2728
 2758SOL     OW19906   0.249   3.935  16.153  0.1321 -0.0985  0.3029
 2758SOL    HW119907   0.207   3.971  16.075 -1.0704 -1.2012  0.4370
 2758SOL    HW219908   0.327   3.891  16.121  0.3544  0.2768  0.3312
 2759SOL     OW19909   4.178   0.011   1.900  0.1769 -0.0038  0.3892
 2759SOL    HW119910   4.154   4.707   1.819  0.9497 -1.0489  0.7267
 2759SOL    HW219911   4.097   0.058   1.918 -0.2673 -0.3885 -0.5998
 2760SOL     OW19912   2.554   3.238  11.571  0.2717 -0.1686  0.5547
 2760SOL    HW119913   2.617   3.264  11.639 -0.8192  2.2939  0.6283
 2760SOL    HW219914   2.477   3.291  11.592  0.5290  0.5457 -0.2818
 2761SOL     OW19915   4.431   2.549  15.634  0.6706 -0.3839  0.1777
 2761SOL    HW119916   4.422   2.614  15.565  0.6605 -0.4795  0.0889
 2761SOL    HW219917   4.341   2.532  15.664  1.3035  0.9892  2.8968
 2762SOL     OW19918   3.410   1.250   6.515  0.6433  0.4405  0.1052
 2762SOL    HW119919   3.474   1.283   6.453  0.7671  1.5954  0.8389
 2762SOL    HW219920   3.431   1.303   6.593  2.1646 -2.7184  1.8397
 2763SOL     OW19921   2.699   0.653   9.617  0.2069  0.6571 -0.1592
 2763SOL    HW119922   2.691   0.683   9.708  2.1050 -0.2361  0.2975
 2763SOL    HW219923   2.777   0.597   9.620  0.4631  0.9801 -0.7056
 2764SOL     OW19924   1.210   0.061   2.712 -0.5439  0.1457  0.1304
 2764SOL    HW119925   1.161   4.720   2.702 -0.6763  0.2137  0.2329
 2764SOL    HW219926   1.156   0.117   2.766  0.6015  0.9748  0.4005
 2765SOL     OW19927   2.611   0.696   2.821 -0.5817 -0.2906  0.1370
 2765SOL    HW119928   2.700   0.721   2.849 -0.4727 -1.1595  0.5757
 2765SOL    HW219929   2.591   0.626   2.883 -0.0409 -1.8966 -1.5129
 2766SOL     OW19930   3.289   0.425   7.054  0.1445  0.0939 -0.4743
 2766SOL    HW119931   3.374   0.463   7.033  0.5832  0.3306  1.7418
 2766SOL    HW219932   3.293   0.332   7.034 -0.0198 -0.1008  0.4123
 2767SOL     OW19933   4.625   2.324   5.420 -0.2876 -0.0797  0.3891
 2767SOL    HW119934   4.694   2.297   5.480  1.4458  2.2036 -0.5965
 2767SOL    HW219935   4.648   2.416   5.407  2.3148 -1.0106 -1.5983
 2768SOL     OW19936   0.353   0.810   6.390  0.2829 -0.3416  0.5758
 2768SOL    HW119937   0.310   0.789   6.306  3.5439  0.2716 -1.2295
 2768SOL    HW219938   0.407   0.884   6.363 -2.0808  1.2880  0.2900
 2769SOL     OW19939   4.105   3.490   6.397  0.0109  0.0532  0.2561
 2769SOL    HW119940   4.192   3.485   6.357 -1.0531 -0.3047 -1.9809
 2769SOL    HW219941   4.114   3.408   6.444  0.4887 -1.4969 -2.5337
 2770SOL     OW19942   1.246   0.689   6.085 -0.8046 -0.2712 -0.0946
 2770SOL    HW119943   1.326   0.678   6.137  0.2798  0.3009 -1.6411
 2770SOL    HW219944   1.266   0.613   6.030  2.6562  0.6164 -0.1091
 2771SOL     OW19945   3.153   0.359   4.966  0.7459  0.6930 -0.2783
 2771SOL    HW119946   3.153   0.409   4.885  0.3479  1.1658  0.0067
 2771SOL    HW219947   3.225   0.397   5.016  0.5525  0.3490  0.2615
 2772SOL     OW19948   3.611   2.217   2.631 -0.0902 -0.2453 -0.3801
 2772SOL    HW119949   3.692   2.176   2.664 -0.4390  0.1540  0.9740
 2772SOL    HW219950   3.636   2.309   2.631 -2.8976  0.5145  0.1932
 2773SOL     OW19951   3.805   2.027  12.823 -0.2806 -0.3588 -0.0612
 2773SOL    HW119952   3.820   1.941  12.863  0.9794 -0.0701  0.1044
 2773SOL    HW219953   3.738   2.063  12.881 -2.3662 -3.0063 -0.8167
 2774SOL     OW19954   4.076   3.488   6.875  0.0943 -0.4104  0.1936
 2774SOL    HW119955   4.040   3.573   6.848  0.2359  0.6715  3.3325
 2774SOL    HW219956   4.005   3.433   6.908  0.3647 -0.4290  0.7497
 2775SOL     OW19957   0.519   4.459   5.422 -0.2266 -0.3045  0.0076
 2775SOL    HW119958   0.432   4.425   5.443 -0.8910  1.7713  0.7053
 2775SOL    HW219959   0.577   4.388   5.449 -1.4141 -0.2566  2.6364
 2776SOL     OW19960   3.602   3.636   6.470  0.4659  0.0290  0.6085
 2776SOL    HW119961   3.557   3.559   6.506  0.1931 -0.2460 -0.3065
 2776SOL    HW219962   3.538   3.705   6.484  0.4275 -0.2267  1.6858
 2777SOL     OW19963   3.714   3.120   6.456 -0.3033  0.1032 -0.4059
 2777SOL    HW119964   3.772   3.181   6.410  1.2538 -0.7817  0.3899
 2777SOL    HW219965   3.763   3.038   6.448  2.0849  1.3581  1.3590
 2778SOL     OW19966   0.923   1.874  11.250 -0.2778 -0.0096 -0.5907
 2778SOL    HW119967   0.972   1.945  11.292  0.0784  1.6485 -3.7760
 2778SOL    HW219968   0.974   1.879  11.169  1.5252  0.9183  0.6038
 2779SOL     OW19969   1.677   1.885   8.390 -0.1059 -0.3932 -0.4242
 2779SOL    HW119970   1.765   1.854   8.412  0.0848 -0.2800 -1.0207
 2779SOL    HW219971   1.699   1.966   8.343 -0.0104 -1.2409 -1.8423
 2780SOL     OW19972   0.269   1.471   6.202 -0.2578  0.3776 -0.1989
 2780SOL    HW119973   0.293   1.563   6.212  0.8921  0.3320 -2.5691
 2780SOL    HW219974   0.340   1.419   6.240  0.9304  1.5281 -0.8340
 2781SOL     OW19975   1.903   1.151   7.980 -0.1262  0.1881  0.3420
 2781SOL    HW119976   1.844   1.101   7.924  1.0321 -0.6412 -0.1339
 2781SOL    HW219977   1.891   1.239   7.944 -0.2254 -0.0450 -0.1888
 2782SOL     OW19978   0.888   0.990   2.689 -0.3367 -0.3114  0.4116
 2782SOL    HW119979   0.857   1.049   2.620  0.5162 -2.4379 -1.7881
 2782SOL    HW219980   0.869   0.901   2.660 -0.9953  0.6204 -2.0418
 2783SOL     OW19981   2.949   1.377   4.164  0.0384  0.1074  0.1115
 2783SOL    HW119982   2.859   1.391   4.135  0.3321  3.7030  0.9072
 2783SOL    HW219983   2.944   1.362   4.258  0.5617 -1.0966 -0.0443
 2784SOL     OW19984   2.167   1.648   6.942 -0.4310 -0.0126 -0.2758
 2784SOL    HW119985   2.220   1.724   6.920 -1.3601  0.4489 -0.8794
 2784SOL    HW219986   2.118   1.626   6.862  0.4793 -0.4931 -0.7093
 2785SOL     OW19987   3.672   2.238   2.325  0.0962  0.1029 -0.2812
 2785SOL    HW119988   3.611   2.275   2.389 -1.4147 -2.0740 -0.4470
 2785SOL    HW219989   3.688   2.155   2.371  0.3047  0.0915 -0.3775
 2786SOL     OW19990   1.345   0.383   9.647  0.3266  0.2781  0.4109
 2786SOL    HW119991   1.411   0.317   9.665 -0.6985 -0.7406  0.4250
 2786SOL    HW219992   1.383   0.437   9.577 -0.6820 -0.2127 -0.5148
 2787SOL     OW19993   4.057   1.942  10.885 -0.2811 -0.1922  0.0833
 2787SOL    HW119994   4.117   1.889  10.832 -0.8738  0.2907 -1.0661
 2787SOL    HW219995   3.992   1.974  10.822  1.2829  1.6945 -0.5877
 2788SOL     OW19996   2.626   1.509  10.691 -0.4257  0.1260  0.1953
 2788SOL    HW119997   2.611   1.416  10.674 -0.5036  0.2707 -0.5581
 2788SOL    HW219998   2.591   1.544  10.609  0.7641  0.0675 -0.3404
 2789SOL     OW19999   4.726   1.518   6.683 -0.3136 -0.2092 -0.6341
 2789SOL    HW120000   4.733   1.546   6.592 -0.3369  0.4345 -0.4383
 2789SOL    HW220001   4.687   1.431   6.677 -0.0859 -0.1423 -2.9841
 2790SOL     OW20002   0.999   3.908   4.768  0.2583  0.5964  0.1150
 2790SOL    HW120003   1.026   3.989   4.723 -1.3639  0.4755 -1.0918
 2790SOL    HW220004   0.970   3.859   4.691  1.3343  0.4095 -0.1721
 2791SOL     OW20005   3.747   2.800   2.932 -0.6444 -0.1484 -0.1222
 2791SOL    HW120006   3.712   2.841   2.853  0.5969 -0.8434 -1.0446
 2791SOL    HW220007   3.783   2.880   2.972  1.4832 -0.4007 -1.4820
 2792SOL     OW20008   0.026   4.451  10.932  0.3467 -0.1669  0.6843
 2792SOL    HW120009   0.090   4.478  10.865 -0.9679 -1.0199 -0.9080
 2792SOL    HW220010   4.736   4.369  10.893 -0.0671  0.3236 -0.0161
 2793SOL     OW20011   2.342   0.396   4.262  0.2437 -0.3351  0.4047
 2793SOL    HW120012   2.354   0.302   4.260 -0.9381 -0.5354  2.0959
 2793SOL    HW220013   2.248   0.402   4.244  0.7739  1.9513 -1.5740
 2794SOL     OW20014   4.128   0.623   5.916 -0.3100  0.7160 -0.6366
 2794SOL    HW120015   4.034   0.639   5.912 -0.5928 -0.8450 -0.1056
 2794SOL    HW220016   4.166   0.666   5.839 -0.5389  0.8623 -0.6669
 2795SOL     OW20017   3.078   1.315   8.954  0.1038  0.0460 -0.1280
 2795SOL    HW120018   3.013   1.364   9.004  1.1438 -0.2853  1.5396
 2795SOL    HW220019   3.162   1.350   8.983  0.2343  0.0611 -0.5180
 2796SOL     OW20020   0.616   0.499  10.623 -0.4650 -0.3563  0.3302
 2796SOL    HW120021   0.638   0.582  10.665  2.5976 -1.4311  0.9115
 2796SOL    HW220022   0.675   0.433  10.661 -0.7889 -1.3609 -0.9170
 2797SOL     OW20023   2.596   1.316   2.110  0.2819 -0.5062 -0.1201
 2797SOL    HW120024   2.575   1.409   2.119 -3.0815 -1.4503  1.9070
 2797SOL    HW220025   2.683   1.326   2.148 -0.7437 -0.6317  2.2761
 2798SOL     OW20026   0.348   0.808   0.759 -0.1169 -0.5353  0.4223
 2798SOL    HW120027   0.329   0.895   0.724  1.5161  0.6062  2.3611
 2798SOL    HW220028   0.312   0.812   0.848  0.6002 -1.0454  0.7392
 2799SOL     OW20029   3.217   3.154   5.070 -0.4678 -0.2075 -0.0227
 2799SOL    HW120030   3.262   3.071   5.057  1.7051  1.1178 -0.9867
 2799SOL    HW220031   3.277   3.185   5.138  0.8242  0.1702 -1.3432
 2800SOL     OW20032   1.517   3.991  11.556 -0.4266 -0.1022 -0.4279
 2800SOL    HW120033   1.471   4.028  11.632 -1.0766  0.2902 -1.0107
 2800SOL    HW220034   1.444   3.964  11.500 -0.8382 -0.4487  0.2621
 2801SOL     OW20035   0.777   3.069   6.170  0.3409  0.4112 -0.0095
 2801SOL    HW120036   0.739   2.997   6.221  2.7191 -1.4616 -0.8604
 2801SOL    HW220037   0.703   3.128   6.158 -0.8459 -0.8445  1.0363
 2802SOL     OW20038   4.054   0.913   8.358  0.9101 -0.2421  0.0722
 2802SOL    HW120039   4.079   0.948   8.272  0.1741 -0.6670 -0.3150
 2802SOL    HW220040   4.016   0.830   8.329  1.6042 -1.1410  1.7628
 2803SOL     OW20041   3.524   0.995   3.237  0.5959  0.6305  0.0938
 2803SOL    HW120042   3.500   1.087   3.233 -0.5201  0.4253  2.0895
 2803SOL    HW220043   3.469   0.952   3.303 -1.8409 -0.5656 -2.7666
 2804SOL     OW20044   3.567   2.409  11.201 -0.4198  0.0983 -0.2059
 2804SOL    HW120045   3.597   2.322  11.175  1.2163  1.1688 -1.9745
 2804SOL    HW220046   3.639   2.435  11.259  0.5934 -1.0502 -0.9223
 2805SOL     OW20047   2.812   1.546   9.831 -0.2323 -0.5679 -0.2087
 2805SOL    HW120048   2.721   1.537   9.803 -0.2295  1.0750 -0.7490
 2805SOL    HW220049   2.832   1.637   9.806 -0.2004 -0.4894  0.0975
 2806SOL     OW20050   0.875   3.884   9.230 -0.2929 -0.3710 -0.7059
 2806SOL    HW120051   0.887   3.925   9.144  0.5037 -0.6562 -0.7260
 2806SOL    HW220052   0.848   3.795   9.208  0.9535 -0.3497 -2.3365
 2807SOL     OW20053   4.664   1.547   2.350  0.4085  0.1126 -0.5416
 2807SOL    HW120054   4.713   1.625   2.378 -1.0670 -0.2721  3.0693
 2807SOL    HW220055   4.670   1.486   2.423  0.7252 -0.6671 -1.2243
 2808SOL     OW20056   3.377   3.688   2.060 -0.1727 -0.4198 -0.5866
 2808SOL    HW120057   3.425   3.718   1.983 -1.4247 -0.5719 -1.4196
 2808SOL    HW220058   3.287   3.703   2.032 -0.5877  2.7219  2.4420
 2809SOL     OW20059   3.154   2.465   3.954 -0.5942 -0.9809  0.0972
 2809SOL    HW120060   3.167   2.384   3.904  0.4656  1.0611 -2.8888
 2809SOL    HW220061   3.245   2.494   3.958 -1.2457  1.1011 -0.6198
 2810SOL     OW20062   1.413   2.721  11.441  0.2666 -0.0977  0.3428
 2810SOL    HW120063   1.349   2.650  11.430  1.2307 -0.9678  0.3190
 2810SOL    HW220064   1.385   2.784  11.375  1.0799 -1.6572 -1.4849
 2811SOL     OW20065   4.501   1.490   3.777  0.0980  0.1003  0.7424
 2811SOL    HW120066   4.444   1.500   3.701 -0.6685  1.5390  1.5063
 2811SOL    HW220067   4.495   1.574   3.822  2.2324  2.4203 -3.3803
 2812SOL     OW20068   2.222   3.590   7.311  0.8408 -0.5763 -0.4426
 2812SOL    HW120069   2.312   3.611   7.333  0.7268  0.5340 -1.0417
 2812SOL    HW220070   2.192   3.659   7.252 -0.0320 -0.5453  0.0315
 2813SOL     OW20071   0.646   1.134   7.837  0.6098 -0.8209 -0.0665
 2813SOL    HW120072   0.729   1.112   7.794  0.4789 -0.0258 -0.7246
 2813SOL    HW220073   0.685   1.176   7.913  0.5546 -0.8850 -0.0019
 2814SOL     OW20074   3.690   0.771   8.519  0.0036  0.2032 -0.3972
 2814SOL    HW120075   3.753   0.794   8.450  0.3536  1.2136  0.2585
 2814SOL    HW220076   3.623   0.724   8.470  0.7869  0.3107 -1.5813
 2815SOL     OW20077   4.142   0.987   2.034 -0.3137 -0.4965  0.1464
 2815SOL    HW120078   4.173   1.031   1.955 -0.0806  2.5373  1.9322
 2815SOL    HW220079   4.057   1.030   2.044  1.4711  3.2318 -0.7857
 2816SOL     OW20080   3.228   1.095   5.822 -0.1443  0.6584  0.6164
 2816SOL    HW120081   3.133   1.100   5.822 -0.1091  1.4561 -0.2471
 2816SOL    HW220082   3.241   1.168   5.761  1.2826 -0.0385  0.0745
 2817SOL     OW20083   1.450   2.534  11.758  0.0206 -0.6182  0.6788
 2817SOL    HW120084   1.365   2.567  11.730  1.0694  1.4869 -0.0754
 2817SOL    HW220085   1.436   2.442  11.737  0.2004 -0.5280  0.1557
 2818SOL     OW20086   1.946   0.501   8.048  0.3198 -0.8719  0.2639
 2818SOL    HW120087   1.978   0.588   8.024 -1.8912 -0.1451 -0.0370
 2818SOL    HW220088   1.859   0.523   8.080  0.5825  1.2600 -0.5398
 2819SOL     OW20089   1.559   2.711   5.658 -0.6904 -0.1452 -0.1282
 2819SOL    HW120090   1.510   2.736   5.737  0.5611  0.4592  0.4438
 2819SOL    HW220091   1.487   2.670   5.610 -1.8650  0.2740  1.2724
 2820SOL     OW20092   3.027   3.016  13.108  0.6935  0.7489 -0.2350
 2820SOL    HW120093   2.951   2.975  13.067  1.1955 -1.5370  1.0971
 2820SOL    HW220094   3.088   2.987  13.040  0.1433 -3.4369  1.0670
 2821SOL     OW20095   0.626   0.853   9.483  0.2052 -0.0809  0.0641
 2821SOL    HW120096   0.635   0.763   9.513  0.7470  0.2900  1.0187
 2821SOL    HW220097   0.719   0.872   9.500  0.0093 -0.6428  1.7776
 2822SOL     OW20098   0.488   1.360  16.029 -0.1622  0.9164  0.4951
 2822SOL    HW120099   0.443   1.393  15.951 -1.5686  1.0883  1.3715
 2822SOL    HW220100   0.440   1.416  16.091 -0.5918  0.5771  0.4679
 2823SOL     OW20101   0.265   3.027   5.068  0.1163 -0.2326 -0.1266
 2823SOL    HW120102   0.264   3.043   5.163 -0.1262  1.3393 -0.3988
 2823SOL    HW220103   0.311   2.943   5.064 -0.9791 -0.7930 -0.8905
 2824SOL     OW20104   3.406   1.948   3.810  0.8723  0.0990 -0.1672
 2824SOL    HW120105   3.452   1.897   3.743 -0.3747 -0.1752 -0.8175
 2824SOL    HW220106   3.474   2.000   3.852  1.1527 -0.7308  0.4115
 2825SOL     OW20107   3.985   4.108   3.968 -0.4149  0.4469  0.1048
 2825SOL    HW120108   3.960   4.178   4.029 -0.0396  0.9156 -0.2818
 2825SOL    HW220109   3.906   4.110   3.913 -0.5782  0.5687  0.3430
 2826SOL     OW20110   1.399   3.933  14.917 -0.1003  0.6952  0.2466
 2826SOL    HW120111   1.356   4.000  14.971 -1.0223  0.9982 -0.8477
 2826SOL    HW220112   1.400   3.856  14.973  1.1764 -0.0858 -0.8546
 2827SOL     OW20113   2.080   3.649   3.708  0.7242 -0.2084 -0.2537
 2827SOL    HW120114   2.160   3.700   3.703  0.8061 -0.5227 -1.9101
 2827SOL    HW220115   2.020   3.694   3.649 -2.0372 -1.0818  1.8534
 2828SOL     OW20116   2.143   2.511   2.324 -0.1056 -0.0384  0.0940
 2828SOL    HW120117   2.177   2.575   2.261 -0.1511 -2.1417 -2.0538
 2828SOL    HW220118   2.052   2.504   2.293  0.2327 -0.7580 -0.7466
 2829SOL     OW20119   1.047   4.145   1.968 -0.2578 -0.0469 -0.4487
 2829SOL    HW120120   0.962   4.103   1.961 -0.5899  0.3592  1.0198
 2829SOL    HW220121   1.090   4.113   1.889 -0.1586 -2.7061  0.7002
 2830SOL     OW20122   2.237   2.614   5.302 -0.2632  0.2682 -0.3649
 2830SOL    HW120123   2.317   2.591   5.255 -0.7442 -1.6151 -0.2929
 2830SOL    HW220124   2.212   2.698   5.263 -0.1557 -0.7942 -2.7567
 2831SOL     OW20125   3.793   3.363  12.162 -0.2877 -0.2964 -0.2255
 2831SOL    HW120126   3.870   3.361  12.219  0.4468  0.4673 -1.2020
 2831SOL    HW220127   3.758   3.452  12.167 -1.7656 -0.9031  0.2252
 2832SOL     OW20128   2.585   3.032  11.871  0.1294 -0.9273 -0.1261
 2832SOL    HW120129   2.653   3.015  11.806  0.5738  0.0970  0.0767
 2832SOL    HW220130   2.534   2.951  11.862 -2.4218  0.5891  0.8745
 2833SOL     OW20131   1.268   2.644   7.243 -0.3402  0.5319  0.5826
 2833SOL    HW120132   1.268   2.739   7.252  0.7455  0.7338 -1.5003
 2833SOL    HW220133   1.295   2.624   7.332  1.3485 -1.6880 -0.4252
 2834SOL     OW20134   1.976   2.360  14.421  0.2152 -0.5824  0.0758
 2834SOL    HW120135   1.977   2.441  14.471  0.5529 -0.8080  0.4402
 2834SOL    HW220136   1.919   2.311  14.480 -1.4136 -1.8550 -2.5365
 2835SOL     OW20137   2.395   3.000   9.912  0.0860  0.2315  0.1626
 2835SOL    HW120138   2.317   3.033   9.956 -1.5757 -1.0049 -1.8788
 2835SOL    HW220139   2.356   2.918   9.882  1.8593 -0.0988 -1.2445
 2836SOL     OW20140   0.833   0.819   8.520  0.3219 -0.5869 -0.2570
 2836SOL    HW120141   0.830   0.891   8.458 -1.3713 -0.5894 -0.1657
 2836SOL    HW220142   0.750   0.779   8.495 -1.3723  1.8347  1.4715
 2837SOL     OW20143   4.257   1.360   5.887  0.2832  0.5046  0.4120
 2837SOL    HW120144   4.253   1.456   5.879 -0.4933  0.4451  0.0278
 2837SOL    HW220145   4.349   1.347   5.867 -0.3169 -1.3661 -1.1507
 2838SOL     OW20146   0.530   2.069   9.254 -0.2845 -0.2942  0.0141
 2838SOL    HW120147   0.553   2.091   9.344  2.7252 -2.6634 -0.1638
 2838SOL    HW220148   0.545   1.974   9.254  1.3233 -0.0435 -2.9428
 2839SOL     OW20149   0.912   0.380   1.114 -0.6733 -0.1302  0.0043
 2839SOL    HW120150   0.878   0.469   1.107  2.0925  0.8958 -0.6727
 2839SOL    HW220151   1.004   0.400   1.096 -1.3080  1.3273 -1.7094
 2840SOL     OW20152   1.748   2.363   6.752 -0.3177 -0.1517  0.0815
 2840SOL    HW120153   1.728   2.405   6.836 -2.3971 -0.0657 -0.4715
 2840SOL    HW220154   1.776   2.276   6.781  1.1901  0.1862 -0.3254
 2841SOL     OW20155   3.665   1.531  13.420  0.5653  0.1193  0.1267
 2841SOL    HW120156   3.749   1.524  13.465  0.7048 -2.5003 -0.5561
 2841SOL    HW220157   3.656   1.626  13.416  0.4989  0.2725  3.5561
 2842SOL     OW20158   0.378   3.162  13.697  0.2465  0.3168 -0.2860
 2842SOL    HW120159   0.412   3.129  13.614  0.2309 -1.0640  0.2587
 2842SOL    HW220160   0.390   3.093  13.762  2.4379  0.6336 -0.3557
 2843SOL     OW20161   0.832   3.963   1.375  0.2031 -0.0250 -0.3099
 2843SOL    HW120162   0.872   3.890   1.329  1.2583  0.6223 -0.4306
 2843SOL    HW220163   0.866   4.026   1.311 -2.9880  2.3862  0.3431
 2844SOL     OW20164   1.711   2.076  16.832 -0.1324 -0.0040  0.3133
 2844SOL    HW120165   1.620   2.093  16.854  0.4578  0.9962  2.0245
 2844SOL    HW220166   1.712   1.981  16.836  3.1878 -0.0186 -0.1660
 2845SOL     OW20167   0.216   0.622   9.063 -0.1894 -0.5342  0.0963
 2845SOL    HW120168   0.270   0.595   9.138 -2.0390 -1.8788  0.9478
 2845SOL    HW220169   0.161   0.690   9.101  2.5331  1.1867  0.9936
 2846SOL     OW20170   3.078   3.246   8.290  0.0785  0.4438  0.8349
 2846SOL    HW120171   3.043   3.335   8.291  2.5744  1.4176  0.2553
 2846SOL    HW220172   3.107   3.243   8.381 -0.5773 -0.0555  1.0263
 2847SOL     OW20173   2.054   2.057  13.773  0.1251  0.6993  0.6446
 2847SOL    HW120174   1.978   2.001  13.755  1.0487 -0.9657  1.8833
 2847SOL    HW220175   2.038   2.121  13.704  2.8233  0.4055 -0.2243
 2848SOL     OW20176   3.642   0.147   6.299 -0.0015  0.0574 -0.3292
 2848SOL    HW120177   3.652   0.241   6.286  1.2370 -0.1974 -1.1892
 2848SOL    HW220178   3.630   0.142   6.394  0.5930 -1.6150 -0.3388
 2849SOL     OW20179   2.429   1.455   9.260 -0.4029  0.4393 -0.2208
 2849SOL    HW120180   2.476   1.538   9.252 -0.5275  0.6798  1.6877
 2849SOL    HW220181   2.424   1.432   9.167  0.1885  0.5507 -0.2803
 2850SOL     OW20182   3.809   0.012   2.886  0.0704 -0.3680 -0.1651
 2850SOL    HW120183   3.855   0.083   2.931  0.2419 -0.3322 -0.3974
 2850SOL    HW220184   3.732   0.008   2.942  0.8178  0.2770  0.9128
 2851SOL     OW20185   2.623   4.354   5.563  0.3185  0.5405  0.4701
 2851SOL    HW120186   2.597   4.263   5.577  1.6668  0.0233 -0.4072
 2851SOL    HW220187   2.568   4.373   5.487 -0.4120 -2.4588  0.2439
 2852SOL     OW20188   0.485   2.012   2.262 -0.9071 -0.3054 -0.4362
 2852SOL    HW120189   0.424   2.031   2.191 -0.7091  0.0710 -0.5060
 2852SOL    HW220190   0.427   1.941   2.288 -0.9749 -0.3453 -0.7000
 2853SOL     OW20191   3.881   2.244   6.096  0.2268 -0.4662 -0.4448
 2853SOL    HW120192   3.918   2.306   6.159 -0.3611  0.1325 -0.6981
 2853SOL    HW220193   3.801   2.217   6.141 -0.8966  1.8317 -1.1105
 2854SOL     OW20194   1.411   4.588   2.767  0.0963 -0.3897 -0.5088
 2854SOL    HW120195   1.361   4.665   2.794  1.6371  0.3901  0.1424
 2854SOL    HW220196   1.480   4.632   2.717 -1.6568  1.3130 -1.4342
 2855SOL     OW20197   3.460   0.762  17.340 -0.2120 -0.4268  0.3076
 2855SOL    HW120198   3.435   0.815  17.264  0.1951 -0.1876  0.3418
 2855SOL    HW220199   3.427   0.814  17.413 -0.5060 -0.4295  0.1744
 2856SOL     OW20200   1.498   3.045  13.766 -0.0462 -0.1488  0.0528
 2856SOL    HW120201   1.590   3.053  13.741 -0.0966  0.7327  0.1435
 2856SOL    HW220202   1.499   3.088  13.851  3.4948 -0.5266  0.2396
 2857SOL     OW20203   1.716   1.277   1.361  0.1353  0.6528  0.3375
 2857SOL    HW120204   1.791   1.218   1.358 -0.8691 -0.6242  0.1636
 2857SOL    HW220205   1.659   1.209   1.398 -3.4498  3.7591  0.5605
 2858SOL     OW20206   0.226   1.405   8.425 -0.0936  0.2033 -0.6940
 2858SOL    HW120207   0.225   1.315   8.393  1.7644 -0.2932  0.6521
 2858SOL    HW220208   0.278   1.412   8.505 -1.4173 -1.2025  0.2771
 2859SOL     OW20209   1.474   4.718   6.616  0.1526 -0.0893  0.2917
 2859SOL    HW120210   1.451   4.657   6.686  2.3896  0.7537  1.7807
 2859SOL    HW220211   1.438   0.059   6.652 -0.2632  0.3907 -1.2281
 2860SOL     OW20212   0.445   1.747   5.609 -0.5749 -0.1313 -0.4898
 2860SOL    HW120213   0.460   1.666   5.560  1.7245 -0.3044  0.4866
 2860SOL    HW220214   0.525   1.757   5.662  0.0897  2.8817 -2.0365
 2861SOL     OW20215   0.651   2.660   3.217 -0.3083  0.3938  0.1459
 2861SOL    HW120216   0.708   2.687   3.144 -0.8732 -1.6027 -1.0448
 2861SOL    HW220217   0.587   2.609   3.167  2.3010 -1.0180 -1.8085
 2862SOL     OW20218   0.847   0.121   1.406 -0.0136  0.1232  0.2286
 2862SOL    HW120219   0.824   0.198   1.458  0.0206 -0.1281  0.6162
 2862SOL    HW220220   0.936   0.136   1.374 -0.0386  2.0082  1.0306
 2863SOL     OW20221   1.084   3.333   7.785 -0.3511  0.0255 -0.5007
 2863SOL    HW120222   1.050   3.249   7.755 -0.6874  0.0661 -0.2407
 2863SOL    HW220223   0.996   3.364   7.804  0.9640  1.1021  4.0289
 2864SOL     OW20224   2.290   2.129   6.649 -0.1760 -0.0936  0.2190
 2864SOL    HW120225   2.349   2.192   6.608 -0.4345  0.5641  0.8524
 2864SOL    HW220226   2.291   2.156   6.740  1.5428 -3.2837  1.1326
 2865SOL     OW20227   1.588   3.502  14.803 -0.4222 -0.1239  0.2417
 2865SOL    HW120228   1.580   3.421  14.753 -0.4173  0.1465 -0.2036
 2865SOL    HW220229   1.682   3.510  14.818 -0.3116 -0.3325 -0.3260
 2866SOL     OW20230   1.553   2.969  11.547 -0.0320 -0.1366  0.3043
 2866SOL    HW120231   1.478   2.977  11.607 -0.5454  3.1386 -0.7846
 2866SOL    HW220232   1.576   2.877  11.561  3.5657  0.7474  0.0842
 2867SOL     OW20233   4.628   0.237   3.968 -0.1005  0.0366 -0.4087
 2867SOL    HW120234   4.664   0.252   3.880  1.4467 -0.2504  0.1777
 2867SOL    HW220235   4.571   0.160   3.955  2.0573 -1.3025 -1.9832
 2868SOL     OW20236   1.346   2.998  11.743  0.4074 -0.1610  0.0359
 2868SOL    HW120237   1.314   3.045  11.820 -1.2288 -2.4829  0.7915
 2868SOL    HW220238   1.260   2.968  11.713  0.4073 -0.0147 -0.1118
 2869SOL     OW20239   2.956   2.152  17.322 -0.2428  0.5242  0.1748
 2869SOL    HW120240   3.028   2.186  17.376 -0.3138  1.5321 -0.3598
 2869SOL    HW220241   2.980   2.185  17.235  1.2575  1.2801  0.8670
 2870SOL     OW20242   3.392   0.114   8.248  0.0727 -0.8653 -0.1744
 2870SOL    HW120243   3.399   0.193   8.194  0.1127 -0.4206  0.4872
 2870SOL    HW220244   3.318   0.155   8.292  0.0823  2.2916 -3.1131
 2871SOL     OW20245   2.179   0.102   7.843  0.2601 -0.1966 -0.0589
 2871SOL    HW120246   2.192   0.197   7.832 -0.6877 -0.0309  0.3431
 2871SOL    HW220247   2.210   0.072   7.758  1.8763 -2.9494  1.5133
 2872SOL     OW20248   2.591   3.110   1.565  0.1935  0.2144  0.7053
 2872SOL    HW120249   2.593   3.016   1.583 -0.8028  0.2189  0.8061
 2872SOL    HW220250   2.566   3.150   1.648  0.0249  0.4402  0.5442
 2873SOL     OW20251   0.580   3.011   5.006 -0.1987  0.4005  0.5821
 2873SOL    HW120252   0.491   3.021   4.973  1.0021  1.2145 -2.4514
 2873SOL    HW220253   0.628   3.048   4.931  2.1242 -0.6470  1.5358
 2874SOL     OW20254   0.544   1.559   8.635 -0.0404  0.4905  0.1451
 2874SOL    HW120255   0.588   1.619   8.695  1.8243  0.7479 -1.4941
 2874SOL    HW220256   0.455   1.592   8.649 -0.2587 -0.0909  0.1415
 2875SOL     OW20257   0.480   3.316   3.834 -0.0454  0.2572 -0.4062
 2875SOL    HW120258   0.388   3.337   3.848 -0.1654  0.5982 -1.6806
 2875SOL    HW220259   0.510   3.403   3.807  1.0669 -0.2205 -0.6922
 2876SOL     OW20260   1.611   0.330   2.424 -0.4411 -0.1371 -0.0500
 2876SOL    HW120261   1.666   0.252   2.436 -0.0051  0.3035  0.8773
 2876SOL    HW220262   1.534   0.305   2.475  0.0300 -0.4370  0.5136
 2877SOL     OW20263   2.864   0.776   7.663  0.2114 -0.6012  0.1078
 2877SOL    HW120264   2.856   0.724   7.583 -1.3368 -1.7584  1.0241
 2877SOL    HW220265   2.825   0.861   7.643  1.5185  0.1813  0.9112
 2878SOL     OW20266   2.574   4.349   4.638  0.7369  0.1675 -0.0612
 2878SOL    HW120267   2.590   4.292   4.713 -2.4062 -1.3492 -0.5562
 2878SOL    HW220268   2.661   4.386   4.622  2.2422 -3.5101 -0.3719
 2879SOL     OW20269   1.997   1.126   5.734  0.5888 -0.0251  0.0975
 2879SOL    HW120270   2.063   1.160   5.794  1.3923  0.0358 -0.8160
 2879SOL    HW220271   1.939   1.199   5.715 -1.0536 -1.5228 -0.5737
 2880SOL     OW20272   4.386   0.237   7.055  0.0659 -0.2374 -0.1659
 2880SOL    HW120273   4.293   0.219   7.072  0.3196 -0.3667  1.0712
 2880SOL    HW220274   4.414   0.163   7.001 -1.6012 -0.5161 -0.6584
 2881SOL     OW20275   1.772   0.977   7.797  0.3064  0.3305  0.3682
 2881SOL    HW120276   1.706   0.929   7.847  0.6877  1.0150  1.5290
 2881SOL    HW220277   1.718   1.042   7.752  1.3747 -0.6466 -2.3806
 2882SOL     OW20278   3.359   0.605   9.031 -0.3466  0.5035 -0.2953
 2882SOL    HW120279   3.278   0.587   9.077  0.3557 -2.6851 -0.3212
 2882SOL    HW220280   3.320   0.642   8.951  0.1378 -1.8156 -1.5916
 2883SOL     OW20281   2.202   4.277   7.441  0.0473 -0.1955 -0.1338
 2883SOL    HW120282   2.290   4.310   7.424  0.7078 -2.1787 -0.5166
 2883SOL    HW220283   2.161   4.361   7.419  0.2035 -0.3060 -0.8194
 2884SOL     OW20284   2.432   0.088  15.822  0.4247  0.0621  0.3282
 2884SOL    HW120285   2.449   0.141  15.900  4.3435 -1.1516  0.3201
 2884SOL    HW220286   2.509   0.094  15.766 -0.8991 -1.3935 -1.6359
 2885SOL     OW20287   0.910   4.620  12.074 -0.5850 -0.2329  0.2531
 2885SOL    HW120288   0.895   4.588  11.985 -0.8962  2.3278 -0.6156
 2885SOL    HW220289   0.981   4.682  12.060 -1.0583  0.2283 -0.1182
 2886SOL     OW20290   2.329   0.740   3.442 -0.1507  0.6426 -0.6424
 2886SOL    HW120291   2.394   0.800   3.479 -1.2843  1.4319  0.0578
 2886SOL    HW220292   2.348   0.729   3.349  1.2483 -0.0910 -0.2807
 2887SOL     OW20293   4.131   2.277   0.402  0.2900  0.5408  0.7457
 2887SOL    HW120294   4.165   2.200   0.357  1.8246  1.0194  1.0870
 2887SOL    HW220295   4.038   2.280   0.381  0.6311  0.0030 -0.8529
 2888SOL     OW20296   1.335   2.485   5.603 -0.8678 -0.0046  0.6087
 2888SOL    HW120297   1.416   2.445   5.570 -2.0840 -0.4814 -1.8123
 2888SOL    HW220298   1.280   2.407   5.598 -1.7818  0.6622  0.2899
 2889SOL     OW20299   0.594   2.938   3.087  0.5288 -0.5282  0.2921
 2889SOL    HW120300   0.648   3.006   3.045 -0.6078 -0.7131 -1.4575
 2889SOL    HW220301   0.626   2.864   3.036  2.1770  0.0429  0.4912
 2890SOL     OW20302   3.953   3.129   8.790  0.0351  0.2726 -0.4112
 2890SOL    HW120303   3.929   3.220   8.808 -1.6725 -0.1654 -0.4971
 2890SOL    HW220304   3.915   3.079   8.862  0.9760  0.9192  0.5472
 2891SOL     OW20305   1.496   3.486   2.753  0.0060  0.8084  0.3849
 2891SOL    HW120306   1.469   3.488   2.662  0.5019 -1.0070  0.1986
 2891SOL    HW220307   1.499   3.391   2.767  1.2689  1.1566  2.5679
 2892SOL     OW20308   2.220   3.703   4.621  0.1628  0.2796 -0.5239
 2892SOL    HW120309   2.207   3.650   4.543  1.9505  0.7317 -1.1340
 2892SOL    HW220310   2.246   3.644   4.692  2.0937  0.8858 -0.7150
 2893SOL     OW20311   1.374   2.651   3.095 -0.4683 -0.2410  0.0839
 2893SOL    HW120312   1.448   2.688   3.048 -1.0790  0.9147  0.0271
 2893SOL    HW220313   1.412   2.566   3.120 -0.3617  0.1113  1.1165
 2894SOL     OW20314   0.007   0.515   1.471 -0.2254 -0.0886 -0.0650
 2894SOL    HW120315   4.666   0.483   1.508  0.0122 -0.0845  0.4730
 2894SOL    HW220316   0.065   0.451   1.512  1.2436  0.8409 -0.6665
 2895SOL     OW20317   1.367   1.544   7.012 -0.1357 -0.4362 -0.0876
 2895SOL    HW120318   1.271   1.543   7.008 -0.0724 -3.9737 -0.5856
 2895SOL    HW220319   1.375   1.540   7.108 -1.0329 -1.1573 -0.0480
 2896SOL     OW20320   2.430   1.027  14.658 -0.5840  0.0799 -0.2898
 2896SOL    HW120321   2.341   1.022  14.622 -1.0776  0.5547  0.8352
 2896SOL    HW220322   2.454   0.934  14.656  1.5753  0.6523 -0.4054
 2897SOL     OW20323   0.175   3.739   4.472 -0.3277 -0.0175  0.2477
 2897SOL    HW120324   0.110   3.793   4.517 -0.8049  0.6129 -1.2124
 2897SOL    HW220325   0.142   3.653   4.498  0.5567 -0.5105 -0.2580
 2898SOL     OW20326   1.628   1.480   9.935  0.1539  0.6784  0.5182
 2898SOL    HW120327   1.635   1.535   9.857  1.2424  1.7487  1.3870
 2898SOL    HW220328   1.631   1.395   9.890 -0.4334 -0.7384  3.1478
 2899SOL     OW20329   0.272   3.421   8.497 -0.7876 -0.3827 -0.4814
 2899SOL    HW120330   0.326   3.374   8.560 -1.9326 -1.0586 -0.0079
 2899SOL    HW220331   0.212   3.355   8.464 -0.0068 -1.9436  1.2189
 2900SOL     OW20332   1.538   1.047   5.565 -0.7205  0.1306 -0.0053
 2900SOL    HW120333   1.445   1.056   5.542 -1.4146 -2.9884  1.6778
 2900SOL    HW220334   1.560   0.982   5.499  1.3251 -0.3653  1.1743
 2901SOL     OW20335   3.951   4.066   0.148 -0.5025  0.2829 -0.0229
 2901SOL    HW120336   3.935   4.044   0.056 -1.6629 -0.0718  0.2678
 2901SOL    HW220337   4.034   4.021   0.162 -0.2854  0.4826 -0.6645
 2902SOL     OW20338   2.218   0.687   4.744  0.4110  0.0494  0.0171
 2902SOL    HW120339   2.228   0.780   4.762 -0.2220  0.0689  0.2853
 2902SOL    HW220340   2.161   0.681   4.668 -1.5564  1.0331  1.4204
 2903SOL     OW20341   2.164   1.519   1.769  0.2654  0.2883 -0.5756
 2903SOL    HW120342   2.192   1.583   1.834  0.6970  0.0281 -0.5000
 2903SOL    HW220343   2.079   1.547   1.737  0.6639  2.9265  0.7188
 2904SOL     OW20344   0.954   2.799   2.811 -0.1757  0.1370  0.2970
 2904SOL    HW120345   0.925   2.805   2.720  1.7567 -0.2265 -0.3415
 2904SOL    HW220346   1.046   2.777   2.799 -0.1309  1.3093 -1.4185
 2905SOL     OW20347   2.134   1.691   3.017  0.1097  0.0233  0.2241
 2905SOL    HW120348   2.152   1.605   3.055 -0.2384  0.4762  1.3972
 2905SOL    HW220349   2.169   1.751   3.083  0.5328  1.5862 -1.4240
 2906SOL     OW20350   3.838   3.821   3.548 -0.1728 -0.4220  0.4687
 2906SOL    HW120351   3.834   3.768   3.628 -0.2655 -0.7357  0.2555
 2906SOL    HW220352   3.786   3.901   3.563  1.7138  0.6372  1.2533
 2907SOL     OW20353   1.599   1.474   7.394  0.4757 -0.0850 -0.2056
 2907SOL    HW120354   1.527   1.534   7.411 -1.2333 -1.8532 -1.2552
 2907SOL    HW220355   1.658   1.500   7.465  0.4548 -0.9138  0.1098
 2908SOL     OW20356   2.035   4.294   6.687  0.6228 -0.4717  0.0433
 2908SOL    HW120357   2.044   4.207   6.648  0.2966  0.2307 -1.6121
 2908SOL    HW220358   1.959   4.295   6.745 -0.2096 -0.9374 -1.0360
 2909SOL     OW20359   3.955   0.058  16.585 -0.6447 -0.5077 -0.6888
 2909SOL    HW120360   3.949   4.740  16.660 -0.4588  0.2269 -0.0975
 2909SOL    HW220361   4.005   0.129  16.625 -1.1184 -0.4178 -0.2706
 2910SOL     OW20362   4.529   0.751   6.642  0.0881  0.1490 -0.2593
 2910SOL    HW120363   4.590   0.800   6.586 -0.5158  1.0777 -0.0936
 2910SOL    HW220364   4.446   0.784   6.609  0.1537  0.7730  0.2132
 2911SOL     OW20365   3.278   2.099   3.066  0.1303  0.9571  0.5846
 2911SOL    HW120366   3.228   2.170   3.106 -3.0557 -0.2083 -1.3781
 2911SOL    HW220367   3.334   2.150   3.007 -0.3787 -0.0557 -0.7755
 2912SOL     OW20368   0.928   0.684   4.077  0.0958  0.1557 -0.4133
 2912SOL    HW120369   0.960   0.763   4.035  0.4456  0.6765  0.8208
 2912SOL    HW220370   0.998   0.660   4.138 -0.7387 -0.9890  0.0896
 2913SOL     OW20371   2.096   2.116   5.667  0.0354  0.4619 -0.1217
 2913SOL    HW120372   2.104   2.022   5.654 -1.6752  0.2140  0.6361
 2913SOL    HW220373   2.019   2.114   5.724  1.4969 -0.0746  1.8300
 2914SOL     OW20374   4.381   0.885   5.975 -0.7011  0.6703  0.3222
 2914SOL    HW120375   4.318   0.885   5.903 -0.7023 -3.6501  0.3337
 2914SOL    HW220376   4.454   0.924   5.927  0.1273 -2.0432 -0.6548
 2915SOL     OW20377   2.653   4.010   5.356 -0.6009  0.0949 -0.1582
 2915SOL    HW120378   2.692   4.073   5.296  2.2940 -2.3643 -0.8999
 2915SOL    HW220379   2.564   4.043   5.355 -0.5032  0.3685  0.2258
 2916SOL     OW20380   2.924   3.468  11.979  0.5803  0.0651 -0.3172
 2916SOL    HW120381   2.869   3.401  12.022  0.6247  0.2068 -0.0359
 2916SOL    HW220382   2.904   3.541  12.038 -0.4461 -0.4684  0.0006
 2917SOL     OW20383   4.108   3.343   5.334  0.2693  0.2306  0.3773
 2917SOL    HW120384   4.151   3.376   5.256 -1.5105 -0.2899 -0.8326
 2917SOL    HW220385   4.020   3.376   5.315 -0.5961 -2.4436 -0.2338
 2918SOL     OW20386   4.434   0.516  11.497 -0.0440  0.5568  0.2931
 2918SOL    HW120387   4.491   0.561  11.436 -0.9227  1.7141  0.3197
 2918SOL    HW220388   4.354   0.503  11.446  1.1409 -0.5073 -1.2823
 2919SOL     OW20389   0.509   0.878   4.709 -0.0978 -0.3486  0.4034
 2919SOL    HW120390   0.423   0.845   4.684  1.5078 -1.4087 -3.6414
 2919SOL    HW220391   0.518   0.957   4.656  1.7076 -2.1222 -1.9238
 2920SOL     OW20392   2.813   0.868   5.046  0.0511  0.3226 -0.0291
 2920SOL    HW120393   2.736   0.907   5.005 -1.4062 -2.9359 -0.3590
 2920SOL    HW220394   2.883   0.924   5.012 -1.1927  0.9974 -1.4543
 2921SOL     OW20395   4.155   0.859   3.150  0.0770  1.1901 -0.0085
 2921SOL    HW120396   4.070   0.854   3.107 -0.3849  0.9738  0.9358
 2921SOL    HW220397   4.170   0.954   3.142  3.4936  0.6201 -0.7197
 2922SOL     OW20398   1.299   0.775   2.188  0.0289 -0.1185  0.1498
 2922SOL    HW120399   1.358   0.846   2.164  0.1223 -0.4340 -0.5518
 2922SOL    HW220400   1.227   0.826   2.225  3.0517  3.6167  0.8533
 2923SOL     OW20401   1.653   4.595  16.721 -0.4321 -0.0723  0.0637
 2923SOL    HW120402   1.673   4.502  16.735 -2.6531 -0.5202  0.1772
 2923SOL    HW220403   1.593   4.604  16.795  0.2933  1.9026  0.4060
 2924SOL     OW20404   1.040   1.656   4.316 -0.0513  0.5491 -0.3467
 2924SOL    HW120405   1.113   1.714   4.296  1.4451 -1.1538  0.1896
 2924SOL    HW220406   1.026   1.672   4.409 -0.4937  1.6518 -0.6044
 2925SOL     OW20407   2.920   0.695   7.902 -0.2649 -0.4507 -0.2152
 2925SOL    HW120408   2.895   0.715   7.812 -1.9871  2.4777  0.9251
 2925SOL    HW220409   3.016   0.702   7.904 -0.3711  0.4634  1.4981
 2926SOL     OW20410   1.878   1.591   1.654  0.1509 -0.0704  0.0557
 2926SOL    HW120411   1.880   1.507   1.700  1.8412 -0.4547 -0.7265
 2926SOL    HW220412   1.784   1.604   1.656 -0.1274 -1.5820 -3.2419
 2927SOL     OW20413   3.463   4.082  10.930  0.2424  0.4814 -0.0022
 2927SOL    HW120414   3.466   4.060  11.023  0.1311 -1.6574 -0.5235
 2927SOL    HW220415   3.546   4.129  10.922 -0.2225  1.3381  0.1704
 2928SOL     OW20416   0.195   1.586   5.447  0.4520 -0.4428 -0.0478
 2928SOL    HW120417   0.126   1.613   5.386 -0.8184 -0.1417  1.5303
 2928SOL    HW220418   0.178   1.643   5.523 -0.2337 -0.6892 -0.0125
 2929SOL     OW20419   3.643   1.615   1.056  0.0337  0.1046  0.4170
 2929SOL    HW120420   3.582   1.665   1.002 -0.6942 -1.0019  0.2177
 2929SOL    HW220421   3.719   1.596   1.001  0.0463 -1.5152  0.9959
 2930SOL     OW20422   3.731   2.964  10.901 -0.2089  0.5292 -0.0046
 2930SOL    HW120423   3.687   2.896  10.851  0.2366  0.8835 -0.8871
 2930SOL    HW220424   3.797   2.988  10.836  0.4431 -0.1597  0.4051
 2931SOL     OW20425   3.791   0.958   6.039  0.1843  0.2595 -0.0140
 2931SOL    HW120426   3.732   0.930   5.968  1.8678 -0.7209 -1.0210
 2931SOL    HW220427   3.878   0.944   6.001 -1.1462 -0.6453 -2.7890
 2932SOL     OW20428   3.203   4.544   3.156 -0.0001 -0.0111  0.5181
 2932SOL    HW120429   3.244   4.552   3.242  0.1268  2.3497  0.2286
 2932SOL    HW220430   3.264   4.480   3.119 -0.1532  0.9986 -1.4693
 2933SOL     OW20431   3.656   4.597   7.776  0.5536 -0.3305 -0.2979
 2933SOL    HW120432   3.639   4.576   7.684 -3.7895 -0.7869  0.6372
 2933SOL    HW220433   3.587   4.543   7.813  0.2286  1.0378  1.0798
 2934SOL     OW20434   3.592   4.477  14.092  0.2230 -0.8080  0.6400
 2934SOL    HW120435   3.543   4.512  14.167 -1.4934 -3.0061  0.5312
 2934SOL    HW220436   3.596   4.384  14.116 -0.8556 -1.3848 -1.4844
 2935SOL     OW20437   2.786   4.052   8.174  0.0968  0.2205  0.4074
 2935SOL    HW120438   2.727   4.063   8.099  0.7924 -1.1399 -0.3446
 2935SOL    HW220439   2.847   4.124   8.159  1.4711 -0.6721  1.7163
 2936SOL     OW20440   1.859   3.422   2.662 -0.2468  0.1467 -0.4191
 2936SOL    HW120441   1.784   3.425   2.603  0.2662  0.6643 -1.0557
 2936SOL    HW220442   1.904   3.491   2.612  1.5938  0.5615  1.7879
 2937SOL     OW20443   3.493   0.174  12.295 -0.9348  0.0016 -0.7119
 2937SOL    HW120444   3.464   0.253  12.249  2.8298  1.0767 -1.2113
 2937SOL    HW220445   3.447   0.179  12.379 -1.8048  1.8530 -1.2942
 2938SOL     OW20446   1.505   4.307  16.552 -0.3155 -0.0524  0.3910
 2938SOL    HW120447   1.434   4.367  16.575  0.9018  1.2140  0.7905
 2938SOL    HW220448   1.569   4.323  16.621  0.1342 -0.4762  0.0752
 2939SOL     OW20449   2.780   1.771   7.978 -0.1133  0.6597 -0.0005
 2939SOL    HW120450   2.697   1.809   8.009 -0.2316  0.0932  0.3739
 2939SOL    HW220451   2.833   1.851   7.978 -0.6130  0.9889 -0.7099
 2940SOL     OW20452   2.003   2.919  12.505 -0.1053 -0.6656 -0.3145
 2940SOL    HW120453   1.974   2.828  12.499  0.9477 -1.0535  0.3836
 2940SOL    HW220454   1.998   2.940  12.412 -1.0210 -0.9153 -0.3180
 2941SOL     OW20455   4.733   3.942   3.035  0.0704 -0.3957 -0.0373
 2941SOL    HW120456   4.665   4.008   3.050  1.0974  0.5952  0.2665
 2941SOL    HW220457   0.032   3.949   3.122 -0.3540 -2.7900  0.3347
 2942SOL     OW20458   2.417   3.203   5.597 -0.4228 -0.9595  0.1188
 2942SOL    HW120459   2.331   3.241   5.612  0.0186 -0.1037  0.4737
 2942SOL    HW220460   2.405   3.141   5.525 -0.9424  1.6800 -2.0392
 2943SOL     OW20461   3.149   3.168  10.226 -0.1502 -0.2431  0.4979
 2943SOL    HW120462   3.224   3.182  10.168  0.6509  1.3533  1.9422
 2943SOL    HW220463   3.185   3.113  10.295  0.5374 -1.0659 -0.5074
 2944SOL     OW20464   1.537   1.941   4.109 -0.6849  0.2533  0.0860
 2944SOL    HW120465   1.521   1.999   4.035  0.0997 -1.1202 -1.1578
 2944SOL    HW220466   1.521   2.007   4.177 -1.3115  0.4467 -0.2495
 2945SOL     OW20467   2.346   4.525   6.412 -0.2244 -0.3148  0.0222
 2945SOL    HW120468   2.263   4.491   6.443 -0.8952 -0.0013 -1.4703
 2945SOL    HW220469   2.318   4.614   6.390  1.5519 -0.1803 -1.7622
 2946SOL     OW20470   3.735   1.033   8.943 -0.1844  0.3428  0.5880
 2946SOL    HW120471   3.747   0.954   8.997  2.4133 -0.5014 -1.1892
 2946SOL    HW220472   3.772   1.105   8.994 -1.1334  0.8711  0.5115
 2947SOL     OW20473   1.492   0.330  15.838  0.1629 -0.0019 -0.1699
 2947SOL    HW120474   1.546   0.400  15.802  1.1101 -1.2436 -1.1349
 2947SOL    HW220475   1.474   0.344  15.931 -1.2029  0.5373 -0.5072
 2948SOL     OW20476   0.254   4.230   6.077 -0.3524  0.3978 -0.8070
 2948SOL    HW120477   0.336   4.218   6.029  0.7034 -0.1141  1.1412
 2948SOL    HW220478   0.291   4.287   6.144 -0.0185 -0.3096 -0.3897
 2949SOL     OW20479   3.940   1.796   0.949 -0.3780 -0.1692 -0.8293
 2949SOL    HW120480   3.918   1.703   0.939 -2.3886  0.0254  1.5301
 2949SOL    HW220481   3.852   1.832   0.960  0.2284  0.7273  1.1894
 2950SOL     OW20482   3.224   0.548  17.304 -0.3354  0.2063 -0.3815
 2950SOL    HW120483   3.264   0.619  17.254 -1.2724  0.4989 -0.7239
 2950SOL    HW220484   3.296   0.487  17.318  0.3601  0.8477 -1.1383
 2951SOL     OW20485   2.729   0.733   8.661  0.1554 -0.4557 -0.0964
 2951SOL    HW120486   2.686   0.662   8.614  1.2234 -1.2862  0.1681
 2951SOL    HW220487   2.659   0.795   8.641 -0.6549 -1.9304 -1.8457
 2952SOL     OW20488   4.233   0.799  15.457  0.3137 -0.4204  0.2021
 2952SOL    HW120489   4.309   0.809  15.515  1.1854  0.0797 -1.0301
 2952SOL    HW220490   4.264   0.741  15.387  0.4462  1.3014 -1.1786
 2953SOL     OW20491   2.512   1.969   9.543  0.2820 -0.1884 -0.4988
 2953SOL    HW120492   2.448   1.951   9.611  2.1446 -1.6747  0.8560
 2953SOL    HW220493   2.594   1.936   9.581  1.0289  0.5269 -1.4938
 2954SOL     OW20494   4.291   2.624   7.267  0.4101 -0.2848 -0.2453
 2954SOL    HW120495   4.315   2.596   7.178  1.0604  1.0561 -0.4987
 2954SOL    HW220496   4.332   2.552   7.314  0.6075 -0.0306 -0.0302
 2955SOL     OW20497   1.489   4.579   6.893 -0.0890 -0.1463  0.4505
 2955SOL    HW120498   1.530   4.607   6.974  1.7055 -1.6706  0.0707
 2955SOL    HW220499   1.399   4.610   6.909  0.6737  1.0484  2.4148
 2956SOL     OW20500   4.098   0.143   7.610 -0.7251 -0.3884  0.2197
 2956SOL    HW120501   4.134   0.225   7.576 -0.5884  0.5842  2.6939
 2956SOL    HW220502   4.147   0.119   7.688 -0.7370 -3.1592 -0.6469
 2957SOL     OW20503   4.538   3.446   6.495  0.3403 -0.1484  0.2402
 2957SOL    HW120504   4.539   3.423   6.588 -1.6885 -1.6146 -0.1347
 2957SOL    HW220505   4.621   3.495   6.501  0.6763 -0.5254 -1.4371
 2958SOL     OW20506   1.701   2.852   8.487  0.2811  0.6418  0.8764
 2958SOL    HW120507   1.741   2.785   8.431 -0.9396  0.2047  0.5312
 2958SOL    HW220508   1.653   2.897   8.418 -2.0111  0.0367  2.0436
 2959SOL     OW20509   3.113   3.556  17.206 -0.3934  0.3065 -0.0265
 2959SOL    HW120510   3.074   3.640  17.181 -0.4388 -0.6081 -2.9771
 2959SOL    HW220511   3.096   3.495  17.135  2.2860  1.9211 -2.0536
 2960SOL     OW20512   1.171   4.573   8.510  0.2292 -0.2000 -0.2259
 2960SOL    HW120513   1.239   4.539   8.568 -0.3986  2.0119  1.8159
 2960SOL    HW220514   1.140   4.488   8.480 -0.2918  0.2076 -0.8412
 2961SOL     OW20515   1.423   4.738  17.331 -0.0881 -0.1726 -0.0888
 2961SOL    HW120516   1.364   0.002  17.256 -0.3039 -1.3370  0.0151
 2961SOL    HW220517   1.369   0.032  17.403  0.4655  4.0297 -1.6925
 2962SOL     OW20518   3.220   3.525  10.987  0.4272  0.2438 -0.2939
 2962SOL    HW120519   3.223   3.616  11.016  1.3674 -0.1225  0.7556
 2962SOL    HW220520   3.250   3.530  10.896  1.9813  0.0951  0.2082
 2963SOL     OW20521   3.343   2.983   3.684  0.6611 -0.1685 -0.2421
 2963SOL    HW120522   3.429   2.947   3.660  0.1470 -0.2315 -1.9493
 2963SOL    HW220523   3.359   2.983   3.778  0.0575  1.1679 -0.1558
 2964SOL     OW20524   1.631   2.450   0.108  0.1745 -0.1355 -0.3918
 2964SOL    HW120525   1.726   2.452   0.121 -0.0480 -0.2160  1.2214
 2964SOL    HW220526   1.632   2.464   0.013 -1.5127 -1.1716 -0.5535
 2965SOL     OW20527   0.546   4.658   1.974  0.6539  0.6305  0.1406
 2965SOL    HW120528   0.475   4.610   2.017 -0.6937  0.1620 -2.6151
 2965SOL    HW220529   0.606   4.612   2.033  0.1606  0.9235  0.8780
 2966SOL     OW20530   4.456   0.788   3.026 -0.2129 -0.9317 -0.3297
 2966SOL    HW120531   4.425   0.876   3.048 -1.2946 -0.9281 -1.8911
 2966SOL    HW220532   4.547   0.805   3.051 -0.2565 -0.6981 -0.3275
 2967SOL     OW20533   1.902   0.376   2.277 -0.1135  0.2701 -0.2070
 2967SOL    HW120534   1.923   0.462   2.313 -1.6002 -0.0827  1.4645
 2967SOL    HW220535   1.819   0.402   2.239 -0.3987 -0.4525 -0.0900
 2968SOL     OW20536   2.852   2.905   5.194  0.3272  0.1897 -0.2168
 2968SOL    HW120537   2.799   2.872   5.122  2.3526 -0.9085 -1.2285
 2968SOL    HW220538   2.801   2.981   5.220  0.3824  0.4277 -0.8011
 2969SOL     OW20539   3.927   4.570  17.166  0.3024  0.3515  0.1409
 2969SOL    HW120540   3.863   4.588  17.234  0.0895 -1.0753  0.3030
 2969SOL    HW220541   3.989   4.508  17.204  1.1403  2.2767  1.8870
 2970SOL     OW20542   0.600   3.794  13.503 -0.3433  0.3130 -0.1858
 2970SOL    HW120543   0.505   3.805  13.496 -0.6736 -1.2786  1.9756
 2970SOL    HW220544   0.616   3.714  13.453  1.6605  1.0179 -0.6530
 2971SOL     OW20545   0.832   3.933   4.986  0.3324  0.4158 -0.1442
 2971SOL    HW120546   0.890   3.920   4.912 -1.0479 -1.4209 -0.8938
 2971SOL    HW220547   0.761   3.869   4.982 -0.0546  0.7433  1.4092
 2972SOL     OW20548   3.599   1.406   2.839 -0.3300  0.3860 -0.2830
 2972SOL    HW120549   3.623   1.329   2.891 -0.6793 -0.6918 -1.7128
 2972SOL    HW220550   3.681   1.433   2.797 -0.6903 -0.4516 -1.5219
 2973SOL     OW20551   2.282   4.186   7.703 -0.5297 -0.2007 -0.0072
 2973SOL    HW120552   2.206   4.130   7.717  0.0945 -0.9933  0.2256
 2973SOL    HW220553   2.276   4.208   7.610  3.9560 -0.2874 -0.3174
 2974SOL     OW20554   2.447   4.641   7.486  0.4980  0.3724  0.2259
 2974SOL    HW120555   2.470   4.640   7.393 -0.7894  0.7086 -0.0967
 2974SOL    HW220556   2.531   4.608   7.518  1.0405 -0.6436 -2.2376
 2975SOL     OW20557   3.797   3.939   2.065  0.1677  0.1131 -0.2335
 2975SOL    HW120558   3.751   3.962   2.146 -1.3931  0.1918 -1.1462
 2975SOL    HW220559   3.880   3.912   2.103 -0.1913  1.0729  1.2377
 2976SOL     OW20560   2.882   3.301   4.549 -0.7013  0.0030  0.3547
 2976SOL    HW120561   2.904   3.351   4.470  0.1898  0.5043  0.9187
 2976SOL    HW220562   2.963   3.259   4.581  0.0497  0.5129 -0.8899
 2977SOL     OW20563   4.550   3.687   2.755 -0.2777  0.1882 -0.6262
 2977SOL    HW120564   4.500   3.765   2.781  0.1358 -0.3483  1.7167
 2977SOL    HW220565   4.586   3.673   2.842 -1.3254  0.5606 -0.1348
 2978SOL     OW20566   4.086   1.261   3.511 -0.1235 -0.1465 -0.0768
 2978SOL    HW120567   4.164   1.298   3.552 -1.0239  2.0070 -0.2998
 2978SOL    HW220568   4.127   1.192   3.458  0.8216 -0.5331  1.1627
 2979SOL     OW20569   1.347   4.254   3.700 -0.2190 -0.7507 -0.3520
 2979SOL    HW120570   1.373   4.165   3.726  2.6958 -0.3372 -1.9368
 2979SOL    HW220571   1.419   4.289   3.649  0.6578  0.1412  1.4893
 2980SOL     OW20572   2.545   1.451   5.294  0.0946  0.2265  0.3392
 2980SOL    HW120573   2.502   1.528   5.256  1.6716  0.5955 -0.7267
 2980SOL    HW220574   2.603   1.427   5.221  2.2031  0.0308  2.0806
 2981SOL     OW20575   2.483   3.422   3.533 -0.2213 -0.1358 -0.3943
 2981SOL    HW120576   2.523   3.337   3.517  0.4134 -0.4820  2.9383
 2981SOL    HW220577   2.417   3.396   3.598  0.1296 -0.0085  0.0125
 2982SOL     OW20578   1.206   3.602   7.991  0.0666 -0.3566  0.5119
 2982SOL    HW120579   1.130   3.573   8.041 -0.0740  0.3490  0.7027
 2982SOL    HW220580   1.235   3.516   7.960 -2.5839 -0.9594 -0.3522
 2983SOL     OW20581   0.890   1.422   1.731  0.2890  0.5175 -0.4371
 2983SOL    HW120582   0.949   1.347   1.737  0.5269  0.5719 -2.3770
 2983SOL    HW220583   0.872   1.445   1.823 -1.8596  2.6566 -1.3796
 2984SOL     OW20584   4.333   4.487   3.890  0.0582 -0.1469 -0.0824
 2984SOL    HW120585   4.365   4.499   3.801 -0.9984  0.1562 -0.4181
 2984SOL    HW220586   4.276   4.563   3.900 -1.1685 -0.8031 -2.0528
 2985SOL     OW20587   0.245   2.515  17.646  0.3516 -0.2621 -0.0252
 2985SOL    HW120588   0.158   2.530  17.684 -0.1277  1.8922 -1.9014
 2985SOL    HW220589   0.250   2.421  17.660  0.4437 -0.2882 -0.2314
 2986SOL     OW20590   2.380   2.159  17.073 -0.6743  0.2337  0.0126
 2986SOL    HW120591   2.345   2.103  17.003 -0.7533  0.3434 -0.0366
 2986SOL    HW220592   2.298   2.170  17.121 -1.0657 -1.2622 -0.3239
 2987SOL     OW20593   1.250   3.455   3.337  0.3541 -0.2362  0.5963
 2987SOL    HW120594   1.336   3.493   3.354 -0.3905  2.6789 -2.0224
 2987SOL    HW220595   1.190   3.529   3.352  0.1044 -0.1122 -1.0388
 2988SOL     OW20596   2.995   0.476  15.272 -0.6925  0.1581  0.4508
 2988SOL    HW120597   3.072   0.432  15.234 -0.2858  1.1235  0.1644
 2988SOL    HW220598   2.962   0.525  15.197  0.8016 -0.3034 -0.5105
 2989SOL     OW20599   2.253   1.768  11.351  0.2512 -0.3032  0.2275
 2989SOL    HW120600   2.176   1.807  11.310  1.0756  2.5878  1.4118
 2989SOL    HW220601   2.207   1.740  11.430  2.4283  0.2578  1.6884
 2990SOL     OW20602   3.322   2.024  17.203  0.2836 -0.0136 -0.0880
 2990SOL    HW120603   3.393   2.057  17.259 -1.0049  0.4136  1.2905
 2990SOL    HW220604   3.303   2.096  17.142 -0.0935 -0.8016 -0.8984
 2991SOL     OW20605   0.802   1.269   1.214  0.5194  0.6589 -0.4789
 2991SOL    HW120606   0.788   1.287   1.122 -1.8549 -1.5267 -0.5711
 2991SOL    HW220607   0.894   1.245   1.204  0.1031 -0.7990 -0.8603
 2992SOL     OW20608   0.225   3.678   5.974  0.1224 -0.6916  0.0737
 2992SOL    HW120609   0.179   3.595   5.966 -0.3948 -0.5251  1.2134
 2992SOL    HW220610   0.314   3.643   5.966 -0.0125 -0.9913 -0.1154
 2993SOL     OW20611   1.194   1.259   5.452 -0.2468 -0.8124 -0.5656
 2993SOL    HW120612   1.266   1.272   5.390 -0.0452 -0.1456 -0.1939
 2993SOL    HW220613   1.129   1.316   5.409 -0.2015 -0.3131  0.0300
 2994SOL     OW20614   2.203   3.937   0.716 -0.1534 -0.4247  0.1303
 2994SOL    HW120615   2.258   3.870   0.676 -1.5760  0.3601 -3.1134
 2994SOL    HW220616   2.209   4.007   0.651 -1.8042 -0.3093  0.1039
 2995SOL     OW20617   3.117   2.742   2.103 -0.2779 -0.2002 -0.2472
 2995SOL    HW120618   3.112   2.833   2.134 -2.1357  0.7118 -3.2666
 2995SOL    HW220619   3.110   2.698   2.188 -0.9711  0.1632 -0.1142
 2996SOL     OW20620   3.292   1.512  15.847 -0.1246  0.3540  0.1144
 2996SOL    HW120621   3.275   1.444  15.912 -0.2467  0.6065  0.3475
 2996SOL    HW220622   3.208   1.554  15.867  0.8470  1.5102  1.8025
 2997SOL     OW20623   2.191   0.985   9.260 -0.3628  0.3629  0.3386
 2997SOL    HW120624   2.174   1.019   9.172 -0.0667 -1.5626 -0.4495
 2997SOL    HW220625   2.124   0.922   9.283 -0.1304  0.2563  0.7235
 2998SOL     OW20626   0.849   2.383   9.476 -0.3454  0.3243  0.5433
 2998SOL    HW120627   0.855   2.355   9.385  2.1782 -3.1793  1.7923
 2998SOL    HW220628   0.810   2.305   9.514  0.6857  0.6273  2.2321
 2999SOL     OW20629   1.129   1.122   9.110 -0.5679 -0.2301 -0.2506
 2999SOL    HW120630   1.139   1.202   9.058 -0.7502 -0.0622 -0.0255
 2999SOL    HW220631   1.111   1.150   9.200  0.3286  0.5137 -0.3000
 3000SOL     OW20632   4.701   1.179   2.877  0.8179  0.2527  0.5789
 3000SOL    HW120633   4.652   1.199   2.957 -2.2145 -1.0976 -0.9459
 3000SOL    HW220634   0.032   1.241   2.887 -0.1385  1.3553  0.5394
 3001SOL     OW20635   0.062   4.560  11.670  0.5226 -0.7588 -0.0266
 3001SOL    HW120636   0.098   4.515  11.746  1.1094 -1.4911 -0.7345
 3001SOL    HW220637   0.117   4.638  11.663  1.9627 -1.6549  1.2052
 3002SOL     OW20638   4.518   4.260   9.752 -0.3389  0.3574 -0.2845
 3002SOL    HW120639   4.574   4.226   9.822  1.3730  0.9542 -1.3534
 3002SOL    HW220640   4.583   4.272   9.682 -0.3811  0.8713 -0.2337
 3003SOL     OW20641   0.526   1.565   6.471 -0.5080  0.2052 -0.3331
 3003SOL    HW120642   0.505   1.492   6.413 -0.4875  1.6765 -2.1799
 3003SOL    HW220643   0.503   1.644   6.421 -0.8125  0.3157 -0.0186
 3004SOL     OW20644   3.709   2.664   8.993  0.1204 -0.0670  0.6851
 3004SOL    HW120645   3.626   2.706   8.969 -0.1208 -1.2266 -0.4907
 3004SOL    HW220646   3.690   2.641   9.084 -1.2233 -1.3470  0.0815
 3005SOL     OW20647   1.829   2.170  11.430  0.9896  0.1786 -0.0241
 3005SOL    HW120648   1.758   2.125  11.385  0.4917  0.9894 -0.0499
 3005SOL    HW220649   1.900   2.106  11.436  0.9380  0.1011 -0.2384
 3006SOL     OW20650   3.298   1.236  15.761  0.1929 -0.2494  0.6607
 3006SOL    HW120651   3.335   1.152  15.733  0.0229  0.3447 -1.3026
 3006SOL    HW220652   3.350   1.293  15.706 -1.1520  0.5606  0.2266
 3007SOL     OW20653   3.825   1.094   1.725 -0.0911  0.1534 -0.3143
 3007SOL    HW120654   3.827   0.999   1.718 -0.8346 -0.0720  2.4742
 3007SOL    HW220655   3.765   1.119   1.656  1.3935  0.8548 -1.3424
 3008SOL     OW20656   1.405   0.873  11.123  0.3743 -0.1718 -0.2027
 3008SOL    HW120657   1.437   0.949  11.076 -0.2549  1.3673  1.8599
 3008SOL    HW220658   1.472   0.863  11.191  0.5948  0.4678 -0.3279
 3009SOL     OW20659   3.974   2.872   4.642 -0.4982  0.9284  0.1737
 3009SOL    HW120660   3.933   2.951   4.675  2.8567  3.3812 -1.4932
 3009SOL    HW220661   4.054   2.920   4.618  0.2340 -0.9709 -1.2781
 3010SOL     OW20662   0.976   1.559  11.876  0.4962 -0.1031 -0.4391
 3010SOL    HW120663   0.893   1.531  11.914  0.5055  0.2930 -0.1217
 3010SOL    HW220664   1.035   1.518  11.939  1.9626  3.0692  0.2693
 3011SOL     OW20665   1.154   2.827   0.492  0.0433 -0.0975  0.4136
 3011SOL    HW120666   1.116   2.878   0.421  0.6395  0.6773  0.6596
 3011SOL    HW220667   1.104   2.746   0.481  1.9173 -1.1176 -0.5479
 3012SOL     OW20668   0.658   0.763   2.867  0.1609  0.1828 -0.1786
 3012SOL    HW120669   0.660   0.668   2.872  1.1023  0.1215 -1.5557
 3012SOL    HW220670   0.720   0.792   2.933  1.0602 -0.1144 -0.8892
 3013SOL     OW20671   0.525   2.755   1.287 -0.0040 -0.2394 -0.3462
 3013SOL    HW120672   0.455   2.821   1.287  0.6341  0.4314 -2.2094
 3013SOL    HW220673   0.492   2.694   1.353 -0.8745  0.7081  0.0979
 3014SOL     OW20674   3.585   1.234  13.605  0.4017  0.3350  0.3247
 3014SOL    HW120675   3.560   1.321  13.637 -0.5716  0.5548 -1.0550
 3014SOL    HW220676   3.512   1.187  13.645  0.6585 -0.1110  0.2677
 3015SOL     OW20677   2.408   0.901   2.165 -0.0368 -0.5862 -0.4571
 3015SOL    HW120678   2.387   0.920   2.074  2.8836  1.4356 -0.6729
 3015SOL    HW220679   2.500   0.925   2.168 -0.9142  2.6727  0.0802
 3016SOL     OW20680   3.678   1.416   4.473 -0.2374 -0.4022  0.6422
 3016SOL    HW120681   3.724   1.468   4.407 -1.3271  1.3859  1.3062
 3016SOL    HW220682   3.643   1.490   4.523 -2.3472 -1.0493  0.1158
 3017SOL     OW20683   3.156   0.082   3.934  0.3761 -0.0223  0.6851
 3017SOL    HW120684   3.241   0.052   3.968  1.5193  0.7045 -1.4952
 3017SOL    HW220685   3.101   0.009   3.961 -0.1796  0.0726 -0.1908
 3018SOL     OW20686   3.883   1.056   3.379 -0.0438  0.1996 -0.0424
 3018SOL    HW120687   3.853   1.136   3.424 -1.0416 -1.4265  2.1991
 3018SOL    HW220688   3.894   1.077   3.286 -1.1390 -0.0928 -0.2398
 3019SOL     OW20689   4.132   1.448   8.599 -0.3123  0.2082  0.2210
 3019SOL    HW120690   4.193   1.380   8.569 -0.4767 -0.1236  0.6306
 3019SOL    HW220691   4.079   1.405   8.667 -0.3620 -2.2141 -1.3536
 3020SOL     OW20692   3.266   4.128  11.271  0.5705 -0.5760 -0.0506
 3020SOL    HW120693   3.239   4.075  11.346  0.3327 -1.8229 -1.0104
 3020SOL    HW220694   3.314   4.198  11.314  0.4568  1.0267 -2.5337
 3021SOL     OW20695   0.482   0.022   6.815 -0.3746 -0.0211 -0.0879
 3021SOL    HW120696   0.471   0.100   6.870 -3.0117 -1.2415  1.1236
 3021SOL    HW220697   0.534   4.721   6.884  0.7682  2.0981  0.3358
 3022SOL     OW20698   2.069   0.025   0.727 -0.7405  0.3800 -0.3691
 3022SOL    HW120699   2.093   0.054   0.639 -0.9476  0.2524 -0.4651
 3022SOL    HW220700   2.089   4.673   0.730 -0.6891  0.3486 -1.7059
 3023SOL     OW20701   4.239   0.590  12.933  0.7000  0.1837 -0.4518
 3023SOL    HW120702   4.169   0.531  12.906 -0.5237  1.4924 -0.1155
 3023SOL    HW220703   4.241   0.576  13.027 -0.2971  1.4795 -0.2330
 3024SOL     OW20704   0.282   3.289   1.342 -0.1246  0.8164  0.1912
 3024SOL    HW120705   0.275   3.383   1.360  3.0807  0.7466  1.8762
 3024SOL    HW220706   0.215   3.272   1.277  1.8931  0.5387 -1.8288
 3025SOL     OW20707   0.843   3.062   2.050  0.0414  0.7245  0.2869
 3025SOL    HW120708   0.837   2.969   2.026 -1.7103  0.7287  0.7010
 3025SOL    HW220709   0.757   3.098   2.029 -0.6819 -0.2259  1.6213
 3026SOL     OW20710   3.636   1.740   3.618  0.9278 -0.1477  0.0793
 3026SOL    HW120711   3.546   1.725   3.589  0.5643 -0.9802  1.6663
 3026SOL    HW220712   3.668   1.789   3.543  0.5833 -1.7908 -1.1552
 3027SOL     OW20713   0.612   4.357  12.264 -0.1494 -0.1509  0.2784
 3027SOL    HW120714   0.544   4.298  12.297 -0.7188  0.2117 -0.2520
 3027SOL    HW220715   0.627   4.408  12.344 -0.1297  0.3398 -0.0414
 3028SOL     OW20716   1.882   2.787   3.909  0.2868  0.0351  0.2685
 3028SOL    HW120717   1.892   2.882   3.918 -3.2014  0.3268  1.0739
 3028SOL    HW220718   1.898   2.777   3.815 -0.8331 -1.8662  0.2790
 3029SOL     OW20719   2.154   2.808  16.140 -0.1677  0.1722 -0.0470
 3029SOL    HW120720   2.178   2.737  16.199  0.6911  1.0764  0.6885
 3029SOL    HW220721   2.239   2.831  16.101  0.3318 -1.4676  0.0807
 3030SOL     OW20722   0.943   4.127   7.394 -0.9031 -0.1565  0.7532
 3030SOL    HW120723   0.913   4.204   7.443 -1.5714  0.0407  0.0382
 3030SOL    HW220724   0.903   4.147   7.309  0.0510  1.0682  0.5787
 3031SOL     OW20725   2.905   0.497   8.867  0.0840 -0.0616  0.2751
 3031SOL    HW120726   2.820   0.453   8.858 -1.2965  3.1020 -2.1882
 3031SOL    HW220727   2.936   0.467   8.952 -0.5116 -0.4039  0.3786
 3032SOL     OW20728   3.166   4.015   7.840 -0.2547  0.3134  0.3308
 3032SOL    HW120729   3.213   4.090   7.805  0.6890 -0.7229 -0.6230
 3032SOL    HW220730   3.072   4.036   7.842 -0.3938 -0.2628 -0.1037
 3033SOL     OW20731   3.872   3.375   7.048  0.3514  0.2850  0.2273
 3033SOL    HW120732   3.894   3.422   7.129 -1.5448  2.5025 -0.5381
 3033SOL    HW220733   3.798   3.323   7.080 -0.1233 -1.0696 -3.0893
 3034SOL     OW20734   2.280   3.991   1.537  0.1658 -0.1472 -0.9507
 3034SOL    HW120735   2.226   4.059   1.495  2.7259  1.8843 -1.0013
 3034SOL    HW220736   2.229   3.981   1.617  0.5699 -0.3909 -0.7255
 3035SOL     OW20737   4.592   2.080   4.480 -0.6222 -0.1978  0.0420
 3035SOL    HW120738   4.512   2.037   4.451 -0.2166 -0.6890 -0.3539
 3035SOL    HW220739   4.646   2.005   4.456 -1.9112 -1.1778  0.1809
 3036SOL     OW20740   1.610   2.820   6.984  0.0973 -0.1671  0.3736
 3036SOL    HW120741   1.684   2.823   6.923  1.4775 -0.1945  2.0529
 3036SOL    HW220742   1.542   2.792   6.923 -1.0288  1.9611  0.6390
 3037SOL     OW20743   4.320   4.422   4.248 -0.3182 -0.6849  0.1100
 3037SOL    HW120744   4.341   4.480   4.321 -1.5224  0.3822 -0.4076
 3037SOL    HW220745   4.378   4.455   4.179 -0.1043  1.2369  1.2343
 3038SOL     OW20746   0.011   1.782   9.345  0.1488 -0.7121 -0.3157
 3038SOL    HW120747   0.037   1.714   9.407 -0.1438 -0.4855  0.0568
 3038SOL    HW220748   4.700   1.835   9.406  0.1753 -0.5062 -0.4733
 3039SOL     OW20749   2.953   3.724  10.438 -0.0439 -0.0982 -0.1795
 3039SOL    HW120750   2.995   3.781  10.502  0.6716  1.0872 -1.7014
 3039SOL    HW220751   2.973   3.642  10.485  2.0517 -0.3817 -1.5671
 3040SOL     OW20752   4.438   1.481   6.743  0.4118 -0.0169 -0.1463
 3040SOL    HW120753   4.442   1.544   6.671  0.3052  1.5227  1.1941
 3040SOL    HW220754   4.507   1.416   6.727  1.1897  0.6590  0.4261
 3041SOL     OW20755   3.385   1.457   1.999  0.1492 -0.7861 -0.4777
 3041SOL    HW120756   3.377   1.363   1.988  0.0674 -0.7136 -1.0311
 3041SOL    HW220757   3.359   1.489   1.912 -3.3912  0.2260  0.9213
 3042SOL     OW20758   4.738   1.707   5.279  0.4969  0.3495 -0.4268
 3042SOL    HW120759   0.023   1.781   5.224  0.7003  0.6359  0.0558
 3042SOL    HW220760   4.651   1.736   5.309  0.1905 -1.4898  0.4446
 3043SOL     OW20761   2.854   3.669  17.312 -0.4138 -0.0224  0.3835
 3043SOL    HW120762   2.904   3.720  17.248 -0.1937  0.8617  1.2666
 3043SOL    HW220763   2.886   3.708  17.393 -0.0755 -2.3091  1.3464
 3044SOL     OW20764   3.065   0.266   6.469 -0.2272  0.2273  0.1654
 3044SOL    HW120765   3.049   0.281   6.562  0.2739 -2.9700  0.7929
 3044SOL    HW220766   3.160   0.270   6.459  0.2466 -1.2598  3.7855
 3045SOL     OW20767   1.750   1.108  11.648  0.5833  1.1085 -0.7110
 3045SOL    HW120768   1.740   1.149  11.562  0.0807 -0.8154 -1.5925
 3045SOL    HW220769   1.801   1.170  11.699  1.7321 -0.8690  0.5258
 3046SOL     OW20770   3.070   4.267  13.205  0.0736  0.0303  0.5461
 3046SOL    HW120771   2.987   4.224  13.183  0.4072  0.0906 -0.8625
 3046SOL    HW220772   3.123   4.214  13.145  2.1798  3.3226 -0.5347
 3047SOL     OW20773   3.161   1.805   3.374 -0.2549 -0.0567 -0.3990
 3047SOL    HW120774   3.115   1.879   3.334 -0.7439 -0.3116 -0.3063
 3047SOL    HW220775   3.160   1.747   3.298 -3.2317  1.5158 -1.5408
 3048SOL     OW20776   2.719   4.121   1.388  0.1246  0.3693  0.1769
 3048SOL    HW120777   2.623   4.119   1.386  0.1211 -1.5161  1.8407
 3048SOL    HW220778   2.732   4.206   1.430 -1.5888  0.8084 -0.2041
 3049SOL     OW20779   4.430   0.580  14.287  0.3746 -0.4966  0.3848
 3049SOL    HW120780   4.522   0.558  14.273  0.3616 -0.9552  1.0422
 3049SOL    HW220781   4.404   0.552  14.199  1.9535 -1.1059  0.1218
 3050SOL     OW20782   4.348   0.695   7.355  0.1763 -0.0532 -0.4139
 3050SOL    HW120783   4.392   0.692   7.440 -1.8914 -0.1152  0.6722
 3050SOL    HW220784   4.360   0.605   7.323 -0.5783  0.3106 -1.6865
 3051SOL     OW20785   1.886   0.021   8.553  0.3996  0.1908 -0.3604
 3051SOL    HW120786   1.922   0.096   8.506  3.7667 -2.2629 -1.7681
 3051SOL    HW220787   1.823   0.066   8.609  2.3277  0.8498  1.2806
 3052SOL     OW20788   3.198   1.027   8.355  0.1196 -0.5153  0.9071
 3052SOL    HW120789   3.154   0.982   8.428  1.1063 -0.9137  1.2466
 3052SOL    HW220790   3.152   0.990   8.279 -1.3798 -0.6081  1.8472
 3053SOL     OW20791   3.634   1.511   3.379 -0.4474 -0.4283  0.2672
 3053SOL    HW120792   3.569   1.531   3.447 -0.6893 -0.8206  0.1450
 3053SOL    HW220793   3.711   1.497   3.434  0.3251 -0.4138 -0.8172
 3054SOL     OW20794   0.506   2.053   2.930  0.2584 -0.2859  0.4774
 3054SOL    HW120795   0.449   2.108   2.876 -1.6193 -0.0268  2.7026
 3054SOL    HW220796   0.512   1.975   2.875  0.6476 -0.2673  0.4984
 3055SOL     OW20797   4.034   3.864  14.003 -0.1428 -0.1674 -0.1866
 3055SOL    HW120798   3.984   3.938  13.970 -0.5048  0.0749  0.9090
 3055SOL    HW220799   4.056   3.905  14.087 -1.1266  1.0617 -0.5405
 3056SOL     OW20800   2.977   0.314   6.717  0.3848  0.1121  0.4660
 3056SOL    HW120801   2.911   0.382   6.734 -0.9198 -0.9655 -0.2626
 3056SOL    HW220802   2.918   0.239   6.717  0.0493  0.3702 -2.2191
 3057SOL     OW20803   2.615   2.792   5.536 -0.1508 -0.1420  0.6803
 3057SOL    HW120804   2.689   2.795   5.475 -1.0619  0.8101 -0.3815
 3057SOL    HW220805   2.626   2.876   5.581 -1.7364  0.5241 -0.1880
 3058SOL     OW20806   3.820   2.078  13.143 -0.3845  0.0421  0.1069
 3058SOL    HW120807   3.809   1.988  13.175  0.8367 -0.8797 -2.0524
 3058SOL    HW220808   3.747   2.087  13.082 -0.4670 -1.2881  0.0009
 3059SOL     OW20809   2.164   1.368  11.409  0.2937  0.5581 -0.0583
 3059SOL    HW120810   2.206   1.282  11.406 -2.4957 -0.8627  1.3275
 3059SOL    HW220811   2.233   1.432  11.424 -3.0425  3.4159  3.1394
 3060SOL     OW20812   0.035   3.813   2.163 -0.6288  0.0731 -0.0298
 3060SOL    HW120813   0.085   3.860   2.229 -0.5308  0.4645 -0.3858
 3060SOL    HW220814   0.030   3.726   2.202 -1.9415 -0.0542 -0.4873
 3061SOL     OW20815   4.390   0.358  12.771 -0.3781  0.4586  0.2925
 3061SOL    HW120816   4.331   0.387  12.841 -0.3757 -0.5373  0.7012
 3061SOL    HW220817   4.460   0.424  12.770  1.3995 -1.4194  2.4065
 3062SOL     OW20818   4.397   0.576  11.764  0.1278  0.2088  0.6216
 3062SOL    HW120819   4.334   0.644  11.787  0.0313  0.3108  0.0514
 3062SOL    HW220820   4.408   0.583  11.669  0.0774 -1.5419  0.4834
 3063SOL     OW20821   0.169   0.132   9.381  0.5381  0.2921  0.4292
 3063SOL    HW120822   0.143   0.159   9.469 -0.6176 -1.1732  0.5274
 3063SOL    HW220823   0.162   0.208   9.323  2.0308  2.3734  2.9869
 3064SOL     OW20824   2.518   2.231   4.784 -0.0374 -0.2982 -0.0444
 3064SOL    HW120825   2.501   2.142   4.753  0.9179 -1.6000  3.2775
 3064SOL    HW220826   2.600   2.236   4.736  0.6153 -0.4201  1.0771
 3065SOL     OW20827   3.282   2.409  15.957 -0.6388  0.0362 -0.2707
 3065SOL    HW120828   3.336   2.356  15.899  0.8822 -0.3788  1.5373
 3065SOL    HW220829   3.312   2.375  16.041  0.0066  1.4033  0.0395
 3066SOL     OW20830   4.089   3.601  12.455 -0.0801  0.5947 -0.3995
 3066SOL    HW120831   4.078   3.679  12.508 -0.8092 -0.2187  0.6457
 3066SOL    HW220832   4.002   3.562  12.445 -0.7608  1.8697  0.6857
 3067SOL     OW20833   2.358   3.936   7.001  0.3421 -0.3612  0.5559
 3067SOL    HW120834   2.271   3.902   7.018 -0.2161 -0.4917 -2.5028
 3067SOL    HW220835   2.351   4.029   7.024  0.3275 -0.2326  0.0314
 3068SOL     OW20836   3.218   3.514   2.720 -0.2009 -0.1912 -0.0102
 3068SOL    HW120837   3.154   3.519   2.649 -0.2542  1.0274  0.1379
 3068SOL    HW220838   3.307   3.522   2.688  0.4180  1.1309  2.0363
 3069SOL     OW20839   3.917   1.000   6.278 -0.1714  0.0380  0.0956
 3069SOL    HW120840   3.883   0.977   6.192 -1.4253  2.7959 -0.1443
 3069SOL    HW220841   3.905   1.094   6.266 -3.3887 -0.6494 -1.9534
 3070SOL     OW20842   4.144   3.072   5.312  0.1118 -0.3954  0.0717
 3070SOL    HW120843   4.137   3.167   5.318  2.1645 -0.0817 -2.5963
 3070SOL    HW220844   4.208   3.064   5.383  1.8987 -0.5531 -1.5632
 3071SOL     OW20845   1.923   2.980   6.574  0.0766 -0.0613 -0.5795
 3071SOL    HW120846   1.994   3.028   6.533  0.1363 -1.6620 -2.3422
 3071SOL    HW220847   1.948   2.888   6.562 -2.1585 -0.6463 -0.6874
 3072SOL     OW20848   4.584   3.094   6.087  0.2930 -0.3829 -0.1339
 3072SOL    HW120849   4.672   3.060   6.102 -0.1147 -0.7975  1.2707
 3072SOL    HW220850   4.546   3.028   6.028  0.2389 -2.7460  2.5588
 3073SOL     OW20851   1.012   0.524   5.212 -0.1216 -0.8669 -0.3900
 3073SOL    HW120852   1.071   0.578   5.159  0.4563 -2.0107 -0.9370
 3073SOL    HW220853   0.976   0.580   5.280 -1.2684 -0.8197 -1.0346
 3074SOL     OW20854   3.028   2.000   3.246 -0.3913  0.1444 -0.7332
 3074SOL    HW120855   3.011   2.093   3.238  0.6774  0.2829 -1.5241
 3074SOL    HW220856   2.964   1.964   3.184 -3.4325  1.4754  1.6630
 3075SOL     OW20857   2.605   3.871   8.519  0.5704  0.2069 -0.3832
 3075SOL    HW120858   2.530   3.873   8.460 -0.0691 -0.2521  0.4156
 3075SOL    HW220859   2.611   3.777   8.536  1.4689  0.0796 -1.4111
 3076SOL     OW20860   0.209   1.071  17.105  0.5973  0.4848 -0.3646
 3076SOL    HW120861   0.234   1.162  17.125  0.2065  0.8979 -1.7958
 3076SOL    HW220862   0.117   1.068  17.132  1.0081 -0.9470  0.9124
 3077SOL     OW20863   0.380   2.137   3.786  0.4521  0.7246 -0.3451
 3077SOL    HW120864   0.425   2.215   3.753  0.0068  1.1545  0.0478
 3077SOL    HW220865   0.444   2.084   3.833  0.2915  0.8198 -0.0141
 3078SOL     OW20866   4.453   2.854   4.183 -0.0010  0.9519  0.3585
 3078SOL    HW120867   4.400   2.868   4.261 -0.5575 -1.0229  0.3316
 3078SOL    HW220868   4.542   2.873   4.212  0.4511  0.9472 -1.0252
 3079SOL     OW20869   0.263   3.323   2.115 -0.2313  0.0337  0.0321
 3079SOL    HW120870   0.172   3.319   2.146 -0.3269 -0.0778 -0.2677
 3079SOL    HW220871   0.244   3.336   2.022 -1.2617 -1.6853  0.0107
 3080SOL     OW20872   4.039   2.556  15.763  0.4073 -0.3891 -0.2061
 3080SOL    HW120873   4.044   2.615  15.688  0.3446  0.4076  0.4114
 3080SOL    HW220874   4.020   2.611  15.839 -0.2538  1.0791 -1.4414
 3081SOL     OW20875   2.342   1.586   4.422 -0.1654 -0.2910 -0.3585
 3081SOL    HW120876   2.406   1.657   4.427 -0.2744 -0.1139 -1.4254
 3081SOL    HW220877   2.331   1.584   4.327 -2.4061  1.6295 -0.1334
 3082SOL     OW20878   2.302   0.012   4.052  0.1910 -0.4597 -0.0009
 3082SOL    HW120879   2.391   0.026   4.020  0.8244  0.0142  1.9697
 3082SOL    HW220880   2.261   0.020   3.966 -1.1676 -1.1488  0.5906
 3083SOL     OW20881   1.992   1.195   3.540  0.3570  0.1245 -0.3911
 3083SOL    HW120882   2.082   1.191   3.508  1.2420 -2.9319  2.4904
 3083SOL    HW220883   2.005   1.126   3.605  0.0774  1.8159  1.4515
 3084SOL     OW20884   0.482   2.701   3.786 -0.2031  0.1543  0.5259
 3084SOL    HW120885   0.498   2.662   3.872  0.1618 -1.6756 -0.3819
 3084SOL    HW220886   0.404   2.652   3.759 -1.5038  2.5216  0.0247
 3085SOL     OW20887   3.630   1.958   5.551  0.8105  0.1777  0.5134
 3085SOL    HW120888   3.553   1.933   5.602 -0.0369 -2.6714 -2.1913
 3085SOL    HW220889   3.591   2.000   5.474 -1.7789 -1.7474  0.7679
 3086SOL     OW20890   4.272   2.537   1.647  0.9530  0.3144 -0.1439
 3086SOL    HW120891   4.311   2.624   1.635  0.3638  0.2986 -2.0272
 3086SOL    HW220892   4.356   2.495   1.627  0.2512 -0.7346 -0.8628
 3087SOL     OW20893   3.666   3.715   4.445 -0.6443 -0.1380  0.1265
 3087SOL    HW120894   3.733   3.673   4.390 -2.1131 -1.0542 -0.9795
 3087SOL    HW220895   3.706   3.706   4.531  0.7848  1.6640 -0.3462
 3088SOL     OW20896   2.294   1.895   4.608  0.2574  0.8186 -0.3275
 3088SOL    HW120897   2.205   1.923   4.586 -0.0295 -0.4037 -0.7725
 3088SOL    HW220898   2.317   1.853   4.525 -2.0703  2.1904 -1.6657
 3089SOL     OW20899   4.441   4.019   9.212 -0.0419 -0.3038 -0.0523
 3089SOL    HW120900   4.392   4.000   9.132 -0.5298 -0.4257  0.2734
 3089SOL    HW220901   4.425   3.940   9.264  0.2165 -1.7236 -2.1182
 3090SOL     OW20902   1.002   3.879   5.407  0.3662  0.4895  0.1664
 3090SOL    HW120903   1.042   3.956   5.449  1.7262 -0.9974  1.6284
 3090SOL    HW220904   1.057   3.877   5.328  2.2010 -1.0000  1.4782
 3091SOL     OW20905   0.278   3.562  11.194 -0.3018  0.1690 -0.0863
 3091SOL    HW120906   0.292   3.657  11.200 -1.3201  0.2956  0.3780
 3091SOL    HW220907   0.365   3.532  11.221 -0.0570  0.3442 -0.6964
 3092SOL     OW20908   3.433   2.442   8.397  0.3868 -0.2584  0.0190
 3092SOL    HW120909   3.340   2.465   8.390 -0.1054 -2.7900 -1.5453
 3092SOL    HW220910   3.442   2.370   8.335 -1.2500 -3.0794  3.0023
 3093SOL     OW20911   3.807   0.207   3.688  0.9034  0.0795  0.0685
 3093SOL    HW120912   3.874   0.248   3.633 -0.4524  0.3735 -1.3754
 3093SOL    HW220913   3.786   0.277   3.750  2.2516 -0.0569  0.6744
 3094SOL     OW20914   2.159   4.198   1.440  0.2289  0.0924 -0.0205
 3094SOL    HW120915   2.209   4.274   1.411 -0.1820  0.6970  0.8305
 3094SOL    HW220916   2.076   4.243   1.459  0.5751  0.9366 -0.4933
 3095SOL     OW20917   0.208   3.606   4.212  0.0867  0.5989 -0.0591
 3095SOL    HW120918   0.202   3.601   4.307 -0.3924 -1.8696 -0.2140
 3095SOL    HW220919   0.146   3.541   4.178 -1.3448  0.8141  2.1517
 3096SOL     OW20920   0.926   2.863   7.372  0.3104 -0.0221 -0.0067
 3096SOL    HW120921   0.838   2.826   7.381 -0.5326  1.4131 -2.5799
 3096SOL    HW220922   0.966   2.808   7.305  1.8348  1.6470 -0.4544
 3097SOL     OW20923   1.113   2.098   9.293 -0.1206  0.7534  0.2580
 3097SOL    HW120924   1.033   2.150   9.294 -0.1649  0.6523  1.3149
 3097SOL    HW220925   1.098   2.053   9.210 -1.2392 -2.3347  2.1459
 3098SOL     OW20926   3.184   3.496   8.813 -0.4273  0.0471  0.2118
 3098SOL    HW120927   3.133   3.448   8.878  0.3183 -0.5572  0.3471
 3098SOL    HW220928   3.149   3.585   8.804  2.2582  1.1888  1.0471
 3099SOL     OW20929   4.261   1.176  16.991  1.0420  0.2412  0.2053
 3099SOL    HW120930   4.194   1.126  16.945  1.0619  1.5499 -1.2225
 3099SOL    HW220931   4.233   1.262  16.960 -1.3271 -0.6112 -0.0278
 3100SOL     OW20932   3.842   0.119   7.555 -0.8105  0.0464  0.3066
 3100SOL    HW120933   3.811   0.126   7.646  0.0550 -1.0599  0.6931
 3100SOL    HW220934   3.935   0.126   7.579 -0.2096 -2.4765 -1.3048
 3101SOL     OW20935   1.482   2.992   1.557 -0.2604  0.0260  0.4767
 3101SOL    HW120936   1.458   2.917   1.503  2.7862  0.1765 -1.1120
 3101SOL    HW220937   1.457   3.068   1.504 -2.1514 -2.0506 -1.6568
 3102SOL     OW20938   4.381   0.621   8.972 -0.2247  0.0180  0.7024
 3102SOL    HW120939   4.347   0.696   8.924  0.7920  0.8289  1.2496
 3102SOL    HW220940   4.388   0.552   8.906  2.5044 -1.0177  2.0704
 3103SOL     OW20941   4.704   0.109   4.415  0.1153 -0.1148 -0.7148
 3103SOL    HW120942   4.726   0.202   4.405 -0.6244 -0.1404 -2.5555
 3103SOL    HW220943   4.719   0.069   4.329  2.1879 -1.5248  0.2984
 3104SOL     OW20944   3.399   2.980   2.535 -0.5168  0.2260  0.2290
 3104SOL    HW120945   3.392   3.074   2.547  0.6880  0.3277  0.1156
 3104SOL    HW220946   3.363   2.958   2.449  1.0978  3.3385 -1.2073
 3105SOL     OW20947   4.623   1.577  14.738  0.1398  0.2660 -0.1711
 3105SOL    HW120948   4.583   1.494  14.765 -1.7443  1.1608 -0.2874
 3105SOL    HW220949   4.663   1.604  14.821 -1.0966  0.6906  0.2846
 3106SOL     OW20950   4.620   1.866  10.365 -0.0686  0.2902 -0.2633
 3106SOL    HW120951   4.665   1.864  10.280  1.2893  1.5418  0.4179
 3106SOL    HW220952   4.598   1.958  10.382 -0.9580 -0.2656  1.5101
 3107SOL     OW20953   4.712   0.943   3.753  0.4133 -0.4674  0.2018
 3107SOL    HW120954   4.739   0.991   3.831 -1.2415 -0.0870  0.5228
 3107SOL    HW220955   0.039   0.975   3.694  0.1426  0.0985  0.2044
 3108SOL     OW20956   3.366   0.969  10.108  0.3491 -0.3136  0.2445
 3108SOL    HW120957   3.317   1.050  10.115  0.6246 -0.0522 -0.8597
 3108SOL    HW220958   3.356   0.921  10.191  2.9840 -0.1052  0.6896
 3109SOL     OW20959   4.341   2.724   1.067  0.4111  0.1189 -0.0726
 3109SOL    HW120960   4.282   2.651   1.044  2.2091 -2.0584  2.2270
 3109SOL    HW220961   4.424   2.715   1.020  0.3954  3.6845 -0.7476
 3110SOL     OW20962   1.557   0.839   5.343  0.3377 -1.0379 -0.2121
 3110SOL    HW120963   1.464   0.829   5.362  0.4657 -0.1928  0.8633
 3110SOL    HW220964   1.553   0.852   5.248 -0.8479  0.1564  0.0106
 3111SOL     OW20965   1.962   0.056   4.102  0.5469 -0.7850 -0.1902
 3111SOL    HW120966   1.881   0.015   4.131 -2.1593  3.4926 -1.7978
 3111SOL    HW220967   2.010   0.050   4.184 -0.4682 -1.8691  0.3281
 3112SOL     OW20968   2.477   3.199   2.578 -0.2377 -0.1800 -0.1289
 3112SOL    HW120969   2.405   3.230   2.633 -0.4447 -1.8023  0.5169
 3112SOL    HW220970   2.550   3.207   2.638 -2.3400  3.0457  2.0017
 3113SOL     OW20971   2.990   0.366   5.229 -0.2813  0.2034 -0.3394
 3113SOL    HW120972   3.005   0.429   5.159  1.5647  2.1025  1.7931
 3113SOL    HW220973   3.026   0.282   5.197 -1.2616 -0.5257  0.4772
 3114SOL     OW20974   3.028   1.054   1.076 -0.2781  0.2359 -0.3103
 3114SOL    HW120975   2.935   1.073   1.081 -0.2606  0.2868 -0.1794
 3114SOL    HW220976   3.031   0.959   1.079 -1.1896  0.2189 -0.1158
 3115SOL     OW20977   1.277   2.199   0.460  0.1879  0.6523 -0.4386
 3115SOL    HW120978   1.346   2.134   0.469 -1.0407 -0.5078  0.7217
 3115SOL    HW220979   1.331   2.272   0.432  0.5515  0.2131 -0.8864
 3116SOL     OW20980   4.627   1.542   6.220  0.1372 -0.1178 -0.9536
 3116SOL    HW120981   4.593   1.554   6.131 -0.1010  0.6069 -0.7697
 3116SOL    HW220982   4.655   1.632   6.239  2.0133 -0.3149 -2.8704
 3117SOL     OW20983   4.492   0.377  10.083  0.1814 -0.1603 -0.8549
 3117SOL    HW120984   4.407   0.363  10.123 -0.0916  0.5790 -1.1791
 3117SOL    HW220985   4.468   0.388   9.991  0.5762 -2.0829 -1.2009
 3118SOL     OW20986   4.385   2.313  12.677 -0.1387 -0.3708 -0.4035
 3118SOL    HW120987   4.453   2.274  12.621 -1.7222 -0.6435 -2.1113
 3118SOL    HW220988   4.446   2.337  12.748 -0.0062  1.3159 -1.1028
 3119SOL     OW20989   2.048   3.721   5.932  0.1667 -0.3348  0.4228
 3119SOL    HW120990   2.119   3.783   5.949 -0.1025  0.8432 -2.7915
 3119SOL    HW220991   2.029   3.739   5.840 -0.1268 -0.4819  0.4549
 3120SOL     OW20992   0.047   0.042  15.775  0.7552  0.1897 -0.1206
 3120SOL    HW120993   4.721   4.720  15.802  0.5682  0.3652 -0.1756
 3120SOL    HW220994   0.050   0.101  15.850  0.9083  0.1415 -0.0879
 3121SOL     OW20995   4.520   3.710  11.816  0.1324 -0.2875 -0.1842
 3121SOL    HW120996   4.469   3.711  11.897 -1.3635 -0.0964 -1.1296
 3121SOL    HW220997   4.476   3.787  11.780  0.5632 -0.4352 -1.0418
 3122SOL     OW20998   2.902   1.285   2.600 -0.1247 -0.2170  0.3371
 3122SOL    HW120999   2.813   1.319   2.592 -0.8060 -1.3805  3.0778
 3122SOL    HW221000   2.895   1.189   2.600  0.7225 -0.2696  0.8806
 3123SOL     OW21001   0.010   4.449   5.499 -0.0118  0.0100  0.4009
 3123SOL    HW121002   4.727   4.535   5.535  0.0151  0.9998 -1.9607
 3123SOL    HW221003   0.001   4.389   5.573 -0.5071 -0.4414 -0.0189
 3124SOL     OW21004   1.488   4.674   1.913  0.1489 -0.1927 -0.0047
 3124SOL    HW121005   1.421   4.723   1.865  0.7819  1.1699  0.5022
 3124SOL    HW221006   1.538   4.639   1.839  0.0592 -2.3535  0.9674
 3125SOL     OW21007   0.843   2.152   6.858  0.2323 -0.5047  0.3230
 3125SOL    HW121008   0.900   2.169   6.932  0.8950  0.9886 -0.5396
 3125SOL    HW221009   0.895   2.124   6.782 -1.0091 -0.1094 -0.6764
 3126SOL     OW21010   3.672   4.310   6.081 -0.0016  0.2671 -0.3056
 3126SOL    HW121011   3.611   4.287   6.010 -0.7194 -0.8686  0.6829
 3126SOL    HW221012   3.649   4.398   6.108  2.0864  0.5219  0.6344
 3127SOL     OW21013   0.639   0.849  11.229  0.3548 -0.3158  0.3410
 3127SOL    HW121014   0.638   0.942  11.207  2.5393 -0.4658 -0.2895
 3127SOL    HW221015   0.591   0.848  11.313 -1.9860  0.0473 -0.9793
 3128SOL     OW21016   2.818   4.551   3.511 -0.3435  0.2049 -0.3415
 3128SOL    HW121017   2.786   4.566   3.422  0.0435 -0.2078 -0.5518
 3128SOL    HW221018   2.865   4.624   3.552 -1.9268  1.5538 -0.9269
 3129SOL     OW21019   4.320   3.312   0.761 -0.2210  0.4316 -0.0095
 3129SOL    HW121020   4.351   3.227   0.792 -1.9821  0.2312  1.2385
 3129SOL    HW221021   4.404   3.350   0.736 -0.0336 -1.0842 -1.7049
 3130SOL     OW21022   2.535   1.864   0.756 -0.4545  0.0345  0.5330
 3130SOL    HW121023   2.583   1.937   0.718 -2.0155  0.8074  0.0260
 3130SOL    HW221024   2.584   1.844   0.835  0.4843  2.3688  0.5349
 3131SOL     OW21025   2.545   0.787   4.483 -0.1350  0.2655 -0.8481
 3131SOL    HW121026   2.532   0.802   4.576  1.1131  0.7629 -0.7430
 3131SOL    HW221027   2.497   0.706   4.465  2.0340 -0.7613 -2.0800
 3132SOL     OW21028   0.335   1.760  12.844  0.5688  0.0250  0.3202
 3132SOL    HW121029   0.278   1.725  12.913 -0.0855 -2.5101 -1.5201
 3132SOL    HW221030   0.375   1.828  12.898 -0.2176  1.5455 -1.0322
 3133SOL     OW21031   4.463   3.976   9.739  1.1177 -0.2468 -0.5557
 3133SOL    HW121032   4.550   3.979   9.777  1.4578 -1.1059 -1.2559
 3133SOL    HW221033   4.441   4.068   9.725  2.3888  0.1049 -0.2231
 3134SOL     OW21034   3.181   3.747  12.874  0.0752  0.5257  0.1059
 3134SOL    HW121035   3.238   3.676  12.845 -0.9763 -0.7873  1.2841
 3134SOL    HW221036   3.249   3.805  12.910 -0.3633 -0.0243  1.8113
 3135SOL     OW21037   1.004   3.106   4.188  0.3325  0.0078 -0.9613
 3135SOL    HW121038   0.995   3.085   4.095  1.9701  0.8199 -1.2973
 3135SOL    HW221039   1.007   3.201   4.185  2.0313 -0.0083  0.2648
 3136SOL     OW21040   2.484   2.990  11.496  0.1548 -0.2286  0.4105
 3136SOL    HW121041   2.486   3.075  11.540  3.5855  0.5809 -1.3013
 3136SOL    HW221042   2.391   2.970  11.507  0.2455 -1.0428 -0.2419
 3137SOL     OW21043   2.959   4.493   7.913  0.2888 -0.0781  0.8452
 3137SOL    HW121044   2.925   4.581   7.894  1.0258  0.4487  1.9195
 3137SOL    HW221045   2.951   4.461   7.824  1.1450  2.4438 -0.1387
 3138SOL     OW21046   3.606   1.861   5.102 -0.0738 -0.0791  0.1761
 3138SOL    HW121047   3.536   1.916   5.068 -0.9332 -1.2368  0.1024
 3138SOL    HW221048   3.682   1.919   5.104  0.2718 -0.5462  0.7483
 3139SOL     OW21049   4.144   2.882   5.930  0.0030  0.5039  0.1150
 3139SOL    HW121050   4.134   2.866   5.836  2.2958 -2.9968  0.4605
 3139SOL    HW221051   4.108   2.968   5.950 -3.4172 -0.9878  0.3497
 3140SOL     OW21052   3.814   2.120  11.969 -0.2492 -0.2899  0.4557
 3140SOL    HW121053   3.766   2.041  11.945  0.3085 -0.2150 -0.9395
 3140SOL    HW221054   3.895   2.113  11.919  0.2664  1.8597  0.9913
 3141SOL     OW21055   1.890   1.019  15.825 -0.7839 -0.2878  0.4814
 3141SOL    HW121056   1.847   0.990  15.745  1.7316 -1.4745 -0.4490
 3141SOL    HW221057   1.982   1.017  15.799 -0.5662  0.4684  1.1892
 3142SOL     OW21058   4.164   2.224  12.135 -0.2776  0.3153  0.2150
 3142SOL    HW121059   4.186   2.271  12.054  2.5588  0.5756  1.1404
 3142SOL    HW221060   4.123   2.293  12.188 -0.3297 -0.0537  0.6516
 3143SOL     OW21061   2.155   4.449  11.177  0.0771 -0.3413 -0.3580
 3143SOL    HW121062   2.138   4.409  11.092  0.9807  0.7923 -1.0620
 3143SOL    HW221063   2.174   4.370  11.229 -0.9985 -0.8552 -0.7613
 3144SOL     OW21064   2.744   3.936   6.018 -0.1148  0.0337 -0.6316
 3144SOL    HW121065   2.803   3.877   5.971  1.6001  0.8308  0.5137
 3144SOL    HW221066   2.695   3.977   5.946 -2.1850 -0.2379  0.6211
 3145SOL     OW21067   0.220   4.358   7.009 -0.7824  0.2408 -0.5451
 3145SOL    HW121068   0.239   4.451   7.020  0.2578 -0.0899  0.5096
 3145SOL    HW221069   0.199   4.323   7.096  1.1784 -0.5017 -0.3689
 3146SOL     OW21070   3.323   0.120   5.009  0.1217 -0.6160  0.8500
 3146SOL    HW121071   3.387   0.118   5.080 -0.1602  0.9537  1.1385
 3146SOL    HW221072   3.274   0.198   5.033 -2.7547 -1.2768 -2.8288
 3147SOL     OW21073   2.051   1.118   6.385  0.1192 -0.0208  0.0263
 3147SOL    HW121074   2.099   1.110   6.467  0.6529 -0.8258 -0.3668
 3147SOL    HW221075   1.960   1.098   6.404 -0.2395  1.7463  0.1848
 3148SOL     OW21076   2.206   0.989   4.500 -0.2307  0.2175 -0.3498
 3148SOL    HW121077   2.227   1.076   4.467  2.3418  0.8376  2.8802
 3148SOL    HW221078   2.184   0.945   4.419  0.7631 -2.6118  0.9213
 3149SOL     OW21079   2.902   2.553   6.892  0.1361  0.3008  0.2755
 3149SOL    HW121080   2.832   2.519   6.836 -2.0454  0.7332  2.7146
 3149SOL    HW221081   2.956   2.475   6.908 -0.5443 -0.2358 -0.0672
 3150SOL     OW21082   1.838   2.951   3.343 -0.1839  0.1711 -0.5285
 3150SOL    HW121083   1.890   3.031   3.346 -0.1504  0.1402 -0.2504
 3150SOL    HW221084   1.755   2.982   3.306 -0.5767 -2.5955 -1.9352
 3151SOL     OW21085   0.209   4.135   4.112  0.1680 -0.3744  0.2973
 3151SOL    HW121086   0.303   4.121   4.113 -0.0153 -1.5561  0.9983
 3151SOL    HW221087   0.186   4.080   4.187  3.2593 -0.4986  1.1280
 3152SOL     OW21088   0.527   1.496  15.442 -0.4584  0.4182 -0.3665
 3152SOL    HW121089   0.559   1.488  15.532 -1.0948  2.6333  0.0676
 3152SOL    HW221090   0.480   1.579  15.432  0.8201  1.2399  0.5475
 3153SOL     OW21091   0.974   2.587   7.637  0.0161 -0.3260 -0.0457
 3153SOL    HW121092   0.972   2.582   7.732  0.4807 -1.3555 -0.0891
 3153SOL    HW221093   0.924   2.665   7.610 -0.1571 -0.5878 -0.4754
 3154SOL     OW21094   1.142   3.412   2.198  0.0232  0.0104  0.5036
 3154SOL    HW121095   1.092   3.330   2.197 -1.2509  0.7706  1.3277
 3154SOL    HW221096   1.081   3.465   2.250 -0.4065 -0.1656  0.1753
 3155SOL     OW21097   3.997   1.514   4.205  0.0278  0.1852  0.1631
 3155SOL    HW121098   3.986   1.493   4.113  0.0549  0.7858  0.0265
 3155SOL    HW221099   4.059   1.449   4.239 -0.1667 -0.1051 -0.0408
 3156SOL     OW21100   1.479   4.698   3.769  0.1614  0.0846 -0.7011
 3156SOL    HW121101   1.530   0.038   3.759 -0.4818  0.2895 -2.4034
 3156SOL    HW221102   1.394   4.741   3.754  0.4799  0.5314 -1.2581
 3157SOL     OW21103   4.134   2.932  12.155  0.3030 -0.8454  0.1975
 3157SOL    HW121104   4.175   3.019  12.156 -0.5520 -0.4545  0.8926
 3157SOL    HW221105   4.160   2.893  12.239 -0.4331  1.1513  1.3439
 3158SOL     OW21106   3.679   4.099  16.042  0.4094  0.1844 -0.5077
 3158SOL    HW121107   3.711   4.045  15.970  0.7045 -1.1070  0.6066
 3158SOL    HW221108   3.599   4.128  15.998 -0.8322  1.6905  2.7881
 3159SOL     OW21109   4.144   2.368   8.559 -0.8123  0.7495 -0.3642
 3159SOL    HW121110   4.237   2.375   8.581 -0.7025 -2.6076  0.2071
 3159SOL    HW221111   4.106   2.434   8.617 -1.0660 -0.7357  1.1489
 3160SOL     OW21112   4.332   3.437  14.979 -0.0293  0.6054 -0.0280
 3160SOL    HW121113   4.268   3.390  15.033  0.7823  0.4132  0.7676
 3160SOL    HW221114   4.406   3.450  15.039  0.1497  1.2624 -0.3924
 3161SOL     OW21115   4.586   4.500  11.292  0.2160 -0.2868  0.2871
 3161SOL    HW121116   4.514   4.504  11.355 -0.1410 -1.2939 -0.0612
 3161SOL    HW221117   4.607   4.592  11.275  2.4874 -0.9052 -0.3305
 3162SOL     OW21118   2.294   2.893  13.732  0.2775 -0.1115  0.5288
 3162SOL    HW121119   2.342   2.842  13.666  0.7526 -0.2159  0.9599
 3162SOL    HW221120   2.206   2.856  13.723 -0.5651  1.8521  0.8249
 3163SOL     OW21121   0.395   0.147   4.296  0.0633 -0.4850  0.3388
 3163SOL    HW121122   0.428   0.207   4.230  2.4486 -0.2273  1.7549
 3163SOL    HW221123   0.316   0.194   4.321 -0.8886 -0.8962 -1.9470
 3164SOL     OW21124   2.484   1.395  14.132  0.1152 -0.2450  0.1225
 3164SOL    HW121125   2.446   1.482  14.134 -0.1789 -0.3664 -0.2428
 3164SOL    HW221126   2.412   1.346  14.093 -1.0702  1.3103  0.3488
 3165SOL     OW21127   3.781   3.583   0.578 -0.1086  0.1630 -0.1753
 3165SOL    HW121128   3.742   3.497   0.566 -1.0493  0.5752 -0.1605
 3165SOL    HW221129   3.755   3.599   0.669  1.1630 -1.5472  0.4873
 3166SOL     OW21130   0.454   0.897   1.727  0.8709 -0.1561  0.6305
 3166SOL    HW121131   0.543   0.862   1.737  0.8910  0.4717  2.7849
 3166SOL    HW221132   0.449   0.973   1.785 -0.5825  0.3350 -0.1527
 3167SOL     OW21133   1.210   3.621   2.594 -0.1339  0.3896  0.3481
 3167SOL    HW121134   1.136   3.567   2.570  0.1527  0.5611 -0.9063
 3167SOL    HW221135   1.240   3.658   2.511 -1.7717  2.1977  0.5462
 3168SOL     OW21136   3.766   4.511   9.879 -0.6256 -0.5071  0.0840
 3168SOL    HW121137   3.785   4.488   9.788 -2.5898  0.3679 -0.5451
 3168SOL    HW221138   3.828   4.583   9.884 -0.9419 -0.2487  0.3109
 3169SOL     OW21139   1.477   2.807   5.255 -0.7845  0.6389  0.4208
 3169SOL    HW121140   1.425   2.757   5.318  1.9214 -1.8346  0.6589
 3169SOL    HW221141   1.420   2.818   5.179 -1.1516  0.1485  0.6256
 3170SOL     OW21142   0.763   2.708  15.441  0.1271  0.1357  0.3403
 3170SOL    HW121143   0.734   2.798  15.455  0.3383  0.4628 -1.3121
 3170SOL    HW221144   0.817   2.724  15.364  0.6510 -3.4783 -0.0363
 3171SOL     OW21145   1.966   0.959  11.302  0.4200  0.1804 -0.7889
 3171SOL    HW121146   1.897   1.022  11.323  0.7870  0.5957 -0.8212
 3171SOL    HW221147   1.957   0.922  11.214  1.1267  2.0258 -1.6494
 3172SOL     OW21148   4.362   0.638   6.072  0.2424  0.3398  0.0924
 3172SOL    HW121149   4.384   0.730   6.054  0.6303  0.2708  0.2056
 3172SOL    HW221150   4.278   0.620   6.029  0.5292  0.9889 -0.7482
 3173SOL     OW21151   0.551   3.222   1.912 -0.0342  0.0084  0.1565
 3173SOL    HW121152   0.622   3.279   1.882 -1.5047  0.0148 -3.3458
 3173SOL    HW221153   0.477   3.248   1.857 -1.3683 -0.2618  1.8241
 3174SOL     OW21154   2.427   2.176   2.602  0.1404 -0.0357 -0.1336
 3174SOL    HW121155   2.340   2.214   2.611  2.0305  3.9513  1.3450
 3174SOL    HW221156   2.406   2.084   2.585  0.2941 -0.0607 -0.1870
 3175SOL     OW21157   1.736   3.619  16.670 -0.8402 -0.3437  0.6768
 3175SOL    HW121158   1.738   3.710  16.640 -0.0500 -0.2383  1.0576
 3175SOL    HW221159   1.827   3.591  16.667 -0.3501  1.0999  2.0710
 3176SOL     OW21160   1.021   3.038   2.942 -0.7433 -0.1252 -0.1287
 3176SOL    HW121161   1.057   3.091   2.871  0.5877 -1.4693 -0.4675
 3176SOL    HW221162   0.970   2.970   2.897 -1.9727  1.1985 -0.7413
 3177SOL     OW21163   2.033   4.060   4.434  0.1444  0.0669  0.1280
 3177SOL    HW121164   2.104   4.088   4.377  0.0668  0.1760  0.0847
 3177SOL    HW221165   2.017   3.979   4.385  0.4912 -0.9855  1.7587
 3178SOL     OW21166   3.823   4.197   9.101 -0.0472  0.3226  0.1141
 3178SOL    HW121167   3.870   4.280   9.108 -1.1496  0.8147  1.5325
 3178SOL    HW221168   3.782   4.192   9.187  0.6234 -1.3571  0.3365
 3179SOL     OW21169   4.026   3.144  16.222  0.0380  0.2258 -0.1420
 3179SOL    HW121170   4.098   3.154  16.285 -1.3401 -1.5012  1.7349
 3179SOL    HW221171   4.016   3.237  16.202  1.9078  0.3551 -0.4941
 3180SOL     OW21172   2.562   1.405   8.129  0.4780 -0.3954  0.1211
 3180SOL    HW121173   2.516   1.350   8.191  0.3723 -0.9972 -0.4837
 3180SOL    HW221174   2.562   1.347   8.053 -0.1595 -1.8672  1.2588
 3181SOL     OW21175   1.561   4.033   9.162 -0.1073 -0.5245 -0.1662
 3181SOL    HW121176   1.657   4.032   9.166 -0.1376  0.1536  0.7266
 3181SOL    HW221177   1.547   4.122   9.192 -1.7129 -0.5964 -0.7163
 3182SOL     OW21178   2.240   3.267   7.935 -0.6113  0.2561  0.1462
 3182SOL    HW121179   2.245   3.353   7.893  0.7172  0.5056  0.8004
 3182SOL    HW221180   2.334   3.249   7.941 -0.7130 -0.2499  0.1939
 3183SOL     OW21181   3.039   4.430   9.594 -0.3122 -0.0534 -0.0350
 3183SOL    HW121182   3.076   4.446   9.507  0.9741 -1.2212  0.3049
 3183SOL    HW221183   3.103   4.473   9.650  0.3036  3.4794 -3.4740
 3184SOL     OW21184   3.245   3.939   5.180 -0.3718  0.2055  0.0214
 3184SOL    HW121185   3.293   4.020   5.164 -0.5141  0.2435 -0.2083
 3184SOL    HW221186   3.276   3.885   5.107  0.8685 -0.3636  0.9737
 3185SOL     OW21187   0.149   0.109   3.597 -0.2299  0.4945 -0.0126
 3185SOL    HW121188   0.239   0.139   3.582 -1.0092  2.2398 -1.2209
 3185SOL    HW221189   0.147   0.015   3.579  0.9604  0.2704  0.9931
 3186SOL     OW21190   3.528   1.132   2.312 -0.3651  0.0784  0.2770
 3186SOL    HW121191   3.468   1.119   2.385  1.5894 -5.1440  0.9642
 3186SOL    HW221192   3.597   1.076   2.349  1.2622  2.0298  0.1548
 3187SOL     OW21193   0.558   0.471   6.969 -0.0305  0.4353  0.0972
 3187SOL    HW121194   0.539   0.561   6.996  1.6455  1.0324 -0.7193
 3187SOL    HW221195   0.647   0.460   7.001  1.3573 -0.1123 -3.9292
 3188SOL     OW21196   1.651   3.715   2.861  0.1257 -0.1060  0.2349
 3188SOL    HW121197   1.616   3.786   2.807 -0.2411 -1.7380 -1.6247
 3188SOL    HW221198   1.610   3.631   2.844  0.9072 -0.4980  0.2498
 3189SOL     OW21199   1.076   0.427   6.309 -0.5553  0.1368  0.3300
 3189SOL    HW121200   1.157   0.441   6.260 -1.4087 -0.7641 -1.3522
 3189SOL    HW221201   1.057   0.509   6.354  1.0925 -0.3769  1.9684
 3190SOL     OW21202   3.628   4.565   7.068  0.1749  0.3848 -0.1409
 3190SOL    HW121203   3.654   4.576   6.976 -1.4532  0.0833 -0.6550
 3190SOL    HW221204   3.538   4.598   7.061  0.1285  0.7676  2.5197
 3191SOL     OW21205   3.513   2.800   4.313 -0.5804 -0.0991 -0.4033
 3191SOL    HW121206   3.566   2.826   4.238  1.7605 -0.1754  1.1994
 3191SOL    HW221207   3.435   2.854   4.303 -0.4248 -0.0074 -1.0835
 3192SOL     OW21208   1.412   2.599   2.001  0.4920  0.5336  0.4763
 3192SOL    HW121209   1.366   2.574   2.081  0.7422 -2.4603 -0.3019
 3192SOL    HW221210   1.361   2.670   1.962  0.6918 -0.2147 -1.1840
 3193SOL     OW21211   0.861   0.828   3.061  0.7949 -0.2689 -0.2223
 3193SOL    HW121212   0.949   0.808   3.030  0.6932  0.5192 -1.0319
 3193SOL    HW221213   0.851   0.749   3.114 -0.3340  0.6416  0.9466
 3194SOL     OW21214   0.707   4.101   3.982 -0.3873  0.1455  0.6608
 3194SOL    HW121215   0.736   4.158   4.053  2.2869  1.0053 -1.0829
 3194SOL    HW221216   0.708   4.153   3.902 -1.7498 -0.5081  0.2139
 3195SOL     OW21217   3.021   4.068   8.829 -0.6557 -0.4249 -0.6315
 3195SOL    HW121218   3.096   4.079   8.771  1.4714  0.4535  2.3043
 3195SOL    HW221219   3.063   4.031   8.907 -1.1646 -0.7958 -0.5266
 3196SOL     OW21220   2.474   4.594   7.209 -0.0315 -0.1016  0.4158
 3196SOL    HW121221   2.563   4.614   7.178  0.4712 -0.8624  1.3720
 3196SOL    HW221222   2.428   4.673   7.182  0.5287 -0.1053 -0.5416
 3197SOL     OW21223   4.564   4.309   2.271 -0.0607  0.0570  0.3431
 3197SOL    HW121224   4.497   4.376   2.255 -0.1616 -0.2058 -0.3140
 3197SOL    HW221225   4.525   4.247   2.210  0.7852  0.0345 -0.1615
 3198SOL     OW21226   1.323   1.161   8.417  0.0237 -0.5116  0.0711
 3198SOL    HW121227   1.276   1.144   8.335 -1.2413  0.9125  0.4965
 3198SOL    HW221228   1.302   1.081   8.464 -1.4939  0.9463  1.9099
 3199SOL     OW21229   2.618   4.550  14.124  0.4252 -0.5245 -0.2871
 3199SOL    HW121230   2.618   4.567  14.218  1.2714  2.5545 -0.8388
 3199SOL    HW221231   2.596   4.634  14.082 -0.3996 -0.8785 -0.5721
 3200SOL     OW21232   1.947   2.175  14.875 -0.3193 -0.2096 -0.2350
 3200SOL    HW121233   2.006   2.141  14.942  0.9528  1.5748 -0.4472
 3200SOL    HW221234   1.882   2.221  14.927  2.3645  1.6437  1.4797
 3201SOL     OW21235   0.920   2.464   8.301  0.0253 -0.2405  0.2112
 3201SOL    HW121236   0.887   2.399   8.239 -0.3939  1.1008 -0.9720
 3201SOL    HW221237   1.015   2.454   8.305  0.1813  2.2728  2.6953
 3202SOL     OW21238   4.024   0.314   6.316 -0.4987 -0.1387 -0.0457
 3202SOL    HW121239   3.956   0.301   6.382 -2.0598  0.1795 -1.5533
 3202SOL    HW221240   4.089   0.366   6.363  1.8253 -2.0896 -1.1369
 3203SOL     OW21241   2.684   3.023   9.274  0.0592 -0.2449 -0.0092
 3203SOL    HW121242   2.680   3.113   9.306  0.8733  0.0778 -0.8199
 3203SOL    HW221243   2.676   2.975   9.356  2.7589 -0.6070  0.0242
 3204SOL     OW21244   3.813   3.572  16.481  0.4962  0.6973 -0.2486
 3204SOL    HW121245   3.904   3.548  16.465  0.7634  0.6696  1.3164
 3204SOL    HW221246   3.766   3.489  16.473 -0.4503  1.4145 -2.0771
 3205SOL     OW21247   3.977   1.861  15.296  0.2579 -0.5930  0.0310
 3205SOL    HW121248   3.953   1.820  15.213  0.2383 -0.9388  0.2038
 3205SOL    HW221249   4.006   1.780  15.338  0.4190  0.0777  1.1990
 3206SOL     OW21250   0.648   1.201   7.473 -0.5424  0.6862 -0.4986
 3206SOL    HW121251   0.627   1.265   7.541  0.5645  0.1263  0.3642
 3206SOL    HW221252   0.736   1.230   7.448  0.5917 -2.1784  0.1582
 3207SOL     OW21253   3.739   2.073  10.359 -0.5217  0.6513  0.0362
 3207SOL    HW121254   3.711   2.152  10.314  0.3619  1.5965  1.1624
 3207SOL    HW221255   3.678   2.069  10.433  1.9828 -0.7552  2.0552
 3208SOL     OW21256   2.942   3.499   3.921 -0.0177  0.7258 -0.4336
 3208SOL    HW121257   2.938   3.589   3.954 -3.9954 -0.1117  1.3879
 3208SOL    HW221258   2.849   3.486   3.900 -0.0418 -1.4740  1.0565
 3209SOL     OW21259   1.758   2.517  11.925  0.7226 -0.2523  0.3843
 3209SOL    HW121260   1.779   2.587  11.863 -1.2893  0.3897  0.4173
 3209SOL    HW221261   1.805   2.440  11.895 -0.8727 -1.1359  0.1771
 3210SOL     OW21262   0.542   1.674   5.031 -0.2552  0.0560  0.7391
 3210SOL    HW121263   0.586   1.715   4.956  0.9904 -1.1859  0.7930
 3210SOL    HW221264   0.480   1.743   5.055  0.2892  0.5914  0.6187
 3211SOL     OW21265   3.743   0.585   3.784 -0.5789 -0.7561 -0.3965
 3211SOL    HW121266   3.726   0.490   3.783 -1.2333 -0.6379 -0.4167
 3211SOL    HW221267   3.776   0.590   3.874 -0.8754  0.1606 -0.3493
 3212SOL     OW21268   3.290   4.392   4.779 -0.0187 -0.5487 -0.1055
 3212SOL    HW121269   3.313   4.411   4.869  0.3271 -2.9288  0.3202
 3212SOL    HW221270   3.363   4.429   4.729  2.3564 -2.7411  1.7405
 3213SOL     OW21271   0.381   1.738  16.603  0.2298 -0.1437 -0.1395
 3213SOL    HW121272   0.292   1.770  16.619  0.0886 -1.6659  2.1351
 3213SOL    HW221273   0.422   1.824  16.591 -0.1257  0.1513  0.7800
 3214SOL     OW21274   0.096   4.385   3.454  0.1176  0.3922  0.3421
 3214SOL    HW121275   0.024   4.414   3.398  1.3890  0.9929 -0.9833
 3214SOL    HW221276   0.115   4.297   3.423 -2.3467  1.1677 -3.3274
 3215SOL     OW21277   3.195   0.636  13.354 -0.0923 -0.3111 -0.3042
 3215SOL    HW121278   3.135   0.650  13.427 -1.3992 -0.7321 -1.3026
 3215SOL    HW221279   3.259   0.582  13.401 -2.4207 -0.2959  2.8563
 3216SOL     OW21280   3.095   1.628   2.267  0.1644  0.3114 -0.8898
 3216SOL    HW121281   3.156   1.699   2.285 -0.8905  0.2405  3.0048
 3216SOL    HW221282   3.007   1.663   2.282  0.9834  1.0497  2.2044
 3217SOL     OW21283   1.850   0.738   1.332 -0.3007 -0.0114 -0.0145
 3217SOL    HW121284   1.765   0.737   1.287 -0.3965  2.4983  0.0873
 3217SOL    HW221285   1.902   0.679   1.278 -0.1326 -0.9253  1.1441
 3218SOL     OW21286   4.247   4.196  17.222 -1.2944 -0.0406  0.0004
 3218SOL    HW121287   4.274   4.206  17.131  1.2530 -1.1130  0.6271
 3218SOL    HW221288   4.321   4.147  17.259 -0.3744 -0.1386 -1.9713
 3219SOL     OW21289   4.130   3.678   5.236 -0.4562 -0.0697 -0.2037
 3219SOL    HW121290   4.186   3.671   5.159  0.4965  1.4999  0.3588
 3219SOL    HW221291   4.171   3.754   5.277 -2.1275 -0.9051  3.0403
 3220SOL     OW21292   1.106   2.788   3.750 -0.4425 -0.0997 -0.1726
 3220SOL    HW121293   1.096   2.883   3.752  0.1324 -0.1448  5.7005
 3220SOL    HW221294   1.052   2.764   3.675  1.5747  2.6628 -2.5080
 3221SOL     OW21295   2.114   3.540   9.801  0.1608  0.1934  0.0658
 3221SOL    HW121296   2.162   3.576   9.875  2.7054 -0.9912 -1.0110
 3221SOL    HW221297   2.182   3.492   9.754  0.3976  0.6288 -0.0326
 3222SOL     OW21298   0.759   0.379   7.990  0.8736  0.2236  0.3907
 3222SOL    HW121299   0.720   0.351   7.907 -0.0473  1.7953  0.2955
 3222SOL    HW221300   0.822   0.307   7.992  2.3611  1.4248 -2.3628
 3223SOL     OW21301   3.779   3.384   5.357  1.0674 -0.2900 -0.3624
 3223SOL    HW121302   3.773   3.305   5.411  0.4619  0.7074  1.0463
 3223SOL    HW221303   3.697   3.427   5.382 -0.7295 -1.4078 -4.3282
 3224SOL     OW21304   2.919   4.339   6.374 -0.1689 -0.0507  0.5051
 3224SOL    HW121305   2.832   4.301   6.363 -1.6058  4.3812 -3.1538
 3224SOL    HW221306   2.920   4.425   6.334 -1.9950 -0.9432 -1.4159
 3225SOL     OW21307   2.679   1.840  17.376  0.7940 -0.3274  0.5444
 3225SOL    HW121308   2.588   1.821  17.356  0.8940  0.8806 -1.0304
 3225SOL    HW221309   2.699   1.916  17.321 -0.6036 -0.7507 -0.5416
 3226SOL     OW21310   1.410   0.272   1.977  0.9722  0.3977  0.1759
 3226SOL    HW121311   1.423   0.249   1.885  2.5686 -1.0894  0.7864
 3226SOL    HW221312   1.320   0.244   1.996  1.0573 -0.7801 -1.1845
 3227SOL     OW21313   2.994   4.605   8.926 -0.1498  0.1688  0.5593
 3227SOL    HW121314   3.084   4.581   8.950  0.3170  1.3814  0.0015
 3227SOL    HW221315   2.949   4.521   8.916  1.6508 -0.6764 -0.5419
 3228SOL     OW21316   3.931   3.862   9.719 -0.4254 -0.0626 -0.3326
 3228SOL    HW121317   3.855   3.919   9.734 -2.6106 -2.3519 -2.8483
 3228SOL    HW221318   4.005   3.917   9.747 -0.1200  0.5467 -2.3628
 3229SOL     OW21319   0.227   2.218   1.488  0.0025 -0.5081 -0.2786
 3229SOL    HW121320   0.196   2.129   1.470  0.6333 -0.8369  0.2660
 3229SOL    HW221321   0.266   2.203   1.574  1.1726  1.2328 -0.5178
 3230SOL     OW21322   0.200   0.028  11.771 -0.5123  0.3491  0.2599
 3230SOL    HW121323   0.264   4.717  11.820  1.5364  2.9263  0.3358
 3230SOL    HW221324   0.162   0.091  11.832 -0.1170 -0.2498  1.1459
 3231SOL     OW21325   4.610   0.953   1.962 -0.6229 -0.1063 -0.0849
 3231SOL    HW121326   4.530   0.925   2.006 -0.3422  0.3601  0.7167
 3231SOL    HW221327   4.667   0.954   2.038  0.2401  0.3787 -0.7411
 3232SOL     OW21328   3.996   2.705   2.055  0.6492 -0.4131  0.1160
 3232SOL    HW121329   3.912   2.750   2.065  2.4884  2.8460  0.8050
 3232SOL    HW221330   3.984   2.644   1.982  0.2565 -0.4676  0.2246
 3233SOL     OW21331   3.061   0.986   5.432  0.8247  0.0702 -0.9966
 3233SOL    HW121332   3.004   1.060   5.411  1.4744  0.7088 -0.4883
 3233SOL    HW221333   3.048   0.938   5.350 -2.4498  0.5171 -0.7580
 3234SOL     OW21334   0.561   3.352   6.897 -0.0632 -0.9556  0.2996
 3234SOL    HW121335   0.547   3.444   6.877 -2.9377 -2.0423 -2.9066
 3234SOL    HW221336   0.647   3.366   6.935  0.4166 -0.0604 -1.1232
 3235SOL     OW21337   1.269   1.423   1.954 -0.0751  0.2901  0.2261
 3235SOL    HW121338   1.319   1.345   1.980  0.2953  0.4090 -0.1306
 3235SOL    HW221339   1.286   1.489   2.021 -0.7627  1.0348 -0.3375
 3236SOL     OW21340   0.509   3.853  16.084  0.1331  0.3466 -0.2721
 3236SOL    HW121341   0.569   3.893  16.021  1.8117 -2.7923 -0.6993
 3236SOL    HW221342   0.491   3.773  16.034 -0.8243  0.7972 -0.6497
 3237SOL     OW21343   2.105   3.149  11.893  0.0851 -0.1403 -0.0534
 3237SOL    HW121344   2.191   3.189  11.907 -0.2360  0.4659  0.2056
 3237SOL    HW221345   2.067   3.145  11.981  0.1915 -1.3774 -0.0626
 3238SOL     OW21346   0.355   2.963   2.963 -0.3490 -0.0213 -0.1384
 3238SOL    HW121347   0.436   2.943   3.011  1.0115  0.9128 -2.0662
 3238SOL    HW221348   0.379   2.925   2.879  0.6284 -1.3674  0.7330
 3239SOL     OW21349   2.722   3.708   6.465 -0.0031 -0.2523 -0.5382
 3239SOL    HW121350   2.708   3.773   6.397 -0.6658  0.6547  0.4594
 3239SOL    HW221351   2.681   3.745   6.543  3.3636  0.5220  0.8822
 3240SOL     OW21352   0.077   0.746  16.409 -0.1765  0.1044  0.1937
 3240SOL    HW121353   0.084   0.799  16.330  0.9486  2.4971  1.8805
 3240SOL    HW221354   0.092   0.822  16.466  0.7750  0.7198 -0.8638
 3241SOL     OW21355   4.308   1.589   4.048  0.6284  0.7138  0.0294
 3241SOL    HW121356   4.222   1.615   4.014  0.6103 -0.1287 -0.5673
 3241SOL    HW221357   4.347   1.677   4.050 -0.3169  1.1143  0.7554
 3242SOL     OW21358   0.420   3.423  15.903 -0.0117 -0.1491  0.0187
 3242SOL    HW121359   0.388   3.513  15.910 -0.1536 -0.0886 -1.5602
 3242SOL    HW221360   0.499   3.423  15.958  1.3191  0.9162 -1.9206
 3243SOL     OW21361   1.561   2.252   4.265  0.1446 -0.3415  0.3031
 3243SOL    HW121362   1.649   2.268   4.299  0.2542 -1.0092  0.3217
 3243SOL    HW221363   1.534   2.335   4.225  0.6587  0.2507  1.1674
 3244SOL     OW21364   2.169   0.708  14.704  0.0695 -0.2098 -0.6729
 3244SOL    HW121365   2.154   0.791  14.751 -1.5048 -0.5955 -0.5094
 3244SOL    HW221366   2.260   0.723  14.681  0.0438 -0.6240 -1.0244
 3245SOL     OW21367   2.503   2.392   6.248 -0.3825 -0.4233  0.4701
 3245SOL    HW121368   2.533   2.322   6.189  0.0749 -2.2765  2.8957
 3245SOL    HW221369   2.441   2.344   6.303 -0.2324  1.7340  2.4805
 3246SOL     OW21370   2.844   1.156   6.619 -0.3429 -0.7225 -0.6482
 3246SOL    HW121371   2.878   1.078   6.576 -0.2994 -1.9530  1.6262
 3246SOL    HW221372   2.801   1.213   6.556 -1.4112 -0.8319 -0.0051
 3247SOL     OW21373   3.197   0.498   4.728 -0.4595  0.0676 -0.7981
 3247SOL    HW121374   3.284   0.520   4.760 -1.3862 -0.1338  1.7944
 3247SOL    HW221375   3.172   0.587   4.702  0.6820  0.7547  0.4184
 3248SOL     OW21376   0.890   3.534   4.744  0.1010 -0.5569 -0.5174
 3248SOL    HW121377   0.841   3.453   4.754 -0.9383  0.2706  1.0576
 3248SOL    HW221378   0.872   3.560   4.834  0.4175  1.1502 -0.9398
 3249SOL     OW21379   1.818   0.780   4.017  0.4172  0.2276 -0.0898
 3249SOL    HW121380   1.900   0.800   4.063  1.4096 -1.8014 -0.9550
 3249SOL    HW221381   1.793   0.717   4.085  2.0425  1.1776  1.4148
 3250SOL     OW21382   4.493   1.679   3.168  0.2512 -0.0247 -0.5163
 3250SOL    HW121383   4.479   1.774   3.162 -0.2328 -0.1271 -0.9633
 3250SOL    HW221384   4.588   1.679   3.183  0.3106 -0.2403 -0.8861
 3251SOL     OW21385   2.102   4.716   6.660  0.6719 -0.1978  0.1704
 3251SOL    HW121386   2.013   4.697   6.692  0.2433  1.2767 -0.1639
 3251SOL    HW221387   2.108   4.659   6.584  2.9945  2.4676 -1.6188
 3252SOL     OW21388   2.382   3.042   4.300 -0.7026  0.0727  0.2690
 3252SOL    HW121389   2.407   2.951   4.283  0.7776  0.3788  0.7458
 3252SOL    HW221390   2.340   3.075   4.221 -1.3458 -0.7170  0.2825
 3253SOL     OW21391   1.805   4.093  12.992 -0.3596 -0.3174  0.0120
 3253SOL    HW121392   1.859   4.067  12.917  1.3642  0.5820  0.9371
 3253SOL    HW221393   1.719   4.073  12.957 -0.4212  0.5886 -0.3385
 3254SOL     OW21394   4.436   4.376   7.273  0.4567 -0.2578  0.1965
 3254SOL    HW121395   4.467   4.390   7.362 -0.0517  1.3845  0.1150
 3254SOL    HW221396   4.410   4.284   7.274 -0.8940  0.1339  0.1541
 3255SOL     OW21397   2.310   2.568  10.494 -0.0961 -0.4144 -0.2703
 3255SOL    HW121398   2.267   2.491  10.456 -1.8495  1.3643 -1.8621
 3255SOL    HW221399   2.403   2.555  10.478  0.0368  1.9512 -1.3498
 3256SOL     OW21400   3.899   0.283   0.099 -0.4660 -0.1929  0.3074
 3256SOL    HW121401   3.958   0.240   0.037 -0.0490  0.2188  0.4188
 3256SOL    HW221402   3.902   0.372   0.062 -2.0024  0.5358  1.9509
 3257SOL     OW21403   1.937   0.848   3.327 -0.2936  0.2404  0.2082
 3257SOL    HW121404   1.856   0.896   3.347  0.7401  1.5365  1.2451
 3257SOL    HW221405   1.910   0.758   3.309  1.6682 -0.3045  0.0130
 3258SOL     OW21406   0.331   2.281   5.417 -0.3088  0.1133 -0.4687
 3258SOL    HW121407   0.329   2.188   5.440  1.2107  0.0179 -0.7769
 3258SOL    HW221408   0.247   2.291   5.372  0.1011  3.3326 -0.5144
 3259SOL     OW21409   4.660   2.174   1.124  0.5152 -0.6343  0.7711
 3259SOL    HW121410   4.718   2.228   1.178 -1.2746 -0.4612  2.5281
 3259SOL    HW221411   4.636   2.109   1.191 -3.3953  0.8024  0.7458
 3260SOL     OW21412   1.036   2.377   4.544 -0.4524  0.1755  0.4954
 3260SOL    HW121413   1.029   2.397   4.450 -0.0851 -0.1410  0.4012
 3260SOL    HW221414   1.125   2.409   4.555 -0.7504  0.1672  2.7959
 3261SOL     OW21415   2.269   0.333  15.579 -0.4019 -0.2993  0.1665
 3261SOL    HW121416   2.286   0.239  15.571  0.5952 -0.1652  0.6062
 3261SOL    HW221417   2.339   0.366  15.635 -0.4198 -0.6292  0.3886
 3262SOL     OW21418   0.249   2.365   4.583 -0.0578 -0.2904 -0.0294
 3262SOL    HW121419   0.210   2.436   4.531 -0.9766 -1.5872 -1.1257
 3262SOL    HW221420   0.170   2.317   4.609 -0.3732  0.1844 -0.1022
 3263SOL     OW21421   1.534   1.687  14.457  0.4755  0.5377  0.8161
 3263SOL    HW121422   1.599   1.642  14.512 -1.1951 -3.2972 -0.3885
 3263SOL    HW221423   1.461   1.626  14.461 -0.2366  1.3900  0.6305
 3264SOL     OW21424   4.734   3.210   6.393 -0.5678 -0.3718 -0.3964
 3264SOL    HW121425   4.689   3.125   6.393 -0.4964 -0.4084 -1.2307
 3264SOL    HW221426   4.706   3.263   6.467 -1.1795 -0.1723 -0.7679
 3265SOL     OW21427   2.192   1.821   4.329 -0.0328  0.0426 -0.7153
 3265SOL    HW121428   2.193   1.767   4.250 -1.3831 -2.1641  0.7728
 3265SOL    HW221429   2.160   1.761   4.397 -0.2217 -0.2267 -1.0413
 3266SOL     OW21430   1.251   4.166   2.152 -0.2050  0.1304  0.0672
 3266SOL    HW121431   1.284   4.247   2.112 -0.9623  0.6807  0.5471
 3266SOL    HW221432   1.178   4.147   2.092  1.2496 -0.4356 -1.5332
 3267SOL     OW21433   3.733   0.635   6.473  0.9214  0.0458 -0.1237
 3267SOL    HW121434   3.701   0.550   6.440 -0.3597 -0.0066  1.2833
 3267SOL    HW221435   3.819   0.621   6.431  0.6469 -1.6104 -0.1228
 3268SOL     OW21436   3.205   2.848   4.494 -0.1365 -0.6487  0.0097
 3268SOL    HW121437   3.114   2.878   4.495  0.3009  0.6719  1.0702
 3268SOL    HW221438   3.230   2.866   4.403  0.9038 -2.8599 -0.1359
 3269SOL     OW21439   4.157   4.055   5.730  0.2646 -0.0235  0.4741
 3269SOL    HW121440   4.190   4.035   5.643 -2.7157  2.2378 -1.1686
 3269SOL    HW221441   4.071   4.093   5.711  0.2541  0.6732  1.8801
 3270SOL     OW21442   3.843   1.708  14.728 -0.0982  0.0976  0.1505
 3270SOL    HW121443   3.881   1.625  14.759  2.6247  0.1679 -3.0009
 3270SOL    HW221444   3.917   1.752  14.686  0.8438 -1.2523  0.4146
 3271SOL     OW21445   0.230   2.410   5.104 -0.2547  0.3870 -0.0870
 3271SOL    HW121446   0.204   2.335   5.157 -2.5254  2.5622  1.8651
 3271SOL    HW221447   0.182   2.403   5.022  0.8249  1.0025 -0.7744
 3272SOL     OW21448   4.639   2.040   8.945 -0.1092  0.5340  0.1343
 3272SOL    HW121449   4.605   1.993   8.868 -1.2444 -1.0256  1.6053
 3272SOL    HW221450   4.634   1.967   9.006 -1.8420 -1.3628 -2.2556
 3273SOL     OW21451   3.428   0.673   6.435  0.0303 -0.2752 -0.0895
 3273SOL    HW121452   3.452   0.717   6.517 -1.0952 -0.2887  0.2491
 3273SOL    HW221453   3.333   0.684   6.434 -0.0281 -0.7746  0.1116
 3274SOL     OW21454   1.832   4.624   3.803 -0.7318 -0.2085 -0.6385
 3274SOL    HW121455   1.745   4.587   3.786  0.0105 -1.2765 -2.1105
 3274SOL    HW221456   1.854   4.582   3.885 -0.8695 -0.3570 -0.6780
 3275SOL     OW21457   1.019   1.821   8.862 -0.5738 -0.6303  0.0322
 3275SOL    HW121458   1.068   1.900   8.886  0.3275  0.3932 -5.2745
 3275SOL    HW221459   1.036   1.766   8.939 -0.5069 -1.4491 -0.5650
 3276SOL     OW21460   2.133   1.930  15.656 -0.0465 -0.8844 -0.5885
 3276SOL    HW121461   2.139   1.962  15.746  2.0460 -2.4030 -0.1945
 3276SOL    HW221462   2.218   1.890  15.639  0.4708 -0.2119  0.4043
 3277SOL     OW21463   2.485   1.817   7.063  0.2096  0.2065  0.0630
 3277SOL    HW121464   2.559   1.774   7.021 -0.8660 -0.4095 -1.2017
 3277SOL    HW221465   2.452   1.766   7.137  0.2473 -1.0256 -0.7872
 3278SOL     OW21466   2.353   2.250   1.960  0.0681  0.0440  0.1041
 3278SOL    HW121467   2.432   2.196   1.965 -0.6034 -0.8798  0.6824
 3278SOL    HW221468   2.345   2.275   2.052 -2.6271  4.0774 -1.2313
 3279SOL     OW21469   2.674   3.938   3.471  0.3826  0.0138 -0.0836
 3279SOL    HW121470   2.764   3.911   3.451 -0.2112 -1.9864 -0.0637
 3279SOL    HW221471   2.706   3.992   3.544 -1.1375  1.7266 -0.6786
 3280SOL     OW21472   0.849   2.496   7.110  0.0742  0.2755 -0.0852
 3280SOL    HW121473   0.828   2.471   7.199 -1.5989  0.1346 -0.5141
 3280SOL    HW221474   0.898   2.418   7.083  0.2098  0.0355  0.8750
 3281SOL     OW21475   3.914   1.052   2.820 -0.0190 -0.0575  0.1967
 3281SOL    HW121476   3.846   1.074   2.756  2.9015  5.4161 -0.9536
 3281SOL    HW221477   3.985   1.015   2.769 -1.1522 -1.1381 -0.6109
 3282SOL     OW21478   2.727   4.096   2.539  0.5635  0.2579 -0.1681
 3282SOL    HW121479   2.772   4.095   2.455  0.9220  1.6956  0.0039
 3282SOL    HW221480   2.639   4.096   2.500  0.4601  0.1173  0.0653
 3283SOL     OW21481   2.449   4.288   3.429  0.6473  0.7420 -0.2853
 3283SOL    HW121482   2.470   4.229   3.356  1.8718 -1.8377  2.1651
 3283SOL    HW221483   2.363   4.256   3.453  0.6885  2.7571  2.5345
 3284SOL     OW21484   3.648   3.063   4.885 -0.0127 -0.1152  0.8990
 3284SOL    HW121485   3.592   3.138   4.866 -1.4570 -1.7173 -1.1631
 3284SOL    HW221486   3.591   2.986   4.875 -1.4240  1.0572 -0.1511
 3285SOL     OW21487   2.973   1.611   9.474  0.3282 -0.2619  0.2049
 3285SOL    HW121488   2.952   1.692   9.427 -3.7837 -1.4143  0.0673
 3285SOL    HW221489   2.887   1.571   9.468  0.3606 -0.4919  1.3287
 3286SOL     OW21490   3.981   3.535   3.523 -0.4009 -0.6242  0.2288
 3286SOL    HW121491   3.985   3.610   3.582  2.3180 -0.6359  0.0597
 3286SOL    HW221492   3.939   3.465   3.573 -1.2100 -0.7464 -0.6298
 3287SOL     OW21493   1.242   0.584  11.337  0.4561  0.2983  0.6156
 3287SOL    HW121494   1.316   0.630  11.377  0.1885  0.7528  0.5797
 3287SOL    HW221495   1.171   0.638  11.373 -1.7334 -2.0156 -0.2648
 3288SOL     OW21496   4.329   4.363   8.353  0.1863 -0.3642 -0.2512
 3288SOL    HW121497   4.366   4.437   8.401  2.1616 -2.3498  1.2783
 3288SOL    HW221498   4.299   4.418   8.280 -0.1018 -0.3084 -0.0924
 3289SOL     OW21499   0.630   3.438   2.537  0.3280 -0.1434 -0.1946
 3289SOL    HW121500   0.542   3.458   2.566  0.6935 -0.8188  1.3418
 3289SOL    HW221501   0.625   3.343   2.524 -3.7825 -0.3465  3.0659
 3290SOL     OW21502   4.501   1.949   3.176 -0.5857  0.1769 -0.1552
 3290SOL    HW121503   4.445   1.994   3.239 -0.6561 -1.0208  0.6355
 3290SOL    HW221504   4.503   2.028   3.122 -2.3946 -1.1477 -2.1455
 3291SOL     OW21505   4.429   4.687   6.472 -0.1961 -0.2740 -0.2683
 3291SOL    HW121506   4.378   4.698   6.552 -0.8962 -0.3817 -0.7018
 3291SOL    HW221507   4.518   4.671   6.504  0.0925  0.6613 -0.5990
 3292SOL     OW21508   4.464   4.137  13.273  0.1619 -0.2127 -0.3860
 3292SOL    HW121509   4.492   4.225  13.249 -0.3133 -0.2530 -1.0808
 3292SOL    HW221510   4.548   4.093  13.283  0.6617  0.4945 -1.5337
 3293SOL     OW21511   4.049   4.559   9.535 -0.0416  0.1153 -0.1319
 3293SOL    HW121512   4.143   4.562   9.520 -0.1863 -0.6855 -1.2452
 3293SOL    HW221513   4.049   4.549   9.630 -3.5700 -0.6395 -0.1863
 3294SOL     OW21514   0.448   1.714   4.670 -0.0802  0.2844  0.1731
 3294SOL    HW121515   0.481   1.690   4.584  0.4055  0.1949  0.3853
 3294SOL    HW221516   0.534   1.726   4.709  0.1657 -0.7644 -0.0535
 3295SOL     OW21517   3.010   2.510   2.415 -0.0637 -0.5776 -0.4612
 3295SOL    HW121518   3.010   2.490   2.509 -0.0248 -0.9760 -0.5448
 3295SOL    HW221519   2.976   2.599   2.414 -0.1032 -0.5461  2.9735
 3296SOL     OW21520   1.841   1.565   0.096  0.0157 -0.4786 -0.5068
 3296SOL    HW121521   1.864   1.637   0.037  0.5404 -1.8447 -1.9822
 3296SOL    HW221522   1.919   1.564   0.151 -0.1113  0.3064 -0.3224
 3297SOL     OW21523   4.626   2.400  12.809  0.0879 -0.0481  0.2584
 3297SOL    HW121524   4.690   2.343  12.767  1.5023  0.3817  1.8129
 3297SOL    HW221525   4.674   2.483  12.811 -0.6837  0.4387 -2.0187
 3298SOL     OW21526   1.941   3.291   2.870 -0.7866 -0.1745  0.1390
 3298SOL    HW121527   1.914   3.348   2.798 -1.1019  0.4306  0.7234
 3298SOL    HW221528   1.865   3.303   2.927  0.4363 -0.5760  1.8400
 3299SOL     OW21529   0.913   4.732   9.119  0.0276 -0.0036  0.0788
 3299SOL    HW121530   0.964   4.692   9.048  0.9950 -0.5762  1.1051
 3299SOL    HW221531   0.869   4.655   9.154 -0.6897  1.1661  1.7546
 3300SOL     OW21532   1.396   1.574   4.434 -0.1167 -0.0064 -0.2271
 3300SOL    HW121533   1.464   1.538   4.378  0.9769 -1.4923  2.0730
 3300SOL    HW221534   1.350   1.499   4.472  0.9424 -0.5636 -0.0688
 3301SOL     OW21535   0.829   4.153   9.666 -0.3924  0.0412 -0.1183
 3301SOL    HW121536   0.800   4.100   9.591 -0.1022  0.2287 -0.3641
 3301SOL    HW221537   0.745   4.167   9.709 -0.4323 -1.5744  0.3338
 3302SOL     OW21538   3.077   4.405   1.763  0.4117  0.0297 -0.0401
 3302SOL    HW121539   3.085   4.484   1.710  0.7328 -0.0383 -0.0912
 3302SOL    HW221540   3.166   4.369   1.755 -0.4947 -2.1158 -0.6130
 3303SOL     OW21541   0.861   1.078   5.826  0.7575  0.7361 -0.0637
 3303SOL    HW121542   0.873   0.983   5.830  0.7087  0.6217 -2.2490
 3303SOL    HW221543   0.881   1.086   5.732 -1.1508  0.9469 -0.4532
 3304SOL     OW21544   1.560   2.269  14.507  0.2656  0.3594  0.3568
 3304SOL    HW121545   1.534   2.360  14.496 -2.1163 -0.1536  1.8311
 3304SOL    HW221546   1.651   2.278  14.535  0.5142  1.4763 -0.8065
 3305SOL     OW21547   1.727   3.510   1.414 -0.0611 -0.3163  0.0629
 3305SOL    HW121548   1.688   3.598   1.414 -0.5516 -0.5308  2.2798
 3305SOL    HW221549   1.728   3.494   1.508  0.0352  0.7843  0.2575
 3306SOL     OW21550   3.728   3.211   2.411 -0.0566 -0.3545 -0.5513
 3306SOL    HW121551   3.652   3.190   2.356 -0.6228  1.6113 -0.5488
 3306SOL    HW221552   3.789   3.141   2.392 -0.5273 -0.7080 -0.7726
 3307SOL     OW21553   3.260   4.244   7.382 -0.1142  0.1052  0.0363
 3307SOL    HW121554   3.304   4.173   7.335  0.7353  1.1440 -0.7403
 3307SOL    HW221555   3.227   4.295   7.307  0.2589  0.6738  0.2557
 3308SOL     OW21556   1.826   1.571   3.885  0.7339 -0.3024 -0.4461
 3308SOL    HW121557   1.893   1.512   3.849 -1.0233 -2.0488 -0.8474
 3308SOL    HW221558   1.789   1.614   3.809  1.1142 -1.0095 -1.0310
 3309SOL     OW21559   1.621   4.073   8.333  0.7834 -0.2314  0.6488
 3309SOL    HW121560   1.568   4.009   8.285  0.0356  0.3674  0.6707
 3309SOL    HW221561   1.555   4.115   8.388  0.3941  1.8481 -1.4085
 3310SOL     OW21562   2.899   2.284   8.418 -0.0795  0.0623 -0.3774
 3310SOL    HW121563   2.874   2.259   8.329 -0.0114 -0.8073 -0.1473
 3310SOL    HW221564   2.924   2.203   8.461  0.7309  0.0585 -0.8554
 3311SOL     OW21565   2.226   3.695  17.562  0.5035 -0.0465 -0.4464
 3311SOL    HW121566   2.238   3.779  17.518 -0.1814 -0.3484 -1.2007
 3311SOL    HW221567   2.252   3.631  17.497 -0.8996 -0.6222 -0.4385
 3312SOL     OW21568   0.964   4.365   8.093  0.1097  0.6105  0.1827
 3312SOL    HW121569   0.974   4.453   8.129 -1.5814  0.7221  0.3389
 3312SOL    HW221570   0.970   4.387   8.000  0.7916 -0.4052 -0.0285
 3313SOL     OW21571   1.488   3.511   2.477  0.3368  0.6487  0.3304
 3313SOL    HW121572   1.571   3.477   2.445  0.3149 -0.3048  1.2824
 3313SOL    HW221573   1.463   3.569   2.405  0.3925  0.0647 -0.1554
 3314SOL     OW21574   3.194   2.278   6.462  0.5802 -0.0062  0.0781
 3314SOL    HW121575   3.171   2.304   6.373  2.0627 -0.4580 -0.4304
 3314SOL    HW221576   3.236   2.358   6.493  2.4427 -0.7826 -0.4020
 3315SOL     OW21577   1.797   3.568   5.353  0.2772  0.4210  0.0559
 3315SOL    HW121578   1.753   3.499   5.303 -1.7036  0.6262  1.5013
 3315SOL    HW221579   1.841   3.611   5.280  0.5594  2.3452  1.3667
 3316SOL     OW21580   0.516   0.027   1.043 -0.2482 -0.1343 -0.0330
 3316SOL    HW121581   0.536   4.679   1.014 -1.8265 -0.2467 -0.7665
 3316SOL    HW221582   0.536   0.076   0.964 -0.3127  0.6982  0.4636
 3317SOL     OW21583   2.490   0.587   7.993 -0.4172 -0.0387  0.2045
 3317SOL    HW121584   2.401   0.610   7.967 -0.1990 -0.5141 -0.9639
 3317SOL    HW221585   2.497   0.491   7.993  0.0817  0.0018  1.3524
 3318SOL     OW21586   4.138   0.061   9.274  0.3732  0.3150  0.0889
 3318SOL    HW121587   4.059   0.078   9.325  1.0505  4.8155 -0.2919
 3318SOL    HW221588   4.158   0.147   9.237 -0.1112  0.1271 -0.5995
 3319SOL     OW21589   4.127   3.891   3.513  0.1077  0.2295 -0.6383
 3319SOL    HW121590   4.031   3.895   3.515  0.0113 -0.8283 -2.5143
 3319SOL    HW221591   4.141   3.864   3.422 -3.3714 -0.0735 -1.0958
 3320SOL     OW21592   2.531   3.214   9.464  0.4953  0.1814  0.1150
 3320SOL    HW121593   2.550   3.155   9.536 -1.6596  1.2778  1.5948
 3320SOL    HW221594   2.462   3.176   9.409  1.6575  0.9601 -1.8490
 3321SOL     OW21595   0.215   4.509   5.144 -0.6282  0.1262  0.5801
 3321SOL    HW121596   0.252   4.437   5.194  0.7982  1.0712  0.8878
 3321SOL    HW221597   0.291   4.568   5.135  0.2153 -1.0903 -0.3701
 3322SOL     OW21598   2.237   2.970   3.332 -0.6043  0.4181 -0.3716
 3322SOL    HW121599   2.175   2.902   3.358  0.1064  0.7076  2.1031
 3322SOL    HW221600   2.190   3.011   3.260 -0.2929  0.6597 -0.4408
 3323SOL     OW21601   3.084   4.598   4.588  0.0806  0.0889 -0.6438
 3323SOL    HW121602   3.143   4.629   4.657 -0.0645  0.9735 -0.9179
 3323SOL    HW221603   3.028   4.538   4.638  1.8494 -0.7664  0.3219
 3324SOL     OW21604   2.191   0.329  10.277  0.0731 -0.1147  0.4459
 3324SOL    HW121605   2.212   0.379  10.356  1.3321  0.1597 -0.0558
 3324SOL    HW221606   2.195   0.241  10.314  0.0500 -0.0720  0.5484
 3325SOL     OW21607   0.510   3.831   3.090  0.4214 -0.1975  0.6029
 3325SOL    HW121608   0.466   3.816   3.006 -0.9271  1.5252  0.9895
 3325SOL    HW221609   0.590   3.780   3.079 -0.7589 -1.7557 -0.6628
 3326SOL     OW21610   4.513   1.396   5.328  0.1743 -0.1132 -0.4351
 3326SOL    HW121611   4.438   1.364   5.277  0.4271  0.1019 -0.9481
 3326SOL    HW221612   4.565   1.428   5.253  0.1308 -3.8375 -2.0610
 3327SOL     OW21613   4.315   1.647   2.263 -0.5012 -0.6249 -0.2195
 3327SOL    HW121614   4.290   1.560   2.233  3.3519 -1.8941  0.3135
 3327SOL    HW221615   4.331   1.627   2.355 -2.3320  1.0305  0.4522
 3328SOL     OW21616   0.399   3.345  10.669 -0.2649 -0.5417  0.6043
 3328SOL    HW121617   0.346   3.307  10.598 -1.7050  1.8068  0.4354
 3328SOL    HW221618   0.355   3.319  10.750 -1.0564 -0.1156  0.3130
 3329SOL     OW21619   0.958   0.593   8.647 -0.3985 -0.3253 -0.2680
 3329SOL    HW121620   0.924   0.545   8.571  0.1765 -1.3431  0.1135
 3329SOL    HW221621   0.925   0.680   8.626  0.6228 -0.0155 -0.5853
 3330SOL     OW21622   2.208   3.568  10.865 -0.1464  0.3154 -0.5568
 3330SOL    HW121623   2.238   3.539  10.779  1.3865 -0.5917  0.2818
 3330SOL    HW221624   2.166   3.487  10.895 -1.1351  0.2802 -2.0111
 3331SOL     OW21625   1.822   0.413   2.630 -0.1487 -0.5801  0.7615
 3331SOL    HW121626   1.799   0.416   2.538  2.3218  0.6444  0.1993
 3331SOL    HW221627   1.865   0.495   2.652 -0.4128 -0.5681  1.2503
 3332SOL     OW21628   0.375   2.283   6.798 -0.1797  0.0877  0.2904
 3332SOL    HW121629   0.395   2.190   6.804  1.7230  0.4570 -0.1571
 3332SOL    HW221630   0.419   2.316   6.877 -2.5545  0.4339  1.4744
 3333SOL     OW21631   1.681   4.134   6.625 -0.4695 -0.1040 -0.4924
 3333SOL    HW121632   1.597   4.111   6.587  0.0507 -1.4789 -0.8045
 3333SOL    HW221633   1.666   4.169   6.713 -2.8741 -1.5701 -0.3209
 3334SOL     OW21634   3.296   0.677  13.799  0.7597 -0.9511  0.2017
 3334SOL    HW121635   3.376   0.718  13.768 -0.4570  2.3009  1.3970
 3334SOL    HW221636   3.308   0.680  13.894 -0.1517 -2.0074  0.3605
 3335SOL     OW21637   1.266   1.863   7.318 -0.2407  0.1044 -0.2130
 3335SOL    HW121638   1.195   1.810   7.354  1.4726  0.4042  3.5527
 3335SOL    HW221639   1.337   1.838   7.378 -0.2239  0.4040 -0.1111
 3336SOL     OW21640   0.507   2.094  14.610  0.0903 -0.8092  0.7008
 3336SOL    HW121641   0.418   2.061  14.594 -0.3486  1.3538 -1.4369
 3336SOL    HW221642   0.486   2.150  14.685 -0.2661 -1.3443  0.9952
 3337SOL     OW21643   4.622   1.279   6.615  0.3310  0.1055  0.1274
 3337SOL    HW121644   4.618   1.236   6.700 -0.4151 -1.7775 -0.8563
 3337SOL    HW221645   4.608   1.213   6.547 -0.1620  1.4163 -1.0367
 3338SOL     OW21646   3.766   3.345   3.080 -0.3365  0.6798  0.1133
 3338SOL    HW121647   3.692   3.318   3.133 -0.5637 -0.9260 -1.0315
 3338SOL    HW221648   3.832   3.374   3.143 -0.5729  2.5534 -0.4833
 3339SOL     OW21649   3.662   0.920   6.421  0.1868  0.1513 -0.1811
 3339SOL    HW121650   3.752   0.938   6.392  0.8100 -2.2635  0.2762
 3339SOL    HW221651   3.667   0.825   6.434  1.7763  0.1974 -0.4066
 3340SOL     OW21652   3.697   0.665   4.357 -0.1455  0.3717  0.0387
 3340SOL    HW121653   3.601   0.661   4.352 -0.2383  2.2846  0.3639
 3340SOL    HW221654   3.698   0.616   4.439 -1.3253  1.3527  0.6320
 3341SOL     OW21655   2.821   4.080   3.700 -0.2584  0.3520  0.1104
 3341SOL    HW121656   2.861   4.165   3.682 -2.3576  0.7928 -2.3332
 3341SOL    HW221657   2.750   4.107   3.759  1.2828  2.4235  1.0111
 3342SOL     OW21658   1.741   4.527   5.782  0.1778  0.5951  0.1876
 3342SOL    HW121659   1.764   4.545   5.691  2.3054  1.9634  0.9920
 3342SOL    HW221660   1.681   4.453   5.774 -1.1548  1.5946  0.9315
 3343SOL     OW21661   4.660   2.832   3.301  0.2021  0.3375 -0.3773
 3343SOL    HW121662   0.006   2.868   3.318  0.1517  0.2864 -0.0216
 3343SOL    HW221663   4.659   2.853   3.207  0.6548 -0.1387 -0.4860
 3344SOL     OW21664   2.281   2.925   8.474 -0.9226 -0.0765 -0.1175
 3344SOL    HW121665   2.200   2.897   8.517 -2.8274  2.4398 -2.0808
 3344SOL    HW221666   2.268   2.889   8.386 -0.0009 -0.2824 -0.1657
 3345SOL     OW21667   1.802   2.833   5.656 -0.0303 -0.4727 -0.4219
 3345SOL    HW121668   1.721   2.791   5.627  0.2925  0.5961 -2.9142
 3345SOL    HW221669   1.819   2.800   5.744 -1.6351 -1.1702 -0.3909
 3346SOL     OW21670   2.512   4.660   6.794  0.9761  0.4538  0.0377
 3346SOL    HW121671   2.572   4.640   6.722  0.6716 -0.8873  0.1710
 3346SOL    HW221672   2.444   4.702   6.742 -0.5226 -2.6074 -0.4740
 3347SOL     OW21673   4.328   1.491   8.132  0.2847 -0.1518  0.1938
 3347SOL    HW121674   4.325   1.583   8.104 -2.6356 -0.5312 -0.7474
 3347SOL    HW221675   4.401   1.464   8.076 -0.0401  0.3440 -0.4756
 3348SOL     OW21676   3.782   3.059   3.031 -0.7015 -0.2097  0.1234
 3348SOL    HW121677   3.694   3.078   3.063 -0.9123  0.9373 -1.1673
 3348SOL    HW221678   3.807   3.142   2.992 -0.1450 -1.2294 -1.6559
 3349SOL     OW21679   2.575   2.519   7.213  0.4551 -0.2328 -0.0124
 3349SOL    HW121680   2.631   2.568   7.273 -0.4354 -0.7004  1.2139
 3349SOL    HW221681   2.643   2.465   7.173  1.3593  0.1871  0.9566
 3350SOL     OW21682   3.857   3.681   3.781 -0.5148 -0.1396 -0.5638
 3350SOL    HW121683   3.947   3.672   3.813 -0.7090  0.5410  0.1791
 3350SOL    HW221684   3.829   3.599   3.821 -1.6474 -0.0045 -1.1069
 3351SOL     OW21685   1.034   1.887   3.839 -0.3873  0.3065  0.1778
 3351SOL    HW121686   1.052   1.845   3.755  0.9127  0.3702  0.4385
 3351SOL    HW221687   1.021   1.806   3.889 -2.6032 -0.7582 -2.0649
 3352SOL     OW21688   3.028   4.331   7.019  0.0418  0.0945  0.2604
 3352SOL    HW121689   2.982   4.256   6.980  0.8196  0.7964 -1.9584
 3352SOL    HW221690   2.951   4.375   7.056  0.4111 -1.2637  2.6886
 3353SOL     OW21691   4.610   4.687   5.614  0.3283 -0.8048  0.0472
 3353SOL    HW121692   4.619   4.716   5.705 -3.8526 -0.0196  0.1879
 3353SOL    HW221693   4.516   4.681   5.598  0.0629  0.8322  0.9101
 3354SOL     OW21694   2.326   3.009   3.679 -0.2747 -0.4232  0.0972
 3354SOL    HW121695   2.354   3.001   3.588  0.7415 -2.4097  0.5734
 3354SOL    HW221696   2.231   3.003   3.666 -0.4844  0.0109  1.3908
 3355SOL     OW21697   3.026   2.803   6.468  0.1369  1.2476  0.2822
 3355SOL    HW121698   3.044   2.801   6.562  1.5412  0.0277 -0.0011
 3355SOL    HW221699   3.114   2.817   6.433  0.9741 -1.8210  1.1298
 3356SOL     OW21700   0.035   2.319   1.321 -0.1180 -0.0860  0.0339
 3356SOL    HW121701   0.078   2.392   1.277  1.3063 -0.4186  0.8495
 3356SOL    HW221702   0.109   2.294   1.377  0.6594  1.6769 -0.2114
 3357SOL     OW21703   3.046   2.273   4.811 -0.9652 -0.4282  0.2012
 3357SOL    HW121704   3.010   2.189   4.781  1.0742 -0.7695 -1.2599
 3357SOL    HW221705   3.026   2.319   4.730  0.3516 -1.1412 -0.5308
 3358SOL     OW21706   3.677   0.989   5.220 -0.1464  0.1295  0.3378
 3358SOL    HW121707   3.745   1.026   5.277 -0.1824  0.5692  0.0900
 3358SOL    HW221708   3.709   0.996   5.130 -1.7082  1.6125 -0.0888
 3359SOL     OW21709   0.504   0.370   4.622  0.1674 -0.5563 -0.6700
 3359SOL    HW121710   0.528   0.436   4.557  0.7208  0.2043  0.3095
 3359SOL    HW221711   0.529   0.284   4.589  0.5127 -0.6347 -0.2076
 3360SOL     OW21712   4.436   4.087   5.407 -0.1530 -0.0518  0.1812
 3360SOL    HW121713   4.507   4.073   5.470  0.6123  2.5735 -0.0934
 3360SOL    HW221714   4.490   4.110   5.332 -1.3572 -1.4578 -1.0910
 3361SOL     OW21715   3.638   0.837   5.832 -0.5468  0.2960 -0.3407
 3361SOL    HW121716   3.574   0.765   5.828  1.1812 -1.2608 -0.1102
 3361SOL    HW221717   3.581   0.913   5.822 -1.6694 -0.0383  3.3809
 3362SOL     OW21718   1.654   2.867   6.232  0.0637  0.1781  0.2929
 3362SOL    HW121719   1.627   2.888   6.321  2.8727 -1.3732  1.5318
 3362SOL    HW221720   1.590   2.924   6.189  0.4078 -0.5880 -1.2399
 3363SOL     OW21721   1.873   2.456   8.103  1.5231 -0.1814 -0.0041
 3363SOL    HW121722   1.811   2.417   8.040  0.6326  0.5837  0.3923
 3363SOL    HW221723   1.948   2.398   8.119  0.5969 -1.4317 -0.1640
 3364SOL     OW21724   3.785   1.292   3.982  0.6423  0.4073 -0.5261
 3364SOL    HW121725   3.741   1.309   3.899 -1.1574 -3.7481 -0.4358
 3364SOL    HW221726   3.715   1.267   4.041 -0.4948  0.0631 -2.0082
 3365SOL     OW21727   1.313   4.086   8.801  0.1147  0.1879 -0.2376
 3365SOL    HW121728   1.265   4.125   8.729  1.3324  0.4325 -0.9091
 3365SOL    HW221729   1.402   4.121   8.797  0.8262 -1.5444 -0.0087
 3366SOL     OW21730   0.248   3.868  15.811 -0.6329  0.0606 -0.2481
 3366SOL    HW121731   0.296   3.860  15.728 -0.4412 -0.9411 -0.0396
 3366SOL    HW221732   0.160   3.901  15.792 -0.0720 -0.0687 -3.0451
 3367SOL     OW21733   4.414   2.764   1.569 -0.2985 -0.3495 -0.2857
 3367SOL    HW121734   4.378   2.778   1.481  1.1707  1.9515 -0.5353
 3367SOL    HW221735   4.408   2.851   1.608 -3.1136 -1.1803  1.1260
 3368SOL     OW21736   1.745   1.416   2.243 -0.1157 -0.0490  0.1375
 3368SOL    HW121737   1.798   1.359   2.188  0.4429 -1.2930  2.0154
 3368SOL    HW221738   1.795   1.441   2.320 -0.0595  2.8120 -0.8087
 3369SOL     OW21739   0.167   1.739   5.686 -0.3862  0.1564 -0.2484
 3369SOL    HW121740   0.174   1.727   5.781 -1.8917 -2.6514 -0.5116
 3369SOL    HW221741   0.251   1.781   5.670  0.8231 -3.1918 -2.4551
 3370SOL     OW21742   4.037   3.458   9.052  0.2550 -1.1873  0.0933
 3370SOL    HW121743   4.110   3.415   9.098  0.7874  0.1075  0.4453
 3370SOL    HW221744   3.968   3.391   9.053  0.3544 -1.2894  0.2675
 3371SOL     OW21745   4.109   1.878  10.271 -0.2358 -0.0830  0.5234
 3371SOL    HW121746   4.192   1.846  10.306  0.4440 -0.4074 -1.4228
 3371SOL    HW221747   4.057   1.808  10.310 -0.9719 -0.5089 -1.2169
 3372SOL     OW21748   3.561   0.254   7.923  0.2414  0.3083  0.8602
 3372SOL    HW121749   3.580   0.313   7.850 -1.0152  1.3283  1.3378
 3372SOL    HW221750   3.535   0.313   7.994 -0.8958  0.5846  0.2117
 3373SOL     OW21751   2.261   2.083   4.352  0.5694 -0.4225  0.3872
 3373SOL    HW121752   2.188   2.084   4.413  0.7353 -2.6267  0.6256
 3373SOL    HW221753   2.261   1.992   4.321 -2.2735 -0.9191  1.9121
 3374SOL     OW21754   4.016   4.594   8.353 -0.2584  0.0549 -0.2500
 3374SOL    HW121755   4.017   4.652   8.276 -1.3746  0.2925 -0.0813
 3374SOL    HW221756   4.062   4.512   8.334 -0.0426  0.4300 -1.3510
 3375SOL     OW21757   4.126   4.438   6.457  0.4344  0.2542 -0.1356
 3375SOL    HW121758   4.089   4.518   6.420  0.3848  0.7305  0.9618
 3375SOL    HW221759   4.202   4.427   6.399 -0.0547  1.7148 -1.0411
 3376SOL     OW21760   0.574   1.588   0.302  0.2345  0.1148 -0.4469
 3376SOL    HW121761   0.637   1.653   0.333  0.1425  0.1326 -0.2947
 3376SOL    HW221762   0.622   1.537   0.238  1.1490  0.3356  0.0719
 3377SOL     OW21763   0.059   0.120   6.810  0.0942  0.1884  0.1099
 3377SOL    HW121764   0.111   0.201   6.806  1.1746 -0.6814 -3.5557
 3377SOL    HW221765   0.004   0.127   6.732  1.7105 -0.3518 -1.0662
 3378SOL     OW21766   4.025   1.950   0.540 -0.3462  0.2542 -0.0806
 3378SOL    HW121767   4.029   1.890   0.614 -0.4785 -0.6278 -0.7976
 3378SOL    HW221768   4.114   1.970   0.512 -0.8198  0.2909 -1.5609
 3379SOL     OW21769   4.461   4.331  14.670  0.0648  0.3607  0.3585
 3379SOL    HW121770   4.520   4.265  14.634  1.0820  0.3946  1.9673
 3379SOL    HW221771   4.387   4.277  14.695 -0.8740  1.0917 -0.8592
 3380SOL     OW21772   2.525   2.821   1.097 -0.7346  0.3637  0.5192
 3380SOL    HW121773   2.495   2.758   1.162  1.1809  0.1818  1.2378
 3380SOL    HW221774   2.486   2.902   1.131 -0.2278  0.8927 -0.1349
 3381SOL     OW21775   4.293   3.937   6.001 -0.0875 -0.4567 -0.2522
 3381SOL    HW121776   4.273   3.844   6.014  0.5428 -0.8526 -2.0908
 3381SOL    HW221777   4.236   3.964   5.929  1.1366 -0.7334 -1.3382
 3382SOL     OW21778   0.286   0.901   7.048 -0.0859 -0.6258 -0.4331
 3382SOL    HW121779   0.261   0.976   7.102  1.3090  0.4145 -1.2360
 3382SOL    HW221780   0.356   0.943   6.998  1.9472 -2.0238  1.2330
 3383SOL     OW21781   1.001   1.159   1.571 -0.0516  0.0377  0.5512
 3383SOL    HW121782   1.043   1.084   1.528 -0.5215 -0.1516  0.4200
 3383SOL    HW221783   0.999   1.127   1.661  0.0653 -1.2770  0.0903
 3384SOL     OW21784   4.698   2.258   0.840 -0.1771 -0.1094  0.1742
 3384SOL    HW121785   4.699   2.352   0.827  0.5239 -0.2070 -0.5223
 3384SOL    HW221786   4.670   2.254   0.931 -1.7761 -2.6814 -0.4299
 3385SOL     OW21787   4.238   1.217  10.228 -0.0570 -0.0627 -0.3006
 3385SOL    HW121788   4.158   1.227  10.280 -1.5399 -1.2655 -2.3660
 3385SOL    HW221789   4.294   1.287  10.261  0.6248 -0.4153 -0.7202
 3386SOL     OW21790   3.955   3.206   7.382  0.0494 -0.2036 -0.5577
 3386SOL    HW121791   4.036   3.186   7.335  0.8338 -0.7667  1.0440
 3386SOL    HW221792   3.962   3.302   7.382 -1.2010 -0.1040 -1.6998
 3387SOL     OW21793   0.047   1.840   3.637  0.3240  0.4443  0.3693
 3387SOL    HW121794   4.720   1.818   3.573  1.0654  0.0637 -0.2811
 3387SOL    HW221795   0.121   1.790   3.605 -1.6443 -2.0055 -0.3182
 3388SOL     OW21796   0.491   2.663   2.143  0.2368  0.7662  0.3372
 3388SOL    HW121797   0.400   2.694   2.140  0.6069  1.9386  0.9110
 3388SOL    HW221798   0.473   2.570   2.154 -1.8795  1.2886  1.2868
 3389SOL     OW21799   4.104   3.700  13.777  0.1634  0.4780 -0.0728
 3389SOL    HW121800   4.105   3.764  13.706 -1.5938  0.5682 -0.0053
 3389SOL    HW221801   4.061   3.757  13.841  1.0016  3.1042 -1.8356
 3390SOL     OW21802   2.905   3.956   9.157 -0.0703  0.0337  0.4305
 3390SOL    HW121803   2.917   3.958   9.252 -3.0081  0.2671  0.7715
 3390SOL    HW221804   2.815   3.986   9.158  0.3157  1.1805  0.3413
 3391SOL     OW21805   3.245   1.520   4.391 -0.6094  0.3161  0.1013
 3391SOL    HW121806   3.335   1.550   4.403 -0.4567 -0.3695  0.6824
 3391SOL    HW221807   3.270   1.438   4.347 -0.8250  1.1253 -1.5253
 3392SOL     OW21808   1.154   3.789   2.821  0.2733  0.4276  0.3255
 3392SOL    HW121809   1.240   3.774   2.861  0.8621  1.9016 -0.3856
 3392SOL    HW221810   1.161   3.751   2.733 -0.2929  0.6630  0.1803
 3393SOL     OW21811   3.260   0.340  16.406  0.2407 -0.1736  0.1978
 3393SOL    HW121812   3.278   0.371  16.318 -0.5316 -1.2664 -0.3489
 3393SOL    HW221813   3.343   0.342  16.454  0.0282 -1.1964  0.6125
 3394SOL     OW21814   2.170   4.083  10.122 -0.5925 -0.0064 -0.1987
 3394SOL    HW121815   2.118   4.047  10.194 -1.4537 -2.5872 -2.1024
 3394SOL    HW221816   2.153   4.013  10.059  2.5075 -0.4032 -0.5816
 3395SOL     OW21817   2.146   3.430  11.213  0.2466 -0.7566 -0.0924
 3395SOL    HW121818   2.125   3.522  11.198 -0.4722 -0.7549  0.8908
 3395SOL    HW221819   2.183   3.403  11.129 -1.0954 -0.2084 -0.8623
 3396SOL     OW21820   2.711   3.934   2.191 -0.0737 -0.2181  0.0443
 3396SOL    HW121821   2.767   3.993   2.240  0.0179 -0.3880  0.1432
 3396SOL    HW221822   2.648   3.996   2.154 -1.2471 -1.3907  0.0804
 3397SOL     OW21823   1.705   3.525  15.610 -0.6385 -0.0849 -0.0257
 3397SOL    HW121824   1.645   3.579  15.661  0.0663 -0.7498  1.5092
 3397SOL    HW221825   1.654   3.504  15.532  1.4447  2.2052 -1.9786
 3398SOL     OW21826   4.691   2.286   4.635 -0.4154 -0.4631  0.3854
 3398SOL    HW121827   4.647   2.221   4.580  1.1608 -1.4278  0.2696
 3398SOL    HW221828   4.622   2.336   4.679 -0.0532 -1.8986  2.5541
 3399SOL     OW21829   2.959   3.556   2.486 -0.6811  0.6385  0.0988
 3399SOL    HW121830   2.923   3.533   2.401 -1.1523 -0.9947  0.7328
 3399SOL    HW221831   2.899   3.515   2.549  0.2992 -1.8793 -0.5990
 3400SOL     OW21832   0.683   0.933  11.981  0.5955 -0.4896  0.8112
 3400SOL    HW121833   0.592   0.962  11.983  0.8308  0.2338  1.1152
 3400SOL    HW221834   0.697   0.947  12.074  0.4624  1.9484  0.4513
 3401SOL     OW21835   2.086   1.498   8.636  0.1785 -0.4602 -0.1293
 3401SOL    HW121836   1.998   1.493   8.672  0.5440 -0.7150  0.7369
 3401SOL    HW221837   2.060   1.545   8.556  0.4744  1.8475  1.1164
 3402SOL     OW21838   1.821   3.454   6.988  0.0392 -0.1210  0.4762
 3402SOL    HW121839   1.861   3.369   6.968 -0.6135 -0.5958  1.1977
 3402SOL    HW221840   1.803   3.483   6.898  1.0126  2.0994  0.9917
 3403SOL     OW21841   1.438   2.259   0.820 -0.0097  0.3067 -0.3302
 3403SOL    HW121842   1.385   2.335   0.847 -0.2118  0.5694 -1.4692
 3403SOL    HW221843   1.468   2.277   0.731  2.0843  2.3447  0.8090
 3404SOL     OW21844   1.883   1.063  17.048  0.3737 -0.2161 -0.0903
 3404SOL    HW121845   1.841   1.058  16.962 -1.0193  0.3819  0.5390
 3404SOL    HW221846   1.808   1.094  17.100  0.6714  0.5532 -0.1103
 3405SOL     OW21847   2.680   1.456   7.494  0.2789 -0.0632  0.4362
 3405SOL    HW121848   2.772   1.477   7.474  0.0172 -0.2357 -0.9117
 3405SOL    HW221849   2.692   1.372   7.539 -2.5386 -0.2951  0.7225
 3406SOL     OW21850   3.859   1.649  13.870 -1.0021 -0.0718  0.4654
 3406SOL    HW121851   3.931   1.682  13.924  0.7029 -0.2722 -1.6760
 3406SOL    HW221852   3.892   1.602  13.793 -0.8270  0.1691  0.3935
 3407SOL     OW21853   2.412   1.063   7.484  0.0880  0.9658 -0.2294
 3407SOL    HW121854   2.497   1.019   7.483 -0.1648  0.4698  0.3810
 3407SOL    HW221855   2.359   0.988   7.460 -1.5527  2.6239 -1.7270
 3408SOL     OW21856   3.652   4.586   3.217  0.1273  0.7139 -0.3139
 3408SOL    HW121857   3.742   4.554   3.229  0.5510  3.0346  2.9502
 3408SOL    HW221858   3.611   4.516   3.168 -0.0940  0.8649 -0.3442
 3409SOL     OW21859   0.817   0.627   3.485  0.0342  0.8452 -0.0698
 3409SOL    HW121860   0.748   0.674   3.531 -2.1931 -0.4059 -2.1697
 3409SOL    HW221861   0.811   0.543   3.531  2.0318  1.8610  2.0788
 3410SOL     OW21862   1.275   1.940  16.013 -0.0170 -0.6108 -0.4314
 3410SOL    HW121863   1.294   1.872  16.079  0.2242  1.4061  1.5837
 3410SOL    HW221864   1.297   1.889  15.935 -2.0392 -0.7395 -0.9198
 3411SOL     OW21865   1.626   3.936   7.536  0.3457  0.2332  0.4250
 3411SOL    HW121866   1.588   3.983   7.462  0.1660 -1.9447 -0.8632
 3411SOL    HW221867   1.597   3.846   7.523  0.7416  0.3676 -1.3850
 3412SOL     OW21868   3.392   4.369   6.246  0.4605 -0.2059  0.1638
 3412SOL    HW121869   3.322   4.309   6.219  2.0523 -2.8904  2.0395
 3412SOL    HW221870   3.410   4.421   6.168  0.6394  1.2345  1.1626
 3413SOL     OW21871   4.195   4.512   7.153  0.0516  0.4036 -0.0418
 3413SOL    HW121872   4.169   4.495   7.243 -2.1394 -0.4098 -0.8454
 3413SOL    HW221873   4.243   4.432   7.132  1.0531  0.4049  2.1798
 3414SOL     OW21874   0.466   0.337  10.144  0.7012 -0.1775  0.6144
 3414SOL    HW121875   0.555   0.338  10.110  0.8832 -1.3258  1.0428
 3414SOL    HW221876   0.484   0.377  10.229 -1.8740  0.3062  0.9322
 3415SOL     OW21877   0.217   3.916   8.188 -0.8787 -0.0174 -0.5978
 3415SOL    HW121878   0.237   3.890   8.278 -0.8133  1.6467 -0.1251
 3415SOL    HW221879   0.259   4.002   8.180  2.2749 -1.4432  0.6099
 3416SOL     OW21880   2.413   2.580   1.713 -0.6278 -0.3704 -0.2417
 3416SOL    HW121881   2.453   2.656   1.671 -1.0728  0.9075  1.6293
 3416SOL    HW221882   2.407   2.518   1.641 -0.0274 -0.6096 -0.0917
 3417SOL     OW21883   0.657   1.775   4.468 -0.0931 -0.1707  0.2025
 3417SOL    HW121884   0.603   1.732   4.402 -0.6023  0.5866  0.1313
 3417SOL    HW221885   0.741   1.784   4.421 -0.0981  0.9650  0.4035
 3418SOL     OW21886   4.535   4.220   7.534 -0.2434  0.4343  0.7904
 3418SOL    HW121887   4.484   4.301   7.525 -2.7493 -1.1052  1.1659
 3418SOL    HW221888   4.528   4.198   7.627  1.3299 -0.2982  0.7384
 3419SOL     OW21889   0.497   1.389  17.674  0.3171  0.5076 -0.5916
 3419SOL    HW121890   0.507   1.479  17.643 -0.0790  0.4643 -0.8550
 3419SOL    HW221891   0.561   1.347  17.617  0.6411  1.5559 -0.9998
 3420SOL     OW21892   0.765   2.475   2.789 -0.2544 -0.3927  0.5312
 3420SOL    HW121893   0.821   2.464   2.712  1.8420  2.0804  1.6998
 3420SOL    HW221894   0.787   2.388   2.822 -0.7089  0.0886  2.1251
 3421SOL     OW21895   4.045   3.036   0.551  0.2565 -0.2277 -0.1008
 3421SOL    HW121896   4.134   3.025   0.515  0.7886 -1.0460  1.4677
 3421SOL    HW221897   4.009   3.097   0.487  0.1218 -0.6132 -0.3911
 3422SOL     OW21898   2.636   0.312   4.836  0.2361  0.3144  0.0800
 3422SOL    HW121899   2.562   0.254   4.851  1.2656 -0.1999  3.2806
 3422SOL    HW221900   2.703   0.248   4.861  1.1933  0.5249 -1.9676
 3423SOL     OW21901   4.417   2.493   2.603  0.7034 -0.2964  0.0922
 3423SOL    HW121902   4.359   2.513   2.677  0.5822 -0.7456  0.1212
 3423SOL    HW221903   4.445   2.580   2.575  1.2717 -0.2115  0.9461
 3424SOL     OW21904   4.039   4.629   4.392 -0.3083 -0.0681  0.7794
 3424SOL    HW121905   4.134   4.620   4.399 -0.3460 -0.2978  1.0095
 3424SOL    HW221906   4.017   4.538   4.415  2.9154 -0.5768  1.8806
 3425SOL     OW21907   4.488   2.759   2.542  0.1990  0.1042 -1.1805
 3425SOL    HW121908   4.479   2.716   2.457 -1.2504 -0.1972 -0.8758
 3425SOL    HW221909   4.571   2.807   2.538  0.6706 -0.3569  2.6007
 3426SOL     OW21910   2.800   3.252   6.468  0.3118 -0.3216  0.2743
 3426SOL    HW121911   2.809   3.275   6.376  0.6272 -0.2211  0.3299
 3426SOL    HW221912   2.769   3.162   6.461 -0.2798 -0.0874 -0.0629
 3427SOL     OW21913   2.829   1.082   3.092 -0.7381 -0.3047 -0.1477
 3427SOL    HW121914   2.895   1.051   3.029 -1.6317 -2.2343 -0.1471
 3427SOL    HW221915   2.783   1.152   3.046  1.7433  1.3118 -0.1423
 3428SOL     OW21916   1.893   4.673   2.125  0.1576  0.2448  0.2891
 3428SOL    HW121917   1.818   4.632   2.168  0.1189  1.0755  1.0070
 3428SOL    HW221918   1.877   4.666   2.031 -1.2891 -0.7216  0.6163
 3429SOL     OW21919   0.552   2.874   3.346  0.3066  0.3813  0.3227
 3429SOL    HW121920   0.563   2.923   3.265  0.0563  0.7091  0.4854
 3429SOL    HW221921   0.598   2.796   3.317  1.1200  0.9467  0.0809
 3430SOL     OW21922   1.007   3.476   8.136 -0.2734 -0.6500  0.5523
 3430SOL    HW121923   0.950   3.407   8.171 -2.3863  0.5649 -0.5094
 3430SOL    HW221924   0.969   3.559   8.162  0.0893  0.1718 -1.5547
 3431SOL     OW21925   3.555   3.956   6.723 -0.1586 -0.2691  0.8447
 3431SOL    HW121926   3.552   3.917   6.636  2.6681  0.1436  0.5867
 3431SOL    HW221927   3.596   4.041   6.707  1.0082 -1.1291 -0.7132
 3432SOL     OW21928   2.128   3.856   4.163  0.9517  0.5084  0.1488
 3432SOL    HW121929   2.178   3.776   4.146  0.3086  0.7313 -2.8780
 3432SOL    HW221930   2.080   3.826   4.239 -0.0280 -1.7061 -1.3282
 3433SOL     OW21931   1.525   0.150   0.354 -0.1736  0.5631  0.3565
 3433SOL    HW121932   1.614   0.115   0.357 -0.2282  0.4325  0.4089
 3433SOL    HW221933   1.490   0.113   0.272 -0.3479 -0.5547  0.9443
 3434SOL     OW21934   0.274   0.533  16.271 -0.3343 -0.4422 -0.4185
 3434SOL    HW121935   0.312   0.468  16.212  0.9475 -1.1501  1.1857
 3434SOL    HW221936   0.351   0.564  16.319  1.7447  0.2204 -4.1766
 3435SOL     OW21937   2.454   3.266  16.893  0.2620  0.1696  0.1327
 3435SOL    HW121938   2.436   3.215  16.972 -1.0196 -2.2589 -1.7291
 3435SOL    HW221939   2.497   3.200  16.838 -1.7071  1.4163 -2.8996
 3436SOL     OW21940   0.808   1.513   1.447 -0.2989  0.0703  0.4275
 3436SOL    HW121941   0.792   1.445   1.512 -1.7600  1.6761  1.7460
 3436SOL    HW221942   0.902   1.528   1.457 -0.2357  0.4481 -0.6851
 3437SOL     OW21943   2.336   4.240   6.232  0.5500  0.8374  0.5005
 3437SOL    HW121944   2.327   4.335   6.230 -3.7593  0.4254  0.1007
 3437SOL    HW221945   2.250   4.214   6.266  0.9065 -1.5619 -0.3932
 3438SOL     OW21946   1.069   0.179  11.013  0.2615 -0.1738 -0.1129
 3438SOL    HW121947   1.084   0.100  11.066  1.4826 -0.2846 -0.6231
 3438SOL    HW221948   1.091   0.247  11.077 -1.0325  0.1420  0.0006
 3439SOL     OW21949   4.272   4.691   9.714 -0.0103  0.3420 -0.4455
 3439SOL    HW121950   4.342   4.643   9.670  0.1063  0.9024 -0.8620
 3439SOL    HW221951   4.323   4.720   9.790 -0.7441 -0.8181  0.4940
 3440SOL     OW21952   4.125   4.012  12.714  0.2230  0.3734  0.2692
 3440SOL    HW121953   4.117   4.063  12.794  0.6954 -0.3885  0.8031
 3440SOL    HW221954   4.139   4.085  12.654  3.6554 -1.7220 -1.5491
 3441SOL     OW21955   4.640   3.779   4.278 -0.0279 -0.5247 -0.1779
 3441SOL    HW121956   4.725   3.784   4.235 -1.0685  1.0766 -2.0535
 3441SOL    HW221957   4.642   3.837   4.353  0.7055 -1.8483  0.8297
 3442SOL     OW21958   2.653   4.594  14.411  0.3922  0.4893  0.2442
 3442SOL    HW121959   2.697   4.517  14.374  0.8706  0.4070  0.9957
 3442SOL    HW221960   2.731   4.620  14.460  0.5896  3.2818 -1.5431
 3443SOL     OW21961   3.355   2.823   1.626  0.1680  0.4245 -0.4570
 3443SOL    HW121962   3.268   2.849   1.597 -0.3231 -0.5396  0.1505
 3443SOL    HW221963   3.357   2.728   1.618 -1.7718  0.1708  1.8961
 3444SOL     OW21964   1.633   4.399   3.973 -0.0518  0.7915  0.2090
 3444SOL    HW121965   1.721   4.388   4.009 -0.4357  2.6474  1.6669
 3444SOL    HW221966   1.583   4.326   4.010 -1.3852  1.3498 -0.5050
 3445SOL     OW21967   1.893   1.490   6.616  0.1042  0.1476 -0.3213
 3445SOL    HW121968   1.820   1.459   6.564 -1.2558  0.6048  1.3292
 3445SOL    HW221969   1.960   1.425   6.592  0.3617  0.7226 -1.1560
 3446SOL     OW21970   3.458   3.072   6.555  0.3417  0.1605  0.2989
 3446SOL    HW121971   3.548   3.078   6.524  0.2209  0.4455  0.0005
 3446SOL    HW221972   3.406   3.047   6.479  1.4286 -1.8868  0.2395
 3447SOL     OW21973   1.109   2.493   9.179 -0.1014 -0.4866  0.6977
 3447SOL    HW121974   1.042   2.552   9.213 -1.3302  0.0653 -2.6099
 3447SOL    HW221975   1.061   2.452   9.106  4.3001 -1.1902 -1.7878
 3448SOL     OW21976   4.441   0.393   4.995 -0.4301  0.1478 -0.0380
 3448SOL    HW121977   4.475   0.306   4.973 -0.0735  0.2299  0.1863
 3448SOL    HW221978   4.495   0.415   5.071  1.8382  0.4681 -1.7362
 3449SOL     OW21979   3.975   2.024   0.189  0.0059 -0.1304 -0.3591
 3449SOL    HW121980   3.941   2.111   0.168 -1.2378 -0.2444  1.1717
 3449SOL    HW221981   3.929   2.003   0.270  1.6033 -1.4678  0.2025
 3450SOL     OW21982   4.019   2.429   7.117  0.0443  0.0385  0.4033
 3450SOL    HW121983   4.030   2.469   7.203  1.5025 -1.0641  0.7369
 3450SOL    HW221984   3.940   2.377   7.133 -0.9117  1.4054  0.0826
 3451SOL     OW21985   4.078   1.070   4.834 -0.1754 -0.1463 -0.6926
 3451SOL    HW121986   4.078   1.021   4.752 -1.9689  0.8025 -1.2606
 3451SOL    HW221987   4.091   1.162   4.811  3.3948 -0.0131  1.7042
 3452SOL     OW21988   1.996   4.325  16.870 -0.0972  0.0756 -0.1187
 3452SOL    HW121989   2.009   4.259  16.938 -0.4811  2.5791  2.4023
 3452SOL    HW221990   1.991   4.276  16.788  0.6266 -1.1797  0.5698
 3453SOL     OW21991   2.489   4.104   8.184 -0.1239 -0.4660 -0.2512
 3453SOL    HW121992   2.547   4.165   8.231 -0.2101 -2.5422  2.5599
 3453SOL    HW221993   2.534   4.119   8.101  0.0894 -0.9188 -0.2191
 3454SOL     OW21994   2.914   3.677   6.132  0.3785  0.5967  0.4564
 3454SOL    HW121995   2.828   3.685   6.173  0.1875  1.5349 -0.1233
 3454SOL    HW221996   2.963   3.753   6.164 -1.0803  0.8948  1.9460
 3455SOL     OW21997   2.218   1.825   3.244 -0.0600 -0.2439  0.4793
 3455SOL    HW121998   2.283   1.884   3.282  0.7485 -0.4434 -0.5983
 3455SOL    HW221999   2.152   1.812   3.312  1.1709  1.5178  2.0027
 3456SOL     OW22000   0.854   1.656   3.404  0.7515  0.2300 -0.3146
 3456SOL    HW122001   0.769   1.699   3.411  0.8380  0.4400 -0.5233
 3456SOL    HW222002   0.843   1.572   3.448 -1.3636  0.6152 -0.1427
 3457SOL     OW22003   1.228   1.156   3.419  0.3851  0.2124 -0.5579
 3457SOL    HW122004   1.210   1.119   3.332 -0.4274 -1.7431  0.4546
 3457SOL    HW222005   1.163   1.109   3.471  2.1602  0.6650  2.0571
 3458SOL     OW22006   0.765   4.715   2.673 -0.3471 -0.5383  0.0112
 3458SOL    HW122007   0.817   4.668   2.739  2.0930  2.9105  0.5494
 3458SOL    HW222008   0.676   4.687   2.690 -0.4220 -1.1603 -1.4174
 3459SOL     OW22009   4.011   2.401   5.826  0.1250  0.0985 -0.2819
 3459SOL    HW122010   3.985   2.491   5.844  0.2291  0.1227 -0.2496
 3459SOL    HW222011   3.951   2.346   5.877 -0.1688  1.0444  0.3984
 3460SOL     OW22012   2.285   1.047  11.420 -0.2833 -0.1791  0.2381
 3460SOL    HW122013   2.329   1.112  11.475 -0.3539  2.7533 -3.2102
 3460SOL    HW222014   2.335   1.033  11.340 -1.6441 -2.1095 -0.2724
 3461SOL     OW22015   1.038   2.059   3.574  0.5508  0.7320  0.2771
 3461SOL    HW122016   1.050   1.989   3.509  1.4900  0.4359  0.7753
 3461SOL    HW222017   0.975   2.032   3.641  1.2932  1.2853  1.2041
 3462SOL     OW22018   4.324   1.942   7.714 -0.1646  0.1448 -0.0889
 3462SOL    HW122019   4.301   2.019   7.766 -2.1325 -1.1119  0.9021
 3462SOL    HW222020   4.368   1.981   7.639 -2.6241  1.2703 -0.9119
 3463SOL     OW22021   0.939   1.578  13.534 -0.2891 -0.1526 -0.0552
 3463SOL    HW122022   0.950   1.555  13.441  2.1821  1.4923 -0.1943
 3463SOL    HW222023   0.947   1.491  13.572  1.1747 -0.4423 -1.0303
 3464SOL     OW22024   0.319   1.601   8.764  0.0296 -0.8661 -0.0496
 3464SOL    HW122025   0.326   1.636   8.853 -2.1734  0.5783 -0.4614
 3464SOL    HW222026   0.227   1.620   8.745  0.2991 -2.5274 -3.0273
 3465SOL     OW22027   0.037   0.471   4.652 -0.4110 -0.2507 -0.2047
 3465SOL    HW122028   4.703   0.526   4.629 -0.5805 -0.6573 -0.6190
 3465SOL    HW222029   4.738   0.431   4.729  1.7992  0.2512  1.2328
 3466SOL     OW22030   2.181   3.104   2.747  0.5871  0.5686  0.0883
 3466SOL    HW122031   2.215   3.191   2.767 -0.3858  0.5776  1.6548
 3466SOL    HW222032   2.117   3.104   2.817  0.9820  0.3744  0.4508
 3467SOL     OW22033   2.810   3.610  10.223 -0.4675 -0.1381  0.2839
 3467SOL    HW122034   2.896   3.568  10.215 -0.2662  0.4433 -0.6358
 3467SOL    HW222035   2.822   3.667  10.298 -1.5155 -0.6047  0.8025
 3468SOL     OW22036   1.173   2.367   2.020 -0.4151 -0.6618 -0.9403
 3468SOL    HW122037   1.126   2.422   1.958  1.3426 -0.4860 -2.1087
 3468SOL    HW222038   1.236   2.432   2.051  0.0211 -1.0149 -1.0937
 3469SOL     OW22039   0.904   1.527   7.530  0.0520  0.2771  0.5898
 3469SOL    HW122040   0.818   1.555   7.499 -0.0624  2.1100  2.5248
 3469SOL    HW222041   0.909   1.438   7.497 -2.4513  0.6280 -0.7388
 3470SOL     OW22042   4.632   3.760  10.520  0.4084 -0.5500  0.9056
 3470SOL    HW122043   4.718   3.726  10.494  0.7555  2.0112 -1.2652
 3470SOL    HW222044   4.653   3.818  10.593  1.1752  1.1383 -0.6762
 3471SOL     OW22045   0.386   2.321  16.603  0.0552 -0.2899  0.2429
 3471SOL    HW122046   0.353   2.341  16.515 -0.7742 -1.1079  0.3675
 3471SOL    HW222047   0.403   2.409  16.637  0.6903 -1.0841  1.9873
 3472SOL     OW22048   0.302   0.527  12.090 -0.2478  0.2584 -0.1910
 3472SOL    HW122049   0.247   0.509  12.166  1.5577 -1.5076  0.7053
 3472SOL    HW222050   0.230   0.511  12.028 -0.8878  0.8211  0.4085
 3473SOL     OW22051   0.339   4.402   6.285  0.7456  0.9129 -0.1324
 3473SOL    HW122052   0.358   4.429   6.375  0.6797 -2.0803  0.7620
 3473SOL    HW222053   0.364   4.485   6.244 -0.5768  2.0546  1.3791
 3474SOL     OW22054   0.395   3.922  11.415 -0.2782  0.0773  0.7679
 3474SOL    HW122055   0.337   3.998  11.411 -0.5890 -0.2380 -0.4645
 3474SOL    HW222056   0.385   3.897  11.324  1.6105  0.1855  0.5332
 3475SOL     OW22057   1.445   3.344   3.820  0.1516  0.5076 -0.0436
 3475SOL    HW122058   1.437   3.356   3.914  0.4660  0.9237 -0.0708
 3475SOL    HW222059   1.489   3.427   3.805  0.8503  0.4020  1.4087
 3476SOL     OW22060   1.818   1.084  14.744  0.4483  0.0500 -0.1133
 3476SOL    HW122061   1.778   1.169  14.727 -2.2455 -1.4171 -1.0770
 3476SOL    HW222062   1.764   1.056  14.817 -1.4321  1.8605 -0.8075
 3477SOL     OW22063   2.164   2.164  15.064 -0.3520 -0.1745 -0.4911
 3477SOL    HW122064   2.227   2.097  15.093  0.4850  0.1988 -1.4729
 3477SOL    HW222065   2.157   2.215  15.145  1.5665  1.2982 -1.2524
 3478SOL     OW22066   3.785   2.794   4.135  0.4410 -0.0399 -0.1945
 3478SOL    HW122067   3.814   2.771   4.047  1.0552  0.8468 -0.2242
 3478SOL    HW222068   3.840   2.750   4.200  0.6469  0.7747  0.1790
 3479SOL     OW22069   4.364   3.215   6.158  0.1658  0.1253  0.0770
 3479SOL    HW122070   4.446   3.183   6.122  1.9056  1.6467  2.6581
 3479SOL    HW222071   4.333   3.141   6.209  2.0923 -0.3910  0.4682
 3480SOL     OW22072   3.027   3.325   7.069  0.0140 -0.0684  0.5589
 3480SOL    HW122073   2.968   3.361   7.004 -0.1600 -2.8386 -0.8106
 3480SOL    HW222074   3.104   3.382   7.076  1.0334 -1.4403  0.4657
 3481SOL     OW22075   0.118   2.636   6.572  0.0304 -0.4194  0.2745
 3481SOL    HW122076   0.184   2.596   6.515 -0.0506  0.3459 -0.3528
 3481SOL    HW222077   0.157   2.644   6.659 -2.8960  0.3943  1.4959
 3482SOL     OW22078   0.973   3.790   9.924 -0.4038  0.1655 -0.0479
 3482SOL    HW122079   0.882   3.765   9.906 -0.7813 -0.6765  3.0212
 3482SOL    HW222080   1.014   3.716   9.969  1.2582  1.9422  1.3391
 3483SOL     OW22081   3.253   0.481   7.344  0.2348 -0.1882 -0.2376
 3483SOL    HW122082   3.268   0.414   7.278  0.4104 -1.2487  0.8822
 3483SOL    HW222083   3.285   0.556   7.293 -1.9291  0.9411  0.0404
 3484SOL     OW22084   4.729   1.173   8.114  0.3270 -0.0317  0.4845
 3484SOL    HW122085   0.065   1.153   8.061 -0.9247 -0.0482 -1.3401
 3484SOL    HW222086   0.035   1.176   8.197 -1.3858  0.6277  1.4216
 3485SOL     OW22087   2.091   3.140   2.480 -0.1094  0.5002  0.3618
 3485SOL    HW122088   2.008   3.113   2.518  1.3087  0.0417  3.0921
 3485SOL    HW222089   2.151   3.133   2.554 -0.7724 -2.5713  0.6141
 3486SOL     OW22090   4.191   3.079   4.748 -0.3158 -0.1055  0.4973
 3486SOL    HW122091   4.223   3.106   4.834  0.2590 -1.1064  0.5931
 3486SOL    HW222092   4.100   3.074   4.776 -0.4562 -1.2982 -0.1971
 3487SOL     OW22093   0.926   1.747   8.448 -0.3108 -0.1340  0.4902
 3487SOL    HW122094   0.905   1.759   8.541  0.2866  0.0556  0.6036
 3487SOL    HW222095   1.018   1.773   8.441 -0.2430 -0.4901  0.0654
 3488SOL     OW22096   2.855   3.927   2.935 -0.5355  0.1766  0.1006
 3488SOL    HW122097   2.929   3.893   2.985 -1.3892 -0.3835  1.0088
 3488SOL    HW222098   2.877   3.871   2.861  1.2729  2.7057 -1.2471
 3489SOL     OW22099   3.190   0.896   3.849 -0.4612 -0.0376 -0.5689
 3489SOL    HW122100   3.110   0.880   3.900  1.2191 -0.1777  2.0529
 3489SOL    HW222101   3.253   0.846   3.902 -1.2846 -0.2404  0.2261
 3490SOL     OW22102   4.302   4.145   3.510  0.1951 -0.0954 -0.1804
 3490SOL    HW122103   4.235   4.205   3.544 -0.8155 -1.0899 -0.4447
 3490SOL    HW222104   4.260   4.059   3.507 -0.3400  0.2215 -1.6792
 3491SOL     OW22105   1.496   1.245  15.694  0.4802 -0.3470  0.0696
 3491SOL    HW122106   1.504   1.249  15.599 -1.9466 -2.3992 -0.2053
 3491SOL    HW222107   1.570   1.296  15.727  0.0124 -0.1247  0.7850
 3492SOL     OW22108   3.558   2.115   0.537 -0.5283  0.1905  0.6639
 3492SOL    HW122109   3.480   2.127   0.483 -1.4439 -0.3337  1.8520
 3492SOL    HW222110   3.559   2.180   0.607  0.2649 -1.2155  1.9629
 3493SOL     OW22111   3.654   1.866   4.774  0.1932 -0.0252  0.6525
 3493SOL    HW122112   3.584   1.909   4.822  0.3433  1.3543 -0.3811
 3493SOL    HW222113   3.686   1.943   4.727  0.4822 -0.2328  0.4989
 3494SOL     OW22114   0.471   2.522   3.056 -0.1324  0.1616 -0.1345
 3494SOL    HW122115   0.398   2.546   2.999 -0.4383  0.2455  0.2960
 3494SOL    HW222116   0.519   2.456   3.006  2.2258  0.5370  1.6064
 3495SOL     OW22117   1.192   2.437   6.910 -0.2911 -0.2052 -0.1941
 3495SOL    HW122118   1.154   2.514   6.867  0.6019  2.0861  3.0364
 3495SOL    HW222119   1.249   2.396   6.846  1.4336 -2.3405  2.6998
 3496SOL     OW22120   0.505   1.360   6.801  0.1157  0.0018 -0.2401
 3496SOL    HW122121   0.434   1.416   6.770  0.4299 -1.3428 -3.3647
 3496SOL    HW222122   0.455   1.295   6.849 -0.2406  0.9356  0.6415
 3497SOL     OW22123   3.041   3.800   2.458 -0.4153  0.3195 -0.7964
 3497SOL    HW122124   3.029   3.810   2.364 -2.1224 -0.1115 -0.6145
 3497SOL    HW222125   2.997   3.716   2.474 -0.9082  0.8770  0.8145
 3498SOL     OW22126   4.016   1.803   4.164 -0.1265 -0.2467 -0.2179
 3498SOL    HW122127   4.007   1.709   4.181  0.2045 -0.1319  0.5888
 3498SOL    HW222128   4.009   1.834   4.255 -1.4258 -0.0903 -0.3718
 3499SOL     OW22129   2.500   1.012  13.524  0.2695 -0.1257  0.0723
 3499SOL    HW122130   2.468   1.091  13.481  1.0773 -1.1745 -2.4716
 3499SOL    HW222131   2.490   1.045  13.613 -1.0065 -0.2907 -0.0144
 3500SOL     OW22132   0.859   1.308   9.273 -0.0674 -0.9694 -0.2345
 3500SOL    HW122133   0.805   1.237   9.240 -1.5682  0.1531 -0.2123
 3500SOL    HW222134   0.937   1.268   9.312  1.9332  2.3331 -0.7981
 3501SOL     OW22135   1.161   2.273   5.585  0.1520  0.5867 -0.0857
 3501SOL    HW122136   1.108   2.232   5.517 -0.6004  2.4051 -0.6021
 3501SOL    HW222137   1.097   2.271   5.655  0.9596  1.0337  0.6659
 3502SOL     OW22138   1.679   4.427   2.765  0.2117 -0.1899  0.1451
 3502SOL    HW122139   1.611   4.492   2.781  0.0984  0.0040 -1.1585
 3502SOL    HW222140   1.715   4.427   2.854  0.6195  1.2389 -0.0334
 3503SOL     OW22141   2.440   2.577  11.234  0.0150 -0.1230 -0.0527
 3503SOL    HW122142   2.490   2.650  11.197 -0.7815 -0.3144 -1.5309
 3503SOL    HW222143   2.457   2.509  11.169 -3.0076  1.3376 -2.4292
 3504SOL     OW22144   4.557   3.906   8.256 -0.0282 -0.0407  0.0986
 3504SOL    HW122145   4.545   3.995   8.291  0.0323  0.6690 -1.6876
 3504SOL    HW222146   4.546   3.852   8.334 -1.3324  0.2008  0.0811
 3505SOL     OW22147   3.559   3.538   5.873  0.3234  0.1945  0.0104
 3505SOL    HW122148   3.595   3.475   5.811  1.0814  1.4297 -0.8142
 3505SOL    HW222149   3.628   3.603   5.890 -1.8527  2.2026  1.1467
 3506SOL     OW22150   2.487   3.893   0.474 -0.6299  0.9009  0.3607
 3506SOL    HW122151   2.556   3.895   0.540  0.1994  0.5925 -0.4983
 3506SOL    HW222152   2.433   3.824   0.513 -1.4665  1.6329  0.4904
 3507SOL     OW22153   2.067   1.709   4.584  0.0656 -0.1352  0.3419
 3507SOL    HW122154   2.068   1.748   4.672 -0.2995 -1.0449  0.7453
 3507SOL    HW222155   1.978   1.727   4.552  0.3675  1.2449  0.2836
 3508SOL     OW22156   3.521   1.114  12.834 -0.1253 -0.3887 -0.0774
 3508SOL    HW122157   3.508   1.043  12.896  0.9900  0.0035  0.6008
 3508SOL    HW222158   3.461   1.183  12.863  1.2200  1.0113 -0.6445
 3509SOL     OW22159   0.619   1.287   7.113 -0.1633  0.2865 -0.2743
 3509SOL    HW122160   0.649   1.377   7.125 -1.3602  0.6831 -0.3001
 3509SOL    HW222161   0.543   1.296   7.171  1.2362  1.5004  1.3991
 3510SOL     OW22162   1.391   4.233   7.484  0.3179  0.5818 -0.5752
 3510SOL    HW122163   1.476   4.217   7.443  0.9968  1.5423  0.4457
 3510SOL    HW222164   1.389   4.161   7.547 -0.5203  0.3409 -0.8820
 3511SOL     OW22165   1.884   4.489   6.032  0.1852 -0.7252  0.3896
 3511SOL    HW122166   1.847   4.513   5.947 -0.4928 -0.7785  0.6647
 3511SOL    HW222167   1.941   4.416   6.007  1.0035  0.2390 -0.5710
 3512SOL     OW22168   1.822   3.611  10.086 -0.3322 -0.2516  0.3398
 3512SOL    HW122169   1.844   3.668  10.013  1.4011 -0.6412  0.5519
 3512SOL    HW222170   1.727   3.610  10.077 -0.3100 -0.6946  0.1803
 3513SOL     OW22171   1.554   3.678   7.557  0.7634  0.1015  0.0293
 3513SOL    HW122172   1.590   3.604   7.607  3.0966  0.7830 -0.6731
 3513SOL    HW222173   1.539   3.631   7.476  1.0178 -1.1254  0.6920
 3514SOL     OW22174   1.055   3.582  17.538  0.4686 -0.1370  0.4630
 3514SOL    HW122175   0.984   3.565  17.476  0.8049  0.5243 -0.1110
 3514SOL    HW222176   1.052   3.677  17.549  2.3952 -0.0282 -0.0034
 3515SOL     OW22177   1.288   0.095   5.715 -0.0247  0.6062  0.4862
 3515SOL    HW122178   1.366   0.071   5.763 -0.0953  0.0380  0.3111
 3515SOL    HW222179   1.285   0.190   5.732 -1.1029  0.4296  1.2943
 3516SOL     OW22180   4.406   2.626  13.805  0.1693  0.3411 -0.3098
 3516SOL    HW122181   4.359   2.548  13.774 -0.1106  1.1006 -1.8478
 3516SOL    HW222182   4.344   2.699  13.804 -1.0609 -0.6934  3.8185
 3517SOL     OW22183   0.116   1.033   6.693  0.1791 -0.0759  0.0532
 3517SOL    HW122184   0.062   1.025   6.614 -1.1013  0.3666  0.8821
 3517SOL    HW222185   0.064   1.090   6.749 -0.4316  0.4571 -1.0480
 3518SOL     OW22186   3.932   3.743   8.406 -0.5089  0.1405  0.1744
 3518SOL    HW122187   3.984   3.797   8.346  0.1345 -0.2051  0.4337
 3518SOL    HW222188   3.911   3.807   8.475  0.8882  1.4258 -0.5799
 3519SOL     OW22189   2.628   2.877   2.923  0.2664 -0.3643 -0.0188
 3519SOL    HW122190   2.571   2.801   2.931 -2.0219  1.1907 -1.4945
 3519SOL    HW222191   2.662   2.885   3.012  3.0603  1.5592 -1.2636
 3520SOL     OW22192   1.571   0.821  13.433 -0.5151  0.1530 -0.2944
 3520SOL    HW122193   1.539   0.734  13.457 -0.6293  0.7177  1.5713
 3520SOL    HW222194   1.656   0.810  13.391  0.1396  0.4375  0.9682
 3521SOL     OW22195   1.076   0.252   6.915  0.5067  0.0884 -0.4158
 3521SOL    HW122196   1.158   0.271   6.959  1.0823  0.1164 -1.4819
 3521SOL    HW222197   1.043   0.341   6.903 -0.0236 -0.4695 -3.2810
 3522SOL     OW22198   3.795   2.282   8.680  0.3828  0.0829  0.0690
 3522SOL    HW122199   3.775   2.217   8.613 -0.9620  0.5025  0.0699
 3522SOL    HW222200   3.873   2.243   8.719  1.1831  0.6018 -1.0084
 3523SOL     OW22201   0.114   3.155   9.117 -0.4966  0.4143 -0.3733
 3523SOL    HW122202   0.077   3.087   9.060 -0.8968  0.1492  0.2023
 3523SOL    HW222203   0.057   3.141   9.193 -2.7381 -0.4252 -2.2028
 3524SOL     OW22204   1.964   3.621   2.503 -0.4232 -0.3158  0.1830
 3524SOL    HW122205   1.933   3.704   2.468  2.3858  0.0915 -1.3631
 3524SOL    HW222206   2.050   3.645   2.538 -0.4186  0.0460 -0.0777
 3525SOL     OW22207   0.269   3.567   3.024  0.0815 -0.6435 -0.7679
 3525SOL    HW122208   0.306   3.635   2.967 -0.3587  0.3984  0.1926
 3525SOL    HW222209   0.253   3.618   3.104 -0.8607 -0.7969 -0.8529
 3526SOL     OW22210   0.364   3.860   7.922 -0.1774 -0.2803  0.1958
 3526SOL    HW122211   0.300   3.793   7.897 -1.7296  1.0454  0.6492
 3526SOL    HW222212   0.322   3.889   8.003 -1.3555 -1.2633 -0.0552
 3527SOL     OW22213   3.704   4.411   1.831 -0.3996 -0.0984 -0.5562
 3527SOL    HW122214   3.653   4.332   1.847  0.8283 -0.7827 -0.0389
 3527SOL    HW222215   3.788   4.378   1.862 -0.8745 -1.3297 -0.5981
 3528SOL     OW22216   2.497   4.358   5.305  0.0145 -0.5754 -0.3383
 3528SOL    HW122217   2.439   4.425   5.268 -0.5452  0.0498  1.7198
 3528SOL    HW222218   2.450   4.280   5.274  0.6238 -1.6634  1.4946
 3529SOL     OW22219   4.005   1.571   7.981  0.3407 -0.1430 -0.4747
 3529SOL    HW122220   3.979   1.586   7.890  0.3325  1.4308 -0.2198
 3529SOL    HW222221   4.100   1.571   7.976  0.3256 -1.4460 -0.6670
 3530SOL     OW22222   3.687   0.553   3.273  0.4225 -0.2639 -0.2319
 3530SOL    HW122223   3.592   0.563   3.278  0.1889 -1.8705 -1.4217
 3530SOL    HW222224   3.710   0.644   3.289 -0.7839  0.1182 -0.6596
 3531SOL     OW22225   2.285   0.054   6.240 -0.2112 -0.5534  0.4844
 3531SOL    HW122226   2.359   0.113   6.237  0.4359 -1.2637  2.1568
 3531SOL    HW222227   2.213   0.117   6.243 -0.8858 -1.3990  2.5085
 3532SOL     OW22228   0.903   3.151  10.924 -0.3896  0.3241 -0.0098
 3532SOL    HW122229   0.895   3.245  10.909  0.1191  0.3961  0.1455
 3532SOL    HW222230   0.998   3.146  10.935 -0.2009 -1.6756 -2.5166
 3533SOL     OW22231   0.580   4.057  16.250  0.0399 -0.8717  0.1091
 3533SOL    HW122232   0.539   3.976  16.219 -1.4037 -0.1373  0.0942
 3533SOL    HW222233   0.514   4.125  16.238  0.9940  0.1726  0.7277
 3534SOL     OW22234   4.734   2.105   2.764 -0.6308 -0.3234  0.3369
 3534SOL    HW122235   4.676   2.029   2.756 -0.8302 -0.4970  3.1768
 3534SOL    HW222236   0.074   2.061   2.791  0.7237  2.2330  0.4445
 3535SOL     OW22237   3.204   4.175  14.361  0.1384 -0.0816  0.1094
 3535SOL    HW122238   3.128   4.203  14.310  1.0063  1.2351 -0.4614
 3535SOL    HW222239   3.259   4.253  14.368 -0.0324  0.1748 -1.4624
 3536SOL     OW22240   3.845   0.159   5.627  0.2435  0.5322  0.0100
 3536SOL    HW122241   3.811   0.214   5.698 -1.1470 -1.7562  1.1506
 3536SOL    HW222242   3.861   0.219   5.555 -1.1484 -0.3414 -1.0303
 3537SOL     OW22243   4.509   3.857   3.820  0.1647  0.1714  0.8866
 3537SOL    HW122244   4.429   3.845   3.871 -1.1117 -2.3180 -1.7027
 3537SOL    HW222245   4.514   3.946   3.786 -1.1775 -0.0309  0.1646
 3538SOL     OW22246   0.960   0.124   5.414  0.1875  0.3817  0.1720
 3538SOL    HW122247   0.989   0.097   5.501 -1.8674 -0.8336  0.4752
 3538SOL    HW222248   0.872   0.159   5.427 -0.0456 -0.0132 -0.3254
 3539SOL     OW22249   0.821   0.970   6.805 -0.0133 -0.3064 -0.1680
 3539SOL    HW122250   0.828   1.065   6.813 -0.8566 -0.4289  2.0075
 3539SOL    HW222251   0.738   0.963   6.852  0.6417  0.0952  1.0582
 3540SOL     OW22252   4.588   0.996   7.297  0.6444  0.0925  0.0992
 3540SOL    HW122253   4.595   0.901   7.296  0.6538  0.0797  2.7056
 3540SOL    HW222254   4.677   1.031   7.299  0.6477  0.3093 -3.0831
 3541SOL     OW22255   2.197   0.322   5.273  0.7176 -0.0711  0.4533
 3541SOL    HW122256   2.225   0.230   5.276 -0.5812 -0.4019  2.3111
 3541SOL    HW222257   2.248   0.355   5.199 -0.1840  0.0654 -0.0937
 3542SOL     OW22258   2.377   4.301   9.306  0.1468  0.0603  0.7407
 3542SOL    HW122259   2.351   4.391   9.327  2.6531  0.9291  0.0949
 3542SOL    HW222260   2.443   4.277   9.371  1.5502 -0.3002 -0.8389
 3543SOL     OW22261   0.629   1.304   1.775 -0.2693 -0.4688  0.6204
 3543SOL    HW122262   0.612   1.273   1.686 -0.5943 -1.0612  0.8815
 3543SOL    HW222263   0.714   1.346   1.767 -0.5676 -0.2223 -1.2232
 3544SOL     OW22264   3.162   0.203   8.411  0.3889 -0.7440 -0.5253
 3544SOL    HW122265   3.157   0.148   8.489 -1.5480 -2.4233 -1.8285
 3544SOL    HW222266   3.127   0.277   8.461  0.6313 -0.5913 -0.5830
 3545SOL     OW22267   3.162   2.964   0.579  0.1809  0.4145  0.1319
 3545SOL    HW122268   3.213   2.952   0.659  2.5606  1.6287 -1.1948
 3545SOL    HW222269   3.096   3.028   0.605  1.1032  0.3057  2.6933
 3546SOL     OW22270   0.412   0.012   5.382  0.5232  0.4735 -0.5617
 3546SOL    HW122271   0.383   4.678   5.434  1.3991  0.1348 -0.5595
 3546SOL    HW222272   0.334   0.052   5.345 -0.5977  0.3656  1.7121
 3547SOL     OW22273   3.900   2.295   4.517  0.0338 -1.2414 -0.4894
 3547SOL    HW122274   3.882   2.377   4.564  1.4372 -0.9205 -0.5168
 3547SOL    HW222275   3.817   2.296   4.469 -0.9814 -1.3119  1.2894
 3548SOL     OW22276   2.892   3.583   7.927  0.3286  0.1605  0.0519
 3548SOL    HW122277   2.842   3.660   7.955  0.4118 -0.6585  2.4978
 3548SOL    HW222278   2.887   3.594   7.832 -1.4494 -1.4542 -0.0517
 3549SOL     OW22279   3.491   4.175   4.707 -0.3758  0.7549  0.0961
 3549SOL    HW122280   3.441   4.093   4.715 -0.0142  0.3122 -2.1454
 3549SOL    HW222281   3.506   4.199   4.798  0.8293  2.8515 -0.6574
 3550SOL     OW22282   1.186   4.223   9.023  0.1551  0.0601  0.0253
 3550SOL    HW122283   1.255   4.196   8.962 -2.2466 -0.8963 -2.2531
 3550SOL    HW222284   1.173   4.139   9.068  0.1543 -0.0996 -0.2735
 3551SOL     OW22285   3.094   3.829   7.215  0.0532 -0.2586  0.0329
 3551SOL    HW122286   3.116   3.875   7.135  1.1264 -4.0646 -1.8890
 3551SOL    HW222287   3.154   3.754   7.206  1.2227  0.7059 -0.1460
 3552SOL     OW22288   2.958   3.917   4.585  0.1013  0.3864  0.3052
 3552SOL    HW122289   3.037   3.942   4.538 -0.2710  0.9332 -0.0350
 3552SOL    HW222290   2.896   3.986   4.560  0.6655  0.2027 -1.6252
 3553SOL     OW22291   0.643   0.593  11.631  0.1388  0.0867  0.7003
 3553SOL    HW122292   0.614   0.502  11.630  0.8532 -0.1385  1.4282
 3553SOL    HW222293   0.658   0.623  11.720 -0.5788  1.7846  0.2542
 3554SOL     OW22294   2.887   2.942   3.783 -0.0922  0.1602 -0.1512
 3554SOL    HW122295   2.906   2.899   3.867 -0.0913 -0.8413 -0.6738
 3554SOL    HW222296   2.888   2.870   3.720  1.3546  0.5518 -0.5792
 3555SOL     OW22297   2.377   0.903   8.319  0.3974  0.0296 -0.1839
 3555SOL    HW122298   2.420   0.849   8.385 -1.9935 -1.6251  0.0048
 3555SOL    HW222299   2.433   0.900   8.241 -1.0953  0.5892 -1.2730
 3556SOL     OW22300   3.446   4.410   2.470  0.2712 -0.6429 -0.1216
 3556SOL    HW122301   3.407   4.477   2.526  3.2449  1.2341 -0.2866
 3556SOL    HW222302   3.439   4.322   2.507 -1.3223  0.3900  1.9981
 3557SOL     OW22303   4.623   0.500   1.914 -0.3438  0.2148  0.2547
 3557SOL    HW122304   4.622   0.586   1.874  1.9972  0.7723  1.3542
 3557SOL    HW222305   4.717   0.480   1.912  0.1412  2.6341 -0.8064
 3558SOL     OW22306   1.660   2.909   4.388  0.6572  0.2659 -0.6491
 3558SOL    HW122307   1.565   2.909   4.398  0.7760  0.1965  0.4364
 3558SOL    HW222308   1.686   2.944   4.473 -1.2116  0.1867 -0.0571
 3559SOL     OW22309   4.082   1.135  12.801 -0.1971 -0.1624  0.3629
 3559SOL    HW122310   3.988   1.125  12.815 -0.4243  2.3508  0.7294
 3559SOL    HW222311   4.097   1.122  12.708  0.5540  2.4280  0.1133
 3560SOL     OW22312   1.165   0.385   4.310  0.5382 -0.4799  0.3526
 3560SOL    HW122313   1.163   0.389   4.405 -1.6886  0.5862  0.2481
 3560SOL    HW222314   1.155   0.476   4.282 -2.3426 -0.1162  2.6347
 3561SOL     OW22315   3.761   3.646   4.668  0.4382  0.6000 -0.1246
 3561SOL    HW122316   3.838   3.596   4.695  0.9674  1.4392 -0.0829
 3561SOL    HW222317   3.706   3.615   4.740 -0.2549  1.3714 -0.3173
 3562SOL     OW22318   2.040   0.362   4.240  0.7446  0.2920 -0.0878
 3562SOL    HW122319   2.048   0.416   4.318 -1.2118  2.8874 -1.7282
 3562SOL    HW222320   1.967   0.306   4.266  0.5360  1.0207  0.8811
 3563SOL     OW22321   2.730   0.874   1.142  0.3753 -0.2632  0.0859
 3563SOL    HW122322   2.667   0.832   1.083  0.3854  1.0163 -0.8271
 3563SOL    HW222323   2.760   0.790   1.176 -1.0689 -1.1367 -0.7859
 3564SOL     OW22324   4.711   1.066  17.731 -0.1589  0.2480 -0.0212
 3564SOL    HW122325   0.060   1.087  17.756 -0.4369  0.5217  0.7689
 3564SOL    HW222326   4.667   1.146   0.000  0.4614  0.7488 -0.4416
 3565SOL     OW22327   3.859   0.502  11.438 -0.3212  0.1253  0.0885
 3565SOL    HW122328   3.946   0.524  11.470 -0.4438 -1.4812  1.5094
 3565SOL    HW222329   3.824   0.589  11.417 -0.6759 -0.2847 -1.0375
 3566SOL     OW22330   1.628   3.062   3.180  0.9452 -0.1003  0.5702
 3566SOL    HW122331   1.542   3.024   3.196  0.7471 -0.0680 -0.3670
 3566SOL    HW222332   1.613   3.145   3.225  0.5285 -0.8654  1.8464
 3567SOL     OW22333   3.766   3.302   8.375 -0.0906 -0.1834  0.1184
 3567SOL    HW122334   3.849   3.269   8.412 -0.1611 -1.2454 -0.6758
 3567SOL    HW222335   3.757   3.383   8.425  2.1924  0.5461 -0.6329
 3568SOL     OW22336   1.341   4.600   8.233 -0.0355  0.3336  0.3447
 3568SOL    HW122337   1.352   4.622   8.326 -2.6084  2.7951  0.0832
 3568SOL    HW222338   1.382   4.514   8.229 -1.6687 -0.3098 -2.6135
 3569SOL     OW22339   4.713   2.597   1.166  0.0579 -0.2103  0.5526
 3569SOL    HW122340   0.040   2.576   1.102 -0.1941 -0.7154  0.4501
 3569SOL    HW222341   4.664   2.663   1.116  0.3857 -0.6928 -0.4002
 3570SOL     OW22342   3.857   3.584   7.606  0.6663 -0.4354  0.1030
 3570SOL    HW122343   3.832   3.607   7.696  0.0736  0.3358 -0.2504
 3570SOL    HW222344   3.929   3.645   7.594 -0.9308  1.1757 -1.2857
 3571SOL     OW22345   0.062   0.830   9.182 -0.6390 -0.1222  0.2098
 3571SOL    HW122346   0.096   0.912   9.145 -1.8224 -0.0556 -0.7314
 3571SOL    HW222347   4.716   0.821   9.143  0.9922 -0.7237 -3.2593
 3572SOL     OW22348   2.188   4.340   4.638  0.2089 -0.0591 -0.2443
 3572SOL    HW122349   2.178   4.302   4.551 -0.2390 -0.1838 -0.1375
 3572SOL    HW222350   2.262   4.399   4.623 -0.0148  0.8428  2.1373
 3573SOL     OW22351   2.138   3.885  13.657  0.0049  0.1395  0.1874
 3573SOL    HW122352   2.170   3.831  13.584 -0.9907 -0.4861  0.2216
 3573SOL    HW222353   2.082   3.823  13.703 -0.7371 -0.6423 -1.7689
 3574SOL     OW22354   3.106   0.396   3.989 -0.3577 -0.4648  0.3243
 3574SOL    HW122355   3.093   0.315   3.939  1.1207  0.5485 -1.7056
 3574SOL    HW222356   3.090   0.355   4.074 -0.2123 -1.3947 -0.1001
 3575SOL     OW22357   0.978   2.506   5.499 -0.3450  0.2511 -0.2457
 3575SOL    HW122358   0.945   2.514   5.589 -1.0168  0.1861 -0.4848
 3575SOL    HW222359   1.069   2.488   5.525 -0.6525  2.3781  2.3458
 3576SOL     OW22360   3.494   3.900   3.080 -0.2507  0.1240 -0.4461
 3576SOL    HW122361   3.483   3.805   3.070 -0.7758  0.0066  1.3135
 3576SOL    HW222362   3.499   3.926   2.988  5.1946 -1.2995 -0.5586
 3577SOL     OW22363   4.465   4.559   0.311  1.2605 -0.5038 -0.6053
 3577SOL    HW122364   4.517   4.568   0.391  0.6020  2.6320 -0.5479
 3577SOL    HW222365   4.499   4.630   0.257 -0.7356  1.3538  0.5627
 3578SOL     OW22366   0.629   3.717   2.786  0.1398  0.2931  0.5223
 3578SOL    HW122367   0.676   3.717   2.702  0.6675 -1.8042  0.8048
 3578SOL    HW222368   0.651   3.633   2.827  0.5043  0.4017  0.5496
 3579SOL     OW22369   1.891   2.855  11.094  0.1216  0.6831  0.7592
 3579SOL    HW122370   1.892   2.926  11.158 -1.4122  2.2128 -0.8930
 3579SOL    HW222371   1.907   2.778  11.148  3.8041  0.3346 -0.7862
 3580SOL     OW22372   0.581   1.713   3.498  0.4580 -0.0209 -0.1256
 3580SOL    HW122373   0.486   1.713   3.489  0.2969  0.2575  1.6780
 3580SOL    HW222374   0.604   1.801   3.467  0.9386  0.3636  1.3158
 3581SOL     OW22375   0.995   2.759  15.173 -0.6037 -0.2530  0.3518
 3581SOL    HW122376   1.012   2.665  15.173  0.9990  0.0488 -3.5263
 3581SOL    HW222377   1.053   2.787  15.244  1.5385 -0.5932 -1.2905
 3582SOL     OW22378   1.495   4.329   6.727  0.0200  1.0965 -0.2784
 3582SOL    HW122379   1.492   4.400   6.792  0.1268 -0.7637  1.7281
 3582SOL    HW222380   1.417   4.354   6.678  0.6457  1.5367 -1.0691
 3583SOL     OW22381   3.391   3.266   2.566 -0.2215 -0.9465  0.0166
 3583SOL    HW122382   3.380   3.297   2.476 -0.3498 -0.9924  0.0166
 3583SOL    HW222383   3.442   3.339   2.601 -0.2777 -0.1854 -1.4869
 3584SOL     OW22384   1.990   3.799   0.281  0.5990  0.0313 -0.3068
 3584SOL    HW122385   2.042   3.721   0.298  0.0067  0.0656  1.6942
 3584SOL    HW222386   2.024   3.874   0.329 -2.9942  1.6252 -0.1971
 3585SOL     OW22387   0.843   3.010   6.573  0.1430 -0.1664 -0.5868
 3585SOL    HW122388   0.770   3.066   6.551 -0.5412 -0.8402 -0.0212
 3585SOL    HW222389   0.924   3.056   6.551  0.5721 -0.8509 -0.4699
 3586SOL     OW22390   4.607   2.882   1.337 -0.3441 -0.2018  0.0111
 3586SOL    HW122391   4.542   2.815   1.317 -1.9412  1.2377  0.3576
 3586SOL    HW222392   4.641   2.899   1.249  0.1994 -0.9751  0.0754
 3587SOL     OW22393   3.416   0.852   7.441  0.2589  0.2043 -0.8908
 3587SOL    HW122394   3.482   0.831   7.507 -0.7757  0.4635  0.2224
 3587SOL    HW222395   3.443   0.793   7.371  1.1270 -1.6806  1.0326
 3588SOL     OW22396   2.938   1.013   3.629  0.2915  0.2494  0.0491
 3588SOL    HW122397   3.007   0.996   3.565 -0.7353 -0.9624 -0.7386
 3588SOL    HW222398   2.883   1.066   3.571 -1.0232  0.0260  1.0955
 3589SOL     OW22399   2.669   3.953  11.740 -0.0542  0.0190  0.0814
 3589SOL    HW122400   2.653   3.869  11.783 -1.2243 -0.4852 -1.3612
 3589SOL    HW222401   2.599   3.941  11.677 -0.8977 -0.7192  1.1734
 3590SOL     OW22402   0.066   3.646   5.676 -0.0931 -0.4246 -0.1600
 3590SOL    HW122403   0.064   3.703   5.752  1.3373 -1.8532  0.9467
 3590SOL    HW222404   0.152   3.667   5.642  0.8205 -2.4542  0.8834
 3591SOL     OW22405   2.852   0.137   3.181  0.0769  0.3781 -0.1494
 3591SOL    HW122406   2.890   0.060   3.138 -1.5292  0.5231 -1.8445
 3591SOL    HW222407   2.765   0.137   3.142  0.4631 -0.5870 -1.0268
 3592SOL     OW22408   2.383   4.263   6.936 -0.0895 -0.5838 -0.2000
 3592SOL    HW122409   2.434   4.247   7.016 -2.6637 -0.8078  1.3915
 3592SOL    HW222410   2.305   4.300   6.976 -1.1072  0.3809 -3.0663
 3593SOL     OW22411   3.566   3.803   9.859 -0.1770  0.3695  0.8133
 3593SOL    HW122412   3.612   3.873   9.813  0.0037  0.2414  0.7979
 3593SOL    HW222413   3.645   3.757   9.888  0.9210  0.7475 -1.5007
 3594SOL     OW22414   1.985   3.700   8.259 -0.3575 -0.4047  0.1587
 3594SOL    HW122415   2.035   3.702   8.340 -1.1341  1.2579  0.5947
 3594SOL    HW222416   1.939   3.784   8.261  0.0291 -0.1579 -1.2773
 3595SOL     OW22417   2.431   3.816   4.989  0.1155 -0.5192  0.8062
 3595SOL    HW122418   2.484   3.883   4.947  0.6413  0.3474  2.8275
 3595SOL    HW222419   2.344   3.852   4.969  0.7376  0.7116  0.3480
 3596SOL     OW22420   3.325   4.599   7.746  0.4825 -0.2395  0.2882
 3596SOL    HW122421   3.351   4.512   7.775  2.2837  0.8288  1.9070
 3596SOL    HW222422   3.351   4.661   7.815  0.4104 -0.0148  0.1137
 3597SOL     OW22423   2.996   0.813  14.116 -0.3510  0.6854 -0.9624
 3597SOL    HW122424   2.907   0.785  14.138  0.5792 -0.5028  1.2292
 3597SOL    HW222425   2.975   0.868  14.040 -0.0767 -2.3839 -3.2824
 3598SOL     OW22426   3.071   1.437   2.739 -0.0800  0.6153  0.1717
 3598SOL    HW122427   2.990   1.476   2.771 -0.8656  0.0163 -1.0774
 3598SOL    HW222428   3.031   1.369   2.684  1.5567 -1.0295  1.0238
 3599SOL     OW22429   2.635   0.632  16.602 -0.6224 -0.6098 -0.4627
 3599SOL    HW122430   2.609   0.655  16.513 -0.8482  1.1487  0.0601
 3599SOL    HW222431   2.644   0.536  16.607 -0.6904 -0.6059 -0.2712
 3600SOL     OW22432   2.262   1.251   5.973  0.2655  0.1362  0.1522
 3600SOL    HW122433   2.183   1.303   5.957  1.3579  1.2716 -1.5782
 3600SOL    HW222434   2.261   1.249   6.069 -0.7177 -0.0501  0.1401
 3601SOL     OW22435   0.900   0.899   9.543 -0.0131 -0.2384 -0.5753
 3601SOL    HW122436   0.986   0.935   9.567 -0.0650 -0.8493  0.5073
 3601SOL    HW222437   0.923   0.892   9.451  0.7058  0.6777 -0.4697
 3602SOL     OW22438   3.184   3.772   2.833 -0.2814  0.3822 -0.3566
 3602SOL    HW122439   3.275   3.775   2.805 -0.5066 -0.3454 -1.1402
 3602SOL    HW222440   3.159   3.690   2.791  1.7763  0.0121 -0.8323
 3603SOL     OW22441   1.458   3.982  10.935 -0.2106  0.4495 -0.5891
 3603SOL    HW122442   1.459   4.058  10.877  1.0886  1.1724  0.3777
 3603SOL    HW222443   1.365   3.961  10.947  0.6418 -3.4209 -0.6805
 3604SOL     OW22444   3.755   1.498   6.052 -0.0232 -1.4998 -0.1084
 3604SOL    HW122445   3.833   1.491   6.107 -1.0844 -0.1528  1.5817
 3604SOL    HW222446   3.700   1.430   6.090  0.3393 -1.4845  0.4355
 3605SOL     OW22447   2.586   0.429   1.383  0.4688 -0.6358  0.0483
 3605SOL    HW122448   2.506   0.399   1.427  1.1283 -0.3135  1.4421
 3605SOL    HW222449   2.572   0.381   1.301 -2.4283  1.4328 -0.6576
 3606SOL     OW22450   0.627   4.661   7.627 -1.0024  0.5013 -0.1091
 3606SOL    HW122451   0.554   4.665   7.688 -0.9705 -1.9947  0.1256
 3606SOL    HW222452   0.628   4.568   7.601  1.0976  1.2303 -2.6446
 3607SOL     OW22453   3.838   1.467   2.716 -0.8179  0.0199  0.0018
 3607SOL    HW122454   3.869   1.541   2.665  0.3789 -1.6512 -1.6777
 3607SOL    HW222455   3.919   1.435   2.755 -0.1655  1.6353 -0.0151
 3608SOL     OW22456   0.379   1.464   0.442 -0.8166  0.3280  0.1520
 3608SOL    HW122457   0.462   1.503   0.413 -1.2230  0.4884 -0.8167
 3608SOL    HW222458   0.317   1.534   0.422 -0.7640  0.4217  0.3123
 3609SOL     OW22459   1.744   3.323   4.159 -0.3139 -0.0600 -0.1511
 3609SOL    HW122460   1.717   3.409   4.190 -1.3426  0.6397 -2.9335
 3609SOL    HW222461   1.657   3.295   4.129  0.3455 -2.4282  0.1948
 3610SOL     OW22462   4.211   0.593   6.931  0.2517  0.2028 -0.1228
 3610SOL    HW122463   4.177   0.597   7.021 -0.7813  1.5303 -0.5697
 3610SOL    HW222464   4.306   0.581   6.937 -0.1508 -2.8775  0.3058
 3611SOL     OW22465   4.152   1.625   3.638  0.3422 -0.0791  0.2570
 3611SOL    HW122466   4.067   1.628   3.594  0.6363 -0.0089 -0.3126
 3611SOL    HW222467   4.127   1.647   3.728  0.0661 -2.4445  0.7656
 3612SOL     OW22468   3.710   1.002  16.211 -0.1553 -0.0558  0.4245
 3612SOL    HW122469   3.699   1.097  16.222 -2.3545 -0.6306  3.1411
 3612SOL    HW222470   3.789   0.996  16.157  0.9073  0.1572  1.9418
 3613SOL     OW22471   4.088   2.060   7.976  0.8592  0.0184  0.1015
 3613SOL    HW122472   4.016   2.054   7.913  1.6987 -1.8764 -0.6558
 3613SOL    HW222473   4.127   2.144   7.952 -0.5794  0.9784  1.1471
 3614SOL     OW22474   4.518   3.143   7.750 -0.0532 -0.3641 -0.3787
 3614SOL    HW122475   4.544   3.105   7.834  2.8579 -3.0446 -2.5251
 3614SOL    HW222476   4.436   3.099   7.731 -0.0933  0.0293 -1.1119
 3615SOL     OW22477   3.319   1.765   2.067  0.0561  0.1720 -0.0229
 3615SOL    HW122478   3.359   1.766   2.154  1.3321  2.1515 -0.6395
 3615SOL    HW222479   3.308   1.673   2.044 -0.1985 -0.1749  1.4734
 3616SOL     OW22480   2.656   3.054   8.443  0.2305  0.3722 -0.0732
 3616SOL    HW122481   2.640   3.093   8.529  0.3266  1.9589 -0.7731
 3616SOL    HW222482   2.671   2.962   8.463 -0.5435  0.3565  0.4115
 3617SOL     OW22483   4.362   0.571   2.912  0.0566 -0.1686  0.6490
 3617SOL    HW122484   4.385   0.656   2.950  0.1475 -0.1900  0.6421
 3617SOL    HW222485   4.388   0.512   2.983  0.6608 -1.2946 -0.4958
 3618SOL     OW22486   0.522   3.054   7.247 -0.1984  0.4098 -0.0539
 3618SOL    HW122487   0.584   2.992   7.287  0.9664  2.7028  1.6979
 3618SOL    HW222488   0.525   3.017   7.159 -1.0086  1.7109 -0.6158
 3619SOL     OW22489   2.070   2.037  15.904  0.1970  0.0866 -0.0339
 3619SOL    HW122490   2.020   1.967  15.945 -0.9458  0.0062 -1.5922
 3619SOL    HW222491   2.115   2.071  15.982  2.1014  0.6969 -1.4202
 3620SOL     OW22492   3.207   1.808  15.499  0.3260  0.0775 -0.4147
 3620SOL    HW122493   3.233   1.722  15.532  0.5566 -0.7587 -2.7100
 3620SOL    HW222494   3.155   1.780  15.423 -1.1525 -0.0058  0.6316
 3621SOL     OW22495   4.120   1.872   8.158  0.6672 -0.0313  0.1307
 3621SOL    HW122496   4.129   1.952   8.105 -2.5253 -0.5474 -1.2240
 3621SOL    HW222497   4.177   1.805   8.121 -1.5479 -0.9764 -1.5621
 3622SOL     OW22498   3.402   3.833   6.462 -0.0638  0.1697  0.2976
 3622SOL    HW122499   3.318   3.857   6.502 -0.7409 -1.2907 -0.2336
 3622SOL    HW222500   3.406   3.881   6.380  3.6621  0.3861  0.6317
 3623SOL     OW22501   2.714   0.763  14.562  0.1036  0.0317 -0.2438
 3623SOL    HW122502   2.807   0.757  14.584 -0.3368 -2.3605  0.9361
 3623SOL    HW222503   2.719   0.809  14.479  1.0621  0.9463  0.3190
 3624SOL     OW22504   2.674   3.791   4.210 -0.2190 -0.4973  0.0159
 3624SOL    HW122505   2.748   3.819   4.156 -1.1385  0.5033 -0.7332
 3624SOL    HW222506   2.605   3.790   4.145 -1.2402  0.5450  1.0826
 3625SOL     OW22507   2.450   0.146   4.279 -0.1726 -0.2228 -0.5639
 3625SOL    HW122508   2.500   0.092   4.218  0.9183  0.2722 -0.1044
 3625SOL    HW222509   2.507   0.140   4.355 -1.7611  2.8144  0.8526
 3626SOL     OW22510   2.021   1.850  16.097 -0.5499  0.1410 -0.7566
 3626SOL    HW122511   1.927   1.847  16.114 -0.7442 -1.1976 -2.0254
 3626SOL    HW222512   2.045   1.886  16.182 -0.4513 -0.5641 -0.4919
 3627SOL     OW22513   1.373   2.012   2.569  0.2460  0.1085 -0.2548
 3627SOL    HW122514   1.461   1.975   2.560  1.3561  2.3914  1.3455
 3627SOL    HW222515   1.321   1.939   2.601 -0.6280  0.0940 -1.6878
 3628SOL     OW22516   1.776   3.343   3.090 -0.1264  0.6393  0.0867
 3628SOL    HW122517   1.721   3.327   3.167  0.5182  2.3322  0.9032
 3628SOL    HW222518   1.844   3.384   3.144  1.1255 -2.3892  0.8120
 3629SOL     OW22519   1.919   4.532   4.470  0.5973  0.0073 -0.8627
 3629SOL    HW122520   1.986   4.499   4.410  0.4741 -3.5769  0.9410
 3629SOL    HW222521   1.981   4.567   4.534  0.3883  2.7023 -2.1413
 3630SOL     OW22522   4.151   0.493   3.286  0.5103 -0.7576 -0.1333
 3630SOL    HW122523   4.228   0.549   3.295 -0.1546  0.5363 -2.6518
 3630SOL    HW222524   4.076   0.540   3.323  1.5481  0.7376  0.0768
 3631SOL     OW22525   1.219   2.779  17.306 -0.3849  0.2498 -0.3209
 3631SOL    HW122526   1.124   2.766  17.309 -0.1040 -1.5045  0.8091
 3631SOL    HW222527   1.243   2.689  17.285 -0.3181  0.0875  0.4567
 3632SOL     OW22528   4.325   2.814   2.935 -0.5059  0.0495 -0.9378
 3632SOL    HW122529   4.372   2.894   2.911  1.7521 -1.1946 -0.6853
 3632SOL    HW222530   4.372   2.752   2.879  0.7196 -1.6913  2.0077
 3633SOL     OW22531   4.718   2.943   9.583  0.2050 -0.1993 -0.1189
 3633SOL    HW122532   0.017   2.857   9.573  0.7974  0.1415 -0.7208
 3633SOL    HW222533   0.004   2.996   9.507 -2.6504  0.2657 -0.8183
 3634SOL     OW22534   0.066   1.373   0.442  0.4047  0.3413  0.0243
 3634SOL    HW122535   0.095   1.345   0.355 -1.0093 -0.4786 -0.1837
 3634SOL    HW222536   0.110   1.313   0.503  1.5229 -0.0765 -1.1997
 3635SOL     OW22537   2.815   3.331   5.021 -0.1314  0.1292  0.1971
 3635SOL    HW122538   2.722   3.345   5.005  0.0373  1.6456  0.4753
 3635SOL    HW222539   2.847   3.421   5.016 -0.3517  0.2081  0.2080
 3636SOL     OW22540   0.090   0.167  10.988 -0.2394 -0.1653  0.1957
 3636SOL    HW122541   0.123   0.144  10.901  1.4310  1.2047  0.4730
 3636SOL    HW222542   0.177   0.152  11.023 -1.9065 -0.4318  4.1646
 3637SOL     OW22543   1.630   1.576   8.513  0.1563  0.1567 -0.2610
 3637SOL    HW122544   1.704   1.523   8.542 -0.0706 -0.6476 -1.1577
 3637SOL    HW222545   1.614   1.544   8.424 -1.8235  0.6813 -0.1050
 3638SOL     OW22546   1.641   3.014  12.094 -0.2026 -0.0392 -0.3105
 3638SOL    HW122547   1.676   2.951  12.158 -0.2923  0.1423 -0.0861
 3638SOL    HW222548   1.551   3.014  12.126 -0.2546  0.5366 -0.4603
 3639SOL     OW22549   2.821   1.473   3.717 -0.2557 -0.7096 -0.0658
 3639SOL    HW122550   2.897   1.415   3.726 -0.2728 -0.6716  0.3092
 3639SOL    HW222551   2.754   1.405   3.725 -1.1020 -0.1745 -2.5274
 3640SOL     OW22552   4.346   4.285  11.578 -0.0055 -0.0705 -0.7914
 3640SOL    HW122553   4.409   4.213  11.580 -0.6773 -0.6283  0.3519
 3640SOL    HW222554   4.262   4.239  11.585  0.1873 -0.2185  0.5105
 3641SOL     OW22555   3.968   3.480  10.397 -0.1192  0.0992 -0.6692
 3641SOL    HW122556   3.961   3.503  10.490  0.1285 -0.2597 -0.5625
 3641SOL    HW222557   3.876   3.460  10.377  0.6093  0.0881 -3.9521
 3642SOL     OW22558   4.322   0.279   5.747  0.4546  0.0861  0.3049
 3642SOL    HW122559   4.240   0.230   5.750  0.3237  0.3837  1.8278
 3642SOL    HW222560   4.351   0.265   5.838 -1.6381 -2.5203  0.5860
 3643SOL     OW22561   1.641   3.177   2.614 -0.5447 -0.3190  0.4937
 3643SOL    HW122562   1.575   3.191   2.681 -0.3002 -0.3395  0.7408
 3643SOL    HW222563   1.711   3.235   2.645 -2.3014  1.6441  0.8065
 3644SOL     OW22564   1.114   0.694  17.070  0.3401  0.0186 -0.5350
 3644SOL    HW122565   1.191   0.687  17.013  0.0745 -1.4017 -0.7254
 3644SOL    HW222566   1.049   0.678  17.002 -1.4846  0.0924  1.1809
 3645SOL     OW22567   0.125   2.890   6.373 -0.0441 -0.2383 -0.1405
 3645SOL    HW122568   0.124   2.795   6.390  1.3748 -0.2097  0.1127
 3645SOL    HW222569   0.170   2.927   6.449  0.8068  0.5303 -1.0253
 3646SOL     OW22570   4.354   3.500   2.569  0.0743  0.1682 -0.6991
 3646SOL    HW122571   4.321   3.589   2.582  0.6358  0.3384 -0.4125
 3646SOL    HW222572   4.427   3.497   2.631  1.0194  0.3883 -1.7884
 3647SOL     OW22573   0.572   3.088   3.597  0.1967  0.0776  0.1677
 3647SOL    HW122574   0.533   3.170   3.569 -0.4676 -0.6652 -1.0690
 3647SOL    HW222575   0.589   3.042   3.515 -0.0571  1.7128 -0.7957
 3648SOL     OW22576   3.684   4.056   4.498 -0.2807 -0.0526 -0.1523
 3648SOL    HW122577   3.657   4.097   4.581  1.1539  1.4800 -0.4279
 3648SOL    HW222578   3.770   4.025   4.528  0.6182  2.3631 -0.2167
 3649SOL     OW22579   2.847   2.601   6.379 -0.7500  0.1250 -0.0684
 3649SOL    HW122580   2.890   2.680   6.412  0.5960 -1.1418  1.1780
 3649SOL    HW222581   2.872   2.608   6.286  1.3194  2.9577  0.6845
 3650SOL     OW22582   0.187   2.358   3.734  0.4102 -0.8536 -0.0298
 3650SOL    HW122583   0.221   2.273   3.709 -0.6186 -1.6275  1.2172
 3650SOL    HW222584   0.267   2.407   3.751  0.0113 -0.6313  1.1924
 3651SOL     OW22585   4.364   2.484  16.239  0.0115  0.6668  0.2042
 3651SOL    HW122586   4.313   2.502  16.317  2.3452  1.6966  1.5001
 3651SOL    HW222587   4.354   2.572  16.203  4.4910  0.8530 -0.6559
 3652SOL     OW22588   3.206   4.197   3.783 -0.3237  0.0229  0.3729
 3652SOL    HW122589   3.162   4.141   3.720  0.3052  1.5811 -1.4621
 3652SOL    HW222590   3.192   4.285   3.748  3.0220  0.0522 -0.8841
 3653SOL     OW22591   2.595   3.066   9.735 -0.0289 -0.0487 -0.0435
 3653SOL    HW122592   2.636   3.149   9.762  0.8876 -1.3132  2.4427
 3653SOL    HW222593   2.540   3.039   9.809  1.5638  0.7379  1.4386
 3654SOL     OW22594   4.155   1.083   7.612  0.6007 -0.2128  0.2854
 3654SOL    HW122595   4.086   1.076   7.547  1.6271 -0.7693 -0.7452
 3654SOL    HW222596   4.226   1.065   7.551 -1.4986 -0.3024 -2.1077
 3655SOL     OW22597   2.241   0.010   3.544 -0.5729 -0.1993 -0.5494
 3655SOL    HW122598   2.150   0.039   3.534  0.0831  2.1685  0.3407
 3655SOL    HW222599   2.248   4.691   3.469  0.7309  1.1289 -1.4903
 3656SOL     OW22600   2.877   4.541   6.207 -0.3139  0.4758 -0.5117
 3656SOL    HW122601   2.844   4.480   6.141  0.2253  0.1171 -0.4434
 3656SOL    HW222602   2.800   4.590   6.236  0.4198  0.6651  1.0812
 3657SOL     OW22603   3.861   1.926  15.595  0.3435  0.5747 -0.5966
 3657SOL    HW122604   3.852   1.957  15.685  0.0933 -1.4653  0.0719
 3657SOL    HW222605   3.902   1.999  15.548 -0.2442  2.2010  1.3780
 3658SOL     OW22606   2.982   3.428  13.729 -0.1883 -0.2040  0.1230
 3658SOL    HW122607   2.936   3.507  13.701  0.2242 -0.2549 -0.6917
 3658SOL    HW222608   3.071   3.422  13.693 -0.7037  0.8338 -1.2948
 3659SOL     OW22609   2.752   3.474   4.730 -0.1306  0.4214 -0.2192
 3659SOL    HW122610   2.821   3.495   4.792 -1.2035 -1.4767  1.5977
 3659SOL    HW222611   2.804   3.437   4.658 -2.6788 -4.2923  0.3341
 3660SOL     OW22612   4.522   3.202   5.052 -0.3264 -0.2628  0.1955
 3660SOL    HW122613   4.598   3.233   5.101 -0.4617  0.7893 -0.2628
 3660SOL    HW222614   4.555   3.130   4.998  2.3536  2.4497 -1.7222
 3661SOL     OW22615   4.153   1.604  10.478 -0.1519 -0.2606  0.4077
 3661SOL    HW122616   4.168   1.510  10.465 -1.0478 -0.3006 -0.3238
 3661SOL    HW222617   4.069   1.603  10.432  0.6093  0.2475 -1.0287
 3662SOL     OW22618   4.675   4.159   7.295 -0.2607 -0.4768  0.2419
 3662SOL    HW122619   4.630   4.178   7.378  0.5277  2.1825  0.0685
 3662SOL    HW222620   4.680   4.244   7.251  0.9521 -1.5242 -1.6222
 3663SOL     OW22621   4.388   0.439   4.320  0.2139  0.2167 -0.4887
 3663SOL    HW122622   4.429   0.354   4.336  0.0270  0.3326  0.6531
 3663SOL    HW222623   4.347   0.442   4.234  0.1859 -0.0038 -0.4826
 3664SOL     OW22624   4.072   3.865  13.558  0.4217  0.5976  0.2073
 3664SOL    HW122625   4.065   3.839  13.466  0.6799 -0.8966  0.6171
 3664SOL    HW222626   4.137   3.935  13.554  1.2034 -0.0217  2.1415
 3665SOL     OW22627   4.213   1.137  10.690  0.4377 -0.1258 -0.1810
 3665SOL    HW122628   4.224   1.047  10.658 -4.6181 -0.8142 -0.0432
 3665SOL    HW222629   4.298   1.174  10.668  0.7564  0.8218  2.6698
 3666SOL     OW22630   1.970   1.633   9.967 -0.0332 -0.3549  0.0167
 3666SOL    HW122631   1.960   1.594   9.880 -0.6190 -2.3058  0.9538
 3666SOL    HW222632   1.896   1.692   9.978  0.1486  0.1617 -1.6032
 3667SOL     OW22633   1.663   0.973  13.154  0.2536  0.3007  0.0954
 3667SOL    HW122634   1.728   0.974  13.084 -0.3577 -0.4628 -0.4983
 3667SOL    HW222635   1.696   1.035  13.218  1.0949  0.1764 -0.2170
 3668SOL     OW22636   4.323   3.020   3.284 -0.0842  0.6437 -0.3268
 3668SOL    HW122637   4.273   2.941   3.261 -0.5980  1.1048 -0.7677
 3668SOL    HW222638   4.386   2.977   3.343  0.5057  2.4439  0.3603
 3669SOL     OW22639   2.636   3.034   6.930  0.3641 -0.0076  0.0347
 3669SOL    HW122640   2.699   3.072   6.870  0.5389 -0.5540 -0.1329
 3669SOL    HW222641   2.676   3.041   7.017  0.6520 -1.7493  0.0532
 3670SOL     OW22642   0.727   1.934   3.440  0.1792 -0.2630 -0.0938
 3670SOL    HW122643   0.686   1.982   3.512 -0.7456 -0.5191 -0.4512
 3670SOL    HW222644   0.770   2.003   3.388 -1.3028  0.2881 -0.5923
 3671SOL     OW22645   3.364   4.258   1.771 -0.7682 -0.3380  1.5936
 3671SOL    HW122646   3.387   4.329   1.832 -1.6507 -0.5151  2.1379
 3671SOL    HW222647   3.435   4.194   1.774 -0.0523  0.2662 -2.0247
 3672SOL     OW22648   0.224   1.508   2.310 -0.2374  0.3913  0.0650
 3672SOL    HW122649   0.231   1.502   2.214 -3.1228  4.8571 -0.4084
 3672SOL    HW222650   0.135   1.473   2.317 -0.6534  0.4781 -4.4753
 3673SOL     OW22651   2.850   4.644   4.856 -0.5798 -0.2218 -0.4171
 3673SOL    HW122652   2.897   4.633   4.939 -0.8662  1.0565 -0.0794
 3673SOL    HW222653   2.761   4.633   4.889 -0.4828  1.5240  0.4637
 3674SOL     OW22654   3.903   3.108   4.723 -0.3470 -0.0266  0.0153
 3674SOL    HW122655   3.854   3.164   4.663 -1.6167  0.1566  1.2176
 3674SOL    HW222656   3.841   3.103   4.796 -1.0626 -1.4686 -0.6906
 3675SOL     OW22657   3.743   1.492   8.858 -0.3391  0.4742  0.3893
 3675SOL    HW122658   3.712   1.560   8.798  0.7154  0.2861 -0.3829
 3675SOL    HW222659   3.810   1.451   8.803 -0.2878  1.8888 -0.6239
 3676SOL     OW22660   1.127   4.348   6.286 -0.6518  0.0356 -0.2329
 3676SOL    HW122661   1.066   4.373   6.355 -3.2602  2.3430 -3.3211
 3676SOL    HW222662   1.192   4.308   6.343 -0.8496 -0.6129 -0.4644
 3677SOL     OW22663   4.013   0.685   2.459  0.1744  0.0762 -0.0486
 3677SOL    HW122664   3.934   0.664   2.409 -0.2055  0.7752  0.2524
 3677SOL    HW222665   3.988   0.647   2.544  1.0385 -1.5510 -0.5333
 3678SOL     OW22666   0.007   3.296   2.201 -0.1992 -0.1117 -0.0650
 3678SOL    HW122667   4.732   3.253   2.285  1.0190  0.8719  0.6778
 3678SOL    HW222668   4.711   3.239   2.135 -0.7370  1.3776 -1.0549
 3679SOL     OW22669   3.647   2.356   0.396  0.5817 -0.3614  0.9380
 3679SOL    HW122670   3.587   2.409   0.449 -2.7776 -2.6338 -0.6465
 3679SOL    HW222671   3.667   2.284   0.457  0.9453 -0.6394  0.4856
 3680SOL     OW22672   4.196   2.709   7.860 -0.0787 -0.1222 -0.4012
 3680SOL    HW122673   4.134   2.779   7.844 -1.0186 -1.2145 -1.5471
 3680SOL    HW222674   4.151   2.652   7.922  0.1450 -0.6075 -0.6831
 3681SOL     OW22675   0.843   4.155   8.740 -0.0278 -0.5220  0.1527
 3681SOL    HW122676   0.920   4.199   8.705  0.2264 -0.6299  0.5756
 3681SOL    HW222677   0.888   4.087   8.789  0.3944 -0.6001 -0.3463
 3682SOL     OW22678   2.527   1.960   4.134  0.4097  0.2856  0.0264
 3682SOL    HW122679   2.442   1.958   4.091  0.1910  1.4086  0.4065
 3682SOL    HW222680   2.564   2.024   4.073 -1.5539  0.8566 -0.5713
 3683SOL     OW22681   4.182   0.583   7.594  0.1305 -0.6722  0.2208
 3683SOL    HW122682   4.243   0.656   7.585  1.0277 -1.2795  1.4050
 3683SOL    HW222683   4.118   0.618   7.657  1.0409 -2.3700  2.0934
 3684SOL     OW22684   0.283   2.418  14.626 -0.4714 -0.1527  0.0172
 3684SOL    HW122685   0.244   2.332  14.609  0.0804  0.1183 -2.7492
 3684SOL    HW222686   0.358   2.419  14.566 -0.1708 -1.9375  0.3709
 3685SOL     OW22687   1.008   1.329   2.856 -0.1959 -0.0418  0.1773
 3685SOL    HW122688   0.913   1.334   2.853 -0.1787  0.9543  1.4821
 3685SOL    HW222689   1.023   1.245   2.814 -1.1175 -0.0381 -0.1606
 3686SOL     OW22690   1.905   1.063   3.802 -0.2811  0.3799 -0.5101
 3686SOL    HW122691   1.886   0.977   3.765  1.2942 -0.5173  0.7834
 3686SOL    HW222692   1.819   1.072   3.843 -0.9536  2.1431 -2.3332
 3687SOL     OW22693   1.199   3.277   9.522  0.6071 -0.3404 -0.3860
 3687SOL    HW122694   1.216   3.308   9.433  2.1102 -0.9319 -0.3057
 3687SOL    HW222695   1.237   3.189   9.523  0.3543 -0.4718 -1.6961
 3688SOL     OW22696   1.068   1.801  12.664 -0.5750  0.4123  0.2869
 3688SOL    HW122697   1.152   1.787  12.620 -0.7361  1.4797 -0.3537
 3688SOL    HW222698   1.057   1.895  12.650 -1.6131  0.2006 -0.3445
 3689SOL     OW22699   4.701   1.318   3.699  0.3152 -0.1406 -0.6112
 3689SOL    HW122700   4.607   1.306   3.713  0.6944 -0.2528  1.7957
 3689SOL    HW222701   4.710   1.403   3.742 -2.0838 -0.9804  1.5299
 3690SOL     OW22702   2.718   1.437   4.643  0.3727 -0.7107 -0.6947
 3690SOL    HW122703   2.626   1.464   4.635  0.4548 -0.0241  0.6765
 3690SOL    HW222704   2.738   1.407   4.555  0.2689  1.9523 -1.5973
 3691SOL     OW22705   2.500   1.400   5.946 -0.3742  0.2877  1.2263
 3691SOL    HW122706   2.500   1.444   5.861 -0.6296  1.2394  1.7263
 3691SOL    HW222707   2.421   1.346   5.946  0.5308 -1.0565 -1.4018
 3692SOL     OW22708   1.400   3.472   5.257  0.4753  0.4465 -0.9821
 3692SOL    HW122709   1.343   3.467   5.180  0.7165 -0.5666 -1.0867
 3692SOL    HW222710   1.483   3.509   5.228  1.4587  0.3054  1.6733
 3693SOL     OW22711   2.169   2.623   7.135  0.7842 -0.2917 -0.0484
 3693SOL    HW122712   2.127   2.584   7.211 -0.1701 -0.4510 -0.6495
 3693SOL    HW222713   2.092   2.653   7.086  3.1384 -0.8867 -4.1003
 3694SOL     OW22714   1.661   0.082   1.568 -0.0056 -0.3378  0.3430
 3694SOL    HW122715   1.633   0.153   1.509  0.5067  0.3737  0.9469
 3694SOL    HW222716   1.722   0.040   1.508  1.3047  1.0076  0.7225
 3695SOL     OW22717   3.602   4.119   2.175 -0.6261  0.2495 -0.3591
 3695SOL    HW122718   3.552   4.083   2.248  0.3708  1.4485  0.8934
 3695SOL    HW222719   3.598   4.214   2.179 -2.1532  0.1095  1.5659
 3696SOL     OW22720   2.507   0.861  10.614 -0.2869 -0.0647 -0.3387
 3696SOL    HW122721   2.537   0.894  10.698  2.6152  1.6471 -2.0514
 3696SOL    HW222722   2.569   0.904  10.556  1.7467  0.5027  2.2704
 3697SOL     OW22723   3.770   4.249   7.988 -0.0378 -0.5504 -0.3621
 3697SOL    HW122724   3.848   4.304   7.998 -0.9231  0.0640  2.9189
 3697SOL    HW222725   3.790   4.199   7.908  1.7606  0.8028 -0.7726
 3698SOL     OW22726   3.659   2.075   1.706 -0.1885  0.5129  0.5118
 3698SOL    HW122727   3.676   2.016   1.633  0.1300  1.8849 -0.5201
 3698SOL    HW222728   3.608   2.137   1.655 -0.9628 -0.8679 -0.3950
 3699SOL     OW22729   2.072   2.613   4.609 -0.3008 -0.4352  0.4826
 3699SOL    HW122730   2.047   2.567   4.529 -1.1382 -1.4940  1.3352
 3699SOL    HW222731   2.157   2.574   4.632  0.1992  1.0267  1.1063
 3700SOL     OW22732   3.642   1.577   7.944  0.3819 -0.3660  0.5516
 3700SOL    HW122733   3.645   1.483   7.961 -1.1098 -0.2417  1.4749
 3700SOL    HW222734   3.653   1.603   8.036  3.2064 -1.1706  0.4583
 3701SOL     OW22735   4.445   2.154   5.286 -0.5590  0.0367 -0.3280
 3701SOL    HW122736   4.495   2.174   5.206  1.7987 -3.9714  0.1212
 3701SOL    HW222737   4.497   2.199   5.352  1.0136  1.9271 -2.8479
 3702SOL     OW22738   2.218   1.712  15.976 -0.0403 -1.0008  0.0369
 3702SOL    HW122739   2.145   1.748  16.026 -1.3066 -0.1856 -2.4221
 3702SOL    HW222740   2.294   1.707  16.034 -1.1010  2.4107  1.7132
 3703SOL     OW22741   0.950   4.175   6.790 -0.5561  0.6153  0.6609
 3703SOL    HW122742   0.929   4.263   6.818 -1.0294  0.1425  1.7892
 3703SOL    HW222743   0.872   4.161   6.736 -0.0542  0.8816 -0.1331
 3704SOL     OW22744   2.687   2.829   4.453  0.0906 -0.1444 -0.0954
 3704SOL    HW122745   2.707   2.894   4.385 -0.5992 -0.3072 -0.4606
 3704SOL    HW222746   2.599   2.797   4.433 -0.2050  0.8110 -0.3385
 3705SOL     OW22747   4.012   1.557  11.749 -0.0819  0.2094  0.3410
 3705SOL    HW122748   4.047   1.523  11.831 -1.9206 -0.4725  0.8290
 3705SOL    HW222749   4.019   1.651  11.766 -2.3070  0.4197  0.0606
 3706SOL     OW22750   0.490   0.957   2.425  0.0371  0.2278  0.2054
 3706SOL    HW122751   0.582   0.930   2.429 -0.2843 -0.7279  1.1456
 3706SOL    HW222752   0.475   0.954   2.519 -1.5682 -1.9699 -0.1208
 3707SOL     OW22753   4.685   2.657   4.243  0.0744 -0.3628  0.1530
 3707SOL    HW122754   4.732   2.697   4.170 -0.9913 -0.5579 -0.6410
 3707SOL    HW222755   4.630   2.595   4.195 -1.8324  0.2702  1.4864
 3708SOL     OW22756   3.354   1.243   4.308  0.0004 -0.2397  0.3235
 3708SOL    HW122757   3.291   1.191   4.357 -1.3269  0.8344 -0.2455
 3708SOL    HW222758   3.429   1.229   4.366  0.9473 -2.3576 -1.3985
 3709SOL     OW22759   4.089   2.490   1.019 -0.1280 -0.0249  0.3091
 3709SOL    HW122760   4.183   2.477   1.007 -0.2472  0.8495 -1.5104
 3709SOL    HW222761   4.050   2.523   0.939  0.1149  0.5439  0.4272
 3710SOL     OW22762   3.748   3.521   3.976  0.0793 -1.1019 -0.0564
 3710SOL    HW122763   3.783   3.432   3.974  0.7390 -0.8600  0.4220
 3710SOL    HW222764   3.762   3.545   4.068  0.4067  0.7768 -0.5810
 3711SOL     OW22765   3.748   3.880  17.145  0.1480  0.1978  0.3371
 3711SOL    HW122766   3.679   3.907  17.206  2.1440  2.7227  1.4482
 3711SOL    HW222767   3.715   3.917  17.063  1.0233  0.8837  0.2967
 3712SOL     OW22768   3.024   4.051   6.060 -0.2186  0.4846 -0.2035
 3712SOL    HW122769   3.011   4.009   5.975 -0.7999  2.1676 -0.9341
 3712SOL    HW222770   3.027   3.983   6.128 -1.4955 -0.3120 -0.9574
 3713SOL     OW22771   0.741   0.234  13.952  0.0888  0.4691 -0.3637
 3713SOL    HW122772   0.817   0.289  13.934  1.1760 -0.0058  2.6825
 3713SOL    HW222773   0.758   0.159  13.895 -0.6691  0.0538 -0.0381
 3714SOL     OW22774   2.096   0.415   2.496  0.7510  0.5247  0.0413
 3714SOL    HW122775   2.149   0.390   2.421 -0.2413  1.4741 -0.9634
 3714SOL    HW222776   2.017   0.363   2.483 -0.3485  2.7268 -1.9477
 3715SOL     OW22777   2.256   1.757  16.915 -0.1800 -0.0648  0.1253
 3715SOL    HW122778   2.341   1.715  16.901 -1.4639 -2.0063 -1.9010
 3715SOL    HW222779   2.215   1.680  16.955  1.8101 -0.7341  0.8652
 3716SOL     OW22780   4.277   0.386   9.443  0.3919 -0.0549 -0.3137
 3716SOL    HW122781   4.322   0.418   9.366  1.0864 -0.7242 -0.1903
 3716SOL    HW222782   4.199   0.442   9.441 -0.2642 -0.8541  1.8826
 3717SOL     OW22783   1.464   2.118   4.475  0.1597  0.2485  0.4883
 3717SOL    HW122784   1.494   2.168   4.399  0.0112  0.5978  0.6585
 3717SOL    HW222785   1.375   2.101   4.446 -0.6307  2.8711  1.3707
 3718SOL     OW22786   4.553   0.560   2.736 -0.4895 -0.0411  0.6350
 3718SOL    HW122787   4.560   0.466   2.750  2.1447  0.1341  0.4727
 3718SOL    HW222788   4.471   0.576   2.783 -1.7654  1.5208 -2.0903
 3719SOL     OW22789   1.036   3.034   3.752 -0.1477 -0.4927 -0.1513
 3719SOL    HW122790   1.099   3.106   3.744 -1.5153  0.6001 -1.0821
 3719SOL    HW222791   0.954   3.077   3.726 -1.2273 -3.1556 -1.0826
 3720SOL     OW22792   4.150   2.527  16.431  0.0573  0.2659 -0.3237
 3720SOL    HW122793   4.105   2.447  16.458 -0.6119  0.2323 -1.5660
 3720SOL    HW222794   4.075   2.585  16.414  1.0430  1.0361 -1.9791
 3721SOL     OW22795   1.935   2.657  14.760  0.0958 -0.0863  0.2848
 3721SOL    HW122796   1.944   2.651  14.665  2.7591  1.7204  0.4286
 3721SOL    HW222797   1.871   2.589  14.781 -0.4003  0.9885  2.3228
 3722SOL     OW22798   3.739   1.516   5.292 -0.1745 -0.1403 -0.1831
 3722SOL    HW122799   3.807   1.558   5.238 -0.2314 -3.9279 -3.2522
 3722SOL    HW222800   3.750   1.561   5.375 -1.4659 -2.5530  1.2805
 3723SOL     OW22801   2.294   4.514   8.522  0.1895  0.4060 -0.1607
 3723SOL    HW122802   2.362   4.548   8.580 -0.1561 -0.0938  0.5508
 3723SOL    HW222803   2.340   4.441   8.480 -0.2456  0.5547 -0.9012
 3724SOL     OW22804   2.342   0.297   7.397  0.5487 -0.1688 -0.2928
 3724SOL    HW122805   2.340   0.389   7.373  2.9670 -0.6461 -2.3898
 3724SOL    HW222806   2.437   0.299   7.414  0.5066  0.1310 -0.0920
 3725SOL     OW22807   2.751   4.573   2.475 -0.7667 -0.5029 -0.1736
 3725SOL    HW122808   2.765   4.607   2.387  1.3429  0.4688  0.5377
 3725SOL    HW222809   2.807   4.496   2.474  0.2480  0.2365 -0.7367
 3726SOL     OW22810   4.513   2.340   3.406 -0.4512 -0.5522 -0.2309
 3726SOL    HW122811   4.567   2.410   3.368  1.6583 -1.5346  0.9712
 3726SOL    HW222812   4.506   2.368   3.497  0.3665 -2.4027  0.3922
 3727SOL     OW22813   4.238   0.609   6.322 -0.5747 -0.1451 -0.7281
 3727SOL    HW122814   4.310   0.624   6.261 -1.4823  0.8491 -1.5498
 3727SOL    HW222815   4.253   0.686   6.378 -0.6639 -0.2415 -0.5706
 3728SOL     OW22816   2.256   4.593   6.895  0.0117 -0.8252 -0.6714
 3728SOL    HW122817   2.349   4.582   6.874 -0.0078  0.9936 -1.6939
 3728SOL    HW222818   2.229   4.501   6.903 -0.4106 -0.7499 -1.2318
 3729SOL     OW22819   3.299   1.604   0.709  0.6238 -0.5585 -0.1355
 3729SOL    HW122820   3.336   1.586   0.795  1.6223  1.0685 -0.2078
 3729SOL    HW222821   3.265   1.519   0.682 -0.3664 -0.6843  1.5600
 3730SOL     OW22822   0.704   3.655  11.418 -0.4219 -0.1421  0.7179
 3730SOL    HW122823   0.745   3.740  11.428  0.7679 -0.5608 -0.4950
 3730SOL    HW222824   0.786   3.605  11.413 -0.1117  0.4614 -0.2311
 3731SOL     OW22825   1.192   2.630  11.697  0.0721 -0.7883 -0.2322
 3731SOL    HW122826   1.135   2.597  11.766  0.9835 -0.9541  0.4402
 3731SOL    HW222827   1.187   2.724  11.713 -0.5557 -0.7017 -0.9379
 3732SOL     OW22828   4.214   3.787   3.750 -0.2572  0.2331  0.4643
 3732SOL    HW122829   4.228   3.860   3.811  1.2081  2.1223 -2.1214
 3732SOL    HW222830   4.210   3.834   3.667  0.4508  0.3115  0.4735
 3733SOL     OW22831   2.283   2.866   1.491 -0.0836 -0.5088 -0.1193
 3733SOL    HW122832   2.336   2.850   1.569  1.4664 -0.5044 -1.1722
 3733SOL    HW222833   2.237   2.949   1.509  0.5172 -0.1373 -0.3069
 3734SOL     OW22834   4.622   0.063   5.355  0.2568 -0.1410  0.5366
 3734SOL    HW122835   4.671   0.138   5.388  2.8975 -1.6216 -0.0582
 3734SOL    HW222836   4.605   0.017   5.438  1.1763 -2.3435 -0.4796
 3735SOL     OW22837   1.948   2.107   3.866 -0.1490  0.1182  0.3683
 3735SOL    HW122838   1.906   2.187   3.898  0.5530  0.9483 -0.7641
 3735SOL    HW222839   1.945   2.047   3.940  1.6166 -0.1211  0.2246
 3736SOL     OW22840   4.136   3.734   5.563 -0.0604 -0.1679 -0.0651
 3736SOL    HW122841   4.190   3.756   5.487 -0.7204 -0.7836 -0.7215
 3736SOL    HW222842   4.182   3.655   5.589  1.4088 -0.1473 -2.5790
 3737SOL     OW22843   2.257   1.383   8.146 -0.8593 -0.4817  0.2485
 3737SOL    HW122844   2.177   1.417   8.186 -1.2392  0.3287 -1.1723
 3737SOL    HW222845   2.217   1.376   8.059 -2.5707  1.0986  0.9244
 3738SOL     OW22846   4.286   1.483  12.806 -0.2960 -0.4104 -0.2108
 3738SOL    HW122847   4.346   1.444  12.741 -0.4130  0.8869 -1.0992
 3738SOL    HW222848   4.324   1.458  12.890  1.7294  1.7038 -0.5051
 3739SOL     OW22849   3.446   0.475   7.557  1.1488 -0.2962  0.5154
 3739SOL    HW122850   3.383   0.487   7.485  1.9042 -0.7011 -0.2165
 3739SOL    HW222851   3.464   0.383   7.536  2.7204  0.0630  0.3145
 3740SOL     OW22852   3.135   4.458   3.714  0.2877 -0.1878  0.6717
 3740SOL    HW122853   3.169   4.525   3.654  2.6391 -0.5170  1.6307
 3740SOL    HW222854   3.107   4.516   3.784 -1.4572 -0.1410 -0.0625
 3741SOL     OW22855   3.687   2.040   9.464 -0.0081 -0.1308 -0.1208
 3741SOL    HW122856   3.607   2.059   9.513  0.4502 -0.3285  0.6956
 3741SOL    HW222857   3.660   1.962   9.414  2.0364 -0.4764 -0.7009
 3742SOL     OW22858   4.118   3.407  16.986 -0.0729 -0.1089  0.2171
 3742SOL    HW122859   4.132   3.320  17.023 -1.0560 -0.4091 -0.1262
 3742SOL    HW222860   4.033   3.438  17.018  0.4703 -0.5514  2.1018
 3743SOL     OW22861   1.163   2.230   0.737  0.3571  1.1119 -0.4678
 3743SOL    HW122862   1.218   2.224   0.658  1.8277 -0.6016  0.6835
 3743SOL    HW222863   1.212   2.290   0.794  0.9351 -0.3353  0.5491
 3744SOL     OW22864   2.837   4.561   0.094 -0.5445 -0.1382  0.3120
 3744SOL    HW122865   2.896   4.602   0.031 -1.0407  1.5604  0.9477
 3744SOL    HW222866   2.839   4.475   0.052  0.5702  0.0763 -0.0785
 3745SOL     OW22867   2.470   3.121  13.705  0.7076  0.2779  0.1374
 3745SOL    HW122868   2.508   3.152  13.623 -0.0946 -0.5803 -0.5463
 3745SOL    HW222869   2.433   3.038  13.677  0.4484  0.2889  0.4465
 3746SOL     OW22870   3.888   3.350  17.139 -0.0929 -0.2404  0.0360
 3746SOL    HW122871   3.841   3.423  17.179 -0.3083 -0.5911  0.4275
 3746SOL    HW222872   3.932   3.338  17.223  2.2648 -0.9975 -1.3153
 3747SOL     OW22873   3.736   2.226   4.805  0.6603  0.5754 -0.3295
 3747SOL    HW122874   3.651   2.265   4.827  0.2744  0.4032 -1.5145
 3747SOL    HW222875   3.795   2.300   4.790  1.9270 -0.1114  1.3234
 3748SOL     OW22876   3.538   4.237   4.969  0.1202 -0.7532 -0.2446
 3748SOL    HW122877   3.507   4.206   5.054  3.0370 -1.8927  0.4130
 3748SOL    HW222878   3.605   4.293   5.008  0.0472  0.3024 -1.6452
 3749SOL     OW22879   1.481   1.087   8.791  0.4607 -0.2127  0.1354
 3749SOL    HW122880   1.392   1.093   8.756  0.2452 -0.7434  0.5983
 3749SOL    HW222881   1.471   1.044   8.876 -1.0608 -0.3734 -0.1216
 3750SOL     OW22882   0.024   3.606  11.768  0.1225 -0.5660 -0.6719
 3750SOL    HW122883   0.055   3.645  11.686 -0.9552  0.1542 -0.7450
 3750SOL    HW222884   4.679   3.647  11.779 -0.2380 -1.2570 -0.8633
 3751SOL     OW22885   3.328   0.130  14.356 -0.0424  0.0055 -0.2595
 3751SOL    HW122886   3.249   0.177  14.330  0.5845  1.0853 -0.2081
 3751SOL    HW222887   3.399   0.192  14.337  0.6108 -0.4714  0.6693
 3752SOL     OW22888   4.215   3.419   5.575  0.2538  0.0910  0.1225
 3752SOL    HW122889   4.197   3.388   5.487 -1.3904  0.7861  0.2127
 3752SOL    HW222890   4.130   3.409   5.617  0.1356  1.8150  0.3136
 3753SOL     OW22891   0.994   2.106   8.670 -0.0839 -0.1284  0.0987
 3753SOL    HW122892   1.031   2.032   8.622 -1.1252  0.4971 -1.6462
 3753SOL    HW222893   1.067   2.168   8.668  0.3267 -0.7121 -3.5490
 3754SOL     OW22894   0.475   4.730   7.324 -0.1044  0.1749 -0.6541
 3754SOL    HW122895   0.438   4.686   7.400  0.6522  0.1005 -0.3223
 3754SOL    HW222896   0.432   0.074   7.312 -0.5796  0.2611  1.6759
 3755SOL     OW22897   4.410   4.214   9.403 -0.4703  0.4652  0.0940
 3755SOL    HW122898   4.394   4.135   9.352  0.4118  1.0559 -1.1039
 3755SOL    HW222899   4.453   4.274   9.342 -1.2769  0.2408 -0.7001
 3756SOL     OW22900   1.890   0.347   5.209 -0.4737 -0.2914 -0.3360
 3756SOL    HW122901   1.851   0.364   5.295 -0.6449 -1.7818 -0.1178
 3756SOL    HW222902   1.983   0.355   5.226 -0.1431  1.6225 -3.0815
 3757SOL     OW22903   3.966   3.459   4.710  0.0078  0.0716 -0.0431
 3757SOL    HW122904   3.907   3.399   4.665 -0.2880  0.4882 -0.2089
 3757SOL    HW222905   3.982   3.421   4.796  1.7633  0.6295 -0.1312
 3758SOL     OW22906   1.310   0.902   4.696  0.3701 -0.1492 -0.4069
 3758SOL    HW122907   1.264   0.951   4.628  0.2544  1.4962  0.8455
 3758SOL    HW222908   1.237   0.851   4.732  0.3112  0.9822  1.0742
 3759SOL     OW22909   3.013   2.030   8.150 -0.3322 -0.2281  0.2319
 3759SOL    HW122910   3.038   2.120   8.128 -2.0420  0.9055  2.9117
 3759SOL    HW222911   2.945   2.021   8.084  0.8610 -1.6401 -0.8114
 3760SOL     OW22912   4.056   2.415   2.632  0.2511  0.8001  0.3749
 3760SOL    HW122913   4.044   2.414   2.537 -1.4423  0.0727  0.6082
 3760SOL    HW222914   4.047   2.510   2.644  2.4709  0.8123  2.0520
 3761SOL     OW22915   4.410   4.375   5.423 -0.3246 -0.5793  0.0966
 3761SOL    HW122916   4.359   4.300   5.392 -2.1416  1.2747 -1.3932
 3761SOL    HW222917   4.498   4.341   5.439  0.2556  0.9795  0.2255
 3762SOL     OW22918   3.187   1.384   4.900 -0.1713  0.6323 -0.5107
 3762SOL    HW122919   3.102   1.371   4.858  1.4754  0.1133 -3.6646
 3762SOL    HW222920   3.176   1.331   4.979  0.3126  2.2705  0.6610
 3763SOL     OW22921   2.158   1.967   0.011 -0.0953 -0.2871  0.7226
 3763SOL    HW122922   2.099   2.034   0.046  0.7124  0.3657  0.8336
 3763SOL    HW222923   2.196   2.011  17.697  0.1228 -0.2376  0.8624
 3764SOL     OW22924   4.287   3.839   7.423 -0.9314 -0.0426  0.2822
 3764SOL    HW122925   4.375   3.829   7.462 -0.9955 -0.4607  0.3201
 3764SOL    HW222926   4.283   3.767   7.361 -0.6282 -1.2323  1.6274
 3765SOL     OW22927   1.479   2.600   4.480  0.4272 -0.2245 -0.2586
 3765SOL    HW122928   1.421   2.555   4.542  0.8743  1.5620  1.4973
 3765SOL    HW222929   1.565   2.600   4.522  0.8070 -0.2548 -1.0555
 3766SOL     OW22930   1.921   1.635   4.130  0.1129  0.1050 -0.8591
 3766SOL    HW122931   1.875   1.638   4.046 -0.8912 -0.7860 -0.3270
 3766SOL    HW222932   1.846   1.660   4.185  0.1946 -1.8859  0.1498
 3767SOL     OW22933   4.397   1.800   6.876  0.3922 -0.2016  0.2562
 3767SOL    HW122934   4.452   1.768   6.948 -2.2365 -3.7448  0.7490
 3767SOL    HW222935   4.321   1.743   6.891  0.6093 -0.3060  0.9887
 3768SOL     OW22936   3.960   0.649  12.340  0.1313 -0.6009 -0.1253
 3768SOL    HW122937   3.990   0.674  12.428 -0.5274  0.6760 -0.2619
 3768SOL    HW222938   3.957   0.736  12.300 -1.7467  0.1879  1.7520
 3769SOL     OW22939   0.960   0.015  16.769  0.1915 -0.1259 -0.0651
 3769SOL    HW122940   0.901   4.685  16.745 -0.6793  0.9725 -1.1982
 3769SOL    HW222941   0.981   0.061  16.687 -2.1785  0.1786 -0.5136
 3770SOL     OW22942   3.046   3.964   5.369  0.0992  0.4928  0.4308
 3770SOL    HW122943   3.122   3.959   5.312 -1.3067 -1.3493 -1.2937
 3770SOL    HW222944   3.007   4.051   5.362  1.2698  0.9857  0.2051
 3771SOL     OW22945   0.917   3.882  13.290 -0.0470  0.3596 -0.1773
 3771SOL    HW122946   0.830   3.850  13.264 -0.2055 -1.7316  2.9980
 3771SOL    HW222947   0.902   3.916  13.378  1.4564  3.3307 -1.0636
 3772SOL     OW22948   2.488   3.135   7.899 -0.3906  0.3488  0.1231
 3772SOL    HW122949   2.553   3.124   7.830 -1.4015  0.8896 -0.9247
 3772SOL    HW222950   2.519   3.083   7.973  1.0502 -1.2674 -1.6165
 3773SOL     OW22951   1.608   3.055   4.628 -0.1047 -0.1812 -0.1864
 3773SOL    HW122952   1.643   3.064   4.717 -1.5468  2.3355  0.1069
 3773SOL    HW222953   1.520   3.086   4.648  0.0553 -0.6714  1.3024
 3774SOL     OW22954   1.931   1.141   5.369  0.1785 -0.4907 -0.1262
 3774SOL    HW122955   1.965   1.168   5.283  0.4557 -0.1673  0.0834
 3774SOL    HW222956   1.915   1.047   5.358 -0.7473 -0.3290 -0.1240
 3775SOL     OW22957   2.497   2.537   4.242 -0.3950 -0.2410 -0.0884
 3775SOL    HW122958   2.532   2.521   4.154  0.0481  0.1050  0.0272
 3775SOL    HW222959   2.408   2.501   4.241 -1.2619  1.9078  0.9284
 3776SOL     OW22960   2.786   2.548   8.457  0.1701  0.4337  0.1887
 3776SOL    HW122961   2.809   2.527   8.366  1.4432  3.0828 -0.1083
 3776SOL    HW222962   2.813   2.464   8.494 -0.3454  0.1959  0.0363
 3777SOL     OW22963   1.327   1.906   3.459 -0.5438  0.3216 -0.6546
 3777SOL    HW122964   1.329   1.971   3.529  2.2501  0.6325 -1.0392
 3777SOL    HW222965   1.274   1.950   3.392 -0.2558 -1.1400 -1.8459
 3778SOL     OW22966   1.979   1.009   1.098 -0.0510  0.3979 -0.4516
 3778SOL    HW122967   1.978   1.035   1.191  1.2327 -0.3777 -0.2211
 3778SOL    HW222968   1.905   1.059   1.063  1.3662  2.0224 -1.0708
 3779SOL     OW22969   0.069   0.263   8.523  0.0468  0.3762 -0.3145
 3779SOL    HW122970   0.033   0.333   8.469 -0.6329 -0.2507 -0.6759
 3779SOL    HW222971   0.131   0.303   8.583  1.5687 -1.3859 -0.7032
 3780SOL     OW22972   3.544   3.227   3.221 -0.4747 -0.3016  0.1442
 3780SOL    HW122973   3.513   3.220   3.311 -2.2367 -1.4397 -0.5535
 3780SOL    HW222974   3.580   3.139   3.228  0.5147  0.1261  0.5123
 3781SOL     OW22975   3.233   4.283   5.687 -0.5708  0.0973 -0.2529
 3781SOL    HW122976   3.254   4.364   5.733  1.3607 -1.3616  1.4089
 3781SOL    HW222977   3.174   4.316   5.619  1.3136  3.0257 -0.4452
 3782SOL     OW22978   2.150   0.074   4.310  0.0440 -0.0549  0.2843
 3782SOL    HW122979   2.145   0.151   4.365  1.2920 -0.1682  0.5378
 3782SOL    HW222980   2.236   0.075   4.268 -0.5058  0.2843 -0.8440
 3783SOL     OW22981   1.263   2.320   6.687  0.3292  0.3661  0.0938
 3783SOL    HW122982   1.300   2.232   6.698  0.6677  0.3995 -0.7951
 3783SOL    HW222983   1.216   2.309   6.605  0.6811  0.0376 -0.0653
 3784SOL     OW22984   0.989   3.109   7.706 -0.1412 -0.2696  0.0002
 3784SOL    HW122985   0.922   3.056   7.747  0.2405 -1.4020 -0.8588
 3784SOL    HW222986   0.993   3.079   7.616  2.3794 -0.3543  0.1423
 3785SOL     OW22987   1.498   3.545   9.356 -1.0989 -0.3001 -0.4384
 3785SOL    HW122988   1.593   3.549   9.363 -1.2813  0.8724  1.1525
 3785SOL    HW222989   1.470   3.626   9.397  1.3552  0.8410 -1.0212
 3786SOL     OW22990   2.121   1.380   2.510 -0.5159  0.4292 -0.4678
 3786SOL    HW122991   2.041   1.346   2.550  0.9202 -0.3097  1.7327
 3786SOL    HW222992   2.167   1.418   2.585 -1.4832 -0.5847  0.6272
 3787SOL     OW22993   3.920   3.893   5.460  0.7122  0.1660  0.8698
 3787SOL    HW122994   3.983   3.822   5.472  0.3574 -0.6066 -1.9830
 3787SOL    HW222995   3.958   3.938   5.385 -1.5411 -1.8057 -1.4883
 3788SOL     OW22996   1.602   2.034   2.041  0.6223 -0.1282  0.1843
 3788SOL    HW122997   1.618   2.097   2.111 -1.4485 -0.1690  0.6898
 3788SOL    HW222998   1.680   2.056   1.990 -0.0131  1.2694 -0.1924
 3789SOL     OW22999   3.489   0.530   4.758 -0.1826 -0.2050  0.2025
 3789SOL    HW123000   3.483   0.542   4.853 -0.7707 -2.3890  0.4355
 3789SOL    HW223001   3.510   0.438   4.746  3.1620  0.6677 -0.5071
 3790SOL     OW23002   3.569   2.022   6.697  0.6463  0.2013  0.9551
 3790SOL    HW123003   3.544   2.094   6.754 -2.0209 -0.2344  0.3490
 3790SOL    HW223004   3.502   2.035   6.630  1.5131  0.8102  0.2149
 3791SOL     OW23005   0.865   1.783  17.220 -0.2365 -0.5355 -0.0509
 3791SOL    HW123006   0.783   1.790  17.171 -1.4383  0.0019  2.0512
 3791SOL    HW223007   0.898   1.873  17.227 -0.4985 -0.5520  1.3991
 3792SOL     OW23008   2.541   1.426  13.065  0.2728  0.3120  0.3157
 3792SOL    HW123009   2.449   1.408  13.084  1.0223 -1.5904  2.1649
 3792SOL    HW223010   2.535   1.519  13.046 -0.0278  0.1123 -0.5608
 3793SOL     OW23011   1.377   0.607   4.012  0.2201 -0.5176 -0.2586
 3793SOL    HW123012   1.444   0.590   4.078 -0.5260 -1.0875  0.3575
 3793SOL    HW223013   1.436   0.649   3.950 -2.4092  2.5212 -0.6835
 3794SOL     OW23014   0.754   4.165  17.235  0.6456  0.0610 -0.3113
 3794SOL    HW123015   0.768   4.085  17.287 -0.5994  0.9816  1.4464
 3794SOL    HW223016   0.826   4.218  17.267  1.1444  0.4811 -2.1133
 3795SOL     OW23017   2.490   0.791   1.009  0.3448 -0.2080  0.2168
 3795SOL    HW123018   2.505   0.807   0.916 -0.5074 -1.9716 -0.2293
 3795SOL    HW223019   2.454   0.702   1.015 -0.4880  0.0845 -0.4918
 3796SOL     OW23020   1.043   3.522  14.809  0.0088  0.5690  0.6737
 3796SOL    HW123021   1.084   3.496  14.726  0.7283 -2.8879  2.0774
 3796SOL    HW223022   1.079   3.610  14.813 -0.3583  0.7810 -1.1365
 3797SOL     OW23023   0.374   2.890   4.131 -0.5586  0.0434  0.0953
 3797SOL    HW123024   0.469   2.893   4.121 -0.3629  2.0782  2.6500
 3797SOL    HW223025   0.348   2.799   4.118  3.8350 -1.1367 -0.4194
 3798SOL     OW23026   4.597   4.506  12.959 -0.6189 -0.1569  0.2175
 3798SOL    HW123027   4.574   4.464  13.042 -1.0890  0.5184  0.4292
 3798SOL    HW223028   4.519   4.496  12.904  0.1600 -2.8481 -0.3999
 3799SOL     OW23029   3.394   3.539   4.539 -0.1332  0.1410 -0.6306
 3799SOL    HW123030   3.305   3.539   4.572  1.0885 -2.2312  2.6257
 3799SOL    HW223031   3.388   3.603   4.468  0.4943 -0.5480 -1.2949
 3800SOL     OW23032   1.149   4.172   8.174 -0.4800  0.2672  0.1005
 3800SOL    HW123033   1.157   4.095   8.117 -0.3225 -0.0660  0.5703
 3800SOL    HW223034   1.087   4.224   8.123  0.4731  2.2157  0.9507
 3801SOL     OW23035   4.573   1.161   6.849 -0.2667  0.1214 -0.3558
 3801SOL    HW123036   4.509   1.166   6.920  0.8287  0.4142  0.6209
 3801SOL    HW223037   4.604   1.071   6.843 -1.9981 -0.3367 -2.2002
 3802SOL     OW23038   1.137   3.949   1.683  0.1041  0.3762 -0.1705
 3802SOL    HW123039   1.052   3.932   1.723 -0.4382  0.4116 -1.2924
 3802SOL    HW223040   1.112   4.022   1.626  1.9365  1.7012  0.7308
 3803SOL     OW23041   3.752   2.527  15.647  0.1755  0.4078 -0.2624
 3803SOL    HW123042   3.758   2.614  15.608 -1.6390  0.6001 -0.1270
 3803SOL    HW223043   3.823   2.523  15.711 -1.5883  1.3988  1.7423
 3804SOL     OW23044   0.761   2.708   2.984  0.0161  0.4538  0.3636
 3804SOL    HW123045   0.730   2.632   2.933 -0.8885  0.5714  0.7480
 3804SOL    HW223046   0.832   2.741   2.929 -0.3255  0.1742 -0.2441
 3805SOL     OW23047   3.355   4.555  14.959  0.3989  0.0171 -0.3658
 3805SOL    HW123048   3.405   4.485  15.002  1.5846  1.8289  1.1753
 3805SOL    HW223049   3.405   4.560  14.877  3.0167 -2.2124  1.1017
 3806SOL     OW23050   2.864   3.746   5.867  0.1111  0.2506 -0.0806
 3806SOL    HW123051   2.860   3.675   5.803  0.6789  0.7280 -0.6453
 3806SOL    HW223052   2.882   3.686   5.939 -0.1927  0.5149  0.2140
 3807SOL     OW23053   0.101   2.441   4.815  0.1288 -0.4112  0.2057
 3807SOL    HW123054   0.078   2.391   4.736 -0.7454  1.0988 -0.4999
 3807SOL    HW223055   0.101   2.531   4.782 -1.6057 -0.5662 -0.1853
 3808SOL     OW23056   4.413   3.885   0.869 -0.3435  0.3971  0.0235
 3808SOL    HW123057   4.422   3.941   0.946  0.4088  0.7008 -0.2770
 3808SOL    HW223058   4.321   3.893   0.847 -0.0751  2.2185 -0.4678
 3809SOL     OW23059   2.334   1.643   2.583 -0.2079 -0.0583  0.1813
 3809SOL    HW123060   2.388   1.650   2.661  0.5777 -0.2547 -0.3507
 3809SOL    HW223061   2.403   1.623   2.520  0.6196  0.6842  0.8674
 3810SOL     OW23062   0.057   4.098   5.198  0.0314 -0.0959  0.2511
 3810SOL    HW123063   0.013   4.166   5.248 -0.8021  0.3187 -1.0652
 3810SOL    HW223064   0.143   4.134   5.178  0.5125 -1.3009  0.1388
 3811SOL     OW23065   2.711   2.484  10.673  0.2486 -0.1687  0.1328
 3811SOL    HW123066   2.686   2.515  10.586  1.4838 -1.5947 -0.7449
 3811SOL    HW223067   2.669   2.546  10.731 -1.4461 -1.2770  0.1015
 3812SOL     OW23068   2.613   2.121   2.193 -0.1776  0.3015 -0.1457
 3812SOL    HW123069   2.681   2.161   2.247  0.4800  1.0534 -1.5611
 3812SOL    HW223070   2.666   2.079   2.126  2.7179  1.7044  1.2910
 3813SOL     OW23071   3.293   3.778   3.257 -0.0265 -0.2037 -0.0964
 3813SOL    HW123072   3.370   3.782   3.200  0.1672 -0.2365  0.1643
 3813SOL    HW223073   3.295   3.688   3.290 -0.9194 -0.8668 -1.8049
 3814SOL     OW23074   1.374   2.486  15.048  0.7733  0.3415 -0.2097
 3814SOL    HW123075   1.295   2.532  15.076  0.3823 -0.4875  0.0315
 3814SOL    HW223076   1.351   2.394  15.042  0.4266  0.3575  0.7501
 3815SOL     OW23077   3.585   0.085  13.541  0.0721 -0.1693 -0.5027
 3815SOL    HW123078   3.541   0.165  13.571  3.5867  0.7618  2.1944
 3815SOL    HW223079   3.516   0.045  13.488 -0.8947 -2.3443  2.3807
 3816SOL     OW23080   0.205   2.233   6.352 -0.2945 -0.4093  0.8062
 3816SOL    HW123081   0.139   2.163   6.352  0.4533 -1.1107 -0.5402
 3816SOL    HW223082   0.266   2.204   6.284 -0.2053  0.2037  0.6224
 3817SOL     OW23083   4.739   1.211   1.916 -0.3063  0.0648  0.2147
 3817SOL    HW123084   4.703   1.222   2.004 -2.1873  1.6877 -0.7752
 3817SOL    HW223085   4.698   1.129   1.888 -1.5595  0.4608  0.8905
 3818SOL     OW23086   1.117   1.173   8.723  0.3237 -0.2514  0.3099
 3818SOL    HW123087   1.072   1.088   8.719  0.1512 -0.2047  1.3184
 3818SOL    HW223088   1.059   1.231   8.773  0.6677  0.6899 -0.3860
 3819SOL     OW23089   1.813   2.532   7.648 -0.0603  0.1945  0.2835
 3819SOL    HW123090   1.756   2.597   7.606 -1.4544 -0.8688  0.5045
 3819SOL    HW223091   1.817   2.455   7.592 -1.6984 -1.2768  2.2052
 3820SOL     OW23092   1.750   2.452  12.310  0.0712  0.0049 -0.0773
 3820SOL    HW123093   1.844   2.464  12.301  0.1257  0.7132  1.4122
 3820SOL    HW223094   1.715   2.524  12.258  1.6310 -0.2060 -1.4104
 3821SOL     OW23095   1.054   4.038   8.385  1.1458 -0.7900 -0.1496
 3821SOL    HW123096   1.097   4.087   8.315 -1.2095  2.8683  0.9508
 3821SOL    HW223097   0.964   4.049   8.353  1.4027  0.6758 -0.3713
 3822SOL     OW23098   0.099   3.982  11.185  0.4770 -0.2176  0.6366
 3822SOL    HW123099   0.003   3.980  11.189  0.4929 -0.9017  0.8215
 3822SOL    HW223100   0.126   4.026  11.265 -0.0741  0.7609  0.2871
 3823SOL     OW23101   1.785   4.425   5.225 -0.3278  0.0131 -0.0109
 3823SOL    HW123102   1.695   4.432   5.193 -0.7573 -1.6382  0.8408
 3823SOL    HW223103   1.776   4.361   5.295  0.0015 -0.1798 -0.1436
 3824SOL     OW23104   3.078   1.749   6.615 -0.3546 -0.3064 -0.1249
 3824SOL    HW123105   3.023   1.714   6.545  0.1826  2.6565 -2.0852
 3824SOL    HW223106   3.142   1.681   6.635  1.7690  1.2469 -1.6254
 3825SOL     OW23107   4.075   1.392   4.798 -0.5105 -0.1170 -0.4068
 3825SOL    HW123108   4.061   1.482   4.767 -0.0332 -0.4715 -1.6536
 3825SOL    HW223109   4.108   1.349   4.719 -0.3147 -0.1120 -0.3303
 3826SOL     OW23110   1.697   3.937   5.564  0.0053 -0.7153  0.1004
 3826SOL    HW123111   1.603   3.923   5.574 -0.3932  1.5896 -0.3928
 3826SOL    HW223112   1.729   3.848   5.548  1.3192 -0.6938  2.5857
 3827SOL     OW23113   2.785   0.158   1.633 -0.4515 -0.4499 -0.2530
 3827SOL    HW123114   2.701   0.179   1.672  0.0915 -2.4153  1.9543
 3827SOL    HW223115   2.820   0.226   1.575 -0.6547  1.3638  1.7646
 3828SOL     OW23116   3.282   1.570  15.601 -0.8019  0.0617  0.0620
 3828SOL    HW123117   3.272   1.539  15.691 -1.6783 -2.5174 -0.9020
 3828SOL    HW223118   3.348   1.508  15.570  0.6425  1.8357 -0.4044
 3829SOL     OW23119   0.821   0.776   5.188  0.4879  0.3946  0.6989
 3829SOL    HW123120   0.743   0.800   5.138  0.8444  1.2528  0.5449
 3829SOL    HW223121   0.835   0.689   5.150 -0.9844 -0.1776  1.4827
 3830SOL     OW23122   2.438   1.718   7.324  0.3359  0.1232 -0.2778
 3830SOL    HW123123   2.349   1.749   7.313 -0.7067 -1.4473  3.5584
 3830SOL    HW223124   2.419   1.626   7.343  0.4846  0.0969 -0.2554
 3831SOL     OW23125   2.955   1.352  15.713 -0.1660  0.2591 -0.1369
 3831SOL    HW123126   3.033   1.363  15.767 -0.8683 -3.0442  1.5992
 3831SOL    HW223127   2.970   1.396  15.629  0.6323 -2.6184 -1.4852
 3832SOL     OW23128   1.503   0.075   2.174 -0.2126  0.2226  0.0074
 3832SOL    HW123129   1.498   0.164   2.140  4.5584 -0.3883 -2.1907
 3832SOL    HW223130   1.508   0.026   2.092 -1.2629  1.0669 -0.5647
 3833SOL     OW23131   4.241   3.597   8.497  0.0222 -0.1674  0.1283
 3833SOL    HW123132   4.171   3.659   8.517 -0.8404 -1.0101 -0.2328
 3833SOL    HW223133   4.241   3.541   8.575  0.1236 -0.7845 -0.3167
 3834SOL     OW23134   2.496   3.898  17.144  0.3834  0.1224 -0.0475
 3834SOL    HW123135   2.531   3.810  17.151 -0.3593 -0.0209  2.0291
 3834SOL    HW223136   2.575   3.948  17.123 -0.0007  0.6475 -0.2492
 3835SOL     OW23137   1.451   1.304   5.674 -0.3226  0.4067  0.0454
 3835SOL    HW123138   1.486   1.217   5.652 -1.1326  0.0894 -0.0109
 3835SOL    HW223139   1.434   1.333   5.584  1.8186  1.4918 -0.0100
 3836SOL     OW23140   0.927   4.432   3.702  0.0536 -0.1155  0.0752
 3836SOL    HW123141   0.959   4.494   3.768 -0.5959 -0.2224  0.4925
 3836SOL    HW223142   1.002   4.412   3.646  1.2194  1.4036  1.0787
 3837SOL     OW23143   4.640   4.473   6.043 -0.0013 -0.2234 -0.0123
 3837SOL    HW123144   4.730   4.455   6.017  0.0448  0.4757 -0.3425
 3837SOL    HW223145   4.639   4.565   6.070 -2.2060  0.0448 -1.0419
 3838SOL     OW23146   3.913   1.653  15.531  0.2169 -0.1078 -0.0975
 3838SOL    HW123147   3.833   1.607  15.557  1.5711 -2.2310  0.2836
 3838SOL    HW223148   3.890   1.745  15.548 -1.4370 -0.5010 -0.1685
 3839SOL     OW23149   3.878   4.475  11.125  0.1086 -0.1600 -0.1003
 3839SOL    HW123150   3.973   4.480  11.129  0.1868 -2.1422  0.6998
 3839SOL    HW223151   3.859   4.540  11.057 -0.1053  1.0195  1.0959
 3840SOL     OW23152   2.772   1.249   8.425 -0.4147  0.6739  0.2690
 3840SOL    HW123153   2.764   1.166   8.379  0.2454 -1.0809  3.3315
 3840SOL    HW223154   2.806   1.293   8.347 -0.7397  0.1927 -0.1449
 3841SOL     OW23155   2.687   1.464   5.539 -0.9448  0.6160  0.2334
 3841SOL    HW123156   2.778   1.473   5.511 -0.4302  0.2265  1.7673
 3841SOL    HW223157   2.644   1.418   5.467 -2.9987  1.5672  0.8666
 3842SOL     OW23158   3.429   3.774   4.331 -0.2305 -0.0159 -0.2690
 3842SOL    HW123159   3.434   3.869   4.326 -0.7193  0.0788  1.0782
 3842SOL    HW223160   3.516   3.754   4.367  0.3530 -0.2711 -1.8416
 3843SOL     OW23161   2.615   0.176   6.556 -0.5399 -0.3997  0.3144
 3843SOL    HW123162   2.607   0.152   6.464  0.5457 -0.1753  0.1629
 3843SOL    HW223163   2.661   0.096   6.579  0.0987 -0.9757 -2.8982
 3844SOL     OW23164   1.094   1.927   8.181  0.2160  0.4416  0.6213
 3844SOL    HW123165   1.064   1.838   8.200  0.3940  1.1094  3.9582
 3844SOL    HW223166   1.018   1.976   8.214 -1.0404 -0.2616 -1.2566
 3845SOL     OW23167   1.538   0.907   5.011 -0.2683 -0.0253 -0.1056
 3845SOL    HW123168   1.515   0.883   4.921 -0.9955  0.9682 -0.1889
 3845SOL    HW223169   1.633   0.917   4.997 -0.2503 -0.6992 -0.4737
 3846SOL     OW23170   0.426   3.047  12.967  0.2399 -0.3390 -0.2933
 3846SOL    HW123171   0.471   3.132  12.974 -1.4349  0.6890 -2.1182
 3846SOL    HW223172   0.357   3.071  12.905 -0.0291  1.3057  0.6142
 3847SOL     OW23173   2.071   0.332  15.357 -0.1763  0.1027  0.8129
 3847SOL    HW123174   2.106   0.394  15.292  0.8423 -1.0707  0.2536
 3847SOL    HW223175   2.143   0.337  15.420  0.5775 -0.3228 -0.0046
 3848SOL     OW23176   3.555   1.236   7.848  0.2286 -0.3680 -0.3039
 3848SOL    HW123177   3.525   1.224   7.938  1.0332  2.4810  0.3470
 3848SOL    HW223178   3.476   1.281   7.817  0.3543 -0.8082 -1.2641
 3849SOL     OW23179   4.549   3.915   4.840 -0.9213 -0.4589 -0.1906
 3849SOL    HW123180   4.618   3.957   4.892 -0.0765 -2.2536  0.1502
 3849SOL    HW223181   4.575   3.824   4.827 -1.3778 -0.8850  1.8118
 3850SOL     OW23182   2.333   2.454   5.827  0.0406  0.2163 -0.0057
 3850SOL    HW123183   2.238   2.441   5.822  0.3368 -1.8288 -0.2785
 3850SOL    HW223184   2.370   2.376   5.787  0.9750  1.3071 -1.2714
 3851SOL     OW23185   1.749   4.666   8.993 -0.3166 -0.3291 -0.7099
 3851SOL    HW123186   1.767   4.730   9.062  0.6021  0.5180 -1.7578
 3851SOL    HW223187   1.662   4.643   9.027  0.1863  0.5525  1.1904
 3852SOL     OW23188   4.244   2.884   7.455  0.2679 -0.4661  0.2789
 3852SOL    HW123189   4.252   2.906   7.363  0.6966  1.0714  0.6909
 3852SOL    HW223190   4.293   2.802   7.453  1.9013  0.5215 -0.1916
 3853SOL     OW23191   4.246   2.371   5.652 -0.2606 -0.5292  0.3118
 3853SOL    HW123192   4.175   2.373   5.716 -1.1987  1.5493 -0.7928
 3853SOL    HW223193   4.207   2.401   5.570  1.4576 -0.0409 -0.3399
 3854SOL     OW23194   1.887   3.983   4.005 -0.0236  0.2063  0.2390
 3854SOL    HW123195   1.979   3.983   4.032 -0.0901 -2.0738  0.4495
 3854SOL    HW223196   1.881   4.060   3.949 -3.7541  0.1183  0.5411
 3855SOL     OW23197   2.711   1.644   8.218 -0.4974  0.2661  0.3922
 3855SOL    HW123198   2.750   1.666   8.133 -0.5153 -1.5350 -0.0750
 3855SOL    HW223199   2.673   1.559   8.197 -1.8554  1.2171 -1.0077
 3856SOL     OW23200   2.026   3.298  11.668 -0.6180  0.0489 -0.1342
 3856SOL    HW123201   2.067   3.232  11.725  0.9911 -0.7198 -2.1633
 3856SOL    HW223202   1.936   3.282  11.698  0.1915 -1.4946  1.5091
 3857SOL     OW23203   0.118   4.423   5.884  0.6208 -0.2295  0.1939
 3857SOL    HW123204   0.133   4.513   5.854 -2.2929 -0.7063 -2.6614
 3857SOL    HW223205   0.210   4.396   5.884  0.3845 -1.0192  0.5837
 3858SOL     OW23206   4.527   0.788   2.557  0.1333  0.6214 -0.1569
 3858SOL    HW123207   4.548   0.858   2.619 -0.9999  0.1818  0.7294
 3858SOL    HW223208   4.538   0.707   2.607 -0.2835  1.8137  1.8794
 3859SOL     OW23209   1.518   1.863   2.910  0.4397  0.0786  0.4976
 3859SOL    HW123210   1.529   1.792   2.847  0.1362  2.2407 -2.0191
 3859SOL    HW223211   1.579   1.921   2.864 -0.8641  1.6099  0.7025
 3860SOL     OW23212   1.144   0.108   8.682  0.3082 -0.5832 -0.1944
 3860SOL    HW123213   1.142   0.177   8.749  0.2613  0.1619 -0.9676
 3860SOL    HW223214   1.237   0.089   8.679  0.0366 -2.4650  2.7741
 3861SOL     OW23215   0.400   0.181  11.649  0.3611 -0.1418  0.2350
 3861SOL    HW123216   0.373   0.159  11.738  0.1759 -1.0198 -0.0379
 3861SOL    HW223217   0.324   0.142  11.605 -0.7795  2.1000  0.1991
 3862SOL     OW23218   1.655   2.462   3.754  0.5480  0.4900  0.3261
 3862SOL    HW123219   1.674   2.396   3.821 -0.9568  0.7495  0.9867
 3862SOL    HW223220   1.744   2.462   3.718  0.1357 -0.2762 -0.7233
 3863SOL     OW23221   1.916   2.703   7.034  0.0042 -0.1079  0.1145
 3863SOL    HW123222   1.852   2.666   7.096 -0.4740 -0.1341 -0.3962
 3863SOL    HW223223   1.925   2.793   7.067  3.7552 -0.1421 -0.8753
 3864SOL     OW23224   4.065   3.699   3.108  0.4240 -0.2702 -0.7303
 3864SOL    HW123225   3.985   3.717   3.157  0.7619 -0.8027  0.0148
 3864SOL    HW223226   4.096   3.617   3.147  0.9081  0.1100 -0.3143
 3865SOL     OW23227   0.360   1.569   7.092  0.0901  0.4451 -0.4974
 3865SOL    HW123228   0.275   1.531   7.069 -1.3631  2.4647  1.5070
 3865SOL    HW223229   0.367   1.640   7.028  3.6591  0.9741  0.4792
 3866SOL     OW23230   1.770   3.136  13.728 -0.5918  0.2738 -0.5214
 3866SOL    HW123231   1.834   3.101  13.791  1.4364  2.4098 -1.4029
 3866SOL    HW223232   1.766   3.225  13.761 -1.6231  0.4693 -1.1635
 3867SOL     OW23233   1.874   1.458   5.146 -0.0478 -0.6289 -0.2755
 3867SOL    HW123234   1.850   1.467   5.054  0.1514  0.3078 -0.2427
 3867SOL    HW223235   1.821   1.526   5.188  1.1831 -1.4257  2.5502
 3868SOL     OW23236   0.243   1.519   4.687  0.6789 -0.3287 -0.0382
 3868SOL    HW123237   0.217   1.505   4.596 -0.7816 -3.8463  0.9105
 3868SOL    HW223238   0.308   1.587   4.670 -0.9316  1.1816 -0.1160
 3869SOL     OW23239   4.146   3.728   4.747 -0.0885 -0.0543 -0.1091
 3869SOL    HW123240   4.086   3.717   4.820  0.5702 -0.4276  0.3766
 3869SOL    HW223241   4.172   3.819   4.755  0.9631 -0.4634  1.1470
 3870SOL     OW23242   1.684   4.040   5.289 -0.2820 -0.1841  0.1952
 3870SOL    HW123243   1.702   3.968   5.349 -0.5972  0.9978  1.6852
 3870SOL    HW223244   1.713   4.110   5.347 -1.0214  2.7351 -2.9385
 3871SOL     OW23245   0.424   4.589  17.540  0.0423  0.0229  0.0609
 3871SOL    HW123246   0.338   4.581  17.498 -0.2835  0.3815  0.6665
 3871SOL    HW223247   0.440   4.502  17.577 -1.8950 -1.6183 -2.9229
 3872SOL     OW23248   3.473   1.196   2.063  0.6260  0.3461  0.0153
 3872SOL    HW123249   3.385   1.192   2.100  1.3007 -4.1129  1.1071
 3872SOL    HW223250   3.523   1.162   2.137  1.7953 -0.0007 -0.9167
 3873SOL     OW23251   3.994   2.101  15.114 -0.0422 -0.3029 -0.3217
 3873SOL    HW123252   3.905   2.071  15.096  0.1972  0.4160 -2.6718
 3873SOL    HW223253   4.044   2.032  15.070 -1.1432 -0.6975 -0.9392
 3874SOL     OW23254   4.480   2.300  10.327 -0.7287  0.2389  0.2059
 3874SOL    HW123255   4.546   2.234  10.304  1.6219  1.1974  4.2200
 3874SOL    HW223256   4.409   2.266  10.273  2.1181 -0.9799 -2.8025
 3875SOL     OW23257   3.532   1.376   8.454 -0.1153  0.4305 -0.6015
 3875SOL    HW123258   3.450   1.331   8.469 -1.2359  2.7470  0.2104
 3875SOL    HW223259   3.532   1.379   8.358 -1.0484 -1.0683 -0.6375
 3876SOL     OW23260   0.647   4.738  11.796 -0.0673 -0.0562  0.0568
 3876SOL    HW123261   0.729   4.690  11.803  0.3133 -0.2966 -5.8833
 3876SOL    HW223262   0.681   0.075  11.839 -0.0474  0.1693 -0.3608
 3877SOL     OW23263   0.967   3.013   5.895  0.2203  0.1037 -0.1746
 3877SOL    HW123264   1.013   2.976   5.971 -0.5783 -2.1537 -0.7793
 3877SOL    HW223265   1.031   2.996   5.827  1.1149 -0.1167  0.7211
 3878SOL     OW23266   4.492   4.524   6.716  0.0079  0.0566 -0.1108
 3878SOL    HW123267   4.583   4.518   6.745 -0.2975 -1.5209  0.5240
 3878SOL    HW223268   4.491   4.472   6.635 -0.5128 -0.3875  0.1853
 3879SOL     OW23269   1.159   3.127   5.470 -0.4889 -0.1459 -0.0363
 3879SOL    HW123270   1.147   3.094   5.381 -1.3496 -0.0444  0.0359
 3879SOL    HW223271   1.243   3.170   5.456  0.0993 -0.8764  1.2385
 3880SOL     OW23272   0.069   4.286   4.825 -0.5228  0.1338 -0.2688
 3880SOL    HW123273   0.150   4.336   4.839 -0.5679  0.2536 -0.4311
 3880SOL    HW223274   0.039   4.338   4.750 -0.2244  0.2170 -0.3327
 3881SOL     OW23275   0.466   2.220   6.226  0.1140 -0.2424 -0.2895
 3881SOL    HW123276   0.523   2.297   6.235  1.0994 -1.0804  0.5042
 3881SOL    HW223277   0.497   2.183   6.308  2.5881  0.8681 -0.7080
 3882SOL     OW23278   3.872   0.831   1.782 -0.1145  0.0101  0.5304
 3882SOL    HW123279   3.842   0.743   1.758 -1.4278  0.2251  1.3675
 3882SOL    HW223280   3.855   0.831   1.876  0.0037  2.2057  0.5505
 3883SOL     OW23281   3.297   3.082  11.646 -0.2622  0.3323 -0.1921
 3883SOL    HW123282   3.314   3.082  11.551 -0.7069 -2.1371 -0.2770
 3883SOL    HW223283   3.383   3.096  11.684 -0.8842 -1.1824  1.7497
 3884SOL     OW23284   3.863   4.678  10.962 -0.0257 -0.5585  0.7221
 3884SOL    HW123285   3.930   0.000  10.936  1.4536 -2.0946  0.7493
 3884SOL    HW223286   3.817   4.733  11.024 -0.3213  2.7581 -2.4376
 3885SOL     OW23287   4.397   2.539   5.123  0.9194  0.3277 -0.2060
 3885SOL    HW123288   4.306   2.568   5.130 -0.0945 -3.2382  1.0202
 3885SOL    HW223289   4.388   2.500   5.036  3.2222  1.0116 -0.7435
 3886SOL     OW23290   2.814   3.307   9.362 -0.3886 -0.4224 -0.4791
 3886SOL    HW123291   2.758   3.339   9.291 -0.5642 -1.8249 -0.9655
 3886SOL    HW223292   2.768   3.344   9.438  0.2497 -0.9020  0.1398
 3887SOL     OW23293   0.059   1.694   8.710 -0.0096 -0.0671  0.2164
 3887SOL    HW123294   4.712   1.691   8.749 -0.3397 -1.3292 -0.6310
 3887SOL    HW223295   0.082   1.786   8.722 -0.9853  0.2303 -0.1866
 3888SOL     OW23296   3.955   1.752   6.208 -0.2524  0.1102  0.0380
 3888SOL    HW123297   3.934   1.659   6.210 -0.9779  0.1996 -4.7041
 3888SOL    HW223298   4.045   1.758   6.174  0.4553  0.6412  1.9734
 3889SOL     OW23299   0.022   2.501   6.177 -0.2934 -0.3383 -0.2771
 3889SOL    HW123300   4.716   2.572   6.133 -0.4719 -1.4590 -1.9081
 3889SOL    HW223301   4.706   2.429   6.149  0.4416 -0.4747 -1.4210
 3890SOL     OW23302   2.355   1.908   6.530 -0.4707 -0.2841  0.5675
 3890SOL    HW123303   2.345   1.985   6.587  1.8037  1.0546 -0.8631
 3890SOL    HW223304   2.427   1.934   6.473  0.5542  1.6119  2.7433
 3891SOL     OW23305   0.247   3.074   5.335 -0.2969  0.1872  0.0220
 3891SOL    HW123306   0.294   3.157   5.348  0.5074 -0.5716  1.8869
 3891SOL    HW223307   0.318   3.012   5.353 -1.5550 -0.9784  0.9535
 3892SOL     OW23308   1.222   3.450  13.928 -0.5415  0.3931 -0.4932
 3892SOL    HW123309   1.209   3.489  13.841  1.2820  0.9635 -0.5127
 3892SOL    HW223310   1.254   3.362  13.910 -0.7019  0.4843 -1.2115
 3893SOL     OW23311   1.278   2.727   5.756  0.0248  0.3358 -0.6499
 3893SOL    HW123312   1.296   2.651   5.701  0.4889  0.6199 -0.8875
 3893SOL    HW223313   1.212   2.678   5.805 -1.2279  0.2913 -2.4120
 3894SOL     OW23314   3.357   3.348  17.515 -0.4315 -0.0737 -0.2470
 3894SOL    HW123315   3.351   3.314  17.425 -1.8879  0.1329 -0.2333
 3894SOL    HW223316   3.334   3.440  17.502  2.0319  0.7380  1.0247
 3895SOL     OW23317   2.096   0.052  15.313 -0.0602 -0.0837  0.6331
 3895SOL    HW123318   2.076   0.144  15.329 -0.9360 -0.1959  0.1648
 3895SOL    HW223319   2.174   0.048  15.368  0.2584 -4.6617 -0.1069
 3896SOL     OW23320   2.360   3.442   2.374 -0.2456 -0.3397  0.0326
 3896SOL    HW123321   2.290   3.480   2.426 -1.0810 -2.2323  0.2963
 3896SOL    HW223322   2.313   3.389   2.309 -0.2035 -2.4984  1.7673
 3897SOL     OW23323   3.908   2.662   1.107 -0.4571 -0.0879  0.0633
 3897SOL    HW123324   3.984   2.616   1.071  0.3032  1.0891  0.1418
 3897SOL    HW223325   3.873   2.591   1.161  1.2141  0.0727  1.3610
 3898SOL     OW23326   4.100   4.314   3.582  0.1355  0.2674  0.4071
 3898SOL    HW123327   4.041   4.292   3.510 -0.0095 -1.3760  1.0044
 3898SOL    HW223328   4.033   4.329   3.649 -1.4692 -0.0990 -1.1097
 3899SOL     OW23329   4.205   4.413  13.506  0.3450  0.1682  0.2711
 3899SOL    HW123330   4.301   4.407  13.509  0.3254 -1.3776 -1.8149
 3899SOL    HW223331   4.190   4.426  13.600 -0.9372  2.0138 -0.1838
 3900SOL     OW23332   1.031   3.486   7.157  0.4046 -0.4062  0.1407
 3900SOL    HW123333   1.050   3.395   7.135  2.2292  0.2998 -1.1537
 3900SOL    HW223334   1.112   3.524   7.191  0.7102  0.2412 -1.2943
 3901SOL     OW23335   2.510   3.492   2.829  0.4864 -0.0397  0.3721
 3901SOL    HW123336   2.475   3.577   2.857 -0.1259 -0.4138  0.7546
 3901SOL    HW223337   2.555   3.473   2.911  1.9342  1.1187 -0.1561
 3902SOL     OW23338   2.543   3.809   2.569 -0.5951 -0.9072 -0.0039
 3902SOL    HW123339   2.588   3.726   2.554 -1.7108 -1.4532 -0.3458
 3902SOL    HW223340   2.584   3.837   2.651 -0.4314 -3.5495  0.8130
 3903SOL     OW23341   2.129   0.070   2.126 -0.4040 -0.0380  0.4932
 3903SOL    HW123342   2.175   4.728   2.109 -0.5733 -0.0446  0.0834
 3903SOL    HW223343   2.040   0.035   2.137  0.0204 -1.3411 -0.2500
 3904SOL     OW23344   0.057   4.278   8.463  0.4502  0.2441 -0.0345
 3904SOL    HW123345   0.143   4.317   8.449  0.1468  1.6597  2.0365
 3904SOL    HW223346   0.012   4.328   8.531  0.2754 -1.2971  1.0059
 3905SOL     OW23347   4.281   0.250   4.661 -0.7461 -0.4443 -0.2993
 3905SOL    HW123348   4.348   0.221   4.598  1.2113  0.0089  1.5480
 3905SOL    HW223349   4.214   0.268   4.596 -1.5999  3.3655  1.6332
 3906SOL     OW23350   3.552   0.387   6.157 -0.3458  0.1682 -0.3274
 3906SOL    HW123351   3.561   0.480   6.176  2.1839 -0.6430  2.4460
 3906SOL    HW223352   3.492   0.351   6.222 -0.7299 -0.3199 -0.9469
 3907SOL     OW23353   4.083   1.468   2.911 -0.7692 -0.3813  0.1798
 3907SOL    HW123354   4.100   1.530   2.840 -0.2070 -1.1292 -0.3334
 3907SOL    HW223355   4.169   1.444   2.945 -0.9621 -1.1189  0.1427
 3908SOL     OW23356   0.907   4.200   6.184 -0.2002 -0.2857  0.0903
 3908SOL    HW123357   0.978   4.236   6.237  0.3435 -1.6393  0.2769
 3908SOL    HW223358   0.859   4.280   6.162  0.0237 -0.1330  0.1610
 3909SOL     OW23359   0.711   0.381   4.805  1.0083 -0.4445 -0.1044
 3909SOL    HW123360   0.738   0.294   4.776 -0.0773 -0.4597 -1.0580
 3909SOL    HW223361   0.634   0.389   4.749  0.2052  0.3980  1.1008
 3910SOL     OW23362   4.687   0.278   7.638 -0.0484 -0.0720  0.2308
 3910SOL    HW123363   4.686   0.322   7.723  0.9699  1.5280 -0.5920
 3910SOL    HW223364   4.598   0.251   7.614  0.0613  3.2428 -3.7171
 3911SOL     OW23365   0.090   1.445   4.933 -0.2941  0.4199  0.3896
 3911SOL    HW123366   0.146   1.452   4.856 -0.0962 -0.4590  0.4532
 3911SOL    HW223367   0.128   1.369   4.978 -0.9369 -0.0190  0.1874
 3912SOL     OW23368   1.181   1.974  12.204 -0.4518  0.3694  0.2313
 3912SOL    HW123369   1.147   2.033  12.270  1.8618  1.3130  0.5802
 3912SOL    HW223370   1.161   2.019  12.122 -0.4836 -0.4687 -0.2174
 3913SOL     OW23371   3.318   2.637   9.059  0.2195  0.2290  0.1647
 3913SOL    HW123372   3.287   2.557   9.101  0.1269 -0.4124 -1.1211
 3913SOL    HW223373   3.310   2.618   8.966  0.4682 -0.5387  0.2959
 3914SOL     OW23374   3.256   2.224   4.439 -0.4213  0.1474  0.0315
 3914SOL    HW123375   3.209   2.268   4.369  0.5540  1.4407  0.1991
 3914SOL    HW223376   3.211   2.140   4.441  0.8324 -0.5183  0.8126
 3915SOL     OW23377   1.009   1.769   5.188  0.3048  0.4040  0.9613
 3915SOL    HW123378   1.030   1.778   5.281  1.2376  2.4703  0.5522
 3915SOL    HW223379   0.919   1.737   5.193 -0.2999  1.8175 -1.0312
 3916SOL     OW23380   4.001   0.082   4.688  0.2731 -1.1342 -0.5652
 3916SOL    HW123381   4.073   0.022   4.708  0.6271 -0.6849 -0.4853
 3916SOL    HW223382   4.034   0.111   4.603 -1.0355 -0.0297 -0.6963
 3917SOL     OW23383   0.537   2.193   7.396 -0.2615 -0.0076  0.3374
 3917SOL    HW123384   0.484   2.115   7.382 -0.7745  0.2385  0.9505
 3917SOL    HW223385   0.527   2.235   7.311  2.9602 -1.5547 -0.8222
 3918SOL     OW23386   3.607   1.293   0.033 -0.3292 -0.1415 -0.1020
 3918SOL    HW123387   3.629   1.385   0.019  1.0356  0.3074  5.2152
 3918SOL    HW223388   3.542   1.275  17.726 -0.1868  0.0101 -0.2773
 3919SOL     OW23389   1.715   3.737   4.944 -0.4509  0.3613 -0.3670
 3919SOL    HW123390   1.665   3.819   4.937 -1.6054 -0.1432  1.8466
 3919SOL    HW223391   1.645   3.673   4.957 -0.8740  0.7677 -0.6079
 3920SOL     OW23392   3.634   4.169   1.905  0.1314 -0.2458  0.2171
 3920SOL    HW123393   3.611   4.077   1.896  1.8437 -0.6120 -0.4200
 3920SOL    HW223394   3.658   4.160   1.997  0.2859 -2.3948 -0.0356
 3921SOL     OW23395   1.509   0.195   5.417  0.0279 -0.1223  0.1820
 3921SOL    HW123396   1.603   0.209   5.411  0.0758  0.2047  1.7902
 3921SOL    HW223397   1.483   0.258   5.484 -2.1006  1.0971 -1.7589
 3922SOL     OW23398   3.002   1.892  13.630  0.3198  0.5788  0.2626
 3922SOL    HW123399   3.052   1.838  13.568 -0.4200  0.5978 -0.3449
 3922SOL    HW223400   2.948   1.949  13.575  0.1714 -0.8331 -1.0730
 3923SOL     OW23401   0.856   0.547  14.096  0.1010 -0.0765 -0.1733
 3923SOL    HW123402   0.829   0.542  14.188  1.6076  2.2920  0.3810
 3923SOL    HW223403   0.777   0.574  14.050 -2.0032 -3.7465  1.2938
 3924SOL     OW23404   1.377   1.905   6.484  0.3927  0.3587 -0.2299
 3924SOL    HW123405   1.404   1.979   6.539  1.1947  1.9558 -2.7536
 3924SOL    HW223406   1.405   1.823   6.524  1.3249  0.0791 -1.4650
 3925SOL     OW23407   2.979   0.660   5.689  0.4011  0.2213 -0.1463
 3925SOL    HW123408   3.042   0.731   5.679  0.6844 -0.0667 -0.3897
 3925SOL    HW223409   2.956   0.641   5.598  1.3502  0.0820 -0.3575
 3926SOL     OW23410   2.839   0.015   2.638 -0.3427 -0.1803 -0.4248
 3926SOL    HW123411   2.805   4.700   2.568 -0.6517 -0.5842  0.0488
 3926SOL    HW223412   2.887   4.697   2.696  1.0500  1.5779  0.2298
 3927SOL     OW23413   2.720   2.239   1.325 -0.2882  0.5258  0.1014
 3927SOL    HW123414   2.633   2.274   1.307 -0.8915 -0.9743  0.1867
 3927SOL    HW223415   2.726   2.262   1.418  0.0753  2.0253 -0.2926
 3928SOL     OW23416   4.049   1.234  15.416 -0.1669 -0.1582  0.1816
 3928SOL    HW123417   3.965   1.235  15.462 -0.4693  1.3873 -0.4111
 3928SOL    HW223418   4.098   1.305  15.458 -0.1612 -0.1453  0.1533
 3929SOL     OW23419   3.915   4.136   5.646 -0.1873 -0.3515  0.1264
 3929SOL    HW123420   3.868   4.106   5.568 -0.1357 -0.6778  0.2183
 3929SOL    HW223421   3.849   4.136   5.715  0.6333  1.0856  0.9132
 3930SOL     OW23422   2.674   2.031   3.006 -0.4817 -0.2567 -0.2089
 3930SOL    HW123423   2.687   2.078   2.924  1.2062  2.3751  1.5541
 3930SOL    HW223424   2.689   2.096   3.075  1.6035  0.8220 -1.7031
 3931SOL     OW23425   3.780   0.437   4.566 -0.0499  0.0900  0.1024
 3931SOL    HW123426   3.723   0.368   4.600 -0.8453  0.9660  0.5636
 3931SOL    HW223427   3.776   0.501   4.637  0.4648 -0.7107  0.8435
 3932SOL     OW23428   4.216   1.352   6.191  0.0886 -0.5166 -0.9778
 3932SOL    HW123429   4.261   1.277   6.229 -2.2712 -1.1556  0.5672
 3932SOL    HW223430   4.224   1.335   6.097 -1.6089  1.6090 -1.5044
 3933SOL     OW23431   3.052   0.936   3.366  0.0190 -0.0397  0.1124
 3933SOL    HW123432   3.107   0.979   3.301 -0.0864  1.9001  1.2956
 3933SOL    HW223433   3.109   0.882   3.420 -0.7628 -0.9379  0.0513
 3934SOL     OW23434   3.607   2.437  17.406  0.0180  0.3153 -0.2166
 3934SOL    HW123435   3.518   2.446  17.372 -0.5662 -0.5819  1.0840
 3934SOL    HW223436   3.584   2.457  17.497  2.5969 -0.5822  0.6294
 3935SOL     OW23437   4.231   1.882  11.080 -0.1413  0.9930  0.4570
 3935SOL    HW123438   4.173   1.922  11.016  1.0855  3.2341  0.7748
 3935SOL    HW223439   4.229   1.938  11.157 -0.9240 -0.9376  1.8592
 3936SOL     OW23440   3.506   2.541   1.139 -0.2831  0.4063 -0.2736
 3936SOL    HW123441   3.567   2.582   1.200 -1.4903  1.6070  0.1177
 3936SOL    HW223442   3.513   2.599   1.063  0.2116 -0.3490 -0.8134
 3937SOL     OW23443   3.105   4.535  17.442 -0.1845 -0.2747  0.1684
 3937SOL    HW123444   3.097   4.629  17.423  0.2911 -0.2153  0.2641
 3937SOL    HW223445   3.182   4.523  17.497  0.0580 -1.0819 -0.3547
 3938SOL     OW23446   1.842   2.741   3.616  0.6528 -0.6880  0.0601
 3938SOL    HW123447   1.833   2.646   3.608  1.9211 -0.7019 -1.0932
 3938SOL    HW223448   1.754   2.770   3.590  1.5880 -0.1656 -2.5374
 3939SOL     OW23449   2.883   1.687   3.451 -0.5284  0.1163  0.2869
 3939SOL    HW123450   2.926   1.696   3.536 -0.0808 -1.3063  0.2000
 3939SOL    HW223451   2.921   1.607   3.414 -1.7791 -0.8596  1.1371
 3940SOL     OW23452   0.828   2.098   3.241 -0.0283  0.5125 -0.3914
 3940SOL    HW123453   0.848   2.191   3.249 -1.9203  0.8297  0.4094
 3940SOL    HW223454   0.911   2.063   3.208 -0.1923 -0.6439  0.4211
 3941SOL     OW23455   1.956   3.700  13.730  0.0449  0.3099  0.0430
 3941SOL    HW123456   1.871   3.661  13.711 -0.6037  0.7148  2.1979
 3941SOL    HW223457   2.007   3.622  13.706  0.8318  1.6659 -2.6153
 3942SOL     OW23458   2.100   2.979   5.994  0.2206  0.2457  0.2925
 3942SOL    HW123459   2.005   2.970   5.984  0.3380  1.0748 -1.4458
 3942SOL    HW223460   2.131   3.022   5.914  1.5700  0.4508  0.9293
 3943SOL     OW23461   2.799   2.535  15.195 -0.0712 -0.1383  0.0924
 3943SOL    HW123462   2.893   2.536  15.216  0.1356 -1.6280 -0.8102
 3943SOL    HW223463   2.778   2.454  15.149  1.9316  0.0196 -1.1044
 3944SOL     OW23464   2.700   0.158   3.402  0.2953 -0.7968 -0.0054
 3944SOL    HW123465   2.742   0.130   3.321  0.4932  2.3175 -0.9911
 3944SOL    HW223466   2.608   0.168   3.375 -0.6787 -0.6999  3.3236
 3945SOL     OW23467   0.446   2.967   3.801 -0.0902  0.0473  0.0776
 3945SOL    HW123468   0.483   3.016   3.727 -0.6408  0.7776  0.2777
 3945SOL    HW223469   0.459   2.873   3.792  2.6672  0.5344 -1.0207
 3946SOL     OW23470   1.003   3.836   3.693  0.1798 -0.0597 -0.2206
 3946SOL    HW123471   0.958   3.762   3.652  1.2424 -0.2356 -1.0646
 3946SOL    HW223472   0.949   3.837   3.772  2.3902 -2.9935  1.3498
 3947SOL     OW23473   1.871   3.431   4.667  0.1796  0.2304 -0.2537
 3947SOL    HW123474   1.896   3.520   4.644 -0.8793  0.6545  0.2487
 3947SOL    HW223475   1.861   3.394   4.580 -2.2604  0.9517 -0.2911
 3948SOL     OW23476   0.097   3.915   3.960 -0.0775 -0.3742  0.2535
 3948SOL    HW123477   0.017   3.969   3.965 -0.4288 -0.9730  1.0557
 3948SOL    HW223478   0.152   3.964   4.022 -0.5255 -0.5035  0.7600
 3949SOL     OW23479   0.798   1.304   4.172  0.1878  0.7279 -0.2408
 3949SOL    HW123480   0.707   1.313   4.203  0.6245  0.9769  0.9838
 3949SOL    HW223481   0.819   1.377   4.114 -2.3695  1.3408 -0.3906
 3950SOL     OW23482   2.076   0.017   7.001 -0.4845 -0.1683 -0.1804
 3950SOL    HW123483   2.132   0.086   7.036  0.6821 -2.0090  1.5888
 3950SOL    HW223484   2.141   4.691   6.978 -0.2752 -0.4042  1.0949
 3951SOL     OW23485   2.237   4.516   2.643 -0.2180  0.3307  0.2535
 3951SOL    HW123486   2.229   4.602   2.600  0.6061  1.6231  2.7173
 3951SOL    HW223487   2.246   4.548   2.733 -0.0534 -1.5022  0.8733
 3952SOL     OW23488   4.031   1.089   3.725  0.3560 -0.1389 -0.3462
 3952SOL    HW123489   4.025   1.159   3.660 -2.8004  0.4568  0.6318
 3952SOL    HW223490   4.073   1.132   3.800  0.9739 -1.8405  0.2888
 3953SOL     OW23491   2.361   2.490   8.204  0.8118 -0.4976  0.5957
 3953SOL    HW123492   2.335   2.582   8.200  1.4425 -0.4428 -1.9099
 3953SOL    HW223493   2.364   2.458   8.114  1.3172  0.9800  0.0958
 3954SOL     OW23494   2.791   0.048   5.458  0.1177 -0.3286  0.1459
 3954SOL    HW123495   2.783   0.072   5.551 -2.6054  3.0206 -0.9608
 3954SOL    HW223496   2.787   4.694   5.473 -1.9945 -0.2221  0.3482
 3955SOL     OW23497   3.574   4.144   8.165 -0.2085 -0.0301  0.5171
 3955SOL    HW123498   3.648   4.179   8.116  0.9690  0.3641  2.5659
 3955SOL    HW223499   3.505   4.210   8.163  1.1942  1.4215 -0.1304
 3956SOL     OW23500   0.264   2.423  12.904 -0.2021 -0.4245  0.6149
 3956SOL    HW123501   0.200   2.461  12.844 -2.3470 -2.4165  1.6503
 3956SOL    HW223502   0.331   2.492  12.912 -0.2465 -0.2388 -0.6526
 3957SOL     OW23503   3.557   1.264   6.254 -0.0817  0.0323  0.0272
 3957SOL    HW123504   3.545   1.169   6.246  0.2111  0.1144 -1.3452
 3957SOL    HW223505   3.509   1.299   6.179  1.2304 -0.4336 -1.0294
 3958SOL     OW23506   3.701   4.530  14.997 -0.2285 -0.4856 -0.2362
 3958SOL    HW123507   3.629   4.468  14.980  0.0057 -0.7487 -0.2721
 3958SOL    HW223508   3.746   4.534  14.913 -1.1042 -1.6653 -0.7763
 3959SOL     OW23509   3.594   4.396   6.551 -0.2026  0.1556  0.6559
 3959SOL    HW123510   3.519   4.362   6.501  0.8950 -2.1476  0.6063
 3959SOL    HW223511   3.664   4.412   6.487 -0.1712 -0.3184  0.5675
 3960SOL     OW23512   1.663   3.369   4.847  0.1106 -0.4282 -0.0024
 3960SOL    HW123513   1.721   3.410   4.783 -0.5761  0.7849  0.1433
 3960SOL    HW223514   1.680   3.276   4.834  1.3394 -0.2412  0.2216
 3961SOL     OW23515   2.621   2.162   7.063 -0.0985 -0.0012 -0.3024
 3961SOL    HW123516   2.682   2.089   7.048  1.2919  0.7265  1.7718
 3961SOL    HW223517   2.643   2.215   6.986 -1.7705  1.0854 -0.0208
 3962SOL     OW23518   3.826   3.733   9.053  0.6233 -0.4280 -0.4048
 3962SOL    HW123519   3.892   3.777   9.000  0.5902 -2.1737 -1.8982
 3962SOL    HW223520   3.765   3.729   8.979  2.3998  1.4613 -1.9621
 3963SOL     OW23521   0.798   2.431   6.761  0.3582 -0.0624 -0.2491
 3963SOL    HW123522   0.714   2.419   6.718  1.3349  1.5665 -2.6214
 3963SOL    HW223523   0.813   2.339   6.781  0.2673  0.1728  0.9321
 3964SOL     OW23524   2.018   2.020  16.618  0.0122 -0.0616 -0.1022
 3964SOL    HW123525   1.997   2.070  16.697 -1.4597  0.6157 -0.9285
 3964SOL    HW223526   2.022   2.083  16.546 -2.1166  2.5421  2.0469
 3965SOL     OW23527   1.172   2.547   1.281 -0.2326  0.3315 -0.2036
 3965SOL    HW123528   1.091   2.566   1.327  1.2709 -0.4751  2.7323
 3965SOL    HW223529   1.164   2.613   1.211 -0.7057 -0.0302 -0.4859
 3966SOL     OW23530   3.964   2.807   8.990  0.4101  0.0396  0.4025
 3966SOL    HW123531   3.991   2.715   8.988  2.4112  0.6720 -2.0497
 3966SOL    HW223532   3.871   2.790   8.974  0.1140  0.8812  1.2380
 3967SOL     OW23533   3.766   1.731   9.843 -0.3334 -0.1251  1.1059
 3967SOL    HW123534   3.828   1.672   9.800 -1.0470 -0.3303  0.3419
 3967SOL    HW223535   3.780   1.811   9.792 -0.1924 -1.6043 -1.1610
 3968SOL     OW23536   4.682   4.273   5.752 -0.1748 -0.2437  0.1613
 3968SOL    HW123537   4.601   4.308   5.788 -0.7329 -1.6212  0.2347
 3968SOL    HW223538   0.008   4.322   5.800  0.9093 -0.1784 -1.4105
 3969SOL     OW23539   2.352   0.803   7.114  0.0234 -0.1018  0.1631
 3969SOL    HW123540   2.432   0.851   7.090 -0.8238  1.0691 -0.2990
 3969SOL    HW223541   2.338   0.759   7.031  0.0802  1.5539 -0.7272
 3970SOL     OW23542   3.094   2.075  11.126 -0.3670  0.4071  0.5063
 3970SOL    HW123543   3.044   2.148  11.089  1.0899  0.8082 -0.6528
 3970SOL    HW223544   3.066   2.076  11.217 -1.4954 -2.7857  0.1881
 3971SOL     OW23545   2.256   0.070   2.962 -0.2135  0.2359  0.3616
 3971SOL    HW123546   2.342   0.088   2.923  0.3890 -1.8744  0.7121
 3971SOL    HW223547   2.269   4.718   2.983 -1.0118 -0.6232 -2.8759
 3972SOL     OW23548   0.827   3.164   3.699 -0.1961  0.5178 -0.3177
 3972SOL    HW123549   0.733   3.159   3.686 -0.1878  0.5343 -0.3867
 3972SOL    HW223550   0.857   3.196   3.614  1.4753  0.4581  0.2453
 3973SOL     OW23551   3.023   2.439   4.554 -0.4409 -0.5919  0.3025
 3973SOL    HW123552   3.053   2.401   4.471 -1.0914  0.4559 -0.4199
 3973SOL    HW223553   2.960   2.501   4.518 -0.2026  0.9536  2.5983
 3974SOL     OW23554   4.117   3.529  12.813 -0.4798 -0.3213 -0.0376
 3974SOL    HW123555   4.111   3.617  12.777  0.8479 -0.0312  0.4785
 3974SOL    HW223556   4.086   3.476  12.740 -2.6396  1.4344 -0.4030
 3975SOL     OW23557   0.830   3.412   7.823 -0.2259  0.2049 -0.0914
 3975SOL    HW123558   0.774   3.341   7.853  1.7574 -1.9013 -1.3118
 3975SOL    HW223559   0.766   3.471   7.783  0.9184  0.1417 -2.0201
 3976SOL     OW23560   1.472   4.601   4.057 -0.0560  0.4216 -0.3157
 3976SOL    HW123561   1.480   4.630   3.966 -0.1814 -0.3953 -0.5841
 3976SOL    HW223562   1.544   4.537   4.060  0.4894  1.0286 -0.4078
 3977SOL     OW23563   1.316   4.549   3.361 -0.2170 -0.0635 -0.0280
 3977SOL    HW123564   1.253   4.621   3.356 -1.7832 -1.5923 -2.4026
 3977SOL    HW223565   1.265   4.487   3.414 -1.3566  1.1391  0.2653
 3978SOL     OW23566   2.290   0.046   2.627  0.0975 -0.0336 -0.2957
 3978SOL    HW123567   2.274   0.140   2.624  1.0536  0.2692  3.0789
 3978SOL    HW223568   2.378   0.045   2.666 -0.5353  0.4025  1.1603
 3979SOL     OW23569   0.776   1.537   9.139 -0.2668 -0.7446  0.0117
 3979SOL    HW123570   0.832   1.464   9.165 -1.0803 -1.7088 -0.9110
 3979SOL    HW223571   0.730   1.546   9.222 -0.2098 -0.0032 -0.0358
 3980SOL     OW23572   1.408   2.947  15.643 -0.1886  0.1742 -0.3759
 3980SOL    HW123573   1.431   3.039  15.626  0.5886  0.3658  1.8387
 3980SOL    HW223574   1.326   2.958  15.692 -1.2796 -2.6750 -1.5788
 3981SOL     OW23575   1.272   1.027   5.523 -0.0872 -0.0974 -0.1067
 3981SOL    HW123576   1.219   1.011   5.601 -1.2977 -0.0354 -0.9081
 3981SOL    HW223577   1.242   1.116   5.502  0.4237  0.0286 -0.3092
 3982SOL     OW23578   3.067   0.319   4.259  0.2335  0.2392 -0.3623
 3982SOL    HW123579   3.162   0.306   4.262  0.0614 -0.9365 -0.1004
 3982SOL    HW223580   3.054   0.392   4.319 -1.3043  0.0986 -0.5327
 3983SOL     OW23581   2.242   3.122   4.675 -0.5490  0.2198 -0.9271
 3983SOL    HW123582   2.210   3.039   4.641 -0.3088  0.1140 -0.8895
 3983SOL    HW223583   2.231   3.177   4.597 -0.5487  0.5885 -0.6683
 3984SOL     OW23584   3.644   0.648   8.772  0.0575  0.0300  0.1641
 3984SOL    HW123585   3.677   0.703   8.700  1.7269  1.0533  1.7036
 3984SOL    HW223586   3.581   0.713   8.802  0.6642  0.4953  0.4352
 3985SOL     OW23587   3.128   2.250  17.540 -0.4813 -0.1911 -0.4443
 3985SOL    HW123588   3.079   2.276  17.618  0.6450 -0.7475  0.4452
 3985SOL    HW223589   3.214   2.278  17.572  0.6324 -1.1775 -2.5644
 3986SOL     OW23590   1.014   2.493  15.210 -0.1555 -0.4705 -0.1270
 3986SOL    HW123591   0.973   2.421  15.163  2.5474 -2.9069  1.2300
 3986SOL    HW223592   1.058   2.450  15.284 -1.7481 -0.4428  0.8345
 3987SOL     OW23593   3.468   4.268   3.665 -0.0962 -0.5756 -0.3702
 3987SOL    HW123594   3.516   4.309   3.736 -0.7623 -1.7216  0.7503
 3987SOL    HW223595   3.397   4.220   3.707  0.2468 -1.9335 -1.3056
 3988SOL     OW23596   2.904   4.362   8.933  0.0625 -0.4059  0.0029
 3988SOL    HW123597   2.834   4.296   8.934 -1.2438  0.9688 -0.4343
 3988SOL    HW223598   2.981   4.305   8.943  0.0990 -0.8015 -2.7341
 3989SOL     OW23599   1.117   3.066   9.840 -0.7561 -0.0358  0.3489
 3989SOL    HW123600   1.148   3.156   9.846  2.1050 -1.2453  4.4435
 3989SOL    HW223601   1.057   3.069   9.766  1.1551 -2.7157 -1.3441
 3990SOL     OW23602   4.339   4.463   1.631 -0.1214 -0.4843  0.0409
 3990SOL    HW123603   4.381   4.404   1.694  1.3189  0.5563  0.0458
 3990SOL    HW223604   4.419   4.459   1.579  1.4291 -0.3173  2.3798
 3991SOL     OW23605   4.075   4.244   2.685 -0.1548 -0.4749 -0.3272
 3991SOL    HW123606   4.089   4.323   2.633  0.3611 -1.0134 -1.0042
 3991SOL    HW223607   4.157   4.195   2.679  1.1640  1.5808  0.9307
 3992SOL     OW23608   4.614   4.483   8.471 -0.0992 -0.0062  0.0691
 3992SOL    HW123609   4.609   4.550   8.403  3.1628  0.8565  0.7091
 3992SOL    HW223610   4.579   4.531   8.546  2.1705  0.2491  0.9584
 3993SOL     OW23611   2.454   3.183   1.812  0.0657 -0.2934  0.3618
 3993SOL    HW123612   2.492   3.190   1.899  0.3686 -0.8984  0.2843
 3993SOL    HW223613   2.365   3.216   1.822  0.2029  0.1432  0.1324
 3994SOL     OW23614   2.115   2.934   7.770  0.2434  0.1280 -0.0544
 3994SOL    HW123615   2.160   2.849   7.770 -0.9964 -0.5285  3.4447
 3994SOL    HW223616   2.158   2.980   7.841 -0.4427  0.0547  0.4134
 3995SOL     OW23617   2.738   2.321   4.242 -0.1651 -0.2136  0.4859
 3995SOL    HW123618   2.780   2.285   4.165 -2.0516 -0.4237 -0.4569
 3995SOL    HW223619   2.772   2.411   4.239 -0.5428 -0.1878 -2.9155
 3996SOL     OW23620   0.128   0.017   7.844  0.2057 -0.4495 -0.0441
 3996SOL    HW123621   0.132   0.015   7.939 -0.5977  0.7731 -0.0027
 3996SOL    HW223622   0.036   0.040   7.840  0.4304  0.2039 -1.7850
 3997SOL     OW23623   2.650   0.425   4.601  0.0021  0.0882  0.6604
 3997SOL    HW123624   2.651   0.367   4.678 -0.8666 -0.7582  0.0295
 3997SOL    HW223625   2.684   0.361   4.538 -2.5228  0.9968 -1.6095
 3998SOL     OW23626   2.778   0.453   3.609  0.1085  0.2332  0.5553
 3998SOL    HW123627   2.869   0.434   3.633 -0.6960  0.0935  3.4530
 3998SOL    HW223628   2.792   0.537   3.564  1.2070 -0.7307 -0.8818
 3999SOL     OW23629   1.112   2.110   0.176  0.3145  0.6599 -0.2951
 3999SOL    HW123630   1.162   2.046   0.227  0.0462 -0.3336 -1.2782
 3999SOL    HW223631   1.090   2.059   0.098  1.0535  0.4856 -0.3950
 4000SOL     OW23632   1.494   2.343  15.269  0.8075 -0.1396 -0.8875
 4000SOL    HW123633   1.449   2.262  15.294 -0.6237  0.8422 -0.3294
 4000SOL    HW223634   1.513   2.313  15.180 -1.8712 -1.5128 -0.9900
 4001SOL     OW23635   4.040   1.258   0.931  0.3666 -0.7099 -0.5242
 4001SOL    HW123636   4.045   1.236   0.838  3.6985  0.7885 -0.6913
 4001SOL    HW223637   4.131   1.283   0.944  0.0071  0.0190  0.5656
 4002SOL     OW23638   3.480   0.936   5.432 -0.1360 -0.1700 -0.1937
 4002SOL    HW123639   3.451   0.854   5.473  1.4702 -1.2294 -1.2076
 4002SOL    HW223640   3.574   0.943   5.446 -0.2413 -0.9103  0.9026
 4003SOL     OW23641   4.718   0.079  11.402 -0.1547 -0.0795  0.3700
 4003SOL    HW123642   0.049   0.045  11.454  0.2228  1.2482  0.7265
 4003SOL    HW223643   4.690   0.156  11.452 -0.9552 -0.4902  0.5532
 4004SOL     OW23644   2.659   2.276   1.824 -0.5465  0.4132  0.0089
 4004SOL    HW123645   2.649   2.363   1.785  1.1103  0.3107 -0.6406
 4004SOL    HW223646   2.668   2.302   1.915 -1.9501  2.5434 -0.4525
 4005SOL     OW23647   2.018   1.936   4.085  0.0590  0.0672  0.1430
 4005SOL    HW123648   2.004   1.842   4.076  2.4207 -0.2699  0.0541
 4005SOL    HW223649   1.976   1.957   4.169 -2.7238 -0.7688 -1.0557
 4006SOL     OW23650   0.744   0.941   7.452  0.1309  0.0021  0.0441
 4006SOL    HW123651   0.692   1.020   7.437  1.3497  1.1871  2.0339
 4006SOL    HW223652   0.759   0.946   7.546 -0.1436 -0.3766  0.1052
 4007SOL     OW23653   0.575   3.384   8.096 -0.8409  0.1632  0.6721
 4007SOL    HW123654   0.505   3.423   8.043 -0.7072  1.4522  1.4472
 4007SOL    HW223655   0.544   3.399   8.186 -0.4493 -0.0254  0.8396
 4008SOL     OW23656   1.645   3.079  10.703  0.3675 -0.1453 -0.1992
 4008SOL    HW123657   1.632   3.111  10.613 -1.0789  1.4894  0.5856
 4008SOL    HW223658   1.607   2.991  10.704 -1.8118  0.8067  0.5291
 4009SOL     OW23659   4.469   2.403   8.159 -0.7832  0.2003  0.5548
 4009SOL    HW123660   4.479   2.320   8.206  0.7242  0.5222  0.8168
 4009SOL    HW223661   4.383   2.392   8.120 -0.6422 -0.3929  0.4047
 4010SOL     OW23662   2.729   1.034   8.264  0.1740 -0.4891 -0.2763
 4010SOL    HW123663   2.700   0.960   8.319  1.4495  0.5202  1.7764
 4010SOL    HW223664   2.663   1.029   8.195  0.0297  1.9589 -0.3190
 4011SOL     OW23665   2.882   0.188   4.884  0.2007  0.7928  0.0653
 4011SOL    HW123666   2.900   0.102   4.848 -0.9567  0.3746  0.4797
 4011SOL    HW223667   2.963   0.235   4.866 -0.5762  1.8987 -0.5589
 4012SOL     OW23668   3.538   4.443   5.651  0.0231  0.3834  0.0501
 4012SOL    HW123669   3.575   4.532   5.652 -1.1089  0.8617 -0.3525
 4012SOL    HW223670   3.566   4.411   5.565 -2.7027  2.9905 -1.8429
 4013SOL     OW23671   1.640   4.721   2.636  0.1714  0.8308  0.1075
 4013SOL    HW123672   1.721   4.698   2.682 -0.3838  1.1442  1.2424
 4013SOL    HW223673   1.680   0.008   2.553 -2.8151 -1.1357 -1.9818
 4014SOL     OW23674   4.479   1.410   3.209 -0.0346  0.0840  0.3014
 4014SOL    HW123675   4.384   1.404   3.218 -0.1305 -0.1258 -0.8152
 4014SOL    HW223676   4.491   1.502   3.185  0.7173 -0.3043 -0.7986
 4015SOL     OW23677   2.421   1.513   5.654 -0.2825 -0.3894  0.3707
 4015SOL    HW123678   2.391   1.423   5.640 -2.3195  0.1053  1.6276
 4015SOL    HW223679   2.515   1.513   5.631 -0.4089 -1.2096 -0.1255
 4016SOL     OW23680   0.809   0.078  15.805 -0.3390  0.9440 -0.2138
 4016SOL    HW123681   0.887   0.023  15.796  0.5748  2.0752  0.7798
 4016SOL    HW223682   0.848   0.154  15.847 -1.1034  0.7466  0.8491
 4017SOL     OW23683   3.002   1.578   4.480 -0.3945 -0.4425 -0.0423
 4017SOL    HW123684   3.084   1.558   4.433 -0.9668 -0.0019 -1.2336
 4017SOL    HW223685   2.970   1.489   4.488  0.5476 -0.3754  4.3995
 4018SOL     OW23686   1.397   0.171   6.792  0.3923  0.0296 -0.0578
 4018SOL    HW123687   1.323   0.215   6.750 -1.0875 -0.5683  1.9157
 4018SOL    HW223688   1.371   0.175   6.884  3.0024 -0.0028  0.6776
 4019SOL     OW23689   4.723   3.403   4.921  0.6493 -0.7024 -0.1484
 4019SOL    HW123690   4.661   3.388   4.992  0.3074  0.6050 -0.1808
 4019SOL    HW223691   0.067   3.378   4.958 -0.1449 -2.0079  0.8056
 4020SOL     OW23692   2.737   1.797   9.564 -0.1578  0.0906 -0.3348
 4020SOL    HW123693   2.801   1.767   9.629  0.9849  2.6840 -0.2865
 4020SOL    HW223694   2.789   1.842   9.497  0.6510  0.9300  0.8661
 4021SOL     OW23695   4.372   4.388  15.490  0.1715 -0.4005  0.3468
 4021SOL    HW123696   4.333   4.369  15.405  2.2034  0.6655 -0.8395
 4021SOL    HW223697   4.306   4.447  15.525 -1.2732 -2.9028  1.8232
 4022SOL     OW23698   3.426   0.010  12.982  0.0026  0.4158 -0.2370
 4022SOL    HW123699   3.437   4.657  12.969 -0.8157  0.3215 -0.2710
 4022SOL    HW223700   3.492   0.034  13.047 -1.5947  2.6517  0.5486
 4023SOL     OW23701   0.633   2.018   4.570  0.2749  0.6637 -0.0752
 4023SOL    HW123702   0.652   1.931   4.536 -1.5828  0.3762 -0.4002
 4023SOL    HW223703   0.556   2.038   4.517 -0.1239  0.3876  0.3943
 4024SOL     OW23704   2.372   3.796   8.393 -0.1565 -0.1270  0.7674
 4024SOL    HW123705   2.334   3.857   8.330 -0.3297 -0.6501  0.3672
 4024SOL    HW223706   2.292   3.762   8.435  0.2441 -0.3815  1.3292
 4025SOL     OW23707   1.942   1.146   8.920  0.4737  0.4179 -0.2058
 4025SOL    HW123708   2.019   1.163   8.975  0.7054  2.7565 -1.2578
 4025SOL    HW223709   1.984   1.099   8.848  0.0461 -0.4644  0.1239
 4026SOL     OW23710   0.302   2.982  10.769 -0.2584  0.3221  0.0113
 4026SOL    HW123711   0.224   2.973  10.715 -0.2037  1.1558 -0.2062
 4026SOL    HW223712   0.300   2.907  10.829  1.9877  0.2948  0.0496
 4027SOL     OW23713   0.413   2.699   0.018  0.2130 -0.0883  0.0961
 4027SOL    HW123714   0.372   2.624  17.737  0.2851  0.3291 -0.7171
 4027SOL    HW223715   0.369   2.774  17.739 -1.7458 -0.5618  1.3694
 4028SOL     OW23716   1.819   2.849   2.725  0.1795  0.3769  0.4112
 4028SOL    HW123717   1.760   2.774   2.729  1.2449 -0.3656  1.9905
 4028SOL    HW223718   1.823   2.871   2.818  0.2596 -0.5542  0.6221
 4029SOL     OW23719   3.982   0.856   7.270  0.1533 -0.3711  0.7430
 4029SOL    HW123720   3.917   0.883   7.336  1.2208  1.8862  0.8758
 4029SOL    HW223721   3.925   0.860   7.193  1.6631 -2.3082 -0.4795
 4030SOL     OW23722   0.112   3.445  12.845  0.6856 -0.2163  0.2149
 4030SOL    HW123723   0.202   3.433  12.816  1.2821 -0.4240  2.1592
 4030SOL    HW223724   0.091   3.361  12.886 -2.0256  0.2508 -0.1922
 4031SOL     OW23725   1.811   3.193   1.617  0.6707 -0.2522 -0.0092
 4031SOL    HW123726   1.753   3.139   1.671  1.5925 -0.4099  0.8296
 4031SOL    HW223727   1.773   3.281   1.619 -0.6854 -0.8210 -0.6169
 4032SOL     OW23728   2.528   1.989   9.008 -0.3206 -0.1087  0.5212
 4032SOL    HW123729   2.575   2.035   9.078  2.7198 -1.5931 -0.5300
 4032SOL    HW223730   2.443   1.984   9.051 -1.0321 -0.0561 -0.8862
 4033SOL     OW23731   2.682   0.701   3.483 -0.2567  0.1588  0.1254
 4033SOL    HW123732   2.723   0.748   3.556  0.6986 -1.7040  0.8002
 4033SOL    HW223733   2.619   0.768   3.458 -0.0910  0.4090  0.3735
 4034SOL     OW23734   2.239   1.656   6.149 -0.0835 -0.6039 -0.2204
 4034SOL    HW123735   2.251   1.599   6.073  0.0770 -0.5651 -0.2231
 4034SOL    HW223736   2.227   1.745   6.115  1.1656  0.3192  1.7798
 4035SOL     OW23737   1.788   0.053   4.991 -0.2400 -0.7403 -0.3032
 4035SOL    HW123738   1.837   0.057   5.073 -0.9277  0.5264  0.0524
 4035SOL    HW223739   1.714   4.741   5.019  0.6121 -2.1075 -0.6569
 4036SOL     OW23740   1.015   4.449   1.078  0.1614  0.3384  0.0774
 4036SOL    HW123741   0.931   4.493   1.067  0.1742  0.0985 -1.0286
 4036SOL    HW223742   1.029   4.484   1.166 -0.2730  1.2264 -0.2075
 4037SOL     OW23743   1.199   2.625  10.230  0.6406  0.4700  0.1833
 4037SOL    HW123744   1.114   2.650  10.195  0.6198  0.2165  0.0524
 4037SOL    HW223745   1.191   2.547  10.285  0.9693  0.5311  0.3213
 4038SOL     OW23746   0.353   3.323   1.739 -0.1755  0.6740  0.2449
 4038SOL    HW123747   0.323   3.248   1.687  0.5775  0.0338  0.7340
 4038SOL    HW223748   0.268   3.360   1.763 -1.0215 -1.0711 -0.0690
 4039SOL     OW23749   3.506   2.142   8.853 -0.1494  0.1874  0.0499
 4039SOL    HW123750   3.514   2.194   8.772  0.6159  1.5198  0.9782
 4039SOL    HW223751   3.587   2.176   8.892  1.0454 -0.8719 -1.4817
 4040SOL     OW23752   2.257   4.621  13.117 -0.0362  1.0796  0.0834
 4040SOL    HW123753   2.315   4.609  13.193 -2.1299 -2.2782  1.1257
 4040SOL    HW223754   2.221   4.701  13.156  0.1861  1.6191 -0.8158
 4041SOL     OW23755   0.773   4.318  11.393 -0.0146  0.1747  0.3139
 4041SOL    HW123756   0.825   4.322  11.474  0.7227  1.6260 -0.2480
 4041SOL    HW223757   0.726   4.399  11.410 -0.5340  0.2283 -1.4149
 4042SOL     OW23758   0.474   1.336   6.305  0.0649 -1.0699 -0.0494
 4042SOL    HW123759   0.512   1.262   6.258  0.1338 -0.0605 -1.6130
 4042SOL    HW223760   0.431   1.289   6.376 -1.5799  2.9331  1.6229
 4043SOL     OW23761   3.664   4.117   2.465 -0.3231 -0.2858 -0.0643
 4043SOL    HW123762   3.721   4.068   2.524 -0.2579 -0.2056 -0.0591
 4043SOL    HW223763   3.705   4.202   2.447 -0.2746 -0.5921 -1.4095
 4044SOL     OW23764   0.852   1.581   9.457 -0.7067  0.6727  0.0422
 4044SOL    HW123765   0.804   1.503   9.484  0.2225  0.1613  0.1884
 4044SOL    HW223766   0.945   1.566   9.472 -0.6104  1.3403  0.1194
 4045SOL     OW23767   2.787   1.993   0.720 -0.1007  0.3352  0.5721
 4045SOL    HW123768   2.787   2.054   0.794 -0.9332  2.1991 -0.9410
 4045SOL    HW223769   2.852   1.930   0.752  0.2114  1.4788  2.1826
 4046SOL     OW23770   4.165   2.567  11.789  0.2613 -0.1680 -0.1442
 4046SOL    HW123771   4.083   2.517  11.790 -0.6766  1.4066  1.8935
 4046SOL    HW223772   4.165   2.555  11.694 -1.6595  2.5314 -0.4661
 4047SOL     OW23773   3.094   1.202   6.319  0.3357 -0.4762  0.1244
 4047SOL    HW123774   3.053   1.239   6.240 -1.1764  1.3346  1.7521
 4047SOL    HW223775   3.135   1.281   6.354 -3.1653  1.0200  0.9519
 4048SOL     OW23776   2.068   3.203  11.348 -0.1151 -0.6450 -0.0068
 4048SOL    HW123777   2.116   3.278  11.310 -1.8928  0.4885  0.0086
 4048SOL    HW223778   2.024   3.242  11.423 -0.7744 -0.2396 -0.6058
 4049SOL     OW23779   4.334   1.388   5.138  0.7892 -0.0519  0.2399
 4049SOL    HW123780   4.307   1.467   5.185 -0.2775 -0.3541  0.1222
 4049SOL    HW223781   4.243   1.373   5.113  0.3107 -1.1215  2.6053
 4050SOL     OW23782   0.725   2.603   8.479 -0.6796  0.3150  0.3592
 4050SOL    HW123783   0.797   2.555   8.439  0.2843  1.7245  0.3891
 4050SOL    HW223784   0.660   2.539   8.450 -0.5609  0.0296  0.7221
 4051SOL     OW23785   1.033   0.856   9.297 -0.5904  0.1448 -0.1997
 4051SOL    HW123786   0.987   0.783   9.256 -2.2252  2.0821 -1.7731
 4051SOL    HW223787   1.122   0.824   9.279  0.0760  1.4738  0.6907
 4052SOL     OW23788   3.092   2.082   7.647 -0.4904 -0.2569 -0.3666
 4052SOL    HW123789   3.014   2.069   7.593  0.9232 -2.2049 -1.9474
 4052SOL    HW223790   3.146   2.009   7.618  0.7624  0.7142 -0.4867
 4053SOL     OW23791   2.363   3.378   8.798  0.3553 -0.1007 -0.2554
 4053SOL    HW123792   2.269   3.367   8.785  0.4248 -0.1764 -0.6857
 4053SOL    HW223793   2.379   3.284   8.798 -3.0751 -0.6760  1.6783
 4054SOL     OW23794   1.937   1.281   7.245  0.3150  0.2019  0.6026
 4054SOL    HW123795   1.902   1.255   7.160  0.4499  2.3332 -0.1062
 4054SOL    HW223796   1.954   1.368   7.209 -0.0991  0.2315  0.4875
 4055SOL     OW23797   0.889   1.317   8.808 -0.5970  0.7214 -0.1207
 4055SOL    HW123798   0.935   1.358   8.881 -0.3680 -0.4657  0.4019
 4055SOL    HW223799   0.799   1.331   8.838 -0.1857  0.0616  1.3712
 4056SOL     OW23800   2.730   2.785   8.546 -0.0121 -0.3929 -0.1288
 4056SOL    HW123801   2.738   2.708   8.489  0.0108 -0.7094  0.3039
 4056SOL    HW223802   2.695   2.743   8.624 -0.0400  1.8955  1.0765
 4057SOL     OW23803   4.508   0.721   9.516 -0.1094  0.0819 -0.6045
 4057SOL    HW123804   4.558   0.724   9.597 -1.4989 -1.6185  0.3298
 4057SOL    HW223805   4.468   0.634   9.525  1.2214 -0.5024 -0.3885
 4058SOL     OW23806   1.461   3.683   8.363  0.4679  0.1402 -0.1705
 4058SOL    HW123807   1.483   3.767   8.322 -0.6191 -0.0132 -1.0706
 4058SOL    HW223808   1.492   3.624   8.294  1.9508  1.1129 -0.3246
 4059SOL     OW23809   3.555   2.156  16.197  0.4635  0.3283 -0.0021
 4059SOL    HW123810   3.500   2.082  16.169  0.5814 -0.3356  1.5464
 4059SOL    HW223811   3.506   2.237  16.185 -2.5687 -1.4945  0.2077
 4060SOL     OW23812   1.136   1.507   2.723 -0.0635  0.1266  0.1552
 4060SOL    HW123813   1.104   1.494   2.634  0.4980 -0.9984  0.1123
 4060SOL    HW223814   1.087   1.435   2.762 -0.8086 -0.5644 -2.0265
 4061SOL     OW23815   3.290   2.843  10.020  0.6163 -0.0681 -0.8977
 4061SOL    HW123816   3.268   2.832   9.928  1.5697 -0.6947 -1.0472
 4061SOL    HW223817   3.245   2.925  10.039 -0.7411 -1.1095  0.3903
 4062SOL     OW23818   0.707   1.157   0.686 -0.4447 -0.2733 -1.2603
 4062SOL    HW123819   0.640   1.206   0.638 -0.0909  0.5523 -0.9120
 4062SOL    HW223820   0.651   1.089   0.723  1.8173 -0.8047  1.1483
 4063SOL     OW23821   0.567   3.176   2.485  0.0011 -0.4179  0.6662
 4063SOL    HW123822   0.560   3.198   2.392  1.6129  0.1047  0.6621
 4063SOL    HW223823   0.652   3.131   2.489  1.5260  2.6028  2.7598
 4064SOL     OW23824   1.983   1.505   7.686 -0.2663 -0.2331 -0.3761
 4064SOL    HW123825   1.897   1.465   7.700 -1.1847  1.7082 -0.4488
 4064SOL    HW223826   1.953   1.589   7.652  0.3644  0.0311 -0.2772
 4065SOL     OW23827   0.236   3.110  12.287  0.1770 -0.5369  0.2657
 4065SOL    HW123828   0.257   3.049  12.216 -2.4987 -0.0979 -0.9253
 4065SOL    HW223829   0.242   3.190  12.234 -0.3477 -0.4258  0.3766
 4066SOL     OW23830   0.372   3.548   3.382 -0.4702 -0.6373  0.1903
 4066SOL    HW123831   0.334   3.606   3.317  2.6125  2.1404  0.8856
 4066SOL    HW223832   0.287   3.530   3.423 -0.9684  2.3310  0.4109
 4067SOL     OW23833   3.929   2.406  12.046  0.2763  0.3313  0.1985
 4067SOL    HW123834   3.960   2.450  11.968 -1.6669  1.6616  0.1888
 4067SOL    HW223835   3.914   2.318  12.011 -0.0516 -0.5861  2.6152
 4068SOL     OW23836   0.731   4.112  11.245  0.2227 -0.5183  0.1639
 4068SOL    HW123837   0.710   4.053  11.317  0.2343 -0.4382  0.2325
 4068SOL    HW223838   0.749   4.189  11.299  1.2774  0.5060 -1.6436
 4069SOL     OW23839   2.203   3.358   5.512  0.3791  0.3398 -0.4617
 4069SOL    HW123840   2.140   3.306   5.461 -0.1274  0.4957  0.0010
 4069SOL    HW223841   2.277   3.372   5.453  0.4108 -0.9446 -0.7266
 4070SOL     OW23842   2.639   1.661   3.767  0.4301 -0.4683  0.2133
 4070SOL    HW123843   2.701   1.589   3.755  1.2614  0.1641  0.6849
 4070SOL    HW223844   2.617   1.656   3.860 -1.7874 -0.4015 -0.3128
 4071SOL     OW23845   3.918   0.169   1.988 -0.0519  0.2591  0.6103
 4071SOL    HW123846   3.863   0.105   2.033  1.7456 -1.0663  0.9613
 4071SOL    HW223847   3.858   0.239   1.962  0.2092  0.6891  1.1733
 4072SOL     OW23848   2.920   1.794   9.742  1.1043 -0.1339  0.1191
 4072SOL    HW123849   3.008   1.757   9.734  1.6782  0.6773  2.8904
 4072SOL    HW223850   2.947   1.879   9.776  2.1615  0.1154 -1.3169
 4073SOL     OW23851   0.899   1.883   2.677  0.3940  0.2169  0.0513
 4073SOL    HW123852   0.897   1.805   2.621  1.8454 -0.4488  0.9060
 4073SOL    HW223853   0.937   1.946   2.616  2.0970 -1.2478 -0.4051
 4074SOL     OW23854   2.402   0.207   3.380 -0.0232  0.7936  0.8332
 4074SOL    HW123855   2.354   0.151   3.440 -1.3498  0.2827 -0.6973
 4074SOL    HW223856   2.422   0.284   3.433 -1.0935  1.0932  0.8044
 4075SOL     OW23857   3.631   3.698   8.019 -0.2189  0.2135  0.1959
 4075SOL    HW123858   3.650   3.692   8.113  1.4525 -2.6872 -0.3220
 4075SOL    HW223859   3.571   3.623   8.016 -0.7439  0.6410  0.1291
 4076SOL     OW23860   4.070   2.899   1.311  0.5986 -0.0508  0.0988
 4076SOL    HW123861   4.132   2.826   1.308 -1.4784 -1.7583 -1.0678
 4076SOL    HW223862   4.032   2.886   1.397  3.1247 -2.9139  0.7742
 4077SOL     OW23863   1.805   3.845   9.471 -0.3763 -0.3798  0.1434
 4077SOL    HW123864   1.838   3.810   9.388  1.0375 -1.3481  1.1047
 4077SOL    HW223865   1.850   3.789   9.535  0.5955 -0.2928 -0.4648
 4078SOL     OW23866   2.151   4.105   8.417  0.1198  0.0915  0.5565
 4078SOL    HW123867   2.212   4.099   8.491  0.6460 -0.3929  0.0817
 4078SOL    HW223868   2.094   4.038   8.453  1.0561 -1.5381 -1.0136
 4079SOL     OW23869   4.484   2.982  17.716  0.1012  0.4577 -0.0117
 4079SOL    HW123870   4.461   2.916   0.020 -0.5788 -0.6498 -1.3582
 4079SOL    HW223871   4.435   2.948  17.640  1.2502  1.4139 -1.1745
 4080SOL     OW23872   1.975   1.765  14.906 -0.6358 -0.1620 -0.1573
 4080SOL    HW123873   1.970   1.731  14.817  2.4036  1.8119 -1.0947
 4080SOL    HW223874   2.050   1.717  14.941 -0.4764 -0.9777 -1.5976
 4081SOL     OW23875   1.209   2.360   0.184  0.3340 -0.5310 -0.0069
 4081SOL    HW123876   1.153   2.428   0.148 -1.9293 -1.4972  1.6521
 4081SOL    HW223877   1.148   2.286   0.184 -0.1247 -0.1480  0.2365
 4082SOL     OW23878   0.318   2.878   8.638  0.2206  0.2386  0.0973
 4082SOL    HW123879   0.254   2.944   8.612 -0.8862  0.1166  2.5446
 4082SOL    HW223880   0.261   2.802   8.636  0.7553 -0.1887  1.3771
 4083SOL     OW23881   2.172   2.170   7.323 -0.0327  0.7872 -0.3117
 4083SOL    HW123882   2.212   2.257   7.318  3.0027 -0.6161  0.1373
 4083SOL    HW223883   2.239   2.115   7.285 -0.0404 -1.6072  3.1678
 4084SOL     OW23884   0.150   3.618  17.207 -0.1348  0.1344  0.3030
 4084SOL    HW123885   0.204   3.551  17.165  0.1552  0.9628 -0.6309
 4084SOL    HW223886   0.112   3.668  17.136 -0.9742  1.2862  1.5612
 4085SOL     OW23887   2.485   2.835  14.871  0.1743  0.3958  0.6670
 4085SOL    HW123888   2.407   2.830  14.815 -0.2973  0.9957  1.2736
 4085SOL    HW223889   2.498   2.748  14.909  0.1586 -0.7822 -2.0319
 4086SOL     OW23890   1.919   4.453  17.699 -0.1444  0.1237 -0.0790
 4086SOL    HW123891   1.972   4.413  17.629  1.1903  0.2687  0.8459
 4086SOL    HW223892   1.842   4.487  17.653  0.7227 -1.0413 -2.3742
 4087SOL     OW23893   1.963   2.576   7.856 -0.0479 -0.5894 -0.1322
 4087SOL    HW123894   1.907   2.543   7.926 -1.0477 -0.6526 -0.9681
 4087SOL    HW223895   1.899   2.587   7.786  0.3552 -2.4747 -0.7966
 4088SOL     OW23896   0.370   0.967  11.754  0.2823  0.0963 -0.0554
 4088SOL    HW123897   0.345   1.001  11.840 -1.3564  1.1721 -0.9434
 4088SOL    HW223898   0.359   0.874  11.770  0.9807  0.1036  0.4643
 4089SOL     OW23899   0.640   0.853   4.945  0.2046 -0.3624 -0.3915
 4089SOL    HW123900   0.699   0.778   4.931  0.2783 -0.5608  1.0130
 4089SOL    HW223901   0.614   0.857   4.853  1.4101  1.5760 -0.6439
 4090SOL     OW23902   4.463   3.845   6.308 -0.5808  0.2704  0.4930
 4090SOL    HW123903   4.420   3.930   6.296  0.9485  1.2789  2.1061
 4090SOL    HW223904   4.454   3.830   6.402  3.6833  0.7252  0.9470
 4091SOL     OW23905   1.655   2.263   8.389 -0.4505 -0.0769 -0.2579
 4091SOL    HW123906   1.729   2.230   8.337  0.3978 -0.2131  1.0210
 4091SOL    HW223907   1.693   2.298   8.470  1.2823  0.1655 -1.1655
 4092SOL     OW23908   1.459   0.053   9.856 -0.4309 -0.1476 -0.0446
 4092SOL    HW123909   1.384   0.004   9.891  0.1749 -1.2094 -0.2253
 4092SOL    HW223910   1.468   0.114   9.929 -1.6244  1.4393 -1.2243
 4093SOL     OW23911   3.491   2.774  17.749  0.4159  0.5405  0.3563
 4093SOL    HW123912   3.565   2.790   0.047  0.4672 -1.6606  0.8865
 4093SOL    HW223913   3.420   2.801   0.046 -1.1331  1.3369 -1.8780
 4094SOL     OW23914   1.486   0.877   6.638  0.3242  0.5185 -0.6305
 4094SOL    HW123915   1.514   0.967   6.621 -0.8838  1.3353  1.7195
 4094SOL    HW223916   1.434   0.876   6.718 -0.7225 -0.7215 -1.3353
 4095SOL     OW23917   1.096   1.358  14.037 -0.5937 -0.1586  0.1293
 4095SOL    HW123918   1.111   1.302  13.961 -1.2668  2.1624 -1.7249
 4095SOL    HW223919   1.063   1.438  13.994 -0.8158 -0.4734 -0.2933
 4096SOL     OW23920   0.295   0.674  14.004  0.5297 -0.5271 -0.0686
 4096SOL    HW123921   0.230   0.611  13.973 -0.1925 -0.6949  1.7550
 4096SOL    HW223922   0.338   0.703  13.924 -1.8949  1.5925 -0.6148
 4097SOL     OW23923   0.202   1.973   4.137  0.2004  1.1683  0.2414
 4097SOL    HW123924   0.246   2.008   4.059  0.4160  0.9261  0.2556
 4097SOL    HW223925   0.270   1.973   4.203 -1.2439 -1.2967  1.7546
 4098SOL     OW23926   0.475   4.566   0.676  0.5877  0.7779  0.0109
 4098SOL    HW123927   0.566   4.587   0.699  0.6775  1.4135 -0.8873
 4098SOL    HW223928   0.480   4.521   0.592  0.0094  2.1456 -0.7601
 4099SOL     OW23929   2.632   2.261  15.267  0.0516 -0.4764  0.2676
 4099SOL    HW123930   2.632   2.182  15.322  1.3021 -1.3604 -0.9863
 4099SOL    HW223931   2.715   2.251  15.221 -0.3766 -0.8857 -0.4131
 4100SOL     OW23932   2.669   3.162   2.378  0.0014 -0.5561  0.1615
 4100SOL    HW123933   2.605   3.197   2.439  0.3038  0.4775 -0.1141
 4100SOL    HW223934   2.697   3.083   2.423  0.9208 -0.4568 -0.2296
 4101SOL     OW23935   2.419   2.603   8.464  0.4173  0.2077  0.0043
 4101SOL    HW123936   2.429   2.577   8.372 -1.6347  2.3810 -0.8214
 4101SOL    HW223937   2.372   2.685   8.450  0.3557  0.3691  1.1547
 4102SOL     OW23938   2.081   2.593  15.705 -0.5312  0.3389  0.3015
 4102SOL    HW123939   2.012   2.654  15.731 -1.0562  0.3931 -1.2321
 4102SOL    HW223940   2.160   2.626  15.749 -0.4762 -1.3770  1.4558
 4103SOL     OW23941   3.700   2.804  14.915 -0.4682 -0.7897 -0.2528
 4103SOL    HW123942   3.659   2.798  14.829  0.3012 -2.2392 -0.5134
 4103SOL    HW223943   3.707   2.899  14.925  1.1625 -0.9783  0.3896
 4104SOL     OW23944   0.064   3.599  16.071  0.1649  0.1735 -0.3905
 4104SOL    HW123945   0.072   3.523  16.127  1.0045  2.6057  2.7815
 4104SOL    HW223946   4.715   3.597  16.038 -0.1293 -1.0184  0.5100
 4105SOL     OW23947   3.448   1.327   8.978  0.3425  0.3040  0.3147
 4105SOL    HW123948   3.463   1.269   8.903  1.0320  0.8931  0.0055
 4105SOL    HW223949   3.523   1.298   9.029  0.2943  1.8632  1.2767
 4106SOL     OW23950   1.549   4.197   8.751  0.2779 -0.0716 -0.2842
 4106SOL    HW123951   1.632   4.151   8.743  0.3657  0.1469 -0.6301
 4106SOL    HW223952   1.584   4.284   8.770 -1.6824  0.7006 -0.2129
 4107SOL     OW23953   2.745   3.554   8.251  0.0806 -0.2189 -0.7242
 4107SOL    HW123954   2.684   3.614   8.209  0.9751  0.8908 -0.4480
 4107SOL    HW223955   2.723   3.570   8.343  1.8117  0.8431 -0.4934
 4108SOL     OW23956   2.135   4.471   1.827 -0.1017  0.0316 -0.1464
 4108SOL    HW123957   2.052   4.445   1.866  0.5318 -1.2401  0.3476
 4108SOL    HW223958   2.163   4.550   1.874  2.0986  0.0881 -1.5286
 4109SOL     OW23959   2.582   2.099   5.420 -0.3117 -0.1686  0.3116
 4109SOL    HW123960   2.598   2.112   5.327 -1.4836 -0.6815  0.0360
 4109SOL    HW223961   2.598   2.187   5.457 -0.8756 -0.8358  2.1579
 4110SOL     OW23962   1.379   2.267   2.668 -0.2299  0.1387 -0.2681
 4110SOL    HW123963   1.288   2.278   2.697  0.3745  1.6293  1.0582
 4110SOL    HW223964   1.364   2.186   2.620 -1.4391  1.1256 -1.5424
 4111SOL     OW23965   3.571   4.672  10.263 -1.3223 -0.0671  0.1963
 4111SOL    HW123966   3.517   4.634  10.332 -0.1244 -0.1091  1.1087
 4111SOL    HW223967   3.638   4.605  10.250 -1.7863 -0.5316  0.2091
 4112SOL     OW23968   4.139   3.536   9.798 -0.2535 -0.2578  0.6876
 4112SOL    HW123969   4.055   3.547   9.755  0.3705  1.9107  0.0104
 4112SOL    HW223970   4.172   3.461   9.749  0.5587  0.0376  0.7827
 4113SOL     OW23971   4.159   1.272   6.612  0.6169  0.2537  0.2059
 4113SOL    HW123972   4.116   1.350   6.578 -1.0011  0.2178  2.1422
 4113SOL    HW223973   4.088   1.212   6.588  1.1834 -0.8075  1.2114
 4114SOL     OW23974   0.990   2.880   2.298  0.4115 -0.3630  0.0766
 4114SOL    HW123975   1.017   2.958   2.250 -0.6262 -0.5086 -0.7457
 4114SOL    HW223976   0.943   2.836   2.227  0.5177 -0.5656  0.1347
 4115SOL     OW23977   4.043   1.101  15.688  0.0130  0.6569 -0.1077
 4115SOL    HW123978   3.962   1.123  15.641  0.1032  0.5876 -0.2935
 4115SOL    HW223979   4.085   1.187  15.695 -1.6613  1.4874 -0.0303
 4116SOL     OW23980   4.259   3.761   2.603  0.5143  0.2950 -0.1044
 4116SOL    HW123981   4.312   3.837   2.627 -0.5735  1.4409 -1.2938
 4116SOL    HW223982   4.194   3.760   2.674  1.5996  1.0822  0.8846
 4117SOL     OW23983   1.679   3.762   3.124  0.1249 -0.1938 -0.1139
 4117SOL    HW123984   1.674   3.732   3.033  2.2163  2.0154 -0.9504
 4117SOL    HW223985   1.728   3.686   3.156  0.7157 -0.4580 -1.6223
 4118SOL     OW23986   2.238   1.269   6.237  0.4683  0.0734  0.0340
 4118SOL    HW123987   2.158   1.226   6.267 -1.1852  0.8861 -3.2682
 4118SOL    HW223988   2.261   1.314   6.319 -4.0722  1.9561  0.3001
 4119SOL     OW23989   3.398   2.975   5.925  0.1550  0.4597 -0.3455
 4119SOL    HW123990   3.326   2.912   5.928  0.8137 -0.2947 -0.2076
 4119SOL    HW223991   3.335   3.045   5.911  0.3765  0.3973 -1.6395
 4120SOL     OW23992   1.980   2.782   5.430 -0.3953  0.6585 -0.1976
 4120SOL    HW123993   2.066   2.764   5.468 -0.8001  0.2828  0.5496
 4120SOL    HW223994   1.923   2.753   5.501 -1.7169  2.3801 -0.5666
 4121SOL     OW23995   1.637   2.558  15.005 -0.5344  0.5041 -0.1338
 4121SOL    HW123996   1.541   2.559  15.004 -0.5066 -0.3505 -1.7371
 4121SOL    HW223997   1.654   2.586  15.095  0.9543  0.8818 -0.5402
 4122SOL     OW23998   0.153   0.464  10.860  0.2172 -0.5807  0.0060
 4122SOL    HW123999   0.087   0.437  10.924 -1.4533  0.5015 -1.2681
 4122SOL    HW224000   0.140   0.558  10.871 -1.7047 -1.0212  1.3946
 4123SOL     OW24001   3.935   0.408   7.177  0.0413  0.0090  0.5020
 4123SOL    HW124002   3.995   0.464   7.226  2.6584 -0.2287 -2.3558
 4123SOL    HW224003   3.856   0.442   7.219 -1.7687 -0.9681 -2.1027
 4124SOL     OW24004   0.694   2.798   7.665 -0.3372  0.1075 -0.7296
 4124SOL    HW124005   0.643   2.879   7.669  1.1416  1.0530 -1.0164
 4124SOL    HW224006   0.752   2.816   7.740 -0.1872 -3.0772 -0.0829
 4125SOL     OW24007   3.875   2.460   3.696  0.3865  0.3041  0.4570
 4125SOL    HW124008   3.917   2.534   3.738 -0.0107  1.4070 -1.0929
 4125SOL    HW224009   3.942   2.397   3.669 -0.2328 -0.2139  0.1060
 4126SOL     OW24010   4.359   4.478  14.349 -0.0775 -0.1768 -0.5119
 4126SOL    HW124011   4.365   4.495  14.443 -4.3464 -2.4643  0.2038
 4126SOL    HW224012   4.269   4.446  14.342 -0.9872  1.7458  2.2275
 4127SOL     OW24013   4.031   2.045   7.266  0.1148 -0.3447  0.3313
 4127SOL    HW124014   4.046   2.112   7.199 -0.6627  1.0156  1.5151
 4127SOL    HW224015   4.018   2.105   7.339  1.0965  2.0527 -1.4634
 4128SOL     OW24016   0.311   3.889   6.105 -0.1172 -0.0235 -0.2594
 4128SOL    HW124017   0.289   3.818   6.044 -1.0511  0.9338 -1.0248
 4128SOL    HW224018   0.232   3.943   6.101 -1.6526 -2.2722 -0.3143
 4129SOL     OW24019   4.459   4.009   8.908 -0.0300  0.3478 -0.2521
 4129SOL    HW124020   4.445   3.965   8.824 -0.9833 -1.7511  1.0245
 4129SOL    HW224021   4.381   3.990   8.960  0.6470  0.8914  0.9491
 4130SOL     OW24022   0.156   4.161  11.000 -0.2833 -0.0971 -0.6949
 4130SOL    HW124023   0.100   4.134  10.927 -1.4320 -2.6645  1.1263
 4130SOL    HW224024   0.109   4.137  11.080 -0.0525 -0.9900 -0.8290
 4131SOL     OW24025   3.742   3.034   9.061 -0.1391 -0.4953  0.4359
 4131SOL    HW124026   3.647   3.030   9.046 -0.1908 -0.5841  0.7842
 4131SOL    HW224027   3.741   2.980   9.140 -0.0593 -0.8639  0.1803
 4132SOL     OW24028   0.942   3.501  11.343 -0.3988  0.3901  0.4291
 4132SOL    HW124029   0.922   3.452  11.264  1.6276 -0.5075  0.4543
 4132SOL    HW224030   0.966   3.433  11.406  1.4639  0.9568  0.3441
 4133SOL     OW24031   1.065   0.712  11.571 -0.4219  0.9885 -0.1867
 4133SOL    HW124032   0.991   0.753  11.527  0.1893  1.1787 -1.0453
 4133SOL    HW224033   1.020   0.635  11.607  2.4018 -0.8615 -0.6271
 4134SOL     OW24034   1.067   1.617   7.153  0.1118  0.1176 -0.2889
 4134SOL    HW124035   0.980   1.596   7.187  1.2654 -1.4190  1.7488
 4134SOL    HW224036   1.040   1.691   7.099  0.4131 -1.0924 -2.1250
 4135SOL     OW24037   2.607   4.488  13.672  0.2729  0.2177  0.1146
 4135SOL    HW124038   2.585   4.558  13.610 -1.9292  0.1437  0.8169
 4135SOL    HW224039   2.638   4.539  13.747  2.5603  0.1695 -0.7808
 4136SOL     OW24040   3.671   1.764   0.810  0.2698 -0.4498 -0.1778
 4136SOL    HW124041   3.650   1.693   0.750 -1.2406  0.4832 -0.7425
 4136SOL    HW224042   3.584   1.796   0.832  1.8044  3.4215  0.4163
 4137SOL     OW24043   1.974   4.325   4.829  0.2020  0.3407  0.0139
 4137SOL    HW124044   2.055   4.328   4.779  0.1685 -2.7125 -0.2744
 4137SOL    HW224045   1.904   4.289   4.774 -0.1421  0.5509  0.3067
 4138SOL     OW24046   2.826   2.935   7.414 -0.6012 -0.2733 -0.2408
 4138SOL    HW124047   2.911   2.890   7.413 -1.8870 -2.7472 -0.0429
 4138SOL    HW224048   2.797   2.898   7.498  3.0676 -1.4026  0.5581
 4139SOL     OW24049   3.267   0.539  12.040  0.5853  0.6593  0.2498
 4139SOL    HW124050   3.279   0.629  12.011  1.8942  0.4955  0.2968
 4139SOL    HW224051   3.235   0.496  11.961  0.9224  1.7008 -0.4505
 4140SOL     OW24052   2.405   3.668   6.450 -0.5894  0.2819 -0.4222
 4140SOL    HW124053   2.410   3.757   6.484 -0.5380  0.6293 -1.3289
 4140SOL    HW224054   2.340   3.687   6.382  1.2085 -0.9544 -2.5158
 4141SOL     OW24055   3.012   3.951   5.810  0.2714 -0.2907 -0.0634
 4141SOL    HW124056   2.954   3.874   5.816 -1.8574  1.4423  1.7378
 4141SOL    HW224057   3.073   3.926   5.741  1.7461 -0.7157  1.4201
 4142SOL     OW24058   4.475   0.300   6.467 -0.0443  0.4592 -0.1624
 4142SOL    HW124059   4.465   0.356   6.544 -0.5739  0.8579 -0.5183
 4142SOL    HW224060   4.410   0.236   6.495  2.4690 -1.4717  1.2415
 4143SOL     OW24061   1.744   0.306   8.374  0.7964 -0.4452  0.3412
 4143SOL    HW124062   1.747   0.281   8.282  0.2904 -0.5732  0.3597
 4143SOL    HW224063   1.827   0.352   8.387  1.8307 -2.2024 -0.1429
 4144SOL     OW24064   4.399   4.740   6.879  0.3666  0.0353  0.3401
 4144SOL    HW124065   4.427   4.678   6.811 -0.2673  1.5587 -1.3294
 4144SOL    HW224066   4.401   4.688   6.959  1.2913  2.5492  1.9432
 4145SOL     OW24067   1.310   2.006   7.829  0.5564  0.3987 -0.2082
 4145SOL    HW124068   1.265   1.959   7.758 -1.1521 -0.4151  1.4115
 4145SOL    HW224069   1.394   1.961   7.816  0.7252  1.2052 -1.9480
 4146SOL     OW24070   2.317   3.806   5.399 -0.1110  0.2917 -0.1899
 4146SOL    HW124071   2.311   3.724   5.449 -0.1060 -0.0247 -0.7050
 4146SOL    HW224072   2.260   3.785   5.324  0.9733 -0.1678 -0.8781
 4147SOL     OW24073   4.258   0.801   5.528  0.1295 -0.5683 -0.0086
 4147SOL    HW124074   4.247   0.869   5.462  1.0831  0.9561  1.3745
 4147SOL    HW224075   4.180   0.747   5.520 -0.4634  0.0934  1.2643
 4148SOL     OW24076   4.577   4.254   6.222 -0.6897 -0.4872  0.1420
 4148SOL    HW124077   4.599   4.262   6.129  0.2825  1.3328  0.5284
 4148SOL    HW224078   4.655   4.297   6.256  0.1081 -2.3004  0.5947
 4149SOL     OW24079   1.749   1.076   6.800  0.1393  0.0349 -0.0708
 4149SOL    HW124080   1.770   1.100   6.890 -0.4882 -2.5325  0.7744
 4149SOL    HW224081   1.660   1.108   6.786  0.0253 -0.1918  0.1241
 4150SOL     OW24082   3.698   2.739   7.502  1.0065  0.6295  0.2242
 4150SOL    HW124083   3.711   2.648   7.475  0.0455  1.0115 -1.5521
 4150SOL    HW224084   3.785   2.770   7.476  1.2746 -0.0208  0.3482
 4151SOL     OW24085   1.531   3.699  15.743 -0.0679 -0.2203 -0.0107
 4151SOL    HW124086   1.443   3.663  15.735 -0.2253 -0.4046  2.4565
 4151SOL    HW224087   1.560   3.667  15.829  2.0285  0.1391 -0.5828
 4152SOL     OW24088   4.065   1.775  14.024 -0.0837  0.4079  0.4853
 4152SOL    HW124089   4.007   1.850  14.037  1.0182  1.6954 -2.2025
 4152SOL    HW224090   4.111   1.770  14.108  0.4395 -2.5727  0.0206
 4153SOL     OW24091   0.498   1.616   7.870  0.0952 -0.3041  0.2015
 4153SOL    HW124092   0.428   1.570   7.916 -0.4787  0.3562 -0.0180
 4153SOL    HW224093   0.451   1.654   7.795  0.8706 -1.7016 -0.9905
 4154SOL     OW24094   2.503   3.924   9.280  0.5347  0.1076 -0.7351
 4154SOL    HW124095   2.423   3.912   9.331  0.9526  1.8601  0.3382
 4154SOL    HW224096   2.576   3.882   9.324 -1.6256 -2.3168  0.4839
 4155SOL     OW24097   2.991   3.372  17.366 -0.1902  0.0839 -0.2755
 4155SOL    HW124098   2.987   3.463  17.335 -0.2041  0.2284  0.1515
 4155SOL    HW224099   3.042   3.382  17.446 -0.8291 -2.2151  0.4061
 4156SOL     OW24100   2.873   2.520   9.722 -0.1290 -0.2199 -0.0140
 4156SOL    HW124101   2.947   2.506   9.661 -0.9929  0.7751 -1.2911
 4156SOL    HW224102   2.841   2.431   9.729  0.9358 -0.3877  2.5833
 4157SOL     OW24103   0.490   4.403   5.103  0.3833 -0.3333 -0.0098
 4157SOL    HW124104   0.513   4.496   5.102  0.5945 -0.3926 -0.6271
 4157SOL    HW224105   0.573   4.366   5.135  0.9631  1.0331  0.0816
 4158SOL     OW24106   2.919   4.624   5.907 -0.6589 -0.0281  0.4974
 4158SOL    HW124107   3.011   4.614   5.883 -1.3276 -0.3739 -1.8741
 4158SOL    HW224108   2.894   4.534   5.931  1.2067 -1.0713 -1.4747
 4159SOL     OW24109   3.777   1.328   7.756  0.0796  0.0791  0.0651
 4159SOL    HW124110   3.841   1.275   7.803 -1.1329 -1.5701 -0.1307
 4159SOL    HW224111   3.694   1.303   7.796  1.3400 -0.8706  2.0878
 4160SOL     OW24112   0.761   2.122   9.518 -0.5091 -0.5219 -0.1118
 4160SOL    HW124113   0.769   2.032   9.486  2.1744 -0.3332  0.0522
 4160SOL    HW224114   0.776   2.099   9.609 -0.7054 -0.6442 -0.1079
 4161SOL     OW24115   4.448   4.650  16.695  0.0459 -0.0594  0.2540
 4161SOL    HW124116   4.405   4.670  16.778  1.2640  2.4146  0.3056
 4161SOL    HW224117   4.385   4.583  16.670  1.5416 -1.5091  0.4208
 4162SOL     OW24118   1.350   3.237   9.821  0.6919  0.2361  0.9188
 4162SOL    HW124119   1.397   3.190   9.752 -1.7372 -3.3635  1.7092
 4162SOL    HW224120   1.354   3.327   9.791 -0.5226 -0.1826 -0.5119
 4163SOL     OW24121   3.000   2.663   7.317 -0.2705 -0.6740  0.0118
 4163SOL    HW124122   3.065   2.725   7.351 -0.4814 -1.8684  2.5770
 4163SOL    HW224123   2.982   2.704   7.232 -1.8603 -0.9956  0.2036
 4164SOL     OW24124   4.435   3.528   2.233  0.3238 -0.1606 -0.0610
 4164SOL    HW124125   4.511   3.585   2.221  0.3362 -0.0521  0.5284
 4164SOL    HW224126   4.453   3.473   2.310 -2.9598 -0.1929  0.6439
 4165SOL     OW24127   3.220   2.997  17.003 -0.3975 -0.4358  0.6873
 4165SOL    HW124128   3.286   3.004  16.934 -1.9302  2.1636 -0.4984
 4165SOL    HW224129   3.277   3.009  17.079 -2.2455 -0.9726  2.1367
 4166SOL     OW24130   4.048   3.585   2.753 -0.3428  0.1576  0.1623
 4166SOL    HW124131   4.093   3.544   2.827 -0.6176  0.6673  0.6138
 4166SOL    HW224132   4.035   3.505   2.703 -0.6450  0.7652 -0.7195
 4167SOL     OW24133   0.863   2.648   4.209 -0.1452 -0.0731  0.4986
 4167SOL    HW124134   0.788   2.593   4.228 -0.1844  1.2457  4.1762
 4167SOL    HW224135   0.909   2.589   4.149  1.9734  0.7912  1.2716
 4168SOL     OW24136   0.257   1.495   3.332 -0.2190 -0.1773  0.1236
 4168SOL    HW124137   0.329   1.437   3.306  0.5281  1.5846 -1.6753
 4168SOL    HW224138   0.186   1.445   3.292  0.4834 -1.0350 -0.0383
 4169SOL     OW24139   0.881   0.662   9.134  0.2010 -0.1341  0.4181
 4169SOL    HW124140   0.808   0.610   9.168  0.2745 -0.1990  0.4757
 4169SOL    HW224141   0.888   0.619   9.049  0.6151  0.6394  0.0620
 4170SOL     OW24142   4.248   0.222   2.531  0.3621 -0.6065 -0.2510
 4170SOL    HW124143   4.190   0.181   2.466  0.4996 -2.8856  1.0840
 4170SOL    HW224144   4.226   0.314   2.522 -1.7877 -1.5190 -4.3323
 4171SOL     OW24145   3.638   2.514   2.695 -0.3431 -0.5440 -0.5224
 4171SOL    HW124146   3.717   2.543   2.739  0.3159 -1.5555 -1.0508
 4171SOL    HW224147   3.579   2.589   2.705 -0.9777 -1.0554 -0.4388
 4172SOL     OW24148   1.269   3.252  11.621  0.0421  0.4280  0.5193
 4172SOL    HW124149   1.317   3.175  11.652 -1.9918 -0.4607  1.4299
 4172SOL    HW224150   1.347   3.275  11.570  0.3778 -2.4317 -0.2484
 4173SOL     OW24151   3.084   3.878   6.253 -0.7705 -0.2707 -0.8493
 4173SOL    HW124152   3.178   3.878   6.274 -1.0971  1.4812  0.6507
 4173SOL    HW224153   3.048   3.929   6.326 -0.7119 -0.1085 -0.9358
 4174SOL     OW24154   2.327   1.253  13.963 -0.0500 -0.4568  0.0792
 4174SOL    HW124155   2.318   1.344  13.936 -0.0153 -0.3351  0.4836
 4174SOL    HW224156   2.242   1.212  13.976  0.2674 -1.3930 -0.7453
 4175SOL     OW24157   3.707   3.050   7.413 -0.5942  0.0340 -0.5110
 4175SOL    HW124158   3.797   3.070   7.387 -0.5847 -1.9012 -1.9173
 4175SOL    HW224159   3.696   2.955   7.413 -0.4658  0.0231  0.0397
 4176SOL     OW24160   2.914   2.432   3.365 -0.0244 -0.2853  0.3286
 4176SOL    HW124161   2.824   2.457   3.342 -0.2999 -1.3813  0.2373
 4176SOL    HW224162   2.911   2.378   3.444 -2.6796 -1.0351 -0.2997
 4177SOL     OW24163   3.071   1.663   5.014  0.5160  0.1712 -0.0911
 4177SOL    HW124164   3.129   1.678   4.939 -0.9798  0.3614 -1.2333
 4177SOL    HW224165   3.140   1.648   5.078  0.9601  0.3918 -0.5135
 4178SOL     OW24166   2.796   4.382   2.802 -0.0393 -0.1175  0.3284
 4178SOL    HW124167   2.827   4.319   2.867  1.2573 -0.7781 -0.9378
 4178SOL    HW224168   2.726   4.434   2.842  0.1370  1.6402 -1.6434
 4179SOL     OW24169   1.991   3.218   6.981  0.0076 -0.4722 -0.2338
 4179SOL    HW124170   2.087   3.216   6.987 -0.0719 -0.2927  1.2199
 4179SOL    HW224171   1.978   3.211   6.887  0.9338  0.4256 -0.4341
 4180SOL     OW24172   4.120   0.120   8.303 -0.8330 -0.3061 -0.1587
 4180SOL    HW124173   4.159   0.055   8.362  4.0438  2.5952 -0.1382
 4180SOL    HW224174   4.042   0.139   8.356 -2.2742  0.2709 -2.5244
 4181SOL     OW24175   1.479   1.118   6.910 -0.2727 -0.2596 -0.7120
 4181SOL    HW124176   1.519   1.200   6.939  0.9500 -0.7233 -1.1028
 4181SOL    HW224177   1.462   1.075   6.994  0.7660  1.0300  0.1542
 4182SOL     OW24178   2.597   3.655  17.183 -0.1639 -0.0413  0.1142
 4182SOL    HW124179   2.625   3.671  17.273  1.0617  0.0689 -0.2948
 4182SOL    HW224180   2.646   3.575  17.165  1.5207  0.4772  2.4653
 4183SOL     OW24181   2.140   0.824   4.289  0.0256 -0.0702  0.0334
 4183SOL    HW124182   2.209   0.767   4.253 -0.9866 -0.4664 -1.2705
 4183SOL    HW224183   2.123   0.895   4.228  0.0198  1.5398  1.9287
 4184SOL     OW24184   0.027   3.586   6.524 -0.6322 -0.1148 -0.2026
 4184SOL    HW124185   0.107   3.535   6.534  0.0631  1.2404  1.2748
 4184SOL    HW224186   0.060   3.665   6.481  0.4187 -1.5265 -2.0035
 4185SOL     OW24187   2.682   0.041   0.103 -0.2345 -0.3157  0.1174
 4185SOL    HW124188   2.747   4.714   0.118  0.7276 -0.1480 -3.3849
 4185SOL    HW224189   2.678   0.031   0.008  0.4027  1.9984 -0.1507
 4186SOL     OW24190   3.013   4.172   9.399  0.0888 -0.1188 -0.0562
 4186SOL    HW124191   2.971   4.086   9.408  1.2216 -0.8692 -1.8374
 4186SOL    HW224192   3.101   4.160   9.435  0.7915  1.4967 -1.2396
 4187SOL     OW24193   1.513   0.849   7.530 -0.5546 -0.4854  0.2608
 4187SOL    HW124194   1.507   0.931   7.580 -0.4290 -0.3861  0.1120
 4187SOL    HW224195   1.561   0.871   7.450 -1.3283  2.3638  0.5941
 4188SOL     OW24196   2.308   2.865   1.771  0.3295  0.5380  0.4692
 4188SOL    HW124197   2.341   2.876   1.860  0.4754  2.0176  0.2350
 4188SOL    HW224198   2.248   2.940   1.772 -2.3689 -1.6344  0.7673
 4189SOL     OW24199   0.131   1.084  13.319  0.6243  0.2503 -0.1330
 4189SOL    HW124200   0.082   1.166  13.314  0.7141  0.3002 -0.1985
 4189SOL    HW224201   0.218   1.122  13.307  0.6641  0.3493  0.4923
 4190SOL     OW24202   2.255   3.612  12.014  0.1080 -0.0340 -0.2154
 4190SOL    HW124203   2.175   3.561  12.003 -1.4517  2.4917 -0.6842
 4190SOL    HW224204   2.218   3.698  11.994  1.1874  0.4406 -0.1731
 4191SOL     OW24205   3.213   1.109  14.448  0.0970  0.0858 -0.2126
 4191SOL    HW124206   3.187   1.082  14.536 -3.1152  2.9778 -0.2246
 4191SOL    HW224207   3.308   1.110  14.453  0.1218  2.1964 -0.7790
 4192SOL     OW24208   4.708   2.669  15.411 -0.3163  0.0188  0.7400
 4192SOL    HW124209   4.713   2.582  15.450  0.1616  0.2983  1.2966
 4192SOL    HW224210   0.035   2.662  15.345 -1.3844 -0.3211 -0.3285
 4193SOL     OW24211   4.620   1.717   2.719 -0.2936  0.3478 -0.3704
 4193SOL    HW124212   4.555   1.649   2.735 -0.1044  0.6941  1.9932
 4193SOL    HW224213   4.702   1.667   2.721 -1.0873 -0.8518  2.5671
 4194SOL     OW24214   0.018   4.609   4.604 -0.1787 -0.3393 -0.0277
 4194SOL    HW124215   0.006   4.685   4.548  2.3133 -0.2961 -0.4816
 4194SOL    HW224216   0.040   4.645   4.690  1.5882 -1.3872 -0.0487
 4195SOL     OW24217   3.902   2.193   1.735  0.3682 -0.1680 -0.2244
 4195SOL    HW124218   3.847   2.264   1.768  0.6738 -0.7460  1.5197
 4195SOL    HW224219   3.831   2.131   1.715  0.4532 -0.0298 -0.9612
 4196SOL     OW24220   2.206   4.129   2.478 -0.6494 -0.4526  0.1722
 4196SOL    HW124221   2.278   4.095   2.532  1.0942  0.8654 -1.3338
 4196SOL    HW224222   2.159   4.181   2.543  0.1711 -0.5012  0.8181
 4197SOL     OW24223   0.708   0.465   5.682  0.2153  0.1648 -0.0088
 4197SOL    HW124224   0.668   0.379   5.693 -0.8052  0.6962  0.4855
 4197SOL    HW224225   0.647   0.534   5.709 -1.0429 -1.3545  1.0065
 4198SOL     OW24226   0.738   4.437   6.290 -0.2144  0.0357  0.1627
 4198SOL    HW124227   0.730   4.462   6.382  0.5418 -0.7292  0.4467
 4198SOL    HW224228   0.709   4.519   6.251 -0.6937 -0.5432 -0.6974
 4199SOL     OW24229   1.030   4.613   3.870 -0.4435 -0.5050 -0.3936
 4199SOL    HW124230   1.074   4.696   3.853 -1.2125  0.7098  3.4512
 4199SOL    HW224231   1.094   4.542   3.857 -1.3118 -1.4521  0.5314
 4200SOL     OW24232   3.209   0.300  17.108 -0.2843 -0.5734  0.8798
 4200SOL    HW124233   3.241   0.270  17.023 -0.6414 -1.6622  1.1312
 4200SOL    HW224234   3.293   0.317  17.151 -0.4386  4.2393 -0.7163
 4201SOL     OW24235   1.866   0.255   8.097 -0.6538 -0.0812 -0.4707
 4201SOL    HW124236   1.930   0.221   8.159 -2.1752 -0.0815  1.0929
 4201SOL    HW224237   1.915   0.324   8.053 -2.2439  1.7437  0.6263
 4202SOL     OW24238   2.423   0.374  15.236  0.0827 -0.3877  0.4984
 4202SOL    HW124239   2.465   0.381  15.321  0.0249  2.5236  0.2733
 4202SOL    HW224240   2.370   0.452  15.225 -1.6865 -1.2392  3.0078
 4203SOL     OW24241   0.419   0.540   3.787  0.0207 -0.2576  0.3066
 4203SOL    HW124242   0.412   0.590   3.868 -2.4009  0.9964 -0.6589
 4203SOL    HW224243   0.397   0.448   3.799 -0.0010 -0.4274 -1.0662
 4204SOL     OW24244   4.123   0.828   2.670 -0.4574 -0.5419 -0.3363
 4204SOL    HW124245   4.086   0.741   2.688 -0.2684 -1.1435 -2.8900
 4204SOL    HW224246   4.140   0.820   2.577  0.2109  1.2022 -0.3516
 4205SOL     OW24247   1.043   1.723   2.881 -0.0063  0.6558  0.4162
 4205SOL    HW124248   1.024   1.766   2.798  0.7857 -0.2453 -0.2296
 4205SOL    HW224249   1.093   1.647   2.849  1.0519  1.0299  1.1788
 4206SOL     OW24250   3.662   2.062   7.258 -0.1369 -0.4153 -0.3539
 4206SOL    HW124251   3.694   1.996   7.320  0.2501  0.4960  0.4212
 4206SOL    HW224252   3.706   2.032   7.179  0.4832 -2.1587  0.6371
 4207SOL     OW24253   3.326   2.323   5.514 -0.3650  0.1112 -0.4919
 4207SOL    HW124254   3.341   2.273   5.595  0.6815 -0.5609 -1.1133
 4207SOL    HW224255   3.345   2.261   5.443  3.4718 -0.9517  1.4391
 4208SOL     OW24256   0.276   0.672   1.993 -0.1134  0.3140  0.0536
 4208SOL    HW124257   0.244   0.643   2.078  1.1889 -1.7503 -0.1764
 4208SOL    HW224258   0.367   0.694   2.012 -0.2285 -1.0533  2.1260
 4209SOL     OW24259   4.383   0.062   3.094  0.1676 -0.2342  0.0478
 4209SOL    HW124260   4.356   0.132   3.153  0.9986 -0.0882  0.2533
 4209SOL    HW224261   4.322   4.733   3.118  1.0855 -1.0089  0.1339
 4210SOL     OW24262   4.508   0.519   4.709  0.3815  0.0514 -0.9213
 4210SOL    HW124263   4.461   0.444   4.747  0.6589  0.6986  0.7013
 4210SOL    HW224264   4.523   0.584   4.778  0.3575 -1.6639  0.7102
 4211SOL     OW24265   0.178   3.799   3.736 -0.5769  0.2317  0.0558
 4211SOL    HW124266   0.146   3.709   3.743 -3.1691  0.9261 -2.4724
 4211SOL    HW224267   0.136   3.851   3.805 -1.9603 -1.3196  0.3639
 4212SOL     OW24268   2.461   3.985   3.280 -0.6025  0.0402 -0.0669
 4212SOL    HW124269   2.529   3.965   3.345 -1.9580 -0.5464  1.1624
 4212SOL    HW224270   2.512   3.985   3.199 -2.9572  0.2307 -1.5550
 4213SOL     OW24271   0.161   3.020   7.718 -0.5091 -0.1502 -0.7257
 4213SOL    HW124272   0.143   3.051   7.630  3.0626  1.0885 -1.0231
 4213SOL    HW224273   0.256   3.021   7.726 -0.7847 -1.6211  2.7656
 4214SOL     OW24274   1.923   3.453   2.112  0.1683 -0.1006  0.0468
 4214SOL    HW124275   1.978   3.390   2.159 -0.5196 -0.2786  0.6152
 4214SOL    HW224276   1.840   3.407   2.103 -0.8574  1.3147  2.2945
 4215SOL     OW24277   4.738   0.360   8.119 -0.0735 -0.1732  0.0654
 4215SOL    HW124278   4.732   0.376   8.025 -1.2386 -1.9638 -0.1556
 4215SOL    HW224279   0.082   0.399   8.141 -0.8190  0.2139  2.2579
 4216SOL     OW24280   0.581   2.001   4.947 -0.4097 -0.6620 -0.4402
 4216SOL    HW124281   0.610   1.937   4.883 -0.2920 -1.4618  0.4159
 4216SOL    HW224282   0.661   2.020   4.997 -1.0545 -0.7401  0.6255
 4217SOL     OW24283   4.578   2.998   7.117  0.4778  0.5069  0.6472
 4217SOL    HW124284   4.669   3.000   7.086 -0.5999  1.0816 -2.4766
 4217SOL    HW224285   4.544   3.081   7.083 -4.0760 -0.8119  2.0284
 4218SOL     OW24286   1.572   3.881   2.426 -1.0335  0.1135  0.0801
 4218SOL    HW124287   1.650   3.840   2.386 -0.5975 -0.3623  1.4294
 4218SOL    HW224288   1.536   3.924   2.348 -1.8050 -0.9038 -0.1271
 4219SOL     OW24289   2.765   2.502   2.815  0.3371 -0.1279  0.0247
 4219SOL    HW124290   2.726   2.474   2.732  1.0234 -0.5444 -0.1527
 4219SOL    HW224291   2.784   2.591   2.787 -1.7924  0.4804  0.5535
 4220SOL     OW24292   2.019   2.220  17.682 -0.3841 -0.0453  0.0047
 4220SOL    HW124293   2.008   2.311  17.654 -2.8762  0.6726  3.3731
 4220SOL    HW224294   2.111   2.209  17.705 -1.1475  0.9185  3.4370
 4221SOL     OW24295   1.454   1.208   9.462 -0.3723 -0.3852 -0.2678
 4221SOL    HW124296   1.434   1.131   9.515 -0.3963 -0.8090 -0.8898
 4221SOL    HW224297   1.516   1.164   9.404 -0.1500 -0.6036  0.1415
 4222SOL     OW24298   1.988   2.511   2.757  0.1392 -0.0561 -0.2724
 4222SOL    HW124299   2.079   2.515   2.787 -0.7463  0.8449  2.3130
 4222SOL    HW224300   1.980   2.420   2.730 -0.2127 -0.3556  0.8455
 4223SOL     OW24301   1.583   2.514   1.563  0.4565  0.2772  0.1385
 4223SOL    HW124302   1.622   2.430   1.586  0.5134  0.6453  1.4077
 4223SOL    HW224303   1.493   2.481   1.556  0.4796  0.2311  0.0659
 4224SOL     OW24304   1.227   1.132   4.102  0.0873  0.3400 -0.4848
 4224SOL    HW124305   1.166   1.103   4.169  0.1871  1.0678 -0.0727
 4224SOL    HW224306   1.262   1.209   4.147  0.5538 -0.4861  0.5671
 4225SOL     OW24307   1.045   1.231   7.972  0.4299 -0.2224 -0.1549
 4225SOL    HW124308   0.991   1.177   7.914  1.1330  1.8876 -2.7692
 4225SOL    HW224309   1.117   1.169   7.985  0.4165 -0.4604 -1.1993
 4226SOL     OW24310   2.210   4.304  15.798 -0.6877  0.2662  0.3098
 4226SOL    HW124311   2.256   4.336  15.876  0.1978 -1.2594  0.4087
 4226SOL    HW224312   2.124   4.284  15.836  1.2564 -1.5136  3.8235
 4227SOL     OW24313   3.320   3.056   6.317  0.4987  0.1954  0.7121
 4227SOL    HW124314   3.360   3.141   6.302 -1.1371  0.8523  0.1314
 4227SOL    HW224315   3.230   3.084   6.332  0.6448  1.1143 -0.1572
 4228SOL     OW24316   2.552   2.151  13.130  0.2310 -0.1094  0.3629
 4228SOL    HW124317   2.599   2.175  13.050  1.3979  0.6293  1.2737
 4228SOL    HW224318   2.555   2.235  13.174 -0.4174  0.0848  0.0414
 4229SOL     OW24319   0.400   4.666   6.186 -0.3324 -0.1836  0.6303
 4229SOL    HW124320   0.387   4.665   6.091 -0.2598  1.4321  0.6041
 4229SOL    HW224321   0.458   0.000   6.192  0.2436 -0.7165  1.7462
 4230SOL     OW24322   4.495   1.919   4.284 -0.7199  0.5983  0.1690
 4230SOL    HW124323   4.499   1.890   4.193  1.5663  2.6040 -0.3738
 4230SOL    HW224324   4.410   1.962   4.281  0.0909  2.1166 -1.1427
 4231SOL     OW24325   1.042   2.710   7.100 -0.8240  0.1313 -0.1757
 4231SOL    HW124326   1.111   2.674   7.156 -0.5251  1.6549  0.4417
 4231SOL    HW224327   0.980   2.638   7.089 -1.5634  0.6338  0.6791
 4232SOL     OW24328   1.979   2.127   2.181 -0.0561  0.8040  0.1822
 4232SOL    HW124329   1.986   2.210   2.134  1.0395  0.8403  0.4050
 4232SOL    HW224330   2.070   2.099   2.198 -0.0264  1.0094  0.3590
 4233SOL     OW24331   1.480   3.274   0.423 -0.3707  0.0265 -0.7062
 4233SOL    HW124332   1.531   3.194   0.433  0.0027  0.3681  0.0828
 4233SOL    HW224333   1.434   3.251   0.342 -1.7740 -2.1290  0.6780
 4234SOL     OW24334   1.041   1.667   4.591  0.6595 -0.8456 -0.3189
 4234SOL    HW124335   1.109   1.690   4.654  0.7302 -1.0063 -0.3372
 4234SOL    HW224336   0.981   1.735   4.624  1.5688 -1.2674  2.2533
 4235SOL     OW24337   2.448   2.696   4.532  0.0435 -0.2972  0.7792
 4235SOL    HW124338   2.425   2.611   4.569 -0.5255 -0.3418  0.3208
 4235SOL    HW224339   2.381   2.753   4.569  1.1960  0.8349  1.1495
 4236SOL     OW24340   3.642   0.397   8.567 -0.2054  0.3154  0.3511
 4236SOL    HW124341   3.627   0.465   8.633  0.2286 -0.7123  1.5331
 4236SOL    HW224342   3.623   0.316   8.615  0.5705  0.9228  1.7055
 4237SOL     OW24343   1.881   1.350  11.466 -0.7536  0.2943 -0.0401
 4237SOL    HW124344   1.972   1.360  11.438 -0.2693 -2.9165  0.3893
 4237SOL    HW224345   1.835   1.421  11.422 -0.0686 -0.7066 -2.3758
 4238SOL     OW24346   1.629   3.308   7.987  0.9394  0.0924  0.1373
 4238SOL    HW124347   1.619   3.213   7.998 -1.5611  0.1538 -1.7058
 4238SOL    HW224348   1.653   3.317   7.895 -1.9580  0.0862 -0.6327
 4239SOL     OW24349   1.822   0.955  12.892 -0.5886 -0.4098 -0.9469
 4239SOL    HW124350   1.777   1.028  12.850 -1.6014  0.8223  2.3107
 4239SOL    HW224351   1.910   0.991  12.884  0.3627 -2.3821  0.6979
 4240SOL     OW24352   4.232   1.788  14.270  0.1483  0.1072  0.1324
 4240SOL    HW124353   4.323   1.807  14.292  0.9088  0.0678 -2.9467
 4240SOL    HW224354   4.189   1.825  14.347 -1.2765 -1.1384 -0.0677
 4241SOL     OW24355   4.235   2.009   4.149 -0.8186  0.0700 -0.4380
 4241SOL    HW124356   4.209   2.083   4.094  2.7780  1.1160 -0.7496
 4241SOL    HW224357   4.159   1.956   4.126  0.9437 -2.9057  0.6932
 4242SOL     OW24358   2.435   0.262   6.234  0.0023  0.1796  0.2259
 4242SOL    HW124359   2.477   0.317   6.300 -0.2231 -0.5948  1.0152
 4242SOL    HW224360   2.498   0.265   6.163 -0.1734 -0.0949  0.0585
 4243SOL     OW24361   4.397   2.444   8.682 -0.1112 -0.3528 -0.2075
 4243SOL    HW124362   4.420   2.351   8.677 -2.3115 -0.8773 -0.2259
 4243SOL    HW224363   4.438   2.464   8.766  1.5467 -0.1404 -1.0580
 4244SOL     OW24364   3.093   2.849   1.625 -0.0977  0.3581 -0.4479
 4244SOL    HW124365   3.087   2.756   1.604 -0.0305  0.0992  0.6841
 4244SOL    HW224366   3.003   2.868   1.653 -0.5808  1.6854 -2.9374
 4245SOL     OW24367   3.097   1.209   6.779  0.1242  0.9095 -0.4090
 4245SOL    HW124368   3.009   1.176   6.760  0.7664 -1.7790  1.3035
 4245SOL    HW224369   3.119   1.254   6.697 -0.0857  0.2420 -0.8305
 4246SOL     OW24370   2.292   4.402   1.646 -0.1310  0.0573 -0.2917
 4246SOL    HW124371   2.248   4.418   1.729  1.9796  0.4062  0.7628
 4246SOL    HW224372   2.339   4.484   1.629  1.1881 -0.9518 -1.4913
 4247SOL     OW24373   1.001   3.506   6.168 -0.2840  0.5469  0.3592
 4247SOL    HW124374   0.930   3.447   6.194  0.4390  0.9439  3.2276
 4247SOL    HW224375   0.959   3.585   6.136 -0.7041  0.8076  1.5482
 4248SOL     OW24376   3.120   4.112   1.893 -0.2932 -0.0033  0.3083
 4248SOL    HW124377   3.098   4.148   1.979 -0.8614 -0.6316  0.4316
 4248SOL    HW224378   3.212   4.136   1.888 -0.0823 -1.2496 -1.7437
 4249SOL     OW24379   0.821   1.062   4.078 -0.0213  0.2573 -0.0629
 4249SOL    HW124380   0.904   1.027   4.109 -0.7378 -0.5014  0.9858
 4249SOL    HW224381   0.808   1.136   4.138 -0.8379  1.6957 -2.0113
 4250SOL     OW24382   1.144   0.194   1.967  0.6246 -1.0223 -0.3538
 4250SOL    HW124383   1.151   0.136   1.891 -0.7510 -1.4564 -0.1553
 4250SOL    HW224384   1.078   0.135   2.003 -1.6206  1.6436 -0.0758
 4251SOL     OW24385   2.555   2.407   8.639  0.3879 -0.3327  0.2205
 4251SOL    HW124386   2.524   2.460   8.565  0.5632  1.0800  1.1730
 4251SOL    HW224387   2.640   2.378   8.604 -0.9726 -3.7762 -0.2477
 4252SOL     OW24388   0.015   1.719   3.227 -0.5305 -0.2728 -0.4915
 4252SOL    HW124389   0.093   1.695   3.177 -0.8543  0.0847 -1.1775
 4252SOL    HW224390   0.063   1.754   3.302 -0.8509 -2.5971  0.7904
 4253SOL     OW24391   3.834   0.050  17.029 -0.8333  0.1783 -0.3030
 4253SOL    HW124392   3.914   0.100  17.046 -0.3166 -0.9144  0.5049
 4253SOL    HW224393   3.874   4.705  17.042 -0.9318  0.0756 -0.6846
 4254SOL     OW24394   4.689   1.075  17.162 -0.1456 -0.0167  0.1664
 4254SOL    HW124395   4.679   1.110  17.250  0.2871  1.3571 -0.3201
 4254SOL    HW224396   4.676   1.161  17.122 -0.8857 -0.6660 -0.9875
 4255SOL     OW24397   2.401   3.459  11.072  0.0598 -0.4759  0.6970
 4255SOL    HW124398   2.388   3.501  10.987 -1.4049 -0.1969  1.0546
 4255SOL    HW224399   2.415   3.367  11.050  1.7090 -0.3529  1.2122
 4256SOL     OW24400   1.604   0.786   8.345  0.2730  0.1543 -0.7703
 4256SOL    HW124401   1.673   0.847   8.371 -0.5037  0.0010  1.6654
 4256SOL    HW224402   1.594   0.735   8.426 -4.6535  1.2803 -0.6732
 4257SOL     OW24403   1.772   3.472  13.643  0.4882 -0.4944  0.5457
 4257SOL    HW124404   1.759   3.408  13.574 -2.3625  0.4107  0.2288
 4257SOL    HW224405   1.704   3.538  13.627  0.0150 -0.9165  0.8275
 4258SOL     OW24406   1.170   4.361   3.527 -0.2562  0.0099  0.0020
 4258SOL    HW124407   1.117   4.287   3.496  1.0479  0.0953 -2.4258
 4258SOL    HW224408   1.223   4.311   3.588 -0.3072 -0.9562 -0.7448
 4259SOL     OW24409   2.501   1.075   9.608  0.4797  0.3008 -0.3518
 4259SOL    HW124410   2.555   1.151   9.589 -0.6197  1.0202 -0.6066
 4259SOL    HW224411   2.426   1.107   9.557  0.2987  0.1721 -0.1659
 4260SOL     OW24412   2.452   0.305   1.170 -0.1365 -0.8401  0.1339
 4260SOL    HW124413   2.472   0.216   1.141  1.5489 -0.2843 -0.4313
 4260SOL    HW224414   2.359   0.311   1.193  0.1356 -0.9516  1.2675
 4261SOL     OW24415   4.121   3.904   8.604  0.7491  1.0254 -0.0815
 4261SOL    HW124416   4.136   3.998   8.594 -1.3470  1.4147  0.3731
 4261SOL    HW224417   4.205   3.868   8.632 -0.5859 -0.1198  2.3995
 4262SOL     OW24418   0.345   3.996   3.725  0.2361 -0.0004 -0.4893
 4262SOL    HW124419   0.416   3.950   3.681  2.3787  1.6077  1.3174
 4262SOL    HW224420   0.275   3.931   3.723 -0.0562  0.3396 -1.2376
 4263SOL     OW24421   2.738   3.428   1.946  0.1356 -0.5856  0.0652
 4263SOL    HW124422   2.764   3.513   1.910  0.8566 -1.3159 -1.1554
 4263SOL    HW224423   2.643   3.431   1.941  0.1333  0.1524  0.5273
 4264SOL     OW24424   0.277   1.952  14.567 -0.0700  0.1216 -0.3880
 4264SOL    HW124425   0.252   1.886  14.632 -1.0926  1.5524  0.6676
 4264SOL    HW224426   0.208   1.949  14.501 -0.9505 -1.3947  0.5903
 4265SOL     OW24427   2.368   0.301   1.509  0.3110 -0.7305  0.3907
 4265SOL    HW124428   2.278   0.334   1.510  0.2479 -0.8781 -0.4457
 4265SOL    HW224429   2.362   0.225   1.451 -1.2341  1.1898 -1.9548
 4266SOL     OW24430   3.186   2.755   3.781 -0.2515 -0.4591  0.6815
 4266SOL    HW124431   3.275   2.787   3.764 -0.4512 -0.8849 -1.1955
 4266SOL    HW224432   3.192   2.685   3.717 -0.2184 -0.7332  0.9867
 4267SOL     OW24433   3.576   1.432   2.374  0.1445  0.2623 -0.4554
 4267SOL    HW124434   3.634   1.382   2.431  0.6172  1.0819 -0.2067
 4267SOL    HW224435   3.507   1.367   2.359 -0.9021  1.0453  0.8581
 4268SOL     OW24436   3.177   3.636   9.321 -0.0736  0.7438 -0.5183
 4268SOL    HW124437   3.208   3.639   9.230 -0.6025 -0.7778 -0.7445
 4268SOL    HW224438   3.083   3.648   9.308 -0.4006 -0.5468  0.7245
 4269SOL     OW24439   1.168   3.217   2.461 -0.3152  0.5151  0.2987
 4269SOL    HW124440   1.116   3.188   2.386 -1.1314  0.3289  0.9343
 4269SOL    HW224441   1.256   3.207   2.424 -0.1012  2.9183  0.1440
 4270SOL     OW24442   2.160   2.113   3.086 -0.3686  0.1506  0.3591
 4270SOL    HW124443   2.242   2.064   3.079 -0.6386 -0.2565  0.0526
 4270SOL    HW224444   2.187   2.201   3.112  0.5441 -0.2583  0.7795
 4271SOL     OW24445   2.078   3.148   8.460 -0.6730  0.4879  0.7233
 4271SOL    HW124446   2.031   3.191   8.388 -1.9327 -1.9316  0.1054
 4271SOL    HW224447   2.090   3.057   8.434  1.0198  1.4706 -1.9960
 4272SOL     OW24448   2.042   2.775   3.331 -0.2655  0.4154  0.3236
 4272SOL    HW124449   2.035   2.782   3.236  3.6785 -0.1493 -0.0079
 4272SOL    HW224450   1.965   2.822   3.363 -0.1345  0.7721  0.1230
 4273SOL     OW24451   0.559   0.426   8.145  0.0933 -0.0680  0.6592
 4273SOL    HW124452   0.632   0.406   8.086 -1.9541 -2.8674 -0.9513
 4273SOL    HW224453   0.490   0.448   8.082  0.1129 -0.2482  0.5746
 4274SOL     OW24454   0.589   1.700   4.037  0.3235 -0.4069  0.4244
 4274SOL    HW124455   0.611   1.607   4.040  0.2553 -0.4765 -1.0455
 4274SOL    HW224456   0.495   1.683   4.032 -0.0304  1.9032 -0.7752
 4275SOL     OW24457   0.994   4.659  15.289  0.3776 -0.5630 -0.3163
 4275SOL    HW124458   0.985   4.706  15.372  1.6563  0.0031 -0.5036
 4275SOL    HW224459   0.982   4.568  15.314  1.2035 -0.7279 -0.5077
 4276SOL     OW24460   2.128   3.853  11.993 -0.1488  0.4401  0.6550
 4276SOL    HW124461   2.117   3.914  12.066  1.0600  1.2812  0.1384
 4276SOL    HW224462   2.062   3.880  11.929 -1.0306 -0.8831  1.0068
 4277SOL     OW24463   0.338   3.229   3.339 -0.3353  0.4823  0.1745
 4277SOL    HW124464   0.398   3.244   3.412 -1.2931 -2.0648  1.4808
 4277SOL    HW224465   0.297   3.314   3.323 -0.4565  0.2807 -0.6038
 4278SOL     OW24466   2.190   2.655   3.927 -0.9677  0.1913  0.1991
 4278SOL    HW124467   2.151   2.678   4.011 -4.3972 -0.2695 -1.2560
 4278SOL    HW224468   2.219   2.743   3.901  1.6971 -1.2464 -1.7559
 4279SOL     OW24469   0.813   1.313  16.342 -0.8094 -0.6042  0.1171
 4279SOL    HW124470   0.736   1.257  16.327 -0.6389 -0.0190 -2.8904
 4279SOL    HW224471   0.885   1.252  16.358  1.3864  1.7782 -0.7529
 4280SOL     OW24472   4.074   0.856   6.708 -0.4733  0.9539  0.1743
 4280SOL    HW124473   4.058   0.867   6.801  2.1155 -0.0381  0.7447
 4280SOL    HW224474   4.012   0.784   6.701 -0.1083  0.6883 -0.3728
 4281SOL     OW24475   0.245   0.684   7.240  0.3143  0.1116  0.1390
 4281SOL    HW124476   0.318   0.669   7.180 -0.5113 -2.1549 -0.3084
 4281SOL    HW224477   0.208   0.769   7.216 -0.1757 -0.0568  0.2947
 4282SOL     OW24478   3.610   0.184   3.386  0.1532  0.5998 -0.5731
 4282SOL    HW124479   3.543   0.251   3.403 -0.7999 -0.4108 -0.4035
 4282SOL    HW224480   3.570   0.100   3.405 -0.3204  0.4484 -2.1848
 4283SOL     OW24481   2.001   0.450  10.087 -0.4456 -0.0307  0.0056
 4283SOL    HW124482   2.069   0.488  10.142 -1.2251  0.9257  0.3141
 4283SOL    HW224483   2.027   0.486  10.002  2.3694 -1.6130  0.2233
 4284SOL     OW24484   3.863   3.268   3.947 -0.3056 -0.4191 -0.2127
 4284SOL    HW124485   3.950   3.273   3.984  0.3992  1.0437 -2.0497
 4284SOL    HW224486   3.816   3.223   4.017  0.5829 -0.9982  0.0009
 4285SOL     OW24487   4.140   0.869   3.437 -0.0416 -0.3858 -0.2528
 4285SOL    HW124488   4.098   0.823   3.364  1.7264 -1.4250 -0.6109
 4285SOL    HW224489   4.184   0.942   3.393 -0.3689 -1.0522 -1.6756
 4286SOL     OW24490   4.180   3.532  15.622  0.2599 -0.0042  0.0538
 4286SOL    HW124491   4.150   3.448  15.587  1.6651  0.3543 -1.9817
 4286SOL    HW224492   4.272   3.527  15.597  0.8139 -0.4634  2.1857
 4287SOL     OW24493   4.497   0.833  15.640  0.1902  0.2205  0.3623
 4287SOL    HW124494   4.466   0.921  15.657  2.4511  1.9084 -4.1333
 4287SOL    HW224495   4.587   0.856  15.616  0.6086 -1.5460  0.2407
 4288SOL     OW24496   1.134   1.369  11.993 -0.2871  0.4812 -0.4677
 4288SOL    HW124497   1.088   1.290  12.021 -0.8005  0.6182 -0.9312
 4288SOL    HW224498   1.178   1.334  11.915 -0.3179 -0.7081  0.0512
 4289SOL     OW24499   3.847   3.768   3.263  0.4221 -0.5075  0.3786
 4289SOL    HW124500   3.753   3.786   3.261  0.7686  1.2623  0.1465
 4289SOL    HW224501   3.859   3.776   3.358  0.7451  2.6153  0.0814
 4290SOL     OW24502   4.209   2.891   2.050 -0.3542  0.3747 -0.5868
 4290SOL    HW124503   4.301   2.870   2.030 -0.3435  0.7204 -0.9045
 4290SOL    HW224504   4.162   2.809   2.037  0.1137 -0.0398  0.3035
 4291SOL     OW24505   0.068   2.240  12.686 -0.3320 -0.0764 -0.2903
 4291SOL    HW124506   0.087   2.165  12.742 -0.0497  0.9013  0.9328
 4291SOL    HW224507   0.141   2.235  12.624  1.5410  2.1571  1.7298
 4292SOL     OW24508   2.880   0.667   6.574 -0.4145 -0.5999 -0.0913
 4292SOL    HW124509   2.973   0.688   6.573 -0.2925 -1.1768 -1.0170
 4292SOL    HW224510   2.859   0.670   6.481  1.0459 -2.0541 -0.4547
 4293SOL     OW24511   1.701   3.130   6.691 -0.3263  0.3574  0.2012
 4293SOL    HW124512   1.707   3.226   6.686  0.5239  0.3786  1.8567
 4293SOL    HW224513   1.784   3.091   6.665 -0.2659  0.4960  0.1848
 4294SOL     OW24514   1.528   0.673   9.628 -0.1925  0.5309 -0.2266
 4294SOL    HW124515   1.466   0.660   9.700 -1.4402 -1.5244 -1.6839
 4294SOL    HW224516   1.513   0.602   9.566 -0.7836 -0.7813  1.4076
 4295SOL     OW24517   4.521   1.924   8.735 -0.3664  0.2092 -0.3385
 4295SOL    HW124518   4.457   1.884   8.676 -0.8252 -1.3716  1.2398
 4295SOL    HW224519   4.534   1.847   8.790 -1.2363  0.0708 -0.3287
 4296SOL     OW24520   1.418   4.448  17.115  0.5994 -0.7606  0.0026
 4296SOL    HW124521   1.479   4.514  17.082  1.4304 -0.8369  1.3514
 4296SOL    HW224522   1.350   4.450  17.048  0.3234  0.9924  0.3199
 4297SOL     OW24523   1.918   3.704  11.399 -0.1708 -0.0342 -0.5551
 4297SOL    HW124524   1.837   3.756  11.394  0.6163  1.0295 -2.1822
 4297SOL    HW224525   1.914   3.657  11.316  0.0065  0.9142 -1.0997
 4298SOL     OW24526   2.543   2.713   3.715 -0.3653  0.0208  0.1426
 4298SOL    HW124527   2.461   2.737   3.671  0.2685  2.2371  0.1578
 4298SOL    HW224528   2.516   2.639   3.769 -0.0272 -1.5182 -1.8406
 4299SOL     OW24529   2.949   1.526   0.427 -0.4329 -0.2747 -0.4025
 4299SOL    HW124530   2.907   1.444   0.453 -1.2454  0.0792 -0.5915
 4299SOL    HW224531   2.896   1.545   0.350 -2.1934 -1.2649  0.5713
 4300SOL     OW24532   0.044   1.981   3.055  0.1653 -0.2744  0.0170
 4300SOL    HW124533   0.000   1.979   2.970 -0.1317 -3.4685  0.2422
 4300SOL    HW224534   0.006   1.910   3.106 -1.9703  1.0411  0.2495
 4301SOL     OW24535   1.137   1.950   1.950  0.1525 -0.1471 -0.2498
 4301SOL    HW124536   1.176   1.883   1.893 -0.6658 -0.6678 -0.2005
 4301SOL    HW224537   1.196   2.023   1.933  0.9836 -0.9083 -0.6523
 4302SOL     OW24538   0.351   1.154   0.351  0.5430 -0.7284  0.1710
 4302SOL    HW124539   0.264   1.193   0.342  0.7663  0.0528  1.5042
 4302SOL    HW224540   0.413   1.208   0.302 -0.7779  0.2760 -0.3913
 4303SOL     OW24541   1.152   3.430   5.854  0.0870 -0.4060 -0.2832
 4303SOL    HW124542   1.099   3.356   5.884 -0.7196  0.1515 -0.3250
 4303SOL    HW224543   1.179   3.464   5.940  2.3060 -0.1778 -1.0655
 4304SOL     OW24544   1.983   3.347  13.101  0.0075  0.0603 -0.6673
 4304SOL    HW124545   2.071   3.379  13.120  0.9270 -2.8532  0.0185
 4304SOL    HW224546   1.965   3.322  13.192 -1.6456  0.1933 -0.9614
 4305SOL     OW24547   1.161   2.711   4.786 -0.4344  0.4144 -0.0609
 4305SOL    HW124548   1.066   2.714   4.779 -0.5030  0.5757  0.9471
 4305SOL    HW224549   1.182   2.700   4.879  0.3102  0.5147 -0.2141
 4306SOL     OW24550   1.924   4.371  12.731  0.2791 -0.3338  0.2793
 4306SOL    HW124551   1.965   4.399  12.813 -2.6299  1.2468  1.2036
 4306SOL    HW224552   1.835   4.350  12.758 -0.2519  3.0504  1.2502
 4307SOL     OW24553   3.114   4.123   3.526  0.0727  0.6454 -0.2905
 4307SOL    HW124554   3.144   4.115   3.435  2.1442  1.8806  0.3091
 4307SOL    HW224555   3.044   4.189   3.532  0.0067  0.6077 -0.6386
 4308SOL     OW24556   0.958   3.714  13.938 -0.3567  0.3204  0.6080
 4308SOL    HW124557   1.028   3.694  13.875  0.1959 -0.5007  1.4829
 4308SOL    HW224558   0.892   3.658  13.897 -0.6522  0.8536  0.3462
 4309SOL     OW24559   0.869   0.405   9.390 -0.1869 -0.1214  0.0426
 4309SOL    HW124560   0.939   0.415   9.454 -0.4946  0.8277  0.2268
 4309SOL    HW224561   0.915   0.355   9.323  1.6665 -1.0881  2.0596
 4310SOL     OW24562   1.517   3.375   5.986 -0.2219 -0.1332 -0.0199
 4310SOL    HW124563   1.426   3.400   5.999  0.4184  1.5520  1.2555
 4310SOL    HW224564   1.505   3.307   5.920 -3.3800  0.4793 -0.0574
 4311SOL     OW24565   2.965   0.915  13.577  0.5968 -0.3273  0.1015
 4311SOL    HW124566   2.955   1.005  13.544  0.2227  0.3024  1.9439
 4311SOL    HW224567   2.898   0.870  13.525  1.1306  0.0002 -0.8819
 4312SOL     OW24568   3.130   1.042   1.894  0.1425 -0.0143  0.0735
 4312SOL    HW124569   3.104   1.131   1.918 -1.8119 -0.4681 -0.3297
 4312SOL    HW224570   3.156   1.055   1.803  0.7964 -1.8677 -0.0083
 4313SOL     OW24571   0.309   2.589   4.031 -0.1774 -1.0455  0.3596
 4313SOL    HW124572   0.229   2.641   4.041  0.0664 -0.4937 -0.6162
 4313SOL    HW224573   0.285   2.497   4.042  0.7051 -1.2666  0.5145
 4314SOL     OW24574   1.423   2.182   4.748  0.2486 -0.7926 -0.5245
 4314SOL    HW124575   1.454   2.111   4.804  0.5240  0.2863  0.6850
 4314SOL    HW224576   1.436   2.152   4.657 -0.1099  0.7550 -1.0831
 4315SOL     OW24577   2.545   3.656  11.185 -1.1559 -0.6090 -0.5042
 4315SOL    HW124578   2.498   3.578  11.155 -0.9236 -1.3349  0.9874
 4315SOL    HW224579   2.538   3.724  11.119  1.9466  0.3740  0.1660
 4316SOL     OW24580   2.778   2.398  15.616 -0.0026 -0.4929 -0.1539
 4316SOL    HW124581   2.788   2.320  15.563  0.3118 -0.0440 -0.7477
 4316SOL    HW224582   2.860   2.400  15.665 -0.5387  4.0166  0.5864
 4317SOL     OW24583   3.229   0.831   2.049 -0.0685 -0.0301 -0.0727
 4317SOL    HW124584   3.205   0.915   2.011 -0.2674  0.9111  2.1544
 4317SOL    HW224585   3.145   0.787   2.039  0.7559 -1.3859 -0.9838
 4318SOL     OW24586   2.095   1.419   4.568 -0.1504  0.4953 -0.0457
 4318SOL    HW124587   2.170   1.406   4.510 -0.4533  0.5013 -0.4361
 4318SOL    HW224588   2.075   1.512   4.559  1.4703  0.7412 -1.0802
 4319SOL     OW24589   0.848   0.648   6.044 -0.9036 -0.3870  0.1403
 4319SOL    HW124590   0.760   0.679   6.065  0.0391  2.7322 -0.5754
 4319SOL    HW224591   0.848   0.558   6.077 -3.6556  0.2086  1.8642
 4320SOL     OW24592   1.051   2.284   6.053 -0.2645  0.6812  1.0493
 4320SOL    HW124593   0.996   2.252   6.125  1.1721 -1.6758  1.1221
 4320SOL    HW224594   1.089   2.205   6.014  2.1522  1.0050  2.7469
 4321SOL     OW24595   4.335   4.391  10.975  0.1735  0.2596  0.9597
 4321SOL    HW124596   4.366   4.301  10.965  0.4184  0.1530  2.6408
 4321SOL    HW224597   4.407   4.435  10.928 -1.4684  0.8033 -1.0379
 4322SOL     OW24598   1.198   3.866   9.128  0.7277 -0.1519 -0.0299
 4322SOL    HW124599   1.217   3.772   9.124 -0.5133 -0.4608  1.4527
 4322SOL    HW224600   1.155   3.879   9.044  2.1815  1.5032 -0.5235
 4323SOL     OW24601   0.473   2.933   5.338  0.0933  0.1819  0.3283
 4323SOL    HW124602   0.524   2.957   5.416  0.3786 -0.5602  0.3723
 4323SOL    HW224603   0.505   2.843   5.329 -1.7125 -0.4642  0.3167
 4324SOL     OW24604   4.304   4.480  11.408 -0.0252 -0.0597 -1.2969
 4324SOL    HW124605   4.292   4.540  11.482 -1.4324 -1.2709 -0.5400
 4324SOL    HW224606   4.323   4.396  11.451  0.3695  0.3908 -0.5922
 4325SOL     OW24607   3.896   4.299   3.110  0.6340 -0.2821  0.0918
 4325SOL    HW124608   3.859   4.302   3.022  2.2032 -3.5227 -0.6828
 4325SOL    HW224609   3.974   4.354   3.101  0.8167 -0.4856  0.4231
 4326SOL     OW24610   1.461   3.920   8.165 -0.0735 -0.0234  0.3700
 4326SOL    HW124611   1.439   4.008   8.134  0.4665 -0.2826 -0.7535
 4326SOL    HW224612   1.407   3.857   8.117 -0.5682  0.0832  0.7893
 4327SOL     OW24613   4.526   0.423   6.135 -0.9065  0.3279  0.2240
 4327SOL    HW124614   4.456   0.488   6.127 -0.7648  0.2515 -1.6837
 4327SOL    HW224615   4.506   0.355   6.070  0.3064  0.1435  0.0559
 4328SOL     OW24616   0.835   4.613   8.575 -0.5215  0.0746 -0.4886
 4328SOL    HW124617   0.787   4.696   8.567 -0.2936  0.3600  1.0822
 4328SOL    HW224618   0.848   4.592   8.483  1.0640  1.9921 -0.7152
 4329SOL     OW24619   2.463   4.694   8.233  0.5113  0.2211  0.6375
 4329SOL    HW124620   2.550   4.724   8.256  0.4746  1.1994 -0.5110
 4329SOL    HW224621   2.423   0.037   8.209 -1.2325 -0.7147  0.2517
 4330SOL     OW24622   4.608   4.209   2.623  0.2517 -0.0416 -0.6973
 4330SOL    HW124623   4.636   4.146   2.557  1.3390  0.9478 -1.1824
 4330SOL    HW224624   4.668   4.191   2.695 -1.4713  1.6773  1.1684
 4331SOL     OW24625   3.095   1.134   7.453 -0.3437 -1.1724 -0.1275
 4331SOL    HW124626   3.116   1.126   7.546  1.4030  1.2943 -0.2911
 4331SOL    HW224627   3.161   1.198   7.425 -2.2238  0.4204 -0.9611
 4332SOL     OW24628   1.288   2.878  13.789  0.1730 -0.1562 -0.2917
 4332SOL    HW124629   1.347   2.802  13.785  1.6804  0.9172  1.4563
 4332SOL    HW224630   1.351   2.948  13.803 -0.7615  0.5128  0.5460
 4333SOL     OW24631   4.673   3.534   2.534  0.3513  0.3069 -0.0273
 4333SOL    HW124632   4.730   3.521   2.610 -0.8275  2.5415  1.2273
 4333SOL    HW224633   4.615   3.603   2.567 -0.5304  0.4948 -1.9588
 4334SOL     OW24634   2.011   0.718   6.247 -0.3776 -0.2814 -0.3560
 4334SOL    HW124635   2.047   0.675   6.170  1.4076 -0.3159  0.4818
 4334SOL    HW224636   2.046   0.660   6.315  2.9268  1.4537 -0.5317
 4335SOL     OW24637   1.604   0.438   1.696  0.5028  0.3063 -0.1691
 4335SOL    HW124638   1.692   0.439   1.659  0.7014 -0.9851  0.2504
 4335SOL    HW224639   1.611   0.451   1.791  1.4384 -0.1825 -0.1719
 4336SOL     OW24640   2.906   1.990   7.443 -0.2209 -0.1142 -0.0878
 4336SOL    HW124641   2.824   1.984   7.394 -0.2847  3.0007 -0.3448
 4336SOL    HW224642   2.955   2.055   7.394 -0.1934  0.5281  0.7932
 4337SOL     OW24643   1.077   0.946   6.925 -0.3320  0.1857 -0.1882
 4337SOL    HW124644   1.147   0.977   6.866 -0.3910  0.2770 -0.2096
 4337SOL    HW224645   0.993   0.955   6.879  0.2078 -0.1227 -1.2450
 4338SOL     OW24646   0.434   1.954  13.004 -0.5619 -0.1855 -0.0833
 4338SOL    HW124647   0.445   2.043  12.972  2.3373 -0.2253  0.8486
 4338SOL    HW224648   0.519   1.931  13.041  0.3666  1.7095 -1.0439
 4339SOL     OW24649   1.127   0.947   1.139 -0.4725  0.2491 -0.2330
 4339SOL    HW124650   1.113   1.041   1.127 -1.3768  0.4972  2.8791
 4339SOL    HW224651   1.148   0.922   1.049  0.3014 -0.4495  0.1422
 4340SOL     OW24652   1.586   4.215   3.243 -0.0521  0.0853 -0.5170
 4340SOL    HW124653   1.643   4.288   3.269  0.5931 -0.8970  0.8660
 4340SOL    HW224654   1.511   4.266   3.213  0.4227  1.6165  0.9249
 4341SOL     OW24655   4.580   3.399   1.412 -0.0974 -0.1753 -0.7225
 4341SOL    HW124656   4.561   3.425   1.502  1.5713 -2.1576  0.2143
 4341SOL    HW224657   4.493   3.384   1.377  0.1273 -1.5237 -0.6975
 4342SOL     OW24658   4.120   1.736   5.627 -0.2406  0.1182  0.1048
 4342SOL    HW124659   4.145   1.786   5.549  0.6124 -1.9331 -0.9370
 4342SOL    HW224660   4.043   1.779   5.664 -0.0822  1.2884 -0.9131
 4343SOL     OW24661   3.510   0.398  13.011 -0.5405  0.3281 -0.3330
 4343SOL    HW124662   3.436   0.440  13.055 -0.8859  0.8592 -1.4262
 4343SOL    HW224663   3.584   0.445  13.049 -1.0421 -0.1048  1.2086
 4344SOL     OW24664   2.948   0.375  15.518 -0.0144 -0.1461  0.3903
 4344SOL    HW124665   2.954   0.419  15.434 -0.7562 -1.4479 -0.3414
 4344SOL    HW224666   2.979   0.288  15.490 -3.0697 -1.6060  1.5895
 4345SOL     OW24667   1.778   4.644   9.490 -0.3966 -0.2805 -0.1418
 4345SOL    HW124668   1.826   4.597   9.558  0.2059  2.2903  1.2055
 4345SOL    HW224669   1.820   4.730   9.491  0.8323 -0.8947  0.9645
 4346SOL     OW24670   1.743   0.567   9.996  0.0937  0.4778 -0.0463
 4346SOL    HW124671   1.782   0.653   9.979  1.2368 -0.9161 -4.5518
 4346SOL    HW224672   1.807   0.531  10.058  1.0383  1.2821 -0.5538
 4347SOL     OW24673   0.353   3.919  13.423 -0.5215 -0.3782 -0.1363
 4347SOL    HW124674   0.365   4.004  13.380  0.4659  0.9760  2.8159
 4347SOL    HW224675   0.339   3.946  13.513  1.8984  0.5557 -0.0121
 4348SOL     OW24676   3.167   3.020   1.328 -0.1518  0.3568  0.3382
 4348SOL    HW124677   3.076   3.013   1.358  0.3627 -1.5597  1.4413
 4348SOL    HW224678   3.187   2.927   1.328 -0.3739  0.3118 -0.7030
 4349SOL     OW24679   4.126   4.434  17.307 -0.0234 -0.1368 -0.1216
 4349SOL    HW124680   4.202   4.492  17.302 -0.2530  0.4046  2.3581
 4349SOL    HW224681   4.163   4.348  17.287  0.0272 -0.1153 -0.1213
 4350SOL     OW24682   4.137   0.671   5.160 -0.1144 -0.3586  0.2765
 4350SOL    HW124683   4.204   0.678   5.228 -1.5964  3.4410  1.3544
 4350SOL    HW224684   4.063   0.714   5.203 -0.1835  0.8957 -1.1074
 4351SOL     OW24685   4.106   3.252   2.190 -0.3759  0.7951  0.2482
 4351SOL    HW124686   4.037   3.188   2.208 -0.6350  0.8179 -0.6422
 4351SOL    HW224687   4.150   3.274   2.272  0.4424 -1.6229  0.4585
 4352SOL     OW24688   3.851   4.409   8.783  0.2098  0.3550  0.3390
 4352SOL    HW124689   3.811   4.486   8.824  0.6549  0.7451  0.0360
 4352SOL    HW224690   3.829   4.438   8.695 -1.0546  0.7390  0.7670
 4353SOL     OW24691   1.007   1.265   1.955 -0.2935  0.2611 -0.1078
 4353SOL    HW124692   1.085   1.238   2.004  0.3270 -0.7771 -1.6774
 4353SOL    HW224693   0.986   1.357   1.973 -2.1748 -0.4242  1.2582
 4354SOL     OW24694   1.358   4.665  13.057 -0.1386 -0.0859 -0.5435
 4354SOL    HW124695   1.277   4.615  13.065  0.6515 -1.2882 -0.0480
 4354SOL    HW224696   1.341   4.738  12.997 -0.1594  0.2464 -0.1348
 4355SOL     OW24697   0.595   2.869   6.234  0.6086  0.0854  0.0205
 4355SOL    HW124698   0.547   2.795   6.269  1.2355 -1.2289 -1.8521
 4355SOL    HW224699   0.589   2.847   6.141 -0.5976  0.4708  0.0104
 4356SOL     OW24700   4.034   3.746  12.657  0.4653 -0.7930  0.1525
 4356SOL    HW124701   4.069   3.828  12.690  0.4043  0.6018 -3.1806
 4356SOL    HW224702   3.947   3.776  12.630  0.0830 -0.8183  1.3724
 4357SOL     OW24703   2.274   3.648   0.237 -0.2045 -0.2262 -0.0274
 4357SOL    HW124704   2.287   3.569   0.184  1.2350 -0.9493  1.4335
 4357SOL    HW224705   2.242   3.615   0.321  0.1761  1.0486  0.6091
 4358SOL     OW24706   0.926   2.401   9.002  0.6316  1.0152 -0.1477
 4358SOL    HW124707   0.984   2.404   8.925  1.9352  0.6719  0.8209
 4358SOL    HW224708   0.858   2.468   8.992 -0.2551  0.2660  0.8945
 4359SOL     OW24709   0.160   1.432  10.758 -0.1327  0.0349 -0.1114
 4359SOL    HW124710   0.202   1.445  10.673  3.1601 -1.7640  1.2878
 4359SOL    HW224711   0.138   1.522  10.785  3.6758  0.8319  0.2932
 4360SOL     OW24712   3.190   1.208   2.177 -0.2509 -0.0382  0.7231
 4360SOL    HW124713   3.179   1.300   2.200 -1.3552  0.1491 -0.5544
 4360SOL    HW224714   3.197   1.158   2.258 -0.8941 -1.8184 -0.2987
 4361SOL     OW24715   3.519   0.660   6.185 -0.9311  0.4117 -0.9753
 4361SOL    HW124716   3.488   0.677   6.274 -1.1545 -1.1154 -0.7597
 4361SOL    HW224717   3.494   0.738   6.136 -1.3256  1.7631  1.4094
 4362SOL     OW24718   0.639   2.728   1.903 -0.1294  0.9806  0.1404
 4362SOL    HW124719   0.631   2.823   1.891 -2.2246  0.4658 -2.4213
 4362SOL    HW224720   0.589   2.708   1.982  0.1208 -2.0305 -0.4770
 4363SOL     OW24721   0.371   4.540   2.129  0.1053 -0.1173 -0.6330
 4363SOL    HW124722   0.288   4.507   2.163  1.7783 -0.0150  3.4881
 4363SOL    HW224723   0.408   4.574   2.211  0.3910  2.6486 -1.8973
 4364SOL     OW24724   3.956   0.684   6.286  0.0501 -0.5153 -0.3703
 4364SOL    HW124725   3.988   0.774   6.282 -0.2988 -0.3813 -0.1299
 4364SOL    HW224726   4.039   0.637   6.291  0.3262 -0.1837 -1.9694
 4365SOL     OW24727   3.663   2.175  14.462 -0.5628  0.1142 -0.4779
 4365SOL    HW124728   3.631   2.252  14.510  2.5642  0.8878  0.3699
 4365SOL    HW224729   3.580   2.131  14.444  1.2914 -2.3191 -2.8793
 4366SOL     OW24730   2.313   1.971   3.510  0.2152 -0.1854  0.2207
 4366SOL    HW124731   2.242   2.025   3.545  0.3155  0.3279 -0.3736
 4366SOL    HW224732   2.353   2.023   3.441 -1.1212  0.2762 -0.2007
 4367SOL     OW24733   3.909   1.291  14.314 -0.4984  0.4494 -0.3584
 4367SOL    HW124734   3.838   1.252  14.262  0.0450  0.1224 -0.8583
 4367SOL    HW224735   3.976   1.224  14.302 -1.2651 -0.3857  0.0093
 4368SOL     OW24736   1.295   1.495   7.268  0.0484 -0.2105 -0.1351
 4368SOL    HW124737   1.208   1.532   7.251 -0.2776 -0.7891  0.2664
 4368SOL    HW224738   1.286   1.466   7.359  1.5416  0.5505  0.2421
 4369SOL     OW24739   0.577   1.433   3.994  0.2242 -0.4653  0.1685
 4369SOL    HW124740   0.498   1.433   3.939  0.7026  2.5413 -0.5287
 4369SOL    HW224741   0.642   1.405   3.929  1.1909  0.1925  0.8633
 4370SOL     OW24742   0.599   3.215   5.197  0.1673 -0.0528  0.6905
 4370SOL    HW124743   0.647   3.174   5.269 -0.4910 -1.2090  0.4753
 4370SOL    HW224744   0.542   3.142   5.172  1.5556 -1.2077  0.9268
 4371SOL     OW24745   0.607   0.679   1.561  0.3378  0.3249  0.0353
 4371SOL    HW124746   0.535   0.703   1.502  2.0336  0.1756 -2.0928
 4371SOL    HW224747   0.554   0.638   1.629 -0.2906 -0.7198 -1.0738
 4372SOL     OW24748   3.938   3.908   9.224  0.6106  0.2713  0.2486
 4372SOL    HW124749   3.868   3.888   9.162 -0.3454  1.0463  1.0774
 4372SOL    HW224750   4.005   3.845   9.198 -1.0674 -0.2574 -2.7867
 4373SOL     OW24751   3.221   1.835   2.663  0.0669  0.8423  0.3511
 4373SOL    HW124752   3.270   1.910   2.629  1.4183 -0.7324 -1.1700
 4373SOL    HW224753   3.205   1.852   2.756  0.5098  0.5642  0.4785
 4374SOL     OW24754   3.275   2.281   5.833  0.1233  0.0102  0.0140
 4374SOL    HW124755   3.345   2.246   5.889  1.2475  2.2484  0.0325
 4374SOL    HW224756   3.207   2.217   5.854  0.9855 -1.3872 -1.4652
 4375SOL     OW24757   1.133   1.179   7.402  1.2739 -1.0190 -0.7321
 4375SOL    HW124758   1.105   1.138   7.321 -1.1684  1.1221 -0.9616
 4375SOL    HW224759   1.224   1.200   7.380  0.7866  0.8440 -0.9085
 4376SOL     OW24760   1.500   3.180  10.913  0.1515 -0.4216  0.4798
 4376SOL    HW124761   1.549   3.261  10.921 -1.3987  0.6431 -0.7969
 4376SOL    HW224762   1.549   3.141  10.840  2.1230  2.5121  0.2548
 4377SOL     OW24763   3.688   3.630  13.933 -0.5081 -0.6656 -0.4459
 4377SOL    HW124764   3.609   3.581  13.910 -0.3974 -1.2134  0.3398
 4377SOL    HW224765   3.750   3.589  13.872  0.5602 -1.8299  1.4152
 4378SOL     OW24766   1.886   2.459   3.632  0.8621 -0.0375  0.1057
 4378SOL    HW124767   1.928   2.504   3.559  0.7703  1.4552  0.9725
 4378SOL    HW224768   1.954   2.468   3.698 -1.0026 -1.4905  2.2523
 4379SOL     OW24769   3.757   4.641   4.670  0.5384 -0.1476 -0.9651
 4379SOL    HW124770   3.823   4.708   4.686  3.1237 -3.4862  2.1922
 4379SOL    HW224771   3.707   4.683   4.600 -0.2543  0.7630  0.1409
 4380SOL     OW24772   0.976   0.431  16.912  0.1694  0.8462 -0.4610
 4380SOL    HW124773   1.063   0.389  16.913 -0.6630 -0.8161  1.1536
 4380SOL    HW224774   0.915   0.365  16.945  1.3998 -1.6123 -3.1407
 4381SOL     OW24775   0.655   3.352   3.196  1.0168 -0.0704  0.1148
 4381SOL    HW124776   0.585   3.333   3.133  0.8402  1.1767 -0.0719
 4381SOL    HW224777   0.727   3.296   3.165  1.0127  0.1289 -0.2604
 4382SOL     OW24778   1.205   4.405  15.857 -0.4516 -0.2314  0.6924
 4382SOL    HW124779   1.147   4.438  15.926  0.0330 -0.0276  1.0039
 4382SOL    HW224780   1.184   4.311  15.859  0.1448 -0.3790 -0.4732
 4383SOL     OW24781   0.267   2.941   6.874 -0.3800 -0.3589 -0.4004
 4383SOL    HW124782   0.357   2.966   6.891 -0.8488  0.1478  1.3048
 4383SOL    HW224783   0.229   2.996   6.942  0.2690 -1.0599  0.5148
 4384SOL     OW24784   3.981   2.198   3.836  0.2244  0.3013  0.6177
 4384SOL    HW124785   3.937   2.268   3.885  1.0110  1.6296 -0.5481
 4384SOL    HW224786   4.045   2.161   3.897  2.0648  0.1010 -1.4266
 4385SOL     OW24787   3.232   4.065  13.087 -0.1934  0.0071 -0.0665
 4385SOL    HW124788   3.316   4.076  13.043 -1.6839 -0.8823 -3.1392
 4385SOL    HW224789   3.256   4.025  13.171  1.7361  1.7790  0.2136
 4386SOL     OW24790   1.778   0.743   9.731 -0.2935  0.2316  0.0508
 4386SOL    HW124791   1.702   0.720   9.678 -1.0276  1.9640  0.3501
 4386SOL    HW224792   1.811   0.654   9.741 -1.0621  0.0209  0.6950
 4387SOL     OW24793   1.489   3.576   3.339  0.2132  0.1601 -0.0672
 4387SOL    HW124794   1.495   3.653   3.283  1.1383  0.2792  0.2025
 4387SOL    HW224795   1.489   3.617   3.425 -1.2506 -2.3302  1.1231
 4388SOL     OW24796   4.010   1.714   2.292  0.4044  0.7148  0.0524
 4388SOL    HW124797   4.064   1.665   2.230 -1.6881  0.4380 -1.5517
 4388SOL    HW224798   3.952   1.764   2.234 -0.2833  0.1276  0.2279
 4389SOL     OW24799   2.777   2.778  16.151  0.5379  0.2950  0.0895
 4389SOL    HW124800   2.778   2.793  16.056  1.5314 -0.8327 -0.0722
 4389SOL    HW224801   2.869   2.760  16.168  0.5915  0.6864  0.2189
 4390SOL     OW24802   2.072   4.018   1.715  0.4826  0.0327 -0.2138
 4390SOL    HW124803   1.987   3.999   1.675  0.2157  2.5568 -0.8663
 4390SOL    HW224804   2.060   4.061   1.800 -3.3079 -0.9168 -0.3104
 4391SOL     OW24805   0.168   3.022   3.173 -0.3537 -0.0617  0.5610
 4391SOL    HW124806   0.233   3.090   3.188  0.4450 -0.9880  1.2498
 4391SOL    HW224807   0.200   2.983   3.091 -0.9545 -0.4199  0.4911
 4392SOL     OW24808   2.915   2.245   3.583  0.0676  0.4689  0.3348
 4392SOL    HW124809   2.823   2.228   3.563 -0.0826  0.4349  1.0418
 4392SOL    HW224810   2.941   2.165   3.629  0.7940  1.9365  2.4479
 4393SOL     OW24811   4.458   1.095  13.610 -0.2817 -0.3886 -0.1677
 4393SOL    HW124812   4.489   1.183  13.590 -2.6032  0.5432  0.4014
 4393SOL    HW224813   4.463   1.108  13.705  1.1698 -0.1994 -0.2767
 4394SOL     OW24814   1.351   0.416  12.520 -0.2826  0.1079  0.0802
 4394SOL    HW124815   1.309   0.348  12.573  0.2020 -0.6506 -0.5098
 4394SOL    HW224816   1.350   0.482  12.589 -1.3750 -0.8014  0.9177
 4395SOL     OW24817   3.193   2.311   7.836  0.2518 -0.4867  0.8820
 4395SOL    HW124818   3.262   2.288   7.899  0.2275  0.5755  1.3084
 4395SOL    HW224819   3.173   2.229   7.792  1.7395  0.3464 -1.3479
 4396SOL     OW24820   0.158   2.784   0.971 -0.2850 -0.5508  0.1561
 4396SOL    HW124821   0.177   2.702   0.924 -0.6188  0.4905 -1.8133
 4396SOL    HW224822   0.225   2.840   0.932 -0.2562  1.5444  3.2523
 4397SOL     OW24823   0.820   0.753   6.337 -0.1976 -0.2514 -0.2526
 4397SOL    HW124824   0.877   0.825   6.366  0.1079 -0.2345 -0.8927
 4397SOL    HW224825   0.857   0.723   6.255  1.5157 -0.7450  0.7079
 4398SOL     OW24826   2.255   2.331   0.058  1.0021  0.4064  0.8061
 4398SOL    HW124827   2.214   2.386   0.126 -2.7643 -0.5779 -0.6511
 4398SOL    HW224828   2.280   2.258   0.115 -1.6235  1.8325  3.7723
 4399SOL     OW24829   1.936   1.116   2.788 -0.5525 -0.2644 -0.6906
 4399SOL    HW124830   2.003   1.119   2.856 -2.2138  2.3096  0.7783
 4399SOL    HW224831   1.945   1.025   2.759 -3.2189 -0.8797  0.4417
 4400SOL     OW24832   1.320   1.935  12.799  0.4904 -0.4152 -0.0054
 4400SOL    HW124833   1.396   1.969  12.753 -1.0354  0.7338 -1.6526
 4400SOL    HW224834   1.348   1.848  12.829  0.9436  0.1472  1.2105
 4401SOL     OW24835   1.924   0.048   5.266 -0.9698 -0.0319 -0.0680
 4401SOL    HW124836   1.897   0.138   5.281 -1.1475 -0.0213 -0.4486
 4401SOL    HW224837   1.935   0.015   5.355 -2.3642 -2.4534 -0.7961
 4402SOL     OW24838   2.103   2.152  16.384  0.0457 -0.2063  0.2849
 4402SOL    HW124839   2.060   2.148  16.299 -1.8815  0.1159  1.2250
 4402SOL    HW224840   2.128   2.244  16.385  1.9956 -0.7307 -0.5896
 4403SOL     OW24841   0.249   4.132   8.957  0.1382 -0.1190 -0.2703
 4403SOL    HW124842   0.212   4.203   9.009  0.2696  0.6558 -1.2571
 4403SOL    HW224843   0.196   4.135   8.878  0.8112 -0.4184 -0.7365
 4404SOL     OW24844   3.245   0.680  14.078  0.4528 -0.5160 -0.7519
 4404SOL    HW124845   3.210   0.592  14.064 -0.0958 -0.0819 -2.1128
 4404SOL    HW224846   3.161   0.723  14.092  0.3293 -0.1808 -2.4454
 4405SOL     OW24847   2.674   3.480   5.377 -0.4465  0.9719  0.2119
 4405SOL    HW124848   2.580   3.467   5.370 -0.1108 -1.8755  1.2276
 4405SOL    HW224849   2.677   3.546   5.308  0.7600 -0.0675 -0.7258
 4406SOL     OW24850   4.561   0.696   4.918 -0.7304 -0.2561 -0.1479
 4406SOL    HW124851   4.470   0.705   4.944 -0.0244  1.8612  1.5371
 4406SOL    HW224852   4.570   0.779   4.871  0.4474  0.0089  0.5356
 4407SOL     OW24853   0.905   3.748   4.555  0.0771 -0.5012 -0.1083
 4407SOL    HW124854   0.813   3.771   4.567  0.3319 -0.6276  1.9247
 4407SOL    HW224855   0.912   3.663   4.598  0.6869 -1.7215 -2.5922
 4408SOL     OW24856   4.523   3.686   5.092 -0.4687  0.6951  0.4105
 4408SOL    HW124857   4.563   3.761   5.137 -0.4352  1.2200 -0.5029
 4408SOL    HW224858   4.576   3.618   5.135 -0.1970  0.3968 -0.4119
 4409SOL     OW24859   1.090   0.563  16.543 -0.3257 -0.3925 -0.2156
 4409SOL    HW124860   1.020   0.573  16.480  0.7735  1.2967 -1.1677
 4409SOL    HW224861   1.057   0.499  16.606 -0.2474 -0.6694 -0.4563
 4410SOL     OW24862   1.203   4.633   6.906  0.4162  0.4285  0.2039
 4410SOL    HW124863   1.195   4.728   6.909 -2.5664  0.0723  2.7410
 4410SOL    HW224864   1.131   4.618   6.967  0.0582 -0.5539 -0.4643
 4411SOL     OW24865   3.005   3.100   8.070  0.2246 -0.3263 -0.4100
 4411SOL    HW124866   2.953   3.174   8.038 -0.6152 -0.7203  0.0449
 4411SOL    HW224867   3.052   3.143   8.142 -1.3436  1.1560 -0.2686
 4412SOL     OW24868   4.464   0.030   3.940  0.1152  0.2113  0.0975
 4412SOL    HW124869   4.486   4.689   3.985 -0.7147  1.1109  2.1596
 4412SOL    HW224870   4.384   0.002   3.896  1.6901 -1.2823 -1.7957
 4413SOL     OW24871   3.084   2.685   6.732  0.6348 -0.4719 -0.2076
 4413SOL    HW124872   3.152   2.706   6.797  0.0456  2.1085 -0.4482
 4413SOL    HW224873   3.012   2.666   6.793  0.6080  1.0642  0.2499
 4414SOL     OW24874   2.627   4.168   1.900 -0.0357  0.2806 -0.2594
 4414SOL    HW124875   2.567   4.095   1.916  1.3870 -1.0021 -0.7903
 4414SOL    HW224876   2.593   4.194   1.814 -0.1085  0.7786 -0.0803
 4415SOL     OW24877   4.293   0.863  14.921  0.5869 -0.3122  0.1975
 4415SOL    HW124878   4.240   0.850  14.843  0.4634  1.2806  0.0021
 4415SOL    HW224879   4.263   0.944  14.962  1.2730  0.3442 -0.5871
 4416SOL     OW24880   2.858   2.118   6.371  0.3852  0.3001 -0.3639
 4416SOL    HW124881   2.915   2.137   6.445 -0.0157  1.4578 -0.3493
 4416SOL    HW224882   2.906   2.044   6.334 -0.6890 -0.1595 -0.8368
 4417SOL     OW24883   2.034   1.411   7.038 -0.9075 -0.1313 -0.3324
 4417SOL    HW124884   2.075   1.490   7.001  3.3474 -1.4969  1.4943
 4417SOL    HW224885   2.054   1.344   6.973 -2.8048  0.2966 -1.3502
 4418SOL     OW24886   0.478   3.501   2.164 -0.0970  0.2849 -0.6191
 4418SOL    HW124887   0.461   3.581   2.115  0.9016 -0.5716 -2.3371
 4418SOL    HW224888   0.416   3.439   2.127 -0.1397  0.6587 -1.1606
 4419SOL     OW24889   2.442   2.051   9.275  0.1647  0.3134  0.4226
 4419SOL    HW124890   2.391   2.130   9.295 -0.9286 -0.4574  0.6600
 4419SOL    HW224891   2.469   2.020   9.362 -1.0855  0.0440  0.7255
 4420SOL     OW24892   0.594   1.059   2.141 -0.3467  0.4122  0.2450
 4420SOL    HW124893   0.674   1.008   2.126  0.5974  1.7122  0.9463
 4420SOL    HW224894   0.573   1.012   2.222 -1.0765 -0.8850 -0.6839
 4421SOL     OW24895   3.331   1.784   7.195  0.2405  0.6067  0.2297
 4421SOL    HW124896   3.257   1.840   7.172 -1.0753 -1.8216 -1.4539
 4421SOL    HW224897   3.379   1.824   7.267  2.2060 -0.7666 -0.3225
 4422SOL     OW24898   4.311   3.032   0.953 -0.3467  0.5451  0.0824
 4422SOL    HW124899   4.237   3.077   0.992 -0.0110  2.1359 -1.1006
 4422SOL    HW224900   4.300   2.943   0.986 -1.6640  0.1461 -1.4247
 4423SOL     OW24901   1.342   0.608   2.880  0.0585  0.4423  0.0528
 4423SOL    HW124902   1.306   0.523   2.903  0.8586  0.4984  1.4767
 4423SOL    HW224903   1.427   0.615   2.924  0.2341  0.2905 -0.2557
 4424SOL     OW24904   2.650   3.161   3.573  0.4101  0.1296  0.9041
 4424SOL    HW124905   2.616   3.134   3.658  1.5659  1.6056  1.8528
 4424SOL    HW224906   2.685   3.077   3.545  3.9197  1.7473  0.3395
 4425SOL     OW24907   0.422   0.876   7.599  0.5233  0.2429  0.2361
 4425SOL    HW124908   0.357   0.813   7.568  1.2316 -0.1620 -0.4292
 4425SOL    HW224909   0.435   0.934   7.524 -0.3592 -0.5743 -0.5393
 4426SOL     OW24910   0.333   1.044  12.019 -0.3045 -0.0658  0.3510
 4426SOL    HW124911   0.324   1.131  12.057  1.8319 -0.5416  1.9407
 4426SOL    HW224912   0.375   0.996  12.091 -1.8412  0.3628  1.5238
 4427SOL     OW24913   0.193   1.916   8.732 -0.0907  0.0041 -0.0481
 4427SOL    HW124914   0.153   2.000   8.711 -1.6003  0.6370  5.2070
 4427SOL    HW224915   0.244   1.937   8.811 -0.1461 -0.8789  0.2239
 4428SOL     OW24916   2.066   0.585   9.857 -0.3304 -0.3022 -0.7018
 4428SOL    HW124917   2.045   0.523   9.788 -2.1972  0.9674 -1.2611
 4428SOL    HW224918   2.076   0.662   9.800 -1.3785 -0.8195 -1.5771
 4429SOL     OW24919   2.752   3.365  14.603 -0.3318  0.1415 -0.6562
 4429SOL    HW124920   2.795   3.287  14.637 -1.5556 -0.1175  0.3111
 4429SOL    HW224921   2.725   3.333  14.517 -0.1841 -2.6677  0.3344
 4430SOL     OW24922   1.163   1.786   9.697 -0.0700  0.6808 -0.0354
 4430SOL    HW124923   1.246   1.819   9.733 -0.5325  0.1781  1.5002
 4430SOL    HW224924   1.116   1.864   9.670  1.8393  1.3417 -1.4882
 4431SOL     OW24925   3.200   0.543   2.335 -0.1344  0.3978 -0.1092
 4431SOL    HW124926   3.230   0.478   2.271  1.4594  0.7234  0.3016
 4431SOL    HW224927   3.238   0.623   2.298 -2.0304 -0.0369 -3.0175
 4432SOL     OW24928   0.474   4.453  10.333  0.5776 -0.3919 -0.3010
 4432SOL    HW124929   0.566   4.433  10.318  0.7872  0.7649 -0.4987
 4432SOL    HW224930   0.426   4.372  10.354  0.9009 -0.1702  1.2711
 4433SOL     OW24931   2.933   0.610   5.116  0.1641 -0.1088 -0.0629
 4433SOL    HW124932   3.017   0.636   5.078  0.5804  0.5876  1.3297
 4433SOL    HW224933   2.887   0.684   5.076 -0.0365  0.3553  1.0320
 4434SOL     OW24934   1.246   3.786   4.178  0.0054  0.2054  0.1778
 4434SOL    HW124935   1.158   3.753   4.196  0.3326 -1.0544 -0.4923
 4434SOL    HW224936   1.282   3.758   4.263  0.2458 -0.2824 -0.0830
 4435SOL     OW24937   3.946   0.473  17.342 -0.2731  0.2861 -0.3199
 4435SOL    HW124938   4.029   0.427  17.343 -1.0696 -1.1323  2.1471
 4435SOL    HW224939   3.980   0.559  17.317 -0.2194 -0.0998 -1.5431
 4436SOL     OW24940   4.557   1.010   2.723  0.2959 -0.1237  0.3689
 4436SOL    HW124941   4.483   0.988   2.780 -0.7086  0.0231 -0.8975
 4436SOL    HW224942   4.589   1.081   2.780 -1.7893  0.1853  1.1445
 4437SOL     OW24943   3.853   3.773  16.311  0.4408  0.6532  0.4707
 4437SOL    HW124944   3.879   3.845  16.368 -0.3196  1.1891  0.1482
 4437SOL    HW224945   3.821   3.714  16.379 -0.2563  0.1594 -0.2760
 4438SOL     OW24946   1.050   4.709  15.808  0.4795  0.7080  0.2863
 4438SOL    HW124947   1.125   0.028  15.808  0.9994  0.0351  3.3031
 4438SOL    HW224948   1.090   4.625  15.825  3.0826  1.8973  0.0588
 4439SOL     OW24949   0.638   0.373   7.285 -0.4186 -0.2137 -0.0357
 4439SOL    HW124950   0.558   0.334   7.251 -0.6056 -0.4678  0.7063
 4439SOL    HW224951   0.601   0.442   7.339 -1.1722 -0.1415 -0.6392
 4440SOL     OW24952   1.597   2.008  12.709  0.8097 -0.4484 -0.0842
 4440SOL    HW124953   1.652   2.062  12.652  1.9201 -2.2136 -0.7063
 4440SOL    HW224954   1.661   1.973  12.772  0.8648  0.3556  0.3037
 4441SOL     OW24955   2.201   1.833   4.948  0.3352 -0.0530 -0.2395
 4441SOL    HW124956   2.269   1.768   4.930 -0.0301  0.3475 -2.9790
 4441SOL    HW224957   2.205   1.825   5.043 -1.2483 -0.8929 -0.2328
 4442SOL     OW24958   4.559   0.824   3.588 -0.2531  0.0647  0.2125
 4442SOL    HW124959   4.617   0.866   3.652  0.2415 -0.5595  0.1773
 4442SOL    HW224960   4.557   0.737   3.630  1.0323  0.3432  0.8432
 4443SOL     OW24961   2.418   1.233   8.324  0.3944  0.3779  0.1244
 4443SOL    HW124962   2.407   1.145   8.288  1.1772 -0.6214  2.3195
 4443SOL    HW224963   2.349   1.276   8.273 -0.1078  0.2851  0.7173
 4444SOL     OW24964   2.137   0.556   1.930 -0.4516 -0.3338 -0.6409
 4444SOL    HW124965   2.157   0.590   2.017 -4.1908  1.1854 -0.3697
 4444SOL    HW224966   2.226   0.557   1.895  0.0250 -0.8352  0.5754
 4445SOL     OW24967   3.586   3.082  15.315 -0.2642  0.6101  0.4790
 4445SOL    HW124968   3.675   3.094  15.282 -1.2243  1.1596 -1.9360
 4445SOL    HW224969   3.592   3.011  15.379  1.2539 -0.2151 -0.5913
 4446SOL     OW24970   0.262   3.190   8.750 -0.1774  0.6258 -0.3596
 4446SOL    HW124971   0.280   3.208   8.842 -3.9534  3.0260 -0.0589
 4446SOL    HW224972   0.167   3.182   8.742 -0.0642 -0.4935 -0.5575
 4447SOL     OW24973   3.093   2.140   9.645 -0.3505  0.0178  0.1626
 4447SOL    HW124974   3.119   2.076   9.579  1.1734 -0.4261  1.1929
 4447SOL    HW224975   3.073   2.080   9.717 -2.9387 -0.9639 -1.3660
 4448SOL     OW24976   1.293   0.338   4.552 -0.0991 -0.3804 -0.2385
 4448SOL    HW124977   1.287   0.248   4.520 -1.9588 -0.4313  0.2907
 4448SOL    HW224978   1.339   0.324   4.635 -1.1122  2.1158  0.7547
 4449SOL     OW24979   1.743   1.859  16.205 -0.3408 -0.1951 -0.5007
 4449SOL    HW124980   1.678   1.792  16.225  2.0254 -1.9503  1.3278
 4449SOL    HW224981   1.692   1.931  16.169  0.7534 -0.1403 -1.9219
 4450SOL     OW24982   3.018   3.177   3.164 -0.3794 -0.8365 -0.5197
 4450SOL    HW124983   2.972   3.179   3.080 -3.1668 -1.4367  0.9887
 4450SOL    HW224984   3.039   3.084   3.165  0.4096 -0.6447  1.4356
 4451SOL     OW24985   3.183   3.975  17.233  0.7074  0.4466 -0.3243
 4451SOL    HW124986   3.241   4.032  17.183  0.1377 -0.1080 -1.6227
 4451SOL    HW224987   3.171   4.021  17.316  0.6148 -0.0793 -0.0440
 4452SOL     OW24988   3.886   3.839  15.854 -0.0589 -0.2124 -0.5066
 4452SOL    HW124989   3.814   3.875  15.802  0.5503  1.9602  0.1798
 4452SOL    HW224990   3.930   3.918  15.885 -1.3487  0.2296  0.1927
 4453SOL     OW24991   2.643   4.589   9.569  0.0874 -0.3621  0.3488
 4453SOL    HW124992   2.698   4.591   9.491 -0.0954 -0.2712  0.2222
 4453SOL    HW224993   2.680   4.514   9.615  2.1550  1.4192  1.5559
 4454SOL     OW24994   4.262   2.560   3.311  0.3109  0.2845 -0.3079
 4454SOL    HW124995   4.300   2.516   3.234 -2.5764 -1.9648 -0.4530
 4454SOL    HW224996   4.219   2.634   3.268  0.3101  0.7992  0.5847
 4455SOL     OW24997   3.709   3.468   2.494 -0.4113 -0.1164  0.3224
 4455SOL    HW124998   3.671   3.393   2.449 -1.7169  0.9402 -0.3373
 4455SOL    HW224999   3.801   3.463   2.468  0.0538  3.6423  1.1287
 4456SOL     OW25000   1.479   3.626   5.802  0.1049  0.1692 -0.1866
 4456SOL    HW125001   1.566   3.658   5.826 -0.4624  3.7416 -2.9760
 4456SOL    HW225002   1.486   3.534   5.827  1.4462  0.1687 -0.5680
 4457SOL     OW25003   2.719   4.423   6.830 -0.4334  0.5546  0.1667
 4457SOL    HW125004   2.645   4.468   6.789 -0.7739 -1.1445 -1.0653
 4457SOL    HW225005   2.782   4.415   6.759 -0.1610 -0.5352  0.5276
 4458SOL     OW25006   2.423   2.810  17.538 -0.4922  0.9557  0.3718
 4458SOL    HW125007   2.340   2.845  17.572 -1.0914 -1.3596  1.3238
 4458SOL    HW225008   2.400   2.785  17.449  1.0879 -2.3290  0.8778
 4459SOL     OW25009   1.685   3.049   7.445 -0.7612 -0.0134 -0.2747
 4459SOL    HW125010   1.756   3.107   7.418 -0.1189  0.6955  2.9599
 4459SOL    HW225011   1.623   3.108   7.488 -2.5173 -2.7389  0.9870
 4460SOL     OW25012   4.698   3.929  17.669  0.7023  0.1422 -0.1694
 4460SOL    HW125013   4.732   3.922  17.758 -3.0912 -4.2686  0.9880
 4460SOL    HW225014   0.004   3.855  17.630 -1.7237 -0.2796 -2.3591
 4461SOL     OW25015   3.966   2.269   3.382  0.0087  0.0168  0.2118
 4461SOL    HW125016   4.027   2.200   3.357  1.1397  1.1258 -0.0624
 4461SOL    HW225017   3.957   2.328   3.307  1.2584 -0.6141 -0.4391
 4462SOL     OW25018   0.464   2.798   2.738 -0.1564  0.2266  0.0105
 4462SOL    HW125019   0.452   2.712   2.698 -0.2910  0.2703 -0.0433
 4462SOL    HW225020   0.480   2.858   2.665  0.8525  0.0625  0.1020
 4463SOL     OW25021   0.408   0.777   0.490 -0.4796  0.6396 -0.5099
 4463SOL    HW125022   0.357   0.796   0.569 -0.3079 -1.2724  0.0622
 4463SOL    HW225023   0.392   0.683   0.481 -0.1209  0.2559  2.8553
 4464SOL     OW25024   0.707   3.437   1.860 -0.3597 -0.5300 -0.1842
 4464SOL    HW125025   0.707   3.531   1.844 -0.8439 -0.2938  1.1624
 4464SOL    HW225026   0.799   3.411   1.857 -0.9847 -2.7359 -0.5644
 4465SOL     OW25027   0.769   0.626   0.798 -0.2361  0.0353 -0.2093
 4465SOL    HW125028   0.766   0.708   0.749 -1.5640  0.0782 -0.0565
 4465SOL    HW225029   0.676   0.607   0.786  0.1309 -1.0978 -1.2534
 4466SOL     OW25030   0.708   2.845   7.151  0.1033  0.0030  0.1668
 4466SOL    HW125031   0.704   2.787   7.227  0.9234  0.2806  0.4231
 4466SOL    HW225032   0.724   2.780   7.083  1.9238  1.8241 -1.1647
 4467SOL     OW25033   2.474   2.912   9.127  0.3238 -0.1586  0.0765
 4467SOL    HW125034   2.493   2.926   9.034  0.1792  1.8225  0.3562
 4467SOL    HW225035   2.522   2.979   9.175  1.4707 -0.3620 -0.7939
 4468SOL     OW25036   3.231   4.096  13.518 -0.6999 -0.3048  0.4178
 4468SOL    HW125037   3.262   4.050  13.441 -1.4319  1.9287 -1.2164
 4468SOL    HW225038   3.286   4.043  13.576  1.9473  1.0485 -0.8874
 4469SOL     OW25039   1.468   3.601   4.639  0.2852  0.2963 -0.3226
 4469SOL    HW125040   1.478   3.631   4.730 -0.3604 -1.2909  0.2790
 4469SOL    HW225041   1.377   3.573   4.645  0.1639  0.5339 -1.0521
 4470SOL     OW25042   1.664   1.219   6.124  1.0859 -0.1625  0.3570
 4470SOL    HW125043   1.629   1.159   6.058 -1.6230  0.8958  0.8435
 4470SOL    HW225044   1.643   1.309   6.099  0.1522  0.4711  3.3814
 4471SOL     OW25045   4.022   0.603   2.925  0.0275 -0.6178  0.3579
 4471SOL    HW125046   4.107   0.588   2.966  1.5544 -0.1534 -2.6760
 4471SOL    HW225047   3.979   0.669   2.980 -0.1512  0.1408 -0.7016
 4472SOL     OW25048   0.879   4.381   7.495  0.1794  0.3446 -0.2945
 4472SOL    HW125049   0.797   4.379   7.545  1.5783  1.4805  2.0376
 4472SOL    HW225050   0.888   4.474   7.475 -0.0337  0.4194 -0.0364
 4473SOL     OW25051   0.016   1.128   6.347 -0.4216 -0.0111 -0.6684
 4473SOL    HW125052   0.018   1.219   6.377 -3.5249 -0.3452  0.6148
 4473SOL    HW225053   0.104   1.108   6.318 -0.5213 -0.9613 -0.3409
 4474SOL     OW25054   3.100   3.075   7.155  0.7009 -0.1854 -0.3452
 4474SOL    HW125055   3.181   3.069   7.105 -0.0099 -1.3193 -1.3381
 4474SOL    HW225056   3.073   3.165   7.137 -1.1179 -1.2668 -2.9166
 4475SOL     OW25057   2.699   2.458  11.094  0.1481  0.2196 -0.2010
 4475SOL    HW125058   2.760   2.453  11.168  0.3784  0.0025 -0.4095
 4475SOL    HW225059   2.674   2.550  11.103  1.2091  0.7797 -2.9485
 4476SOL     OW25060   1.035   0.239   4.948 -0.0136 -0.5999 -0.3371
 4476SOL    HW125061   1.049   0.146   4.932 -0.3870 -0.9035  1.1637
 4476SOL    HW225062   1.042   0.250   5.043  0.4803 -0.4505 -0.3879
 4477SOL     OW25063   1.456   1.715  11.117  0.4411 -0.1355 -0.0170
 4477SOL    HW125064   1.363   1.709  11.094  0.2785 -0.7172  0.8220
 4477SOL    HW225065   1.486   1.768  11.043  1.2375 -0.8086 -0.1732
 4478SOL     OW25066   3.988   2.118  15.411 -0.4762  0.4640  0.0510
 4478SOL    HW125067   4.037   2.058  15.355  0.0717  1.7237 -0.8213
 4478SOL    HW225068   3.899   2.107  15.376 -1.3539 -0.6941  2.6732
 4479SOL     OW25069   1.193   4.392   9.761 -0.5316  0.3668 -0.8198
 4479SOL    HW125070   1.229   4.472   9.723  0.1408  0.5649  0.2098
 4479SOL    HW225071   1.210   4.392   9.856 -0.8431  0.6545 -0.7633
 4480SOL     OW25072   4.093   1.103  12.159 -0.3077  0.0948 -0.2893
 4480SOL    HW125073   4.102   1.138  12.248 -1.0680  1.4165 -0.7325
 4480SOL    HW225074   4.151   1.160  12.110 -0.3460 -0.5843 -1.1225
 4481SOL     OW25075   2.733   1.040   7.878  0.5073  0.2034 -0.1348
 4481SOL    HW125076   2.803   1.010   7.935  0.5990  1.2960  0.3385
 4481SOL    HW225077   2.684   0.960   7.858 -0.4996  1.2120 -1.6977
 4482SOL     OW25078   2.671   2.429   2.069  0.4216 -0.2541  0.0670
 4482SOL    HW125079   2.629   2.494   2.013 -2.3363 -2.5545 -0.5101
 4482SOL    HW225080   2.608   2.423   2.142 -2.7051  1.0461 -2.5140
 4483SOL     OW25081   1.200   0.884   3.744 -0.0147 -0.1242 -0.1408
 4483SOL    HW125082   1.145   0.916   3.672  0.0513  0.0252 -0.1250
 4483SOL    HW225083   1.293   0.894   3.721  0.1056 -0.5430  0.1596
 4484SOL     OW25084   4.104   3.111  10.691  0.3405  0.6362 -0.4576
 4484SOL    HW125085   4.147   3.185  10.733 -0.0279 -0.4953  1.9169
 4484SOL    HW225086   4.186   3.067  10.669 -1.0643 -0.8461 -2.7532
 4485SOL     OW25087   0.152   3.064   3.636  0.1460  0.4935  0.4366
 4485SOL    HW125088   0.207   2.992   3.606 -0.8762  0.1573 -0.5983
 4485SOL    HW225089   0.210   3.140   3.641 -0.7190  1.1316  0.7852
 4486SOL     OW25090   2.328   2.248   9.533  0.6595 -0.0868  0.2046
 4486SOL    HW125091   2.323   2.257   9.628  1.7056 -1.0530  0.3599
 4486SOL    HW225092   2.241   2.223   9.504  1.8675 -2.8514 -1.0188
 4487SOL     OW25093   1.520   3.217   2.828  1.2214  0.0786 -0.2949
 4487SOL    HW125094   1.430   3.225   2.860  1.5238  2.3158 -0.0067
 4487SOL    HW225095   1.567   3.218   2.911 -0.0066  0.2366  0.4028
 4488SOL     OW25096   4.347   0.061   5.544  0.0865 -0.2655 -0.2603
 4488SOL    HW125097   4.253   0.047   5.561  0.2642 -2.4776 -1.1495
 4488SOL    HW225098   4.367   0.134   5.602  0.2512 -0.5342  0.0179
 4489SOL     OW25099   4.374   3.433   1.059  0.1131 -0.4963 -0.6169
 4489SOL    HW125100   4.359   3.408   1.150 -0.8833  0.4323 -0.5198
 4489SOL    HW225101   4.287   3.437   1.020  0.0139  0.9402 -0.2533
 4490SOL     OW25102   2.742   2.930   3.164  0.0670 -0.2850  0.7028
 4490SOL    HW125103   2.744   2.975   3.248 -2.1969 -1.5266  1.4348
 4490SOL    HW225104   2.770   2.841   3.186  0.8963  0.0954  1.1962
 4491SOL     OW25105   3.384   4.067   8.341  0.0417 -1.0030 -0.0484
 4491SOL    HW125106   3.463   4.070   8.287 -0.8472  1.4065 -1.2393
 4491SOL    HW225107   3.318   4.062   8.272 -0.4484 -1.7534  0.4742
 4492SOL     OW25108   3.209   4.309   2.058  0.3437  0.0542  0.0566
 4492SOL    HW125109   3.158   4.382   2.094  1.5488  0.7472  0.3617
 4492SOL    HW225110   3.288   4.338   2.103  0.6795  0.7594 -1.0007
 4493SOL     OW25111   0.543   3.870   0.080  0.2966 -0.1780  0.6259
 4493SOL    HW125112   0.454   3.838   0.091 -0.6582  2.7576  1.4295
 4493SOL    HW225113   0.577   3.857   0.168  1.0223  0.4225  0.4375
 4494SOL     OW25114   3.857   1.866   7.976  0.4279 -0.4180  0.5245
 4494SOL    HW125115   3.816   1.783   8.000 -0.5109  0.2197  1.1306
 4494SOL    HW225116   3.941   1.879   8.020  0.7067 -1.6813  0.3568
 4495SOL     OW25117   3.678   2.619   0.689  0.0254  0.3733 -0.0016
 4495SOL    HW125118   3.734   2.687   0.651 -0.6509  1.5315  1.0702
 4495SOL    HW225119   3.619   2.595   0.617  0.5224 -0.4789 -0.1308
 4496SOL     OW25120   2.010   2.039   6.533  0.2743  0.5263 -0.4408
 4496SOL    HW125121   2.078   2.009   6.594  0.7203  2.7010  0.1061
 4496SOL    HW225122   2.048   2.027   6.445 -1.5530  1.8800 -1.4128
 4497SOL     OW25123   4.383   4.078   6.251 -0.0395  0.2458 -0.0282
 4497SOL    HW125124   4.460   4.134   6.237  0.1679  0.4461  1.9359
 4497SOL    HW225125   4.364   4.053   6.160 -2.1562 -0.9265  0.7392
 4498SOL     OW25126   1.613   3.136  11.847 -0.2089  0.1884 -0.8284
 4498SOL    HW125127   1.541   3.084  11.811 -0.5262  0.0461  0.0104
 4498SOL    HW225128   1.601   3.125  11.941 -1.1703 -1.4281 -1.1500
 4499SOL     OW25129   4.450   0.183   2.860  0.2345 -0.3265  0.5140
 4499SOL    HW125130   4.375   0.131   2.889 -0.0006 -0.5053 -0.4151
 4499SOL    HW225131   4.471   0.218   2.946  2.4768 -0.8666  0.1996
 4500SOL     OW25132   0.286   2.625  16.392  0.0250 -0.0416  0.3692
 4500SOL    HW125133   0.312   2.698  16.449 -1.1049  0.3063  0.4514
 4500SOL    HW225134   0.355   2.630  16.327  0.4721  0.5801  0.8863
 4501SOL     OW25135   4.115   4.100   2.140  0.1541  0.0762 -0.1690
 4501SOL    HW125136   4.066   4.067   2.065 -0.1415 -0.7072  0.3679
 4501SOL    HW225137   4.046   4.150   2.182 -1.0517 -0.9446 -0.9329
 4502SOL     OW25138   2.834   2.380   0.317  0.3393  0.2140  0.1151
 4502SOL    HW125139   2.764   2.444   0.301  1.4626  1.4799  0.2800
 4502SOL    HW225140   2.796   2.336   0.393 -0.4686  1.5370  0.4873
 4503SOL     OW25141   1.124   3.838   8.876 -0.0521  0.6763 -0.0801
 4503SOL    HW125142   1.197   3.890   8.842 -0.1048  1.0878  0.4331
 4503SOL    HW225143   1.121   3.762   8.817  0.2754 -0.1569  0.9795
 4504SOL     OW25144   1.235   1.775   2.579 -0.0890  0.3391 -0.3061
 4504SOL    HW125145   1.244   1.694   2.629 -0.9349 -0.4612 -1.4511
 4504SOL    HW225146   1.304   1.759   2.514  1.3308 -0.5062  1.4257
 4505SOL     OW25147   2.929   0.964   8.064  0.0834 -0.5602 -0.1649
 4505SOL    HW125148   2.871   0.981   8.138 -0.1760  1.3445 -0.7985
 4505SOL    HW225149   2.984   1.040   8.047  0.7099 -0.9918 -0.0792
 4506SOL     OW25150   2.529   0.023  10.833 -0.1324  0.2830 -0.8813
 4506SOL    HW125151   2.466   4.733  10.898  0.9622  2.2528  1.1146
 4506SOL    HW225152   2.528   0.119  10.841 -1.3330  0.2553 -0.6118
 4507SOL     OW25153   4.461   4.440   2.815  0.2373 -0.2552 -0.2286
 4507SOL    HW125154   4.398   4.481   2.756  0.3946  0.3510  0.0245
 4507SOL    HW225155   4.538   4.414   2.763  1.0829  0.3931  0.6986
 4508SOL     OW25156   3.159   2.538  15.759 -0.0534  0.2459 -0.2775
 4508SOL    HW125157   3.211   2.492  15.825 -0.6787 -0.5736 -0.3673
 4508SOL    HW225158   3.069   2.518  15.786  1.6969 -2.4418  3.5872
 4509SOL     OW25159   4.528   1.968  11.654  0.2812 -0.1482  1.0597
 4509SOL    HW125160   4.545   1.877  11.627  0.3907  0.4530 -0.8868
 4509SOL    HW225161   4.606   2.013  11.620  1.0049  0.1314  3.0734
 4510SOL     OW25162   4.258   2.878   2.637  0.5678  0.5247  0.6302
 4510SOL    HW125163   4.341   2.835   2.614  0.4900  1.1207 -0.7418
 4510SOL    HW225164   4.203   2.831   2.575  2.1566  0.2439 -0.5732
 4511SOL     OW25165   3.477   0.956   3.627  0.3264  0.3683  0.4351
 4511SOL    HW125166   3.411   0.914   3.573  2.6437  1.8331 -3.5876
 4511SOL    HW225167   3.555   0.902   3.611 -0.9086 -0.6596 -2.1284
 4512SOL     OW25168   1.818   1.659   4.479 -0.1286 -0.3313 -0.0918
 4512SOL    HW125169   1.775   1.716   4.415  0.3441  1.6509  1.3447
 4512SOL    HW225170   1.758   1.585   4.472 -1.8324  0.9524  0.7653
 4513SOL     OW25171   4.388   4.119   6.672  0.3077 -0.2058 -0.0123
 4513SOL    HW125172   4.416   4.177   6.743 -0.9130  2.3740 -1.6033
 4513SOL    HW225173   4.377   4.180   6.598 -1.1065 -0.5788 -0.1175
 4514SOL     OW25174   2.638   2.843  15.175  0.0772 -0.8068 -0.0258
 4514SOL    HW125175   2.702   2.862  15.244  0.8028  4.2831 -2.1193
 4514SOL    HW225176   2.553   2.855  15.217 -0.3615 -0.2662 -1.0739
 4515SOL     OW25177   1.135   1.590   9.510  0.3238 -0.4587 -0.0348
 4515SOL    HW125178   1.162   1.500   9.527 -0.5403 -0.7859 -0.4009
 4515SOL    HW225179   1.149   1.616   9.601  0.5890 -1.9718  0.3649
 4516SOL     OW25180   2.156   1.733   6.424  0.1966  0.1854  0.3139
 4516SOL    HW125181   2.203   1.702   6.346 -0.8367  0.4874 -0.4261
 4516SOL    HW225182   2.217   1.788   6.474  1.8795 -3.1236  1.9455
 4517SOL     OW25183   0.423   0.076  17.672  0.3029 -0.3191 -0.2292
 4517SOL    HW125184   0.403   0.000  17.616 -0.1980  1.2877 -2.2142
 4517SOL    HW225185   0.512   0.103  17.651 -0.0196  1.7354  1.0343
 4518SOL     OW25186   0.981   0.665   2.228 -0.1809  0.1206 -0.2943
 4518SOL    HW125187   0.933   0.588   2.257 -1.7053  1.7092  1.4379
 4518SOL    HW225188   1.068   0.636   2.256 -0.1088  0.7845  0.1653
 4519SOL     OW25189   4.717   2.564   7.810 -0.1610 -0.4265 -0.1650
 4519SOL    HW125190   4.727   2.659   7.802  1.2467 -0.5560  0.0215
 4519SOL    HW225191   4.658   2.557   7.886 -0.1422  0.6959 -0.0500
 4520SOL     OW25192   1.537   1.508  11.245  0.2803  0.9975  0.0176
 4520SOL    HW125193   1.611   1.553  11.284  0.4718  0.2709  0.4998
 4520SOL    HW225194   1.496   1.578  11.195  0.9549  1.0375 -0.4822
 4521SOL     OW25195   0.479   2.639   2.506 -1.0683 -0.1294 -0.1964
 4521SOL    HW125196   0.497   2.553   2.543 -3.0853 -1.1375 -1.5356
 4521SOL    HW225197   0.558   2.660   2.455 -0.4719  0.4164  0.9572
 4522SOL     OW25198   3.208   3.480   5.314  0.4276  0.0413 -0.3666
 4522SOL    HW125199   3.184   3.571   5.293  0.8542  0.7582  2.2992
 4522SOL    HW225200   3.205   3.438   5.228 -1.7829 -2.2248  0.8356
 4523SOL     OW25201   2.884   2.033   7.928 -0.4834  0.6703 -0.0922
 4523SOL    HW125202   2.810   2.076   7.885 -1.1809 -0.7611 -0.3299
 4523SOL    HW225203   2.960   2.049   7.872  0.3064 -2.8663 -0.0205
 4524SOL     OW25204   2.523   4.380   3.084 -0.6526 -0.0603 -0.3544
 4524SOL    HW125205   2.475   4.456   3.117  1.1584  0.9559 -0.0322
 4524SOL    HW225206   2.455   4.320   3.054  0.1536 -0.9579 -0.3772
 4525SOL     OW25207   1.024   1.880   3.350  1.0233 -0.6310 -0.6237
 4525SOL    HW125208   0.963   1.806   3.362 -0.4943  0.2155 -3.0160
 4525SOL    HW225209   1.078   1.851   3.276  0.1448  0.9652 -1.9017
 4526SOL     OW25210   2.806   0.424  12.556  0.2618 -0.2825 -0.4882
 4526SOL    HW125211   2.868   0.424  12.483  0.7525 -0.6769 -0.0740
 4526SOL    HW225212   2.730   0.378  12.520 -0.1595  0.0745 -0.0751
 4527SOL     OW25213   0.732   3.857   4.248 -0.4430 -0.4590  0.0951
 4527SOL    HW125214   0.743   3.784   4.188 -0.5888  0.8654 -1.5356
 4527SOL    HW225215   0.637   3.868   4.247 -0.6242 -1.7735  1.6236
 4528SOL     OW25216   3.055   4.284  11.456  0.2629 -0.1966  0.0397
 4528SOL    HW125217   3.148   4.289  11.479  0.5053 -1.2358 -0.7410
 4528SOL    HW225218   3.065   4.298  11.362  1.8410  1.2645  0.4107
 4529SOL     OW25219   4.486   2.260   8.972  0.1342  0.4301  0.5638
 4529SOL    HW125220   4.399   2.237   8.939  0.0715  2.0975 -0.4551
 4529SOL    HW225221   4.530   2.176   8.964  1.2548  1.1884 -1.3511
 4530SOL     OW25222   0.220   1.041  11.517  0.4035  0.0737  0.2323
 4530SOL    HW125223   0.291   1.060  11.455 -0.5981  0.0868 -0.9151
 4530SOL    HW225224   0.272   1.016  11.593 -0.2712  0.4962  0.8253
 4531SOL     OW25225   0.676   1.687   7.430  0.1708 -0.1785 -0.3151
 4531SOL    HW125226   0.585   1.657   7.440  1.5398 -3.9774  0.4128
 4531SOL    HW225227   0.658   1.760   7.489  0.7379  1.3058 -1.9901
 4532SOL     OW25228   3.366   2.868   2.229  0.7291 -0.1201 -0.2126
 4532SOL    HW125229   3.314   2.803   2.276 -1.7227 -0.1380 -3.0112
 4532SOL    HW225230   3.376   2.826   2.144 -0.7722 -0.8500 -0.0209
 4533SOL     OW25231   1.792   1.883   3.542 -0.5144 -0.8120  0.4274
 4533SOL    HW125232   1.721   1.838   3.496 -1.2519  1.8401 -1.0169
 4533SOL    HW225233   1.750   1.969   3.543  1.1785 -0.0100  2.5514
 4534SOL     OW25234   2.038   2.948  11.711  0.2807 -0.3310  0.1885
 4534SOL    HW125235   1.979   2.883  11.749  0.2161 -0.1803  0.3471
 4534SOL    HW225236   2.104   2.966  11.778 -0.2724  0.5585  0.4961
 4535SOL     OW25237   1.566   3.267   7.595 -0.6666 -0.4509 -0.6120
 4535SOL    HW125238   1.478   3.266   7.558 -0.0969 -0.3716 -1.9670
 4535SOL    HW225239   1.559   3.318   7.676  1.3978 -1.6338  0.3356
 4536SOL     OW25240   0.389   1.598   9.384  0.6773  0.3615  0.1651
 4536SOL    HW125241   0.377   1.619   9.477  1.3582  1.0644  0.0854
 4536SOL    HW225242   0.364   1.506   9.392  0.1508  0.4599 -0.4108
 4537SOL     OW25243   1.954   2.602   6.159  0.4100 -0.3824 -0.6833
 4537SOL    HW125244   2.010   2.563   6.092  1.0629 -0.5407 -0.0348
 4537SOL    HW225245   2.011   2.598   6.235 -1.7237  0.7660  0.9891
 4538SOL     OW25246   2.414   1.602   8.034  0.1075  0.1682 -0.8119
 4538SOL    HW125247   2.369   1.567   7.957 -0.2719 -1.7060  0.2674
 4538SOL    HW225248   2.462   1.526   8.069 -3.2286 -1.3273  0.5076
 4539SOL     OW25249   0.877   0.369   4.250 -0.4067 -0.3885  0.2532
 4539SOL    HW125250   0.950   0.364   4.311  0.4953  0.0573 -0.7902
 4539SOL    HW225251   0.869   0.279   4.219  1.5442 -0.8981  1.2289
 4540SOL     OW25252   0.289   0.147   5.663  0.1562 -0.1236 -0.2257
 4540SOL    HW125253   0.319   0.133   5.573  0.7081 -0.6451  0.0383
 4540SOL    HW225254   0.341   0.083   5.712  0.6590  0.0354 -0.5590
 4541SOL     OW25255   1.476   4.572  12.223  0.0498 -0.3110 -0.2282
 4541SOL    HW125256   1.557   4.601  12.263  0.0752 -3.2630  1.8836
 4541SOL    HW225257   1.501   4.482  12.199 -2.6661 -1.2544  0.4489
 4542SOL     OW25258   1.671   1.809  16.882  0.1753  0.0076  0.4345
 4542SOL    HW125259   1.678   1.755  16.961 -1.1878 -2.1386 -0.8950
 4542SOL    HW225260   1.578   1.795  16.864  0.1008 -0.2739  1.0714
 4543SOL     OW25261   3.703   3.962   8.331 -0.2075  0.3370 -0.2149
 4543SOL    HW125262   3.780   4.002   8.372 -1.0003  2.3957 -0.7544
 4543SOL    HW225263   3.668   4.029   8.272 -1.2861  1.7047  1.9745
 4544SOL     OW25264   0.030   0.425  16.669  0.4282 -0.1701 -0.3133
 4544SOL    HW125265   4.704   0.491  16.684  0.2316 -0.5717  0.5792
 4544SOL    HW225266   0.045   0.433  16.575 -0.4867  2.0306 -0.2677
 4545SOL     OW25267   4.125   3.866   6.783  0.2171 -0.5569 -0.2861
 4545SOL    HW125268   4.037   3.902   6.773  0.2725 -0.5011 -0.5551
 4545SOL    HW225269   4.134   3.804   6.711  0.1363 -3.3409  2.0820
 4546SOL     OW25270   0.217   0.972   9.391 -0.0239 -0.4050  0.0241
 4546SOL    HW125271   0.276   0.970   9.315 -0.0707  2.9710 -0.1166
 4546SOL    HW225272   0.150   0.910   9.365 -0.5349  0.1233  0.0951
 4547SOL     OW25273   0.730   3.937   1.603  0.1489  0.2396  0.0722
 4547SOL    HW125274   0.779   3.938   1.521 -0.1471 -0.9132 -0.1312
 4547SOL    HW225275   0.648   3.977   1.573  0.3185  1.5262  1.3195
 4548SOL     OW25276   3.278   3.015   2.943  0.6973  0.1912  0.3435
 4548SOL    HW125277   3.226   3.091   2.917 -1.1480 -1.5408 -1.0303
 4548SOL    HW225278   3.239   2.998   3.029  2.1380  1.0937  1.1779
 4549SOL     OW25279   2.597   1.723   6.573  0.4054 -0.1576 -0.4106
 4549SOL    HW125280   2.554   1.746   6.490  0.0523 -0.7334 -0.3866
 4549SOL    HW225281   2.632   1.811   6.587 -0.6661  0.2294 -0.1574
 4550SOL     OW25282   2.748   0.943  10.502 -0.5172 -0.3913  0.2626
 4550SOL    HW125283   2.812   0.945  10.430 -0.8835 -1.9942 -0.1021
 4550SOL    HW225284   2.805   0.920  10.576  0.7608  0.8421 -0.3275
 4551SOL     OW25285   1.960   4.479   9.288  0.2518  0.3689  0.2190
 4551SOL    HW125286   1.991   4.433   9.365 -1.4868  0.6839  1.1138
 4551SOL    HW225287   1.895   4.535   9.331 -1.0479  0.1348 -1.4218
 4552SOL     OW25288   0.547   3.455   6.307  0.0981  0.2680 -0.2887
 4552SOL    HW125289   0.568   3.547   6.289 -1.4618  0.2838 -2.0510
 4552SOL    HW225290   0.498   3.463   6.389  1.0136 -0.8672  0.3643
 4553SOL     OW25291   3.001   1.442   3.419  0.0418  0.0565  0.4818
 4553SOL    HW125292   2.958   1.363   3.454 -0.6916  0.9188  1.5396
 4553SOL    HW225293   2.971   1.430   3.329  0.0611 -3.1966  0.8887
 4554SOL     OW25294   2.093   2.276   4.659 -0.2098 -0.2091 -0.6540
 4554SOL    HW125295   2.168   2.300   4.604 -0.2648 -2.3506 -1.6869
 4554SOL    HW225296   2.142   2.270   4.740 -1.1339  1.2218  0.0005
 4555SOL     OW25297   4.062   1.206   0.679 -0.0866 -0.4652  0.0443
 4555SOL    HW125298   4.026   1.175   0.596  3.2793 -1.8724 -0.8862
 4555SOL    HW225299   4.152   1.180   0.662 -0.4542 -0.6697 -1.6569
 4556SOL     OW25300   0.821   1.462  10.480  0.3188 -0.1885 -0.7425
 4556SOL    HW125301   0.916   1.468  10.474  0.3608  1.8458  1.8673
 4556SOL    HW225302   0.813   1.553  10.508  0.3237 -0.3438 -0.2272
 4557SOL     OW25303   0.053   2.524  17.076  0.4019  0.4759 -0.4666
 4557SOL    HW125304   4.727   2.592  17.067  1.2751  1.0301 -2.7827
 4557SOL    HW225305   0.133   2.567  17.045  0.7378 -1.2292 -1.9530
 4558SOL     OW25306   4.553   3.280  16.791 -0.1248  0.4974 -0.2704
 4558SOL    HW125307   4.532   3.236  16.874  0.3074 -0.7500 -0.8161
 4558SOL    HW225308   4.623   3.238  16.741  0.1650 -2.6705  2.7572
 4559SOL     OW25309   2.331   0.565   2.759  0.3076  0.5723  0.4128
 4559SOL    HW125310   2.290   0.590   2.842 -1.5050  0.1912 -0.3684
 4559SOL    HW225311   2.390   0.639   2.744  0.9412 -0.4513 -2.1114
 4560SOL     OW25312   3.483   3.506  13.799  0.0868 -0.3036 -0.3628
 4560SOL    HW125313   3.395   3.494  13.764  0.2382 -1.9598 -0.1860
 4560SOL    HW225314   3.518   3.565  13.732  4.3053  0.5741  2.6595
 4561SOL     OW25315   1.922   3.572   5.049 -0.7966  0.1892  0.0163
 4561SOL    HW125316   1.955   3.601   4.964 -0.3817 -0.2805  0.0195
 4561SOL    HW225317   1.844   3.628   5.049 -0.3725  0.7821  1.8503
 4562SOL     OW25318   0.503   4.282   6.955  0.2935  0.0925  0.1416
 4562SOL    HW125319   0.508   4.187   6.939 -1.5795  0.1838 -0.8629
 4562SOL    HW225320   0.460   4.301   7.039 -0.3033  0.3984 -0.2378
 4563SOL     OW25321   0.120   1.047   7.334 -0.6231 -0.3709  0.1945
 4563SOL    HW125322   0.208   1.013   7.345 -0.7443 -0.7198  0.0679
 4563SOL    HW225323   0.099   1.078   7.422  3.6280 -2.2142  1.8620
 4564SOL     OW25324   0.512   2.148  16.077  0.6455 -0.0736  0.2983
 4564SOL    HW125325   0.511   2.060  16.040  0.7668  0.0322  0.0404
 4564SOL    HW225326   0.436   2.187  16.035  0.3772 -2.0937 -1.0626
 4565SOL     OW25327   3.293   0.459   9.700 -0.7186  0.2386  0.1051
 4565SOL    HW125328   3.269   0.486   9.789  0.8230  0.7076  0.3696
 4565SOL    HW225329   3.205   0.427   9.677 -1.0388  1.6759 -0.6592
 4566SOL     OW25330   0.352   0.122   1.236 -0.5976 -0.8232 -0.1502
 4566SOL    HW125331   0.402   0.094   1.159  1.2572 -0.1677  0.8196
 4566SOL    HW225332   0.291   0.185   1.200  1.2947  1.3688  0.4635
 4567SOL     OW25333   3.407   4.306   4.493  0.4269  0.4397 -0.0216
 4567SOL    HW125334   3.425   4.261   4.575  1.2229  0.6333 -0.0951
 4567SOL    HW225335   3.402   4.229   4.437  1.4393  0.0112  0.4780
 4568SOL     OW25336   0.748   2.086  16.399  0.3243  0.1785  0.0755
 4568SOL    HW125337   0.720   2.068  16.310  1.1846 -0.5156 -0.0581
 4568SOL    HW225338   0.844   2.079  16.398  0.2439 -0.5355 -1.1343
 4569SOL     OW25339   3.629   1.895   9.079 -0.3290  0.1333 -0.7537
 4569SOL    HW125340   3.704   1.838   9.067 -1.9829 -2.6323  2.1568
 4569SOL    HW225341   3.586   1.874   8.995  0.3160 -0.5696 -0.9042
 4570SOL     OW25342   2.114   2.682   1.831 -0.1115 -0.1493 -0.3462
 4570SOL    HW125343   2.190   2.712   1.781  1.4704 -3.1455  0.2157
 4570SOL    HW225344   2.147   2.593   1.844 -1.3331 -0.3692  1.2750
 4571SOL     OW25345   2.833   2.525   5.542  0.1767  0.5630 -0.0771
 4571SOL    HW125346   2.849   2.617   5.521  1.9240 -0.5987 -3.7369
 4571SOL    HW225347   2.916   2.480   5.527 -0.3035 -0.5793  0.7172
 4572SOL     OW25348   0.129   0.064   8.114  0.2925 -0.3535  0.1523
 4572SOL    HW125349   0.087   0.150   8.114 -0.0772 -0.5421  1.6901
 4572SOL    HW225350   0.188   0.072   8.188 -0.8783 -1.3374  1.1969
 4573SOL     OW25351   4.632   3.710   0.324 -0.0359  0.3267  0.3437
 4573SOL    HW125352   4.621   3.615   0.325 -0.1285  0.3357  0.0645
 4573SOL    HW225353   4.543   3.742   0.335  0.5087  1.7681  0.5708
 4574SOL     OW25354   2.333   2.003   2.926  0.3167  0.7789  0.1989
 4574SOL    HW125355   2.406   1.973   2.980 -0.6157  2.1254  2.2101
 4574SOL    HW225356   2.307   1.915   2.899  5.3823 -0.7814  0.3925
 4575SOL     OW25357   1.380   3.245   6.771  0.1651 -0.8692  0.5820
 4575SOL    HW125358   1.450   3.181   6.775 -0.4189 -1.5481  0.0341
 4575SOL    HW225359   1.312   3.180   6.750  0.2194 -1.1672  1.3218
 4576SOL     OW25360   2.865   0.704  15.465  0.1049 -0.4417 -0.2157
 4576SOL    HW125361   2.824   0.620  15.443 -0.3490  0.3173 -2.3083
 4576SOL    HW225362   2.951   0.680  15.500  0.0389 -3.3439 -2.0626
 4577SOL     OW25363   4.202   4.510   8.148 -0.2506  0.7651  0.2834
 4577SOL    HW125364   4.266   4.581   8.154  1.5293 -0.6634 -1.7071
 4577SOL    HW225365   4.132   4.564   8.112 -0.1672  1.8021  1.6561
 4578SOL     OW25366   3.752   1.797  10.095 -0.0154  0.3607 -0.4122
 4578SOL    HW125367   3.775   1.773  10.006  3.0463  2.2565 -0.0969
 4578SOL    HW225368   3.698   1.720  10.116 -0.4302  0.2261 -1.9926
 4579SOL     OW25369   0.547   2.700   6.507  0.6667  0.3740 -0.3579
 4579SOL    HW125370   0.535   2.790   6.539  1.1442  0.6682 -1.0204
 4579SOL    HW225371   0.552   2.653   6.591 -2.3451  1.4700  0.4628
 4580SOL     OW25372   1.730   3.475   0.056  0.1016 -0.1914 -0.5547
 4580SOL    HW125373   1.734   3.391   0.009  1.8742  0.4291 -1.4992
 4580SOL    HW225374   1.793   3.522   0.001 -0.9863  2.6964  0.6826
 4581SOL     OW25375   2.014   4.411   2.186 -0.5315 -0.0998 -0.2334
 4581SOL    HW125376   1.964   4.435   2.107  0.7923 -2.1946 -1.7003
 4581SOL    HW225377   1.950   4.427   2.255  1.1879  1.4710  0.9953
 4582SOL     OW25378   2.152   2.368  10.365 -0.1608 -0.2667  0.0561
 4582SOL    HW125379   2.155   2.286  10.414  2.2913 -0.8241 -1.0108
 4582SOL    HW225380   2.093   2.419  10.420 -1.9149 -1.2987 -0.8364
 4583SOL     OW25381   1.630   0.066   6.400  0.9776  0.0573  0.0996
 4583SOL    HW125382   1.596   0.027   6.481 -1.5146 -0.3214 -1.1642
 4583SOL    HW225383   1.624   0.160   6.418 -0.2351 -0.2936  1.5178
 4584SOL     OW25384   3.989   2.980  14.340 -0.2218 -0.0255 -0.1961
 4584SOL    HW125385   3.925   3.051  14.334 -2.2517 -1.8095  0.1246
 4584SOL    HW225386   4.044   2.993  14.263 -0.1571 -1.2882 -0.3602
 4585SOL     OW25387   1.752   2.008   4.528  0.1248  0.4343  0.4582
 4585SOL    HW125388   1.664   1.984   4.499  1.4208 -2.7006 -0.8773
 4585SOL    HW225389   1.745   2.101   4.547  0.7531  1.0297 -2.2426
 4586SOL     OW25390   1.296   0.138   3.662 -0.1088  0.5240  0.3742
 4586SOL    HW125391   1.312   0.197   3.587 -0.5006 -0.2504 -0.3162
 4586SOL    HW225392   1.259   0.196   3.728 -0.3214  0.4321  0.3352
 4587SOL     OW25393   4.315   1.522   5.574 -0.4776  0.2870  0.3401
 4587SOL    HW125394   4.279   1.561   5.654 -1.5188 -1.1068  0.5411
 4587SOL    HW225395   4.234   1.523   5.523  0.5024 -1.8334 -1.2373
 4588SOL     OW25396   1.370   3.704   9.855 -0.3780  0.0208  0.9502
 4588SOL    HW125397   1.335   3.648   9.786  0.4250 -1.1410  1.5042
 4588SOL    HW225398   1.397   3.785   9.811  0.6070 -0.9717 -0.2736
 4589SOL     OW25399   2.116   3.320  10.936  0.4586 -0.1445  0.5260
 4589SOL    HW125400   2.093   3.233  10.969  0.8253 -0.1745  0.6981
 4589SOL    HW225401   2.035   3.348  10.894  0.7799  0.7631  0.5139
 4590SOL     OW25402   2.089   2.750   6.544  0.0485 -0.0108 -0.7848
 4590SOL    HW125403   2.161   2.718   6.599 -0.3189 -0.6070 -0.6590
 4590SOL    HW225404   2.098   2.684   6.476  0.5137  1.8693 -2.5433
 4591SOL     OW25405   4.200   2.900   8.828 -0.0751 -0.1925  0.8006
 4591SOL    HW125406   4.122   2.848   8.850  0.5267 -0.0221  3.2945
 4591SOL    HW225407   4.262   2.860   8.889  1.9190  2.2745  0.3594
 4592SOL     OW25408   4.428   0.709  17.483  0.5084  0.4492 -0.4333
 4592SOL    HW125409   4.497   0.692  17.418  2.4123 -2.0361  2.2383
 4592SOL    HW225410   4.469   0.762  17.551 -1.9837 -0.5745  1.8763
 4593SOL     OW25411   0.107   2.213   8.917 -0.0807 -0.4134 -0.1268
 4593SOL    HW125412   0.032   2.157   8.937 -1.9377  1.3483 -2.0888
 4593SOL    HW225413   0.107   2.204   8.821 -3.0605  2.1677 -0.3783
 4594SOL     OW25414   1.166   0.290  14.249 -0.1602 -0.2165  0.0366
 4594SOL    HW125415   1.195   0.209  14.293 -1.2167 -0.5871  0.0473
 4594SOL    HW225416   1.076   0.268  14.229 -0.3347  1.1698 -0.6096
 4595SOL     OW25417   0.429   3.237   9.057 -0.4510  0.2743 -0.0579
 4595SOL    HW125418   0.367   3.276   9.119  0.8952 -2.1399  2.7788
 4595SOL    HW225419   0.510   3.245   9.108 -0.9473  1.9108  0.4712
 4596SOL     OW25420   1.649   4.515   8.722 -0.0666 -0.2140  0.2863
 4596SOL    HW125421   1.734   4.492   8.685 -0.9653  0.4659 -2.1812
 4596SOL    HW225422   1.673   4.551   8.808 -0.4331  0.0311  0.2870
 4597SOL     OW25423   2.954   0.850   4.455  0.4535  0.1869  0.5842
 4597SOL    HW125424   2.919   0.908   4.523  0.4538 -0.5817  1.2407
 4597SOL    HW225425   2.888   0.781   4.446  0.2590  0.3680  0.6068
 4598SOL     OW25426   4.296   1.626   0.515 -0.8776  0.5997  0.2832
 4598SOL    HW125427   4.311   1.549   0.570  1.7353  2.1128  1.6568
 4598SOL    HW225428   4.291   1.687   0.589  0.0002 -0.2305  1.0256
 4599SOL     OW25429   2.603   3.897   0.232 -0.6079  0.2037  0.0498
 4599SOL    HW125430   2.559   3.891   0.317  0.7178 -0.2453  0.6990
 4599SOL    HW225431   2.529   3.897   0.171  0.1676 -0.7996 -0.8874
 4600SOL     OW25432   0.530   0.208   9.344 -0.0769 -0.1583  0.0407
 4600SOL    HW125433   0.594   0.212   9.274  1.2193 -0.6852  1.1868
 4600SOL    HW225434   0.484   0.292   9.341 -4.0753 -2.3226 -0.5758
 4601SOL     OW25435   4.705   2.855   3.037  0.0194  0.0789  0.3130
 4601SOL    HW125436   0.037   2.803   3.070  0.4772 -1.2287 -2.7343
 4601SOL    HW225437   4.673   2.797   2.966 -0.1055  1.7368 -0.9852
 4602SOL     OW25438   1.684   1.190   7.314 -0.0102 -0.5754 -0.0376
 4602SOL    HW125439   1.652   1.279   7.328  0.4475 -0.5157  0.6021
 4602SOL    HW225440   1.772   1.207   7.281 -0.5689 -1.6570 -2.0900
 4603SOL     OW25441   1.737   4.004   8.778  0.4657 -0.2211  0.2503
 4603SOL    HW125442   1.675   3.975   8.844  2.0591 -0.0716  1.8262
 4603SOL    HW225443   1.768   3.922   8.739 -0.8137  0.0285 -1.2634
 4604SOL     OW25444   0.862   3.299  16.747  0.4247  0.4534 -0.5677
 4604SOL    HW125445   0.898   3.370  16.694  0.4858  0.1536 -0.9254
 4604SOL    HW225446   0.909   3.309  16.830 -0.5176 -2.3216  0.2906
 4605SOL     OW25447   0.104   0.010  10.546 -0.4418 -0.1075  0.0842
 4605SOL    HW125448   0.189   4.714  10.523 -0.4568  1.2600 -2.1761
 4605SOL    HW225449   0.119   0.073  10.616 -1.8011  0.3469 -0.0299
 4606SOL     OW25450   0.141   2.714   3.133  0.2569  0.0725  0.2314
 4606SOL    HW125451   0.184   2.696   3.049  0.7170 -4.3975  1.3995
 4606SOL    HW225452   0.189   2.662   3.197 -0.9337 -1.6910 -0.3112
 4607SOL     OW25453   4.071   0.340   8.860  0.0979  0.0871 -0.6923
 4607SOL    HW125454   4.086   0.426   8.821 -1.4076  0.6639  0.0222
 4607SOL    HW225455   4.097   0.277   8.794  0.2248  0.5600 -1.0934
 4608SOL     OW25456   3.037   4.119  11.865  0.3313 -1.0110 -0.4905
 4608SOL    HW125457   2.972   4.054  11.891  0.7808 -2.0791 -2.0495
 4608SOL    HW225458   3.061   4.153  11.951  1.5983 -3.2594  0.0424
 4609SOL     OW25459   0.694   3.093   8.885  0.2779 -0.4463  0.0535
 4609SOL    HW125460   0.659   3.005   8.873  1.8501 -1.1594  0.7598
 4609SOL    HW225461   0.640   3.139   8.821  1.0658 -0.7800 -0.8586
 4610SOL     OW25462   0.352   1.374   5.501  0.6571 -0.6946  0.3637
 4610SOL    HW125463   0.296   1.297   5.511  1.7981 -1.4501  0.9264
 4610SOL    HW225464   0.296   1.450   5.485 -0.3731 -1.2593  1.3714
 4611SOL     OW25465   2.038   0.048   6.040 -0.0902  0.6200  0.4228
 4611SOL    HW125466   1.975   4.719   6.021 -0.1021  0.9410 -0.7250
 4611SOL    HW225467   2.045   0.032   6.134 -2.8344 -1.2769  0.2993
 4612SOL     OW25468   2.505   1.184   7.224 -0.6732  0.3646  0.2331
 4612SOL    HW125469   2.478   1.129   7.297  0.7367 -0.5144  0.1026
 4612SOL    HW225470   2.452   1.262   7.235 -0.5770  0.5354 -0.4765
 4613SOL     OW25471   0.538   3.627   4.992 -0.6536  0.2436  0.1874
 4613SOL    HW125472   0.490   3.593   4.916 -1.4170  1.8025 -0.0139
 4613SOL    HW225473   0.488   3.577   5.057 -1.4498  0.4636 -0.2601
 4614SOL     OW25474   0.234   4.111   4.655 -1.0509 -0.1507  0.3812
 4614SOL    HW125475   0.180   4.032   4.664 -1.7167  0.2154 -0.3468
 4614SOL    HW225476   0.167   4.168   4.616  0.0779 -0.5105 -2.0245
 4615SOL     OW25477   2.313   2.164   3.845 -0.5008 -0.1775 -0.3329
 4615SOL    HW125478   2.222   2.156   3.814  0.1144 -3.3345 -1.3572
 4615SOL    HW225479   2.328   2.092   3.907  0.4216  1.7310  1.6329
 4616SOL     OW25480   0.465   3.517   8.328 -0.0500  0.8205 -0.2293
 4616SOL    HW125481   0.511   3.586   8.375  0.7437 -1.3820  2.2435
 4616SOL    HW225482   0.418   3.481   8.403  0.1919 -1.8680 -1.3510
 4617SOL     OW25483   3.161   4.484   9.351  0.5089  0.0871 -0.4644
 4617SOL    HW125484   3.169   4.393   9.322 -0.9712 -0.0295 -0.4969
 4617SOL    HW225485   3.223   4.526   9.292 -0.1739  1.6836 -0.0258
 4618SOL     OW25486   4.414   1.245   2.392  0.1207  0.2428 -0.7072
 4618SOL    HW125487   4.364   1.165   2.378  0.1361  0.4867 -2.2139
 4618SOL    HW225488   4.485   1.208   2.445  0.9492  1.1411 -1.1727
 4619SOL     OW25489   1.844   0.888   5.398 -0.0296  0.0373 -0.2750
 4619SOL    HW125490   1.842   0.848   5.485 -1.2904  1.1907  0.2196
 4619SOL    HW225491   1.760   0.853   5.370 -0.6513  0.5310  0.9619
 4620SOL     OW25492   1.818   0.824   3.626 -0.1483 -0.0083  0.3435
 4620SOL    HW125493   1.831   0.742   3.578  0.4612  0.0937  0.3443
 4620SOL    HW225494   1.773   0.883   3.565  0.0759 -0.8796 -0.6651
 4621SOL     OW25495   2.517   3.168   3.819  0.4686 -0.4983 -0.1927
 4621SOL    HW125496   2.550   3.092   3.867  2.1837 -0.8145 -1.8715
 4621SOL    HW225497   2.431   3.138   3.790  1.2090 -4.2912  1.5229
 4622SOL     OW25498   1.311   3.235  12.878  0.4409 -0.0810  0.2638
 4622SOL    HW125499   1.378   3.166  12.874 -0.1098 -0.6829  1.5948
 4622SOL    HW225500   1.256   3.198  12.946 -0.1028  0.4553  0.1095
 4623SOL     OW25501   0.769   3.796  17.182 -0.1603  0.6516  0.2654
 4623SOL    HW125502   0.808   3.828  17.263 -1.6736 -1.2860  1.7604
 4623SOL    HW225503   0.717   3.872  17.154 -0.8407 -0.2967 -1.0619
 4624SOL     OW25504   1.282   3.071   2.017  0.2800  0.3713 -0.5469
 4624SOL    HW125505   1.311   3.117   1.938  0.7018 -0.6691 -0.9928
 4624SOL    HW225506   1.362   3.076   2.069  0.0982  0.1250 -0.2448
 4625SOL     OW25507   0.781   0.271  16.664  0.4897 -0.1146  0.0205
 4625SOL    HW125508   0.793   0.238  16.753 -0.9614 -1.2411 -0.2000
 4625SOL    HW225509   0.723   0.200  16.636 -2.3084  2.8479 -1.7615
 4626SOL     OW25510   3.256   0.818   2.321 -0.0338  0.2526 -0.1485
 4626SOL    HW125511   3.348   0.844   2.325 -0.4389  1.5702  0.9484
 4626SOL    HW225512   3.218   0.874   2.253  0.6040 -0.8968 -1.4297
 4627SOL     OW25513   4.147   2.519   0.121 -0.3794  0.4694 -0.1464
 4627SOL    HW125514   4.110   2.580   0.184 -0.8239  1.7567 -1.6328
 4627SOL    HW225515   4.109   2.437   0.151  1.1294  0.3918  1.5432
 4628SOL     OW25516   3.194   0.003  14.914  0.3996 -0.3886  0.3820
 4628SOL    HW125517   3.253   4.673  14.937  1.2709 -0.9392 -3.4211
 4628SOL    HW225518   3.127   4.737  14.982 -0.8522 -0.2464 -0.8250
 4629SOL     OW25519   1.161   4.711   7.467 -0.4312  0.4199 -0.0415
 4629SOL    HW125520   1.245   0.015   7.473  0.0346 -0.5815  1.0029
 4629SOL    HW225521   1.174   4.616   7.472  1.0647  0.7528  2.4667
 4630SOL     OW25522   1.259   2.664   5.360  0.5870  0.2277 -0.3922
 4630SOL    HW125523   1.166   2.646   5.345  0.1275  1.1087  1.3900
 4630SOL    HW225524   1.265   2.667   5.455  1.7648  4.2851 -0.6123
 4631SOL     OW25525   3.516   2.102   2.126  0.0169  0.1656 -0.0033
 4631SOL    HW125526   3.592   2.056   2.088 -0.3432  0.1606 -0.7235
 4631SOL    HW225527   3.556   2.172   2.177 -0.7498  0.1734  0.5790
 4632SOL     OW25528   3.324   1.806   2.344 -0.4277 -0.2290  0.3423
 4632SOL    HW125529   3.374   1.764   2.414  0.4617  3.1737  1.7555
 4632SOL    HW225530   3.358   1.893   2.364 -1.5789  0.2583  0.2070
 4633SOL     OW25531   2.509   2.679   9.764 -0.0439  0.2065 -0.2210
 4633SOL    HW125532   2.463   2.658   9.845  0.8898  1.1689  0.5618
 4633SOL    HW225533   2.427   2.696   9.718  0.3155 -0.1771 -1.0124
 4634SOL     OW25534   2.769   1.890  16.730 -0.1774 -0.3563  0.4721
 4634SOL    HW125535   2.692   1.842  16.760 -2.4793  3.1311  0.1262
 4634SOL    HW225536   2.834   1.820  16.716  0.1446 -0.0967  0.6615
 4635SOL     OW25537   3.759   3.616   9.286  0.3450 -0.3835  0.0758
 4635SOL    HW125538   3.842   3.571   9.299 -0.2129 -1.2884  0.4812
 4635SOL    HW225539   3.777   3.663   9.205  0.3409  0.6132  0.6440
 4636SOL     OW25540   4.515   3.627  11.523  0.3112  0.4164 -0.1932
 4636SOL    HW125541   4.458   3.559  11.486 -1.8305  1.5261  1.0373
 4636SOL    HW225542   4.495   3.624  11.616  1.9568  2.2688  0.2129
 4637SOL     OW25543   4.154   2.669   8.284 -1.1030 -0.1126  0.2573
 4637SOL    HW125544   4.223   2.638   8.342 -0.1051 -0.6359 -1.1892
 4637SOL    HW225545   4.200   2.730   8.226 -1.4659 -0.3790 -0.3129
 4638SOL     OW25546   0.016   3.414   4.074  0.0986 -0.2985 -0.2031
 4638SOL    HW125547   0.002   3.360   3.996 -2.0123  1.8553 -1.3400
 4638SOL    HW225548   4.708   3.493   4.049 -0.5827 -1.1391 -1.5523
 4639SOL     OW25549   3.502   1.558   5.675  0.1760  0.0129  0.0002
 4639SOL    HW125550   3.586   1.514   5.665  0.3687  0.7407 -1.5045
 4639SOL    HW225551   3.447   1.480   5.680  2.1188 -1.2075  2.2078
 4640SOL     OW25552   0.806   1.192   3.341 -0.0558  0.8603  0.0108
 4640SOL    HW125553   0.894   1.193   3.303 -0.5056 -1.3585 -1.0477
 4640SOL    HW225554   0.794   1.098   3.347  0.7164  0.7875  0.4329
 4641SOL     OW25555   4.651   1.141   2.490  0.7262 -0.0074 -0.0080
 4641SOL    HW125556   4.626   1.083   2.561  0.1023 -1.6191 -1.5446
 4641SOL    HW225557   4.650   1.079   2.417  2.0877  0.3841 -0.3668
 4642SOL     OW25558   1.272   1.994   3.726 -0.1806  0.3379  0.1223
 4642SOL    HW125559   1.234   1.932   3.788  1.9499  0.1340  1.2263
 4642SOL    HW225560   1.201   2.058   3.722 -1.2430 -0.5947  3.9464
 4643SOL     OW25561   3.205   4.672  16.333 -0.3772 -0.1008 -0.4833
 4643SOL    HW125562   3.181   4.648  16.243  0.1612  0.7320 -0.8432
 4643SOL    HW225563   3.152   0.010  16.346 -0.7945 -0.5971  0.8383
 4644SOL     OW25564   3.504   4.199   2.671  0.1216  0.0546  0.0826
 4644SOL    HW125565   3.554   4.170   2.595  1.5773  1.1878  0.6047
 4644SOL    HW225566   3.557   4.265   2.715 -0.3143  0.0373  0.6420
 4645SOL     OW25567   4.730   4.344   4.108  0.2605 -0.2333 -0.1607
 4645SOL    HW125568   4.729   4.252   4.080 -0.2773 -0.5062  0.7790
 4645SOL    HW225569   0.084   4.355   4.114 -0.0580  1.5376  1.4552
 4646SOL     OW25570   3.308   2.516   8.810  0.9147 -0.2947  0.0088
 4646SOL    HW125571   3.241   2.455   8.778  0.2089  0.4459  0.0729
 4646SOL    HW225572   3.384   2.467   8.780  1.5329 -0.3082  1.6335
 4647SOL     OW25573   1.956   2.685   2.526 -0.0178 -0.4151 -0.0278
 4647SOL    HW125574   1.969   2.633   2.606  0.4172  0.8646  0.7272
 4647SOL    HW225575   1.898   2.755   2.555 -3.1848 -2.1357 -2.1447
 4648SOL     OW25576   2.302   0.123   6.802 -0.1491 -0.1618  0.4954
 4648SOL    HW125577   2.235   0.180   6.840 -0.7604 -2.0578  2.2718
 4648SOL    HW225578   2.245   0.051   6.776  0.2605 -0.2468 -0.1875
 4649SOL     OW25579   4.505   0.397   8.843 -0.3672 -0.2405  0.3903
 4649SOL    HW125580   4.491   0.394   8.748  1.0088  2.4256  0.1294
 4649SOL    HW225581   4.483   0.305   8.861  0.4964 -0.4911  0.1725
 4650SOL     OW25582   0.789   1.159   4.503 -0.0682  0.0350 -0.2512
 4650SOL    HW125583   0.859   1.222   4.520  0.5201 -0.7916  0.4194
 4650SOL    HW225584   0.812   1.087   4.563  0.5490  0.5557  0.1343
 4651SOL     OW25585   1.138   1.013   9.625 -0.0991 -0.4864 -0.0343
 4651SOL    HW125586   1.152   1.053   9.711  0.5600  0.3467 -0.5272
 4651SOL    HW225587   1.213   0.956   9.609  0.8246  0.4454  0.9400
 4652SOL     OW25588   0.249   2.847   1.506 -0.3611  0.4220 -0.3659
 4652SOL    HW125589   0.200   2.765   1.497 -0.1987  0.3613 -0.6688
 4652SOL    HW225590   0.263   2.858   1.412  1.6969  0.6688 -0.0278
 4653SOL     OW25591   3.673   0.134   8.988  0.2685  0.2713 -0.0914
 4653SOL    HW125592   3.616   0.211   8.988  1.5469  1.2158  0.0175
 4653SOL    HW225593   3.707   0.140   9.077  0.3353  1.7693 -0.2243
 4654SOL     OW25594   3.908   3.074   5.134 -0.0584 -0.3063  0.1595
 4654SOL    HW125595   3.975   3.078   5.203 -2.0808 -0.9806  2.1953
 4654SOL    HW225596   3.834   3.063   5.194  1.3202  0.0623  1.9332
 4655SOL     OW25597   0.135   2.526   4.410 -0.2351 -0.4639  0.2286
 4655SOL    HW125598   0.203   2.580   4.370 -1.3137  1.1609  0.6199
 4655SOL    HW225599   0.060   2.577   4.380 -0.0665  0.3038  1.1302
 4656SOL     OW25600   4.403   0.220   8.645  0.0637  0.1753  0.3891
 4656SOL    HW125601   4.347   0.166   8.700  0.5231 -2.4445 -1.6885
 4656SOL    HW225602   4.459   0.153   8.606 -2.0960 -0.2458 -1.9888
 4657SOL     OW25603   2.403   4.142   0.434 -0.2675  0.5816 -0.1596
 4657SOL    HW125604   2.328   4.127   0.492 -1.1356  0.1242 -1.4085
 4657SOL    HW225605   2.429   4.050   0.435 -1.9456  0.0912 -0.2162
 4658SOL     OW25606   3.302   3.528   6.217  0.1725  0.2002  0.0434
 4658SOL    HW125607   3.348   3.610   6.200  0.0620  0.3861  0.6422
 4658SOL    HW225608   3.272   3.500   6.131  1.7452 -1.2728 -0.0393
 4659SOL     OW25609   2.818   3.662   3.628 -0.4699 -0.2743  0.0215
 4659SOL    HW125610   2.845   3.723   3.559 -0.2607 -2.4892 -1.8583
 4659SOL    HW225611   2.896   3.606   3.635 -0.3909 -0.2011 -0.2744
 4660SOL     OW25612   2.821   0.325   4.129  0.3366 -0.0077 -0.2883
 4660SOL    HW125613   2.909   0.293   4.151 -0.0110  0.5336  1.9442
 4660SOL    HW225614   2.804   0.277   4.048  0.8352  0.5753 -0.7369
 4661SOL     OW25615   3.956   3.178  13.947 -0.5048 -0.1613  0.0738
 4661SOL    HW125616   3.903   3.184  14.027  0.7968  0.5887  0.8782
 4661SOL    HW225617   3.910   3.132  13.877  2.3168 -1.1326 -1.1290
 4662SOL     OW25618   1.482   0.459   8.893  0.1784 -0.1719  0.5127
 4662SOL    HW125619   1.455   0.451   8.802 -2.2719 -2.4804  1.4374
 4662SOL    HW225620   1.432   0.398   8.947  1.2273 -1.3721  0.1468
 4663SOL     OW25621   1.945   3.570   3.177 -0.1741 -0.0235  0.0677
 4663SOL    HW125622   2.020   3.513   3.164  1.1778  1.6039  0.8038
 4663SOL    HW225623   1.967   3.634   3.109  0.4016 -0.6801 -0.3619
 4664SOL     OW25624   3.783   1.132   5.727 -0.3835 -0.9500  0.6708
 4664SOL    HW125625   3.877   1.119   5.736 -0.4504 -2.1155 -0.2528
 4664SOL    HW225626   3.756   1.040   5.721  0.9225 -1.4186  2.0505
 4665SOL     OW25627   3.637   1.377   8.166  0.0002 -0.0427 -0.2211
 4665SOL    HW125628   3.718   1.327   8.171  0.4593  0.9000  1.6643
 4665SOL    HW225629   3.654   1.453   8.222  1.5700  0.3918 -1.3044
 4666SOL     OW25630   1.356   1.601   6.520 -0.0128  0.0595 -0.1471
 4666SOL    HW125631   1.337   1.512   6.490 -0.8588 -0.2224  1.2290
 4666SOL    HW225632   1.382   1.578   6.609  0.0695  1.1716  0.1222
 4667SOL     OW25633   1.991   0.109  11.558 -0.6679  0.4326 -0.4012
 4667SOL    HW125634   2.023   0.185  11.511 -2.0710  1.0138 -0.4201
 4667SOL    HW225635   1.991   0.038  11.494  0.3875 -0.1554  0.2485
 4668SOL     OW25636   3.801   4.580   7.287 -0.3572 -0.3649 -0.1585
 4668SOL    HW125637   3.886   4.581   7.245 -0.8597 -0.1527 -1.1672
 4668SOL    HW225638   3.741   4.566   7.214 -2.0749  0.3862  1.0975
 4669SOL     OW25639   1.263   1.941   7.067  0.0928  0.1708 -0.1519
 4669SOL    HW125640   1.168   1.926   7.062 -0.0439  0.4944  1.5254
 4669SOL    HW225641   1.272   1.910   7.157  0.7587 -0.3898 -0.4150
 4670SOL     OW25642   4.674   0.241  12.865 -0.2301  0.6418 -0.1012
 4670SOL    HW125643   4.608   0.188  12.910 -2.0232  2.1253 -0.9819
 4670SOL    HW225644   4.613   0.298  12.818  0.4072  1.9401  0.6601
 4671SOL     OW25645   3.987   0.245   2.917  0.3047 -0.1344  0.7863
 4671SOL    HW125646   4.067   0.266   2.869  0.1846  0.1355  0.7069
 4671SOL    HW225647   4.023   0.256   3.005 -1.9805 -0.4655  1.7570
 4672SOL     OW25648   3.319   1.121   3.774  0.4520 -0.1785  0.6666
 4672SOL    HW125649   3.267   1.063   3.830  1.6529 -0.0062  1.9913
 4672SOL    HW225650   3.375   1.060   3.727  1.3817  0.7539  0.5484
 4673SOL     OW25651   2.875   0.621   6.308  0.1637  0.4725 -0.1606
 4673SOL    HW125652   2.853   0.650   6.220  2.6174 -0.4129 -1.0530
 4673SOL    HW225653   2.966   0.593   6.303  0.4448  1.0292  1.7323
 4674SOL     OW25654   4.514   2.047   1.337  0.3047 -0.1794 -0.1280
 4674SOL    HW125655   4.439   2.037   1.279 -0.0652  0.8158  0.1812
 4674SOL    HW225656   4.498   1.966   1.385 -3.1831  0.9718  0.6398
 4675SOL     OW25657   3.510   1.573   4.277  0.3588 -0.2446  0.6535
 4675SOL    HW125658   3.591   1.532   4.306  1.4439  1.1150 -0.4670
 4675SOL    HW225659   3.543   1.634   4.211 -2.5118 -0.1476 -0.6827
 4676SOL     OW25660   3.945   0.626   3.389 -0.2043 -0.3716 -0.3579
 4676SOL    HW125661   3.873   0.689   3.384  1.2458  1.4227  1.5527
 4676SOL    HW225662   3.911   0.539   3.408  1.9814 -1.4104 -1.1108
 4677SOL     OW25663   4.469   1.771   3.893  0.0005  0.6585 -0.2157
 4677SOL    HW125664   4.437   1.852   3.853 -3.4679 -0.0590  1.1116
 4677SOL    HW225665   4.555   1.801   3.923  1.1605 -2.9096  0.0576
 4678SOL     OW25666   4.281   0.618  13.206  0.4249  0.2365 -0.0669
 4678SOL    HW125667   4.249   0.555  13.271 -1.4203  1.4248  0.1599
 4678SOL    HW225668   4.210   0.677  13.181 -1.0452 -1.7457 -0.5612
 4679SOL     OW25669   1.415   1.253   1.558  0.6899 -0.1712  0.2760
 4679SOL    HW125670   1.436   1.303   1.479 -0.6359 -1.0167 -0.6063
 4679SOL    HW225671   1.484   1.283   1.618 -0.5635  3.2611  0.0167
 4680SOL     OW25672   2.443   0.728  14.635  0.2837 -0.0571  0.1263
 4680SOL    HW125673   2.533   0.747  14.611 -0.1278  0.0123 -1.4016
 4680SOL    HW225674   2.436   0.639  14.600  0.7755 -0.0532  0.0210
 4681SOL     OW25675   2.751   3.338   8.510  0.3964  0.3549 -0.1159
 4681SOL    HW125676   2.806   3.292   8.447 -1.0893 -0.3399 -0.9165
 4681SOL    HW225677   2.738   3.267   8.573 -1.1425  0.2557 -0.5337
 4682SOL     OW25678   3.051   3.340   4.906 -0.2637  0.2083 -0.0789
 4682SOL    HW125679   2.969   3.335   4.955 -1.6471 -0.7801 -2.4955
 4682SOL    HW225680   3.096   3.268   4.949 -0.0864  1.1339  1.2823
 4683SOL     OW25681   1.040   0.577   7.901 -0.6517 -0.2733 -0.4452
 4683SOL    HW125682   0.946   0.592   7.890 -0.4201  0.5404 -1.3463
 4683SOL    HW225683   1.068   0.657   7.944  0.4593 -0.9940  0.1639
 4684SOL     OW25684   0.371   1.678   2.839  0.9008  0.4058 -0.5754
 4684SOL    HW125685   0.435   1.670   2.910  0.8877 -1.3464 -0.7509
 4684SOL    HW225686   0.429   1.691   2.764 -0.2545 -1.2563 -1.7345
 4685SOL     OW25687   1.607   0.405   7.116  0.2554  0.5692  0.1566
 4685SOL    HW125688   1.600   0.473   7.182  1.5201 -1.1488  2.0462
 4685SOL    HW225689   1.676   0.356   7.161  1.3545  2.1469  0.2094
 4686SOL     OW25690   0.936   3.774  16.863  0.1823  0.4163  0.0407
 4686SOL    HW125691   0.905   3.864  16.860  1.7279  0.9016 -1.2741
 4686SOL    HW225692   0.934   3.757  16.957 -1.8254  2.8226  0.4307
 4687SOL     OW25693   1.415   3.819   7.849 -0.0598 -0.2971  0.1351
 4687SOL    HW125694   1.378   3.770   7.776  0.7445 -1.2760  0.3899
 4687SOL    HW225695   1.346   3.840   7.912  0.3135 -0.0453  0.4585
 4688SOL     OW25696   4.375   0.620   5.299  0.2962 -0.2164  0.0250
 4688SOL    HW125697   4.432   0.543   5.285  0.7881  0.3468 -1.0547
 4688SOL    HW225698   4.349   0.591   5.387 -0.7046 -0.1924 -0.2686
 4689SOL     OW25699   4.124   2.590  15.025 -0.5909  0.0104 -0.1441
 4689SOL    HW125700   4.099   2.523  15.088  3.5312 -1.6161 -0.2512
 4689SOL    HW225701   4.201   2.619  15.072  0.5341 -0.4420 -1.7060
 4690SOL     OW25702   1.834   0.823  14.833 -0.0488 -0.5371 -0.2230
 4690SOL    HW125703   1.831   0.857  14.744 -0.3187 -0.6140 -0.2421
 4690SOL    HW225704   1.752   0.858  14.869  1.5248  0.0597  2.7706
 4691SOL     OW25705   1.282   3.725  10.130 -0.1416  0.0314 -0.2104
 4691SOL    HW125706   1.296   3.819  10.134 -0.9498  0.1844 -0.9842
 4691SOL    HW225707   1.309   3.711  10.039 -0.0169  0.2327 -0.2038
 4692SOL     OW25708   2.357   0.920   2.726  0.0282 -0.1131  0.4555
 4692SOL    HW125709   2.375   0.899   2.634  2.8809 -0.1697  1.0316
 4692SOL    HW225710   2.413   0.997   2.733 -1.3108  0.7781  1.3753
 4693SOL     OW25711   3.483   2.802   6.623  0.4098  0.7521  0.0070
 4693SOL    HW125712   3.478   2.896   6.604  1.3710  0.7859 -0.1148
 4693SOL    HW225713   3.420   2.759   6.565 -0.8521  1.9357  0.5244
 4694SOL     OW25714   0.086   4.107   8.006 -0.3842 -0.5423  0.4916
 4694SOL    HW125715   0.085   4.132   8.098 -2.1379 -0.8183  0.5396
 4694SOL    HW225716   0.070   4.013   8.008  0.3070 -0.7075 -1.6688
 4695SOL     OW25717   4.302   2.085   4.613  0.2592 -0.2500  0.6712
 4695SOL    HW125718   4.238   2.142   4.656 -1.5023  0.5030 -2.9510
 4695SOL    HW225719   4.337   2.152   4.555 -0.1227 -0.7734 -0.1633
 4696SOL     OW25720   0.166   1.133   5.410 -0.6050 -0.0832 -0.3735
 4696SOL    HW125721   0.146   1.209   5.356  2.6747  0.8871 -0.2186
 4696SOL    HW225722   0.183   1.065   5.345 -1.0229 -0.2085 -0.3519
 4697SOL     OW25723   1.853   0.732   2.035 -0.3603 -0.2200 -0.2861
 4697SOL    HW125724   1.912   0.691   2.099 -0.6086  0.6939  0.5277
 4697SOL    HW225725   1.845   0.822   2.065  0.7094 -0.5776  1.1099
 4698SOL     OW25726   1.487   4.476   3.139  0.6870  0.3089  0.6867
 4698SOL    HW125727   1.440   4.510   3.215  0.8922  0.4042  0.7712
 4698SOL    HW225728   1.551   4.544   3.118 -1.2480  1.5984 -0.9702
 4699SOL     OW25729   1.517   0.790   9.099  0.4506 -0.1541  0.0849
 4699SOL    HW125730   1.540   0.784   9.007 -2.3053 -0.7775 -0.5788
 4699SOL    HW225731   1.456   0.865   9.100 -0.9636 -1.2984  0.6204
 4700SOL     OW25732   1.462   0.771   5.706 -0.4042  0.2397  0.3703
 4700SOL    HW125733   1.442   0.839   5.641 -0.8491  0.5911  0.8772
 4700SOL    HW225734   1.387   0.760   5.764 -0.4158 -1.1751  0.0874
 4701SOL     OW25735   1.555   4.342   5.594  0.5427  0.8788 -0.5533
 4701SOL    HW125736   1.560   4.423   5.543  1.8828  0.1889 -1.5287
 4701SOL    HW225737   1.467   4.316   5.570 -0.5268  1.7451  2.4358
 4702SOL     OW25738   2.916   4.029   0.970  0.2922  0.0335 -0.1015
 4702SOL    HW125739   2.961   4.036   0.886 -2.3406 -0.2347 -1.5044
 4702SOL    HW225740   2.835   3.983   0.948  1.8181 -2.7727  0.0974
 4703SOL     OW25741   2.663   2.344   9.729  0.2320 -0.6221 -0.1568
 4703SOL    HW125742   2.571   2.349   9.754  0.6453  0.0113  1.2256
 4703SOL    HW225743   2.648   2.351   9.635  0.9769  1.7746 -0.0981
 4704SOL     OW25744   3.355   4.374  11.381 -0.2683  0.2872 -0.1320
 4704SOL    HW125745   3.417   4.404  11.314  0.7405  1.4497  1.3094
 4704SOL    HW225746   3.369   4.438  11.451 -0.1629 -0.1681  0.2598
 4705SOL     OW25747   1.597   2.030  11.328  0.1729  0.2139  0.6312
 4705SOL    HW125748   1.565   2.119  11.315  0.1302  0.3669  1.7797
 4705SOL    HW225749   1.511   1.991  11.316 -0.5377  2.0898 -0.3850
 4706SOL     OW25750   0.109   3.870   4.719  0.4492 -0.3084 -0.4048
 4706SOL    HW125751   0.038   3.816   4.754  0.2445 -0.3858 -0.9517
 4706SOL    HW225752   0.111   3.939   4.786 -3.8333  0.9811 -1.6254
 4707SOL     OW25753   2.543   0.726   6.651 -0.3718  0.2528 -0.1785
 4707SOL    HW125754   2.607   0.700   6.718  0.4316  0.2432 -0.9367
 4707SOL    HW225755   2.543   0.661   6.580  0.1530 -0.4512  0.4649
 4708SOL     OW25756   3.634   2.349  13.585  0.0321  0.6299  0.5387
 4708SOL    HW125757   3.680   2.394  13.514 -1.3550  0.8594 -0.2205
 4708SOL    HW225758   3.553   2.401  13.586  0.4174  1.2647 -0.2537
 4709SOL     OW25759   0.370   3.509   2.459 -0.0200 -0.1940  0.3683
 4709SOL    HW125760   0.392   3.503   2.366 -1.7419 -0.4787 -0.0248
 4709SOL    HW225761   0.303   3.441   2.469  0.7574 -1.1116 -0.6961
 4710SOL     OW25762   2.167   2.225  10.589 -0.4693  0.0117  0.0424
 4710SOL    HW125763   2.209   2.166  10.651  0.0482  1.1296  0.7496
 4710SOL    HW225764   2.178   2.303  10.643 -1.6162 -0.0675  0.3787
 4711SOL     OW25765   2.031   4.539  12.056  0.1017 -0.7408 -0.0030
 4711SOL    HW125766   2.037   4.446  12.035 -2.5133 -0.7108 -0.8907
 4711SOL    HW225767   2.047   4.530  12.150 -2.3235  2.7305  0.7538
 4712SOL     OW25768   1.942   3.246   7.835 -0.5000 -0.0472 -0.0125
 4712SOL    HW125769   1.949   3.301   7.914 -1.8348  0.6595 -0.3994
 4712SOL    HW225770   1.993   3.175   7.875  0.8775  0.9046 -0.0697
 4713SOL     OW25771   3.991   0.783   5.399  0.6073  0.5215  0.1793
 4713SOL    HW125772   3.970   0.876   5.404 -0.6042  0.3987 -2.6328
 4713SOL    HW225773   3.938   0.760   5.323  0.2649  0.4214  0.4472
 4714SOL     OW25774   3.599   4.436  11.197  0.4826  0.6592 -0.4068
 4714SOL    HW125775   3.687   4.468  11.180  0.5941  0.6775  0.1898
 4714SOL    HW225776   3.619   4.342  11.192 -0.9667  0.2768  0.6523
 4715SOL     OW25777   1.889   2.636   4.795 -0.1540  0.9931  0.4296
 4715SOL    HW125778   1.955   2.634   4.865 -0.2087  0.9748  0.4807
 4715SOL    HW225779   1.945   2.639   4.717 -1.6770  0.0275 -0.6839
 4716SOL     OW25780   1.263   4.552   7.872  0.3843 -0.2420  0.0455
 4716SOL    HW125781   1.357   4.556   7.892 -0.1207  0.4094  2.3152
 4716SOL    HW225782   1.257   4.458   7.853  0.9780 -0.0461 -1.1038
 4717SOL     OW25783   3.556   0.596   6.723  0.1210 -0.0283  0.2962
 4717SOL    HW125784   3.586   0.671   6.670 -0.9463 -1.3182 -2.1531
 4717SOL    HW225785   3.472   0.635   6.748  0.8128  0.8752  1.1988
 4718SOL     OW25786   3.737   0.620   7.891 -0.5283  0.3244  0.0396
 4718SOL    HW125787   3.670   0.566   7.850 -0.3810 -1.0236  1.5601
 4718SOL    HW225788   3.725   0.585   7.979 -1.5236  0.3791 -0.0751
 4719SOL     OW25789   3.922   1.667  10.324 -0.2643  0.2194 -0.0568
 4719SOL    HW125790   3.874   1.720  10.261 -2.0740 -1.1702  0.1495
 4719SOL    HW225791   3.859   1.645  10.393 -1.1515 -0.3747 -1.0532
 4720SOL     OW25792   3.929   1.521   6.822  0.1669 -0.0820 -0.2179
 4720SOL    HW125793   3.917   1.483   6.909  2.1921  0.6802  0.3895
 4720SOL    HW225794   3.842   1.562   6.819 -0.9629 -2.2712  2.4926
 4721SOL     OW25795   4.092   0.158   9.665  0.2246  0.3021 -0.5361
 4721SOL    HW125796   4.105   0.253   9.668 -2.8977  0.7074  0.7718
 4721SOL    HW225797   4.173   0.114   9.688 -0.3152  0.4950  1.7018
 4722SOL     OW25798   1.373   4.349   2.913  0.8257 -0.5949 -0.0294
 4722SOL    HW125799   1.350   4.403   2.838 -0.2535  0.8402  1.3383
 4722SOL    HW225800   1.400   4.424   2.966  0.4280 -0.0880 -0.5531
 4723SOL     OW25801   4.347   0.538   2.214 -0.6957 -0.1972 -0.2098
 4723SOL    HW125802   4.279   0.540   2.146  1.8277 -1.0953 -2.7477
 4723SOL    HW225803   4.389   0.454   2.200  0.1743  0.0292  1.0568
 4724SOL     OW25804   2.687   1.479  15.705 -0.2553  0.2605 -0.5522
 4724SOL    HW125805   2.766   1.427  15.687 -0.4781 -0.1383 -0.3765
 4724SOL    HW225806   2.680   1.541  15.632 -2.1404  1.0820  0.3307
 4725SOL     OW25807   3.206   0.070   3.090 -0.0907 -0.5297  0.1075
 4725SOL    HW125808   3.227   4.717   3.084 -0.0448 -0.5312  0.3008
 4725SOL    HW225809   3.195   0.092   2.997 -0.0372 -0.3122  0.1541
 4726SOL     OW25810   1.607   1.000  15.508 -0.0826 -1.0084  0.4890
 4726SOL    HW125811   1.514   1.009  15.527  0.3913  0.7193  1.9723
 4726SOL    HW225812   1.624   1.035  15.420 -1.0683  0.6620  0.9554
 4727SOL     OW25813   0.099   2.862   8.085 -0.2425  0.1226  0.1401
 4727SOL    HW125814   0.082   2.835   7.994  0.0371  1.2087 -0.2274
 4727SOL    HW225815   0.124   2.778   8.124 -3.7163 -1.0375 -0.0674
 4728SOL     OW25816   1.609   2.720  11.641 -0.1068  0.1032 -0.0451
 4728SOL    HW125817   1.535   2.712  11.581 -0.2655 -0.4084  0.2221
 4728SOL    HW225818   1.600   2.634  11.682  1.0638  0.4495  0.9547
 4729SOL     OW25819   2.303   0.846   7.369  0.6186 -0.3139  0.4770
 4729SOL    HW125820   2.217   0.875   7.399  0.4321 -0.3314 -0.0291
 4729SOL    HW225821   2.305   0.846   7.273 -0.5525 -1.3128  0.4440
 4730SOL     OW25822   2.083   1.559  17.010  0.5713  0.2124  0.4431
 4730SOL    HW125823   1.993   1.564  17.042  0.1482  0.3943 -0.7793
 4730SOL    HW225824   2.093   1.464  17.008 -1.1118  0.0210  0.9143
 4731SOL     OW25825   1.835   0.877   8.459  0.4632  0.1988 -0.7003
 4731SOL    HW125826   1.914   0.834   8.490 -0.8930 -2.1522 -0.4927
 4731SOL    HW225827   1.827   0.954   8.515 -2.7447 -0.8911  0.3665
 4732SOL     OW25828   1.654   4.308   6.278  0.1185  0.6479 -0.6512
 4732SOL    HW125829   1.679   4.217   6.288  0.4144  0.7412 -0.5536
 4732SOL    HW225830   1.588   4.301   6.209 -0.8106  1.1572  0.1789
 4733SOL     OW25831   0.731   2.163   2.455  0.4009 -0.3023 -0.5657
 4733SOL    HW125832   0.724   2.210   2.372 -0.3945  1.7621  0.6588
 4733SOL    HW225833   0.782   2.233   2.497  0.9976 -0.3205 -1.2754
 4734SOL     OW25834   1.030   0.336   3.446 -0.4580  0.2674  0.2660
 4734SOL    HW125835   1.031   0.253   3.494  1.8574  0.2937  0.2296
 4734SOL    HW225836   0.935   0.335   3.430 -0.4669 -0.1065  0.3263
 4735SOL     OW25837   1.166   4.524   4.611 -0.0217 -0.0801  0.1416
 4735SOL    HW125838   1.171   4.452   4.548  1.1951  0.0782  0.0649
 4735SOL    HW225839   1.071   4.536   4.605  0.3463  1.9713 -1.4593
 4736SOL     OW25840   1.012   4.127   5.075  0.4625 -0.1223  0.3621
 4736SOL    HW125841   0.963   4.050   5.048  2.3312 -0.9890 -0.5726
 4736SOL    HW225842   0.999   4.121   5.170 -2.1255 -0.1146  0.0015
 4737SOL     OW25843   4.015   3.920   4.190 -0.2329 -0.2484  0.2753
 4737SOL    HW125844   4.026   3.995   4.131 -2.6181 -0.3366 -0.2872
 4737SOL    HW225845   4.013   3.956   4.279  1.4044 -0.6224  0.4729
 4738SOL     OW25846   1.955   1.680  16.783  0.0192  0.6274 -0.1402
 4738SOL    HW125847   1.994   1.623  16.849 -2.3381  0.5943  1.2075
 4738SOL    HW225848   1.910   1.742  16.840  0.4867  0.5870  0.2676
 4739SOL     OW25849   2.826   3.075   7.153  0.6047  0.3505 -0.1955
 4739SOL    HW125850   2.826   3.033   7.238  0.0493  0.2161 -0.2647
 4739SOL    HW225851   2.920   3.072   7.133  0.4252 -0.4024 -0.9118
 4740SOL     OW25852   3.641   2.411   3.029  0.0989 -0.1279  0.0677
 4740SOL    HW125853   3.560   2.384   2.984  1.1019 -0.4504 -1.5529
 4740SOL    HW225854   3.680   2.325   3.044  0.5899 -0.1086 -1.1307
 4741SOL     OW25855   2.975   0.611   3.371  0.5493 -0.1279 -0.0378
 4741SOL    HW125856   2.910   0.675   3.399  1.8552  0.5553  1.4460
 4741SOL    HW225857   2.924   0.544   3.325 -1.7868  1.5101  0.1954
 4742SOL     OW25858   1.495   0.527   5.120  0.0431  0.2428  0.0036
 4742SOL    HW125859   1.543   0.525   5.203  2.5600 -0.4203 -1.4772
 4742SOL    HW225860   1.536   0.450   5.081  2.7903  2.1489 -0.8601
 4743SOL     OW25861   2.785   0.024   2.282 -0.4281  0.1113 -0.1671
 4743SOL    HW125862   2.705   0.033   2.231 -1.5640 -1.3385  1.3765
 4743SOL    HW225863   2.771   0.094   2.345 -1.6195 -1.6645  1.5276
 4744SOL     OW25864   1.754   2.413   7.213  0.1722  0.1367  0.0683
 4744SOL    HW125865   1.764   2.507   7.232 -1.2412  0.0087  1.4425
 4744SOL    HW225866   1.692   2.413   7.140 -0.7287 -1.0376  0.8391
 4745SOL     OW25867   3.825   4.464  13.652  0.7043 -0.0283 -0.2448
 4745SOL    HW125868   3.736   4.468  13.617  0.3059  0.8549  0.8850
 4745SOL    HW225869   3.802   4.508  13.733 -0.3828  2.0699 -1.7034
 4746SOL     OW25870   4.477   4.556   8.749 -0.4721 -0.8786  0.1582
 4746SOL    HW125871   4.487   4.581   8.840  1.0488  0.2511 -0.3158
 4746SOL    HW225872   4.422   4.479   8.763  0.2963 -1.5608 -0.4802
 4747SOL     OW25873   3.846   2.455  15.389 -0.0864 -0.0494  0.0996
 4747SOL    HW125874   3.849   2.457  15.484  0.2484 -0.9444  0.1133
 4747SOL    HW225875   3.779   2.514  15.356  0.6013 -0.2511 -1.7006
 4748SOL     OW25876   2.428   4.724  14.658  0.1481  0.4681  0.2750
 4748SOL    HW125877   2.398   4.689  14.742 -0.2992 -2.3406 -1.0740
 4748SOL    HW225878   2.429   4.638  14.617  0.3950  0.3270  0.5734
 4749SOL     OW25879   3.782   3.873   4.026  0.5862  0.6836  0.5876
 4749SOL    HW125880   3.843   3.835   4.089 -1.3333  0.9497  2.6254
 4749SOL    HW225881   3.816   3.844   3.941  0.0050 -0.3474  0.7153
 4750SOL     OW25882   0.792   1.418  12.015 -0.3278 -0.0847 -0.0763
 4750SOL    HW125883   0.790   1.485  12.083 -0.1469  0.3736 -0.5236
 4750SOL    HW225884   0.702   1.390  12.000  0.9776 -3.9146 -0.7339
 4751SOL     OW25885   1.117   3.177   6.543 -0.6324 -0.0502  0.1351
 4751SOL    HW125886   1.130   3.142   6.455 -1.2344 -4.0454  1.6115
 4751SOL    HW225887   1.097   3.268   6.525 -1.0269 -0.4963 -1.6425
 4752SOL     OW25888   3.122   1.947   0.992  0.2909  0.3182 -0.2698
 4752SOL    HW125889   3.073   2.028   0.981 -0.0159 -0.0530 -1.5766
 4752SOL    HW225890   3.086   1.889   0.925  0.2549  0.1592 -0.1130
 4753SOL     OW25891   2.240   4.499   2.916  0.4760  0.0115 -0.6576
 4753SOL    HW125892   2.266   4.542   2.998 -0.3435 -1.1700  0.2298
 4753SOL    HW225893   2.249   4.407   2.940 -1.9460  0.0572  0.4673
 4754SOL     OW25894   1.792   3.001  15.035  0.2879  0.3567 -0.0073
 4754SOL    HW125895   1.886   2.987  15.025  0.2189  0.3057 -0.5799
 4754SOL    HW225896   1.784   3.083  14.986 -0.4181 -0.1435 -0.7222
 4755SOL     OW25897   1.989   4.073  13.472  0.0012  0.0993  0.3731
 4755SOL    HW125898   2.032   4.051  13.554  1.9369 -0.1441 -0.6977
 4755SOL    HW225899   1.908   4.023  13.466 -0.3063  0.6901 -0.3800
 4756SOL     OW25900   1.555   1.395   7.807  0.1549  0.0627 -0.2420
 4756SOL    HW125901   1.491   1.326   7.792 -1.5921  1.9404 -1.4906
 4756SOL    HW225902   1.493   1.458   7.843  0.8954  1.8020 -2.0359
 4757SOL     OW25903   1.991   1.863   4.798 -0.5050  0.2193 -0.1334
 4757SOL    HW125904   1.927   1.919   4.842  0.9430 -0.4300  2.7611
 4757SOL    HW225905   2.055   1.849   4.867  0.9025  0.3283 -1.4256
 4758SOL     OW25906   3.784   1.960   0.391 -0.0887 -0.1022  0.3715
 4758SOL    HW125907   3.860   1.953   0.449  1.6395  2.2185 -1.5811
 4758SOL    HW225908   3.726   2.005   0.453  0.5191  1.0439  0.1235
 4759SOL     OW25909   4.147   4.225  15.384 -0.3709  0.1261 -0.7301
 4759SOL    HW125910   4.228   4.185  15.354 -0.1104  0.1288 -0.0363
 4759SOL    HW225911   4.144   4.183  15.470 -1.4648  0.3369 -0.6605
 4760SOL     OW25912   4.367   3.362   4.204 -0.0321 -0.2420  0.2690
 4760SOL    HW125913   4.416   3.427   4.255 -2.0226 -0.5713  2.5774
 4760SOL    HW225914   4.406   3.282   4.239  1.2068  0.0700 -0.3681
 4761SOL     OW25915   0.036   0.511   3.338  0.5380 -0.2169 -0.1287
 4761SOL    HW125916   0.069   0.498   3.427  2.1560  3.2804 -0.2208
 4761SOL    HW225917   0.109   0.494   3.278 -1.2841  1.8300 -2.8770
 4762SOL     OW25918   0.675   2.053  14.158 -0.8058  0.2291 -0.0265
 4762SOL    HW125919   0.603   2.110  14.132 -0.8171 -0.1249 -0.7606
 4762SOL    HW225920   0.684   2.020  14.069 -0.2542  1.5340 -0.4456
 4763SOL     OW25921   4.531   2.119   0.164 -0.0752  0.2767 -0.1726
 4763SOL    HW125922   4.579   2.120   0.081 -0.1222 -1.8460 -0.2314
 4763SOL    HW225923   4.513   2.025   0.174  0.0663  0.1211 -1.4494
 4764SOL     OW25924   4.011   4.200   8.848 -0.9238 -0.2773 -0.3355
 4764SOL    HW125925   3.962   4.281   8.835  1.7063  1.1194 -1.4983
 4764SOL    HW225926   3.937   4.154   8.887 -0.9206 -1.0217 -1.1983
 4765SOL     OW25927   0.357   2.801  13.657 -0.3874  0.1214  0.3158
 4765SOL    HW125928   0.339   2.862  13.585 -1.5004  0.9413  1.3040
 4765SOL    HW225929   0.267   2.771  13.671 -0.2725 -0.6688 -0.6190
 4766SOL     OW25930   3.882   1.496   0.889 -0.2199 -0.2386 -0.1956
 4766SOL    HW125931   3.922   1.410   0.904  0.7652  0.3520  0.5932
 4766SOL    HW225932   3.823   1.467   0.820  0.3865 -1.7600 -0.0782
 4767SOL     OW25933   3.324   2.826   9.254 -0.1638 -0.1160  0.4407
 4767SOL    HW125934   3.300   2.785   9.338 -1.0389  0.2817  0.3769
 4767SOL    HW225935   3.331   2.760   9.185  1.8827  1.3153 -0.7169
 4768SOL     OW25936   4.035   1.324  10.551  0.5583  0.2946  0.1931
 4768SOL    HW125937   4.017   1.282  10.466 -0.4011  0.1416  0.4645
 4768SOL    HW225938   4.086   1.266  10.607 -2.7860 -0.7046  2.1765
 4769SOL     OW25939   1.432   1.784  10.676 -0.0359  0.1074  0.5580
 4769SOL    HW125940   1.477   1.806  10.757  0.2818  0.1524  0.3686
 4769SOL    HW225941   1.494   1.716  10.649 -0.5409  0.8354 -2.4064
 4770SOL     OW25942   4.321   2.485   4.608 -0.2352 -0.8240 -0.2038
 4770SOL    HW125943   4.389   2.527   4.555 -1.5216 -0.0165 -1.1877
 4770SOL    HW225944   4.254   2.551   4.589  2.1887  1.5252 -0.7690
 4771SOL     OW25945   3.764   2.841   2.012 -0.0754 -0.2110  0.4617
 4771SOL    HW125946   3.715   2.907   1.963  1.3027  1.9625  2.0781
 4771SOL    HW225947   3.707   2.764   2.011 -1.5981  0.9135  0.3598
 4772SOL     OW25948   1.846   2.511   5.560  0.0902 -0.2665 -0.4727
 4772SOL    HW125949   1.822   2.473   5.645  0.5373  2.6788  0.9613
 4772SOL    HW225950   1.786   2.585   5.555 -0.4954 -0.7481 -0.6744
 4773SOL     OW25951   1.638   3.033   5.361 -0.0390 -0.6921  0.0834
 4773SOL    HW125952   1.575   2.961   5.361  0.1296 -0.8385  0.7039
 4773SOL    HW225953   1.717   2.988   5.391  0.6320  0.6484  0.3375
 4774SOL     OW25954   4.620   2.375   2.175 -0.3437  0.3878  0.4317
 4774SOL    HW125955   4.580   2.297   2.214  0.7374 -0.2296  0.3060
 4774SOL    HW225956   4.713   2.377   2.199 -0.7313  1.5246  1.8340
 4775SOL     OW25957   2.417   2.251   0.943 -0.6441 -0.2067  0.1063
 4775SOL    HW125958   2.401   2.255   0.849  2.9143 -0.1484 -0.4756
 4775SOL    HW225959   2.327   2.227   0.966 -1.1610  0.2653 -1.4365
 4776SOL     OW25960   0.417   2.968   0.929  0.4590  0.4933  0.1596
 4776SOL    HW125961   0.433   3.058   0.958 -0.1981  0.4166  0.7451
 4776SOL    HW225962   0.401   2.979   0.835  4.5925  2.3398 -0.3458
 4777SOL     OW25963   0.259   1.702  14.334  0.1620  0.6103  0.3240
 4777SOL    HW125964   0.354   1.706  14.322  0.1816  2.8877  1.2453
 4777SOL    HW225965   0.245   1.719  14.427 -0.8164 -0.3216  0.3379
 4778SOL     OW25966   4.442   4.683  16.067 -0.4192 -0.0814 -0.2781
 4778SOL    HW125967   4.504   4.656  16.000  0.2048 -0.3066  0.3957
 4778SOL    HW225968   4.494   4.707  16.144 -0.7233 -0.8944  0.1831
 4779SOL     OW25969   4.601   3.829   5.501 -0.5761 -0.5384  0.9267
 4779SOL    HW125970   4.580   3.824   5.594 -0.2012 -0.0291  1.0403
 4779SOL    HW225971   4.537   3.770   5.462  1.0769 -0.4204 -1.9755
 4780SOL     OW25972   4.724   2.895   2.482 -0.4067 -0.3590  0.1599
 4780SOL    HW125973   4.701   2.987   2.466  0.7879  0.3393  2.4307
 4780SOL    HW225974   4.727   2.866   2.391  0.5292  1.0858 -0.2787
 4781SOL     OW25975   0.503   0.851  11.465 -0.3344 -0.1181  0.2481
 4781SOL    HW125976   0.537   0.777  11.515  0.7298  0.8522  0.9537
 4781SOL    HW225977   0.447   0.897  11.528  0.1172 -0.0928  0.6295
 4782SOL     OW25978   0.169   3.402   0.278 -0.0500  0.2258  0.0471
 4782SOL    HW125979   0.221   3.352   0.341 -2.1297 -2.4348 -0.3785
 4782SOL    HW225980   0.162   3.488   0.320  1.4385  0.0372  0.6668
 4783SOL     OW25981   0.786   2.684   8.753 -0.0506  0.0007 -0.7749
 4783SOL    HW125982   0.848   2.753   8.729 -2.2788  1.0789 -3.4391
 4783SOL    HW225983   0.766   2.640   8.670 -0.1551 -1.3344 -0.0397
 4784SOL     OW25984   1.126   3.873   3.267  0.2493  0.3070  0.0739
 4784SOL    HW125985   1.211   3.867   3.221  1.4319  0.8715  2.1976
 4784SOL    HW225986   1.051   3.874   3.208  1.1401 -0.9493 -1.0988
 4785SOL     OW25987   2.302   0.703   7.626 -0.3303  0.5083  0.3966
 4785SOL    HW125988   2.281   0.668   7.539 -1.2976  1.0866  0.3943
 4785SOL    HW225989   2.384   0.748   7.606  1.2729 -2.2122  0.8830
 4786SOL     OW25990   3.389   1.601   3.228 -0.0118  0.2881  0.4052
 4786SOL    HW125991   3.362   1.574   3.140  1.5107  0.4695 -0.1213
 4786SOL    HW225992   3.479   1.628   3.211 -0.2118  0.7042 -0.0124
 4787SOL     OW25993   0.399   0.710   3.995 -0.0969 -0.2699  0.1657
 4787SOL    HW125994   0.452   0.768   4.051  0.9542 -0.6727 -0.4061
 4787SOL    HW225995   0.349   0.778   3.950 -0.8297  1.6864  3.9275
 4788SOL     OW25996   3.019   3.029   6.818  0.2760 -0.0451 -0.1978
 4788SOL    HW125997   2.949   3.084   6.783 -0.3379 -1.1702 -0.7638
 4788SOL    HW225998   3.098   3.053   6.770 -1.0759  3.3082 -0.7313
 4789SOL     OW25999   2.564   1.346   6.830  0.1212  0.0099  0.3630
 4789SOL    HW126000   2.604   1.431   6.808  0.4552 -0.5112 -1.0795
 4789SOL    HW226001   2.527   1.323   6.744  1.0389 -1.5089  0.3860
 4790SOL     OW26002   0.306   0.935   4.295  0.6250  0.6414  0.5165
 4790SOL    HW126003   0.211   0.938   4.291  0.5965 -1.7453 -0.5196
 4790SOL    HW226004   0.326   1.025   4.269 -1.8754  0.9315 -0.3495
 4791SOL     OW26005   2.599   1.828  15.337  0.2658  0.0290  0.0666
 4791SOL    HW126006   2.589   1.919  15.365 -0.4760 -0.3785  1.1016
 4791SOL    HW226007   2.507   1.803  15.331  0.2707  0.6441 -2.5743
 4792SOL     OW26008   0.904   2.561  15.938 -0.1313 -0.1340  0.7648
 4792SOL    HW126009   0.909   2.473  15.899  0.0354  0.9288 -1.6561
 4792SOL    HW226010   0.907   2.613  15.857  0.4680  0.2766  1.0568
 4793SOL     OW26011   0.552   0.423  12.031 -0.3141  0.0648  0.0691
 4793SOL    HW126012   0.601   0.495  11.992 -0.8576  0.5978  0.3738
 4793SOL    HW226013   0.488   0.481  12.070 -0.9374 -0.2897 -0.4195
 4794SOL     OW26014   1.813   1.166   0.313  0.0293  0.6553 -0.6571
 4794SOL    HW126015   1.770   1.197   0.233  0.8542  0.4724 -1.1742
 4794SOL    HW226016   1.850   1.250   0.343  2.2249 -0.1671 -1.0561
 4795SOL     OW26017   3.568   0.499   6.985 -0.0329 -0.2938 -0.5851
 4795SOL    HW126018   3.566   0.515   6.890  0.7793 -0.5796 -0.6550
 4795SOL    HW226019   3.633   0.429   6.988 -0.9975 -1.1915 -0.4410
 4796SOL     OW26020   1.563   3.506   7.322 -0.0428  0.1524  0.0040
 4796SOL    HW126021   1.598   3.571   7.261  1.2891 -1.6425 -1.1873
 4796SOL    HW226022   1.614   3.427   7.299 -1.2969 -0.4694 -0.6356
 4797SOL     OW26023   2.518   0.967   8.082  0.6124 -0.2734  0.3973
 4797SOL    HW126024   2.454   1.022   8.038 -0.5838 -0.9448  1.3066
 4797SOL    HW226025   2.553   0.913   8.012 -0.8409 -0.5777 -0.0813
 4798SOL     OW26026   3.191   0.750   7.907  0.5448 -0.2890  0.6058
 4798SOL    HW126027   3.250   0.811   7.951 -0.3056  1.5317 -0.7277
 4798SOL    HW226028   3.255   0.724   7.841 -0.4668 -2.0298  0.3106
 4799SOL     OW26029   2.894   2.424   9.086  0.0090 -0.2974  0.1344
 4799SOL    HW126030   2.856   2.458   9.168 -0.9112 -1.1859  0.0777
 4799SOL    HW226031   2.921   2.507   9.046 -0.8824 -0.9739 -1.8574
 4800SOL     OW26032   4.543   0.846  17.718 -0.6664  0.2220 -0.4649
 4800SOL    HW126033   4.586   0.931  17.719 -2.3403  1.0590 -1.0627
 4800SOL    HW226034   4.515   0.842   0.048 -1.5472  0.9361 -0.7064
 4801SOL     OW26035   0.808   2.196   2.807 -0.0288  0.1767  0.3222
 4801SOL    HW126036   0.783   2.118   2.758 -0.4123  1.0364 -0.8413
 4801SOL    HW226037   0.868   2.152   2.868 -0.0327  0.1390  0.2988
 4802SOL     OW26038   0.786   1.482   4.848 -0.6047  0.1349 -0.4475
 4802SOL    HW126039   0.758   1.441   4.766 -1.1161  3.7153 -2.0511
 4802SOL    HW226040   0.734   1.427   4.907  0.3701 -0.6331 -0.3024
 4803SOL     OW26041   2.166   3.287  10.159  0.2728  0.8123 -0.1721
 4803SOL    HW126042   2.245   3.340  10.171  0.7994 -0.7461  3.3257
 4803SOL    HW226043   2.200   3.198  10.173  0.8806  0.9925 -0.5368
 4804SOL     OW26044   3.929   0.568   2.667  0.0778  0.0338  0.7410
 4804SOL    HW126045   3.969   0.571   2.754 -1.8133 -0.4685  1.6318
 4804SOL    HW226046   3.836   0.571   2.690 -0.1928 -2.5938  0.0248
 4805SOL     OW26047   3.127   0.777   6.441  0.4332  0.5337 -0.5784
 4805SOL    HW126048   3.070   0.852   6.419  2.7998  3.2852  2.6650
 4805SOL    HW226049   3.132   0.721   6.364  0.1358 -1.2029  0.6839
 4806SOL     OW26050   2.977   0.839   1.700  0.4389  0.0893 -0.2053
 4806SOL    HW126051   2.952   0.839   1.792 -0.3586  0.4315 -0.4160
 4806SOL    HW226052   2.923   0.914   1.675 -1.8303 -1.5931 -0.3564
 4807SOL     OW26053   0.898   0.370  13.686  0.1986  0.7934 -0.1148
 4807SOL    HW126054   0.938   0.354  13.771  2.7048  0.4763 -1.3283
 4807SOL    HW226055   0.882   0.464  13.694 -0.7064  0.5679  0.6051
 4808SOL     OW26056   3.129   2.941   8.987 -0.0732 -0.0922 -0.3527
 4808SOL    HW126057   3.077   2.958   9.066 -0.9704  1.7155 -1.3188
 4808SOL    HW226058   3.204   2.905   9.034  0.8100  1.6617 -0.3958
 4809SOL     OW26059   0.319   0.876  11.208  0.5148 -0.0536  0.0306
 4809SOL    HW126060   0.342   0.953  11.261  0.1828 -0.8730  1.3727
 4809SOL    HW226061   0.287   0.823  11.281  0.6515  2.2186  1.7520
 4810SOL     OW26062   1.117   2.370   9.576 -0.5551  0.4483 -0.3104
 4810SOL    HW126063   1.034   2.362   9.528  0.2621  0.5159 -1.7300
 4810SOL    HW226064   1.078   2.426   9.644 -1.6188  0.1439 -0.6600
 4811SOL     OW26065   4.491   4.146   8.391 -0.0803 -0.6890  0.0660
 4811SOL    HW126066   4.411   4.197   8.381 -0.5326 -1.1752  1.2378
 4811SOL    HW226067   4.496   4.146   8.486  1.9344  1.9196 -0.0154
 4812SOL     OW26068   2.572   0.242  12.814  0.2045 -0.1546  0.1883
 4812SOL    HW126069   2.543   0.152  12.800  1.0564 -0.5325  0.8054
 4812SOL    HW226070   2.636   0.255  12.744 -1.4780 -3.4512 -1.9555
 4813SOL     OW26071   3.045   1.730  15.285  0.2401 -0.0088  0.3008
 4813SOL    HW126072   3.086   1.738  15.199 -2.3469  1.6781 -0.7585
 4813SOL    HW226073   2.971   1.790  15.275 -1.3726 -2.2538 -1.1452
 4814SOL     OW26074   2.776   0.434   6.920  0.0061  0.3194  0.6647
 4814SOL    HW126075   2.697   0.380   6.910  1.7652 -2.2766  0.5912
 4814SOL    HW226076   2.811   0.413   7.007  0.1558 -0.4395  0.4292
 4815SOL     OW26077   4.253   1.575   6.342 -0.0043  0.5685  0.1225
 4815SOL    HW126078   4.313   1.516   6.387  0.0429 -0.2184 -0.9773
 4815SOL    HW226079   4.214   1.512   6.281 -0.0577  0.6670  0.0540
 4816SOL     OW26080   1.930   0.444   9.639  0.6260 -0.3842 -0.4608
 4816SOL    HW126081   2.012   0.478   9.604  1.1504 -0.0726  1.0953
 4816SOL    HW226082   1.871   0.458   9.564 -1.2323 -0.7286  0.9394
 4817SOL     OW26083   0.040   3.955   3.527 -0.5327 -0.6605 -0.1939
 4817SOL    HW126084   0.086   3.922   3.604  0.9273 -3.0105 -2.0607
 4817SOL    HW226085   4.721   4.017   3.568  0.0931  0.1533 -0.5189
 4818SOL     OW26086   0.590   3.828   5.357 -0.0182  0.2857 -0.1191
 4818SOL    HW126087   0.560   3.866   5.275 -0.0848  0.9048  0.1978
 4818SOL    HW226088   0.539   3.746   5.358  0.5411 -0.0167  2.3482
 4819SOL     OW26089   3.118   0.896   5.664  0.8078  0.1940 -0.3489
 4819SOL    HW126090   3.185   0.957   5.694 -0.1121  0.3855  1.3526
 4819SOL    HW226091   3.107   0.930   5.575 -0.1957 -0.8303 -0.6211
 4820SOL     OW26092   0.629   0.689   8.813 -0.0597 -0.0015 -0.4159
 4820SOL    HW126093   0.622   0.670   8.719  0.3996 -2.4369  0.0427
 4820SOL    HW226094   0.694   0.624   8.838  0.8819  0.6001 -1.3143
 4821SOL     OW26095   1.880   4.169   7.086  0.2534  0.0177  0.6475
 4821SOL    HW126096   1.831   4.099   7.043 -3.0381  0.7433  3.2045
 4821SOL    HW226097   1.834   4.167   7.170  0.3895  0.4973  0.7332
 4822SOL     OW26098   3.607   0.235   9.427  0.2690 -0.0269 -0.3131
 4822SOL    HW126099   3.536   0.181   9.462 -1.9164  1.0245 -3.1324
 4822SOL    HW226100   3.556   0.312   9.400  0.3229 -0.0032 -0.3487
 4823SOL     OW26101   2.638   1.481   4.313  0.5965 -0.2355  0.5645
 4823SOL    HW126102   2.674   1.460   4.227  0.1104  0.6762  0.1425
 4823SOL    HW226103   2.589   1.402   4.336 -1.8382  0.6745 -1.4628
 4824SOL     OW26104   3.165   3.435   6.427 -0.4554  0.4438 -0.3294
 4824SOL    HW126105   3.078   3.474   6.414 -0.1144  1.6521  1.0189
 4824SOL    HW226106   3.217   3.472   6.355  0.0583 -0.0411 -0.2099
 4825SOL     OW26107   4.566   2.419   4.411  0.8218 -0.2367 -0.1957
 4825SOL    HW126108   4.659   2.402   4.425  0.4799 -2.2417 -0.4151
 4825SOL    HW226109   4.554   2.441   4.318  1.1445  0.4615 -0.0789
 4826SOL     OW26110   0.087   0.180   9.626 -0.3383  0.1780 -0.2335
 4826SOL    HW126111   0.119   0.269   9.636  1.0882 -0.1820 -1.5073
 4826SOL    HW226112   0.038   0.174   9.708  1.8772 -0.1138  1.0712
 4827SOL     OW26113   1.578   0.175   4.240 -0.0492  0.6106  0.6735
 4827SOL    HW126114   1.485   0.193   4.227 -0.2068  0.2488  1.3617
 4827SOL    HW226115   1.601   0.127   4.160  2.0246  1.2160  0.8879
 4828SOL     OW26116   0.245   1.380  17.546 -0.1640  0.2102 -0.0213
 4828SOL    HW126117   0.231   1.409  17.456 -1.6740 -1.1463 -0.2140
 4828SOL    HW226118   0.340   1.368  17.550  0.0051  1.3604 -0.5585
 4829SOL     OW26119   0.016   1.955   4.700 -0.3340 -0.1493  0.4149
 4829SOL    HW126120   0.028   2.035   4.750  1.4067 -1.5899  2.3319
 4829SOL    HW226121   0.108   1.940   4.676 -0.9056 -0.0322 -1.8206
 4830SOL     OW26122   2.739   1.234   9.811 -0.1816  0.3959  0.1531
 4830SOL    HW126123   2.728   1.265   9.721 -2.7449  1.0977  0.7110
 4830SOL    HW226124   2.725   1.313   9.863 -0.0099  1.5367 -1.5385
 4831SOL     OW26125   1.397   4.523   2.349  0.0231 -0.1539  0.0096
 4831SOL    HW126126   1.392   4.493   2.259 -1.5128 -2.7252  0.9509
 4831SOL    HW226127   1.395   4.617   2.332  3.3340  0.1343  1.2088
 4832SOL     OW26128   1.758   1.141  11.372 -0.6112 -0.3010  0.2829
 4832SOL    HW126129   1.669   1.164  11.346 -0.7972 -2.8093 -1.2563
 4832SOL    HW226130   1.796   1.221  11.409 -1.2371  0.4189 -0.6376
 4833SOL     OW26131   1.755   4.650   8.034  0.2430  0.0067 -0.4292
 4833SOL    HW126132   1.847   4.638   8.014 -0.3887 -3.5125 -1.2307
 4833SOL    HW226133   1.746   4.655   8.129  0.6854  0.0601 -0.3932
 4834SOL     OW26134   1.304   0.245   4.808 -0.0099  0.2728 -0.5652
 4834SOL    HW126135   1.313   0.223   4.901  1.1934  0.1523 -0.7015
 4834SOL    HW226136   1.216   0.213   4.793  0.7426 -1.1054 -1.9878
 4835SOL     OW26137   0.803   0.532   7.102 -0.3223  0.1694  0.1073
 4835SOL    HW126138   0.891   0.508   7.133 -0.1559 -1.2013 -1.4311
 4835SOL    HW226139   0.758   0.567   7.178  2.8776 -2.2177  3.1177
 4836SOL     OW26140   0.032   3.224   5.165  0.1815  0.7868  0.5731
 4836SOL    HW126141   0.008   3.148   5.219  2.1211 -0.9434 -1.0213
 4836SOL    HW226142   0.100   3.182   5.113 -1.4375  0.2572 -1.1261
 4837SOL     OW26143   2.999   2.388   1.716  0.2001  0.0993 -0.0988
 4837SOL    HW126144   3.069   2.429   1.767  1.2326 -1.1377 -0.5224
 4837SOL    HW226145   3.040   2.304   1.694 -1.2301 -1.1494  1.9191
 4838SOL     OW26146   4.353   4.679  15.041  0.4296 -0.7435  0.5171
 4838SOL    HW126147   4.304   0.002  14.989  3.7138  0.5867 -0.9568
 4838SOL    HW226148   4.391   4.627  14.971 -0.8102 -0.2057 -0.5574
 4839SOL     OW26149   2.540   3.691   5.715  0.5698  0.3892 -0.3145
 4839SOL    HW126150   2.545   3.599   5.690  3.3500  0.5508 -0.2925
 4839SOL    HW226151   2.625   3.724   5.687  0.9720 -0.2015  0.2153
 4840SOL     OW26152   2.964   2.914   4.563 -0.0868  0.5940 -0.2960
 4840SOL    HW126153   2.941   2.932   4.654  0.1324  0.1719 -0.1588
 4840SOL    HW226154   2.891   2.861   4.530  1.2002 -0.0056 -2.1783
 4841SOL     OW26155   1.350   4.286  16.148  0.3681 -0.0884  0.7029
 4841SOL    HW126156   1.373   4.247  16.233 -0.4157 -1.1254  0.4461
 4841SOL    HW226157   1.354   4.217  16.082 -2.3878 -0.2686  0.7183
 4842SOL     OW26158   0.695   0.534   6.445  0.5477 -0.3657 -0.1506
 4842SOL    HW126159   0.732   0.614   6.407  0.4212 -0.3047 -0.1451
 4842SOL    HW226160   0.667   0.561   6.532 -0.7782 -0.5842 -0.5139
 4843SOL     OW26161   2.549   1.046   4.973 -0.0323  0.4369 -0.5906
 4843SOL    HW126162   2.537   1.141   4.984 -0.0968  0.4926 -1.1398
 4843SOL    HW226163   2.482   1.002   5.026  0.0462 -0.8614 -1.5850
 4844SOL     OW26164   4.636   0.689  17.308  0.0834 -0.1843 -0.5911
 4844SOL    HW126165   4.651   0.742  17.230 -2.8574 -0.9878 -1.7165
 4844SOL    HW226166   4.715   0.636  17.316 -0.1743 -0.4099  0.5338
 4845SOL     OW26167   2.575   3.131   2.096 -0.6669 -0.4142  0.3596
 4845SOL    HW126168   2.531   3.213   2.118  2.5185  1.0641  1.1586
 4845SOL    HW226169   2.626   3.119   2.176 -1.4856 -4.7942  0.2437
 4846SOL     OW26170   3.144   2.845   2.759 -0.0070  1.0310  0.3658
 4846SOL    HW126171   3.210   2.891   2.811  1.5550 -0.1606 -0.5599
 4846SOL    HW226172   3.145   2.896   2.678  0.4097  2.8326  1.5075
 4847SOL     OW26173   2.580   4.373   3.677  0.4227 -0.3436  0.0684
 4847SOL    HW126174   2.557   4.339   3.590 -0.6877  0.5945 -0.0113
 4847SOL    HW226175   2.513   4.441   3.683  0.3732 -0.1131 -2.7019
 4848SOL     OW26176   4.234   0.119   7.844  0.3670  0.4012  0.0782
 4848SOL    HW126177   4.237   0.026   7.866 -0.2426  0.0843 -1.1977
 4848SOL    HW226178   4.211   0.152   7.931 -0.0552  0.0191  0.1098
 4849SOL     OW26179   1.671   2.367   9.042  0.1725 -0.3012  0.3539
 4849SOL    HW126180   1.613   2.338   8.971 -0.2139  0.8400  0.1925
 4849SOL    HW226181   1.605   2.368   9.111  0.7507 -0.3247  0.9061
 4850SOL     OW26182   1.972   3.686   7.987  0.2580 -0.8533  0.7271
 4850SOL    HW126183   2.015   3.692   8.073  0.7309 -0.5522  0.4735
 4850SOL    HW226184   1.935   3.774   7.978  0.4570 -0.8345  0.0854
 4851SOL     OW26185   0.269   2.946   7.457 -0.0538  0.6232 -0.6353
 4851SOL    HW126186   0.293   3.011   7.392  0.2678  1.4892  0.3481
 4851SOL    HW226187   0.313   2.864   7.434  0.6387  0.9199 -0.3600
 4852SOL     OW26188   3.905   1.246   8.249 -0.0870  0.2196  0.1127
 4852SOL    HW126189   3.858   1.258   8.332  0.9507  0.7028  0.6382
 4852SOL    HW226190   3.997   1.261   8.274  0.5253 -1.6851 -0.9860
 4853SOL     OW26191   4.247   1.801   1.065  0.6261 -0.8016 -0.4458
 4853SOL    HW126192   4.156   1.814   1.039 -0.0594 -1.3163  1.7406
 4853SOL    HW226193   4.262   1.884   1.111 -2.7387  0.2269 -1.2143
 4854SOL     OW26194   1.512   3.830  14.697  0.3075  1.0224 -0.1315
 4854SOL    HW126195   1.605   3.848  14.688  0.5203 -0.0393 -0.0509
 4854SOL    HW226196   1.488   3.865  14.783  1.2899 -1.4986  1.1769
 4855SOL     OW26197   1.324   3.806   7.301  0.4173 -0.1616  0.1895
 4855SOL    HW126198   1.276   3.767   7.228 -0.8922  0.5894  0.6385
 4855SOL    HW226199   1.261   3.857   7.352  0.8033  1.3993 -0.8937
 4856SOL     OW26200   0.254   1.095   3.181 -0.1945  0.0065  0.3227
 4856SOL    HW126201   0.241   1.001   3.168  3.4441 -0.6039  1.3241
 4856SOL    HW226202   0.183   1.110   3.244  0.3515 -0.9439  1.1644
 4857SOL     OW26203   2.419   2.854  16.048 -0.1480 -0.3974 -0.7078
 4857SOL    HW126204   2.460   2.936  16.019 -0.4925  0.4278  1.1528
 4857SOL    HW226205   2.402   2.800  15.971  0.5787 -0.3928 -0.8701
 4858SOL     OW26206   1.446   4.336   6.070  0.0385 -0.0280 -0.1473
 4858SOL    HW126207   1.464   4.274   6.000  2.9614  1.1254 -0.4156
 4858SOL    HW226208   1.356   4.307   6.086  0.7391 -1.6652  0.8293
 4859SOL     OW26209   0.903   3.465  10.753  0.6112  0.2032 -0.3414
 4859SOL    HW126210   0.900   3.428  10.665 -0.0200 -0.8810  0.1369
 4859SOL    HW226211   0.822   3.433  10.793  0.7721  1.3533  0.9127
 4860SOL     OW26212   2.575   1.732   5.487  0.6502  0.1192 -0.0040
 4860SOL    HW126213   2.605   1.641   5.480 -0.9586 -0.6977  3.2284
 4860SOL    HW226214   2.546   1.744   5.397  2.0077  2.4933 -0.0974
 4861SOL     OW26215   1.764   3.113   8.630 -0.0795  0.5387  0.0075
 4861SOL    HW126216   1.857   3.088   8.632  0.2640  1.7754 -0.7115
 4861SOL    HW226217   1.723   3.035   8.593 -1.0898  0.5924  1.0005
 4862SOL     OW26218   0.860   2.367   2.031 -0.1704 -0.6450  0.3474
 4862SOL    HW126219   0.933   2.307   2.015 -0.2914 -0.5599 -0.5145
 4862SOL    HW226220   0.807   2.374   1.953  0.7176 -0.5362 -0.2479
 4863SOL     OW26221   4.715   2.830   7.837  0.3719  0.2298 -0.4463
 4863SOL    HW126222   0.007   2.914   7.804 -2.5601  0.8598 -1.8504
 4863SOL    HW226223   4.634   2.863   7.875  0.3315  0.3578 -0.6394
 4864SOL     OW26224   4.272   3.037   7.687 -0.0318 -0.9969  0.7190
 4864SOL    HW126225   4.263   2.995   7.602  0.2736  1.1089 -0.3549
 4864SOL    HW226226   4.183   3.035   7.722 -0.5863 -0.8226 -0.7122
 4865SOL     OW26227   0.992   1.225   3.137  0.4185 -0.5263 -0.2843
 4865SOL    HW126228   0.915   1.187   3.096 -0.4076 -2.7907  3.4682
 4865SOL    HW226229   1.025   1.277   3.063 -1.7397  0.2329 -0.7225
 4866SOL     OW26230   1.656   0.708   5.907  0.0866  0.6540 -0.3200
 4866SOL    HW126231   1.606   0.738   5.831  2.4093  2.4639 -1.1580
 4866SOL    HW226232   1.737   0.756   5.889  1.3073 -0.0264  3.3822
 4867SOL     OW26233   2.088   2.581   4.996 -0.1177 -0.0574  0.0124
 4867SOL    HW126234   2.117   2.490   4.991 -0.1622 -0.2394  3.4756
 4867SOL    HW226235   2.033   2.573   5.073 -1.6027 -1.5789 -1.2016
 4868SOL     OW26236   3.473   2.556  14.836  0.0628  0.6196 -0.0161
 4868SOL    HW126237   3.496   2.624  14.899  1.3734 -0.0632  0.2275
 4868SOL    HW226238   3.497   2.602  14.755  0.7511 -0.0453 -0.1817
 4869SOL     OW26239   0.689   1.104   8.608 -0.5177  0.5347 -0.0219
 4869SOL    HW126240   0.672   1.029   8.665 -0.9492 -0.5864 -1.6400
 4869SOL    HW226241   0.661   1.182   8.656 -0.1807  2.2901 -2.6913
 4870SOL     OW26242   3.451   0.596   2.534 -0.0904 -0.3497  0.0886
 4870SOL    HW126243   3.388   0.667   2.542 -0.7492 -1.0286  0.9012
 4870SOL    HW226244   3.407   0.514   2.555  0.9713 -0.2326  2.7645
 4871SOL     OW26245   3.178   4.665   3.533  0.0365 -0.0957  0.6668
 4871SOL    HW126246   3.134   4.718   3.466  0.9400 -0.1669  0.0235
 4871SOL    HW226247   3.262   4.708   3.548  1.1204 -1.7094 -0.7774
 4872SOL     OW26248   4.461   1.745   5.416 -0.4151 -0.0521 -0.2157
 4872SOL    HW126249   4.435   1.695   5.493  0.9442 -0.4567 -0.0213
 4872SOL    HW226250   4.423   1.832   5.431  1.4365  0.6750  0.3074
 4873SOL     OW26251   2.884   4.285   7.443  0.4032  0.3793  0.1608
 4873SOL    HW126252   2.904   4.193   7.426  1.5657  0.5694  0.4976
 4873SOL    HW226253   2.916   4.319   7.359 -1.5010 -0.1283 -0.7751
 4874SOL     OW26254   0.591   4.575  12.107 -0.1290  0.3677 -0.4859
 4874SOL    HW126255   0.674   4.590  12.062  0.7122 -0.0476  0.9096
 4874SOL    HW226256   0.598   4.485  12.140 -0.2315  0.8319  0.8064
 4875SOL     OW26257   1.254   0.994   7.971  0.0320  0.0648 -0.0170
 4875SOL    HW126258   1.237   0.952   7.886  3.5944 -1.2832 -0.0604
 4875SOL    HW226259   1.261   0.915   8.024  1.9540 -0.0195 -0.4111
 4876SOL     OW26260   2.279   0.271  11.496  0.0096 -0.7566 -0.4733
 4876SOL    HW126261   2.290   0.187  11.540  1.6626 -0.4485 -0.2864
 4876SOL    HW226262   2.252   0.242  11.409 -1.6364  0.4852 -0.3833
 4877SOL     OW26263   0.107   3.311  13.646  0.3854 -0.2460 -0.0158
 4877SOL    HW126264   0.028   3.259  13.636  0.4823 -0.3270 -0.3609
 4877SOL    HW226265   0.178   3.249  13.660 -0.7407 -1.3464  0.6986
 4878SOL     OW26266   0.660   4.132   7.856  0.3853 -0.2619 -0.2989
 4878SOL    HW126267   0.727   4.071   7.888 -1.0098 -0.8292  1.5700
 4878SOL    HW226268   0.600   4.067   7.820 -0.0266  0.0840 -0.2336
 4879SOL     OW26269   1.098   1.969  11.059  0.0177  0.0184  0.5679
 4879SOL    HW126270   1.066   2.057  11.078  0.6567 -0.0384  1.8597
 4879SOL    HW226271   1.178   2.008  11.025 -0.2902 -0.7723 -1.0807
 4880SOL     OW26272   2.905   2.564   5.882  0.5567  0.4247 -0.5351
 4880SOL    HW126273   2.821   2.587   5.843 -0.4954  0.4584  1.7587
 4880SOL    HW226274   2.901   2.614   5.964 -0.2751 -3.0722  1.5388
 4881SOL     OW26275   3.193   3.864  15.066 -0.1711 -0.4123  0.1485
 4881SOL    HW126276   3.138   3.787  15.053  1.4691 -1.1946 -2.2160
 4881SOL    HW226277   3.169   3.898  15.153 -0.2190  2.1610 -0.8775
 4882SOL     OW26278   0.535   2.659   5.372  0.0270  0.5885 -0.1501
 4882SOL    HW126279   0.627   2.636   5.381 -0.3321 -0.9161 -0.2954
 4882SOL    HW226280   0.506   2.603   5.300 -1.5294  1.3568 -0.1091
 4883SOL     OW26281   2.546   3.564  10.787 -0.1480  0.0510 -0.3077
 4883SOL    HW126282   2.538   3.655  10.816 -4.0511  0.0956 -1.6260
 4883SOL    HW226283   2.470   3.548  10.731 -0.2050  3.1362 -1.0964
 4884SOL     OW26284   3.199   1.958   9.151  0.2405  0.3018  0.0489
 4884SOL    HW126285   3.258   1.914   9.091  0.0857 -0.2396  0.2923
 4884SOL    HW226286   3.133   1.984   9.087 -0.9869 -0.5976  0.9328
 4885SOL     OW26287   0.729   4.030   5.810 -0.3834 -0.0248 -0.2025
 4885SOL    HW126288   0.653   4.010   5.865  0.1643 -1.2827  0.0815
 4885SOL    HW226289   0.694   4.003   5.726 -1.2256  0.2205  0.0704
 4886SOL     OW26290   0.083   1.672   7.303 -0.6473  0.1114 -0.4757
 4886SOL    HW126291   0.099   1.765   7.321 -1.2160 -0.1094  1.1711
 4886SOL    HW226292   0.087   1.662   7.208 -2.8850 -1.8460 -0.3524
 4887SOL     OW26293   2.153   4.149   9.346 -0.2434 -0.2544  0.1543
 4887SOL    HW126294   2.176   4.059   9.369 -0.8254 -0.0441  1.5726
 4887SOL    HW226295   2.233   4.182   9.304 -1.0408  1.7166  0.1723
 4888SOL     OW26296   3.584   2.890   3.547 -0.3170  0.2449  0.0701
 4888SOL    HW126297   3.657   2.866   3.491 -0.1740 -0.2001  0.4527
 4888SOL    HW226298   3.550   2.803   3.566 -2.7401  0.7746 -1.7894
 4889SOL     OW26299   4.297   0.896   4.490  0.1777  0.1235  0.1273
 4889SOL    HW126300   4.314   0.934   4.404  3.3818  0.1780  0.7742
 4889SOL    HW226301   4.365   0.829   4.489 -0.1886 -0.2745  1.2798
 4890SOL     OW26302   4.127   3.717   9.126 -0.3892 -0.7025  0.1128
 4890SOL    HW126303   4.109   3.623   9.121  0.0650 -0.7162 -1.4314
 4890SOL    HW226304   4.221   3.716   9.145  0.0880  0.3866 -2.1774
 4891SOL     OW26305   0.971   3.948   3.065  0.3301  0.8146  0.2256
 4891SOL    HW126306   1.036   3.994   3.013  1.5069 -0.3484  0.6605
 4891SOL    HW226307   0.897   3.931   3.007  2.6018 -1.8911 -1.9005
 4892SOL     OW26308   4.290   1.074   1.800 -0.1252  0.3044  0.2002
 4892SOL    HW126309   4.280   1.142   1.733 -1.3985 -0.4298 -0.3438
 4892SOL    HW226310   4.348   1.115   1.865  1.5455 -1.6240 -0.0822
 4893SOL     OW26311   2.013   3.684  10.283 -0.1075 -0.0538 -0.0427
 4893SOL    HW126312   1.923   3.677  10.253 -0.3306 -0.7270  0.7814
 4893SOL    HW226313   2.052   3.632  10.213 -0.0631  1.1318 -0.8959
 4894SOL     OW26314   3.329   4.230   6.935  0.0514 -0.4554  0.4038
 4894SOL    HW126315   3.267   4.176   6.885 -2.0745  4.0574 -1.8146
 4894SOL    HW226316   3.359   4.305   6.885 -1.9786 -0.0866 -0.2751
 4895SOL     OW26317   2.095   0.246   2.851 -0.1208 -0.5638  0.1419
 4895SOL    HW126318   2.152   0.291   2.788 -0.1048 -0.5905  0.1378
 4895SOL    HW226319   2.161   0.186   2.885  1.8150  1.3927 -0.1393
 4896SOL     OW26320   2.073   1.163  13.114  0.6717 -0.2423  0.6299
 4896SOL    HW126321   2.091   1.087  13.058  3.2034  0.6214  0.2723
 4896SOL    HW226322   2.050   1.230  13.050  0.6405 -0.1232  0.7670
 4897SOL     OW26323   3.001   2.649   8.216 -0.8269  0.1803 -0.2300
 4897SOL    HW126324   3.053   2.707   8.271 -0.6635 -1.0326  0.8978
 4897SOL    HW226325   2.942   2.705   8.166 -0.6801 -0.6514 -1.3478
 4898SOL     OW26326   0.154   1.660   7.568 -0.2545  0.3558  0.2156
 4898SOL    HW126327   0.131   1.600   7.639 -0.4187  0.5229  0.3045
 4898SOL    HW226328   0.153   1.602   7.493 -2.9753 -0.4133  0.8452
 4899SOL     OW26329   2.388   1.357  16.090  0.5187 -0.0388 -0.2963
 4899SOL    HW126330   2.417   1.416  16.020 -1.6731  0.1499 -1.0539
 4899SOL    HW226331   2.310   1.406  16.116  0.8158  1.7209 -2.7232
 4900SOL     OW26332   3.671   2.801   2.352  0.7485 -0.5947  0.2032
 4900SOL    HW126333   3.593   2.775   2.302  0.9930  0.1424 -0.5661
 4900SOL    HW226334   3.701   2.879   2.304  0.3775 -0.5259  0.0842
 4901SOL     OW26335   0.245   3.643   8.658  0.0376 -0.6297 -0.2134
 4901SOL    HW126336   0.288   3.570   8.702 -0.6852 -0.9428 -0.0235
 4901SOL    HW226337   0.211   3.592   8.584  0.0114  0.6150 -1.0477
 4902SOL     OW26338   1.249   3.574   8.454  0.5562  0.3928 -0.2862
 4902SOL    HW126339   1.183   3.644   8.448  1.3333  1.0027 -1.7525
 4902SOL    HW226340   1.319   3.616   8.404  1.1511 -0.9353 -0.5604
 4903SOL     OW26341   2.749   2.052  14.695 -0.1718  0.0007 -0.0125
 4903SOL    HW126342   2.831   2.087  14.661 -0.6484  1.0135 -0.1002
 4903SOL    HW226343   2.692   2.061  14.619 -0.7790 -2.1961  0.1625
 4904SOL     OW26344   3.171   3.216   2.693  0.2403 -0.1806  0.3422
 4904SOL    HW126345   3.185   3.276   2.766  0.5332  1.7338 -1.2852
 4904SOL    HW226346   3.247   3.231   2.636  0.5322 -0.6181  0.6151
 4905SOL     OW26347   1.404   2.671  12.007  0.5841  0.4393 -0.4953
 4905SOL    HW126348   1.337   2.612  12.041  1.7200 -0.1043  0.7932
 4905SOL    HW226349   1.430   2.630  11.925 -3.4317  0.1854 -1.6441
 4906SOL     OW26350   2.715   3.111  13.139  0.2220 -0.1438  0.3447
 4906SOL    HW126351   2.738   3.097  13.047  1.4754  0.5818  0.5498
 4906SOL    HW226352   2.738   3.203  13.152  0.9124  0.0381 -2.3064
 4907SOL     OW26353   2.384   1.623   6.752  0.1893 -0.1276 -0.1061
 4907SOL    HW126354   2.450   1.651   6.688  1.0024  1.3230  1.3586
 4907SOL    HW226355   2.361   1.710   6.784  1.4889  0.3675 -0.4829
 4908SOL     OW26356   3.192   3.002   7.904  0.0789  0.3294 -0.3393
 4908SOL    HW126357   3.284   3.028   7.911 -0.1226  0.4079  1.8238
 4908SOL    HW226358   3.146   3.042   7.978 -0.5189  0.9592 -1.0362
 4909SOL     OW26359   1.815   0.393   7.300 -0.2507 -0.6750 -0.1437
 4909SOL    HW126360   1.849   0.328   7.361 -0.0180  1.3927  1.9504
 4909SOL    HW226361   1.868   0.470   7.320  1.6223 -1.6430 -1.4523
 4910SOL     OW26362   4.398   4.467   9.573  0.1243  0.1978 -0.7188
 4910SOL    HW126363   4.398   4.389   9.517 -0.2831  1.5241 -2.5983
 4910SOL    HW226364   4.400   4.424   9.658  2.5448  0.0008 -0.8742
 4911SOL     OW26365   3.069   3.910  16.577 -0.0579  0.4058 -0.0733
 4911SOL    HW126366   3.117   3.951  16.649  0.2410 -0.1804  0.0585
 4911SOL    HW226367   3.136   3.853  16.540 -0.1425 -0.3309  0.8971
 4912SOL     OW26368   1.567   4.001   4.332  0.4093 -0.0214  0.3467
 4912SOL    HW126369   1.581   3.951   4.251  0.6905  1.7146 -0.6843
 4912SOL    HW226370   1.610   4.084   4.308 -1.0636  0.6714  0.0967
 4913SOL     OW26371   0.291   3.293  14.143  0.0083 -0.3950 -0.0205
 4913SOL    HW126372   0.384   3.293  14.119 -0.1856 -2.4073 -0.7890
 4913SOL    HW226373   0.265   3.204  14.121  2.6059 -0.8920 -1.1637
 4914SOL     OW26374   1.969   4.281   9.060 -0.7039  0.4191 -0.0495
 4914SOL    HW126375   1.939   4.353   9.115 -1.2832  0.7024 -0.7278
 4914SOL    HW226376   2.063   4.294   9.073 -0.3199 -1.9121 -0.4167
 4915SOL     OW26377   0.738   4.550   2.147  0.0551  0.1507 -0.1260
 4915SOL    HW126378   0.761   4.603   2.223  0.9854 -0.6824  0.1772
 4915SOL    HW226379   0.818   4.504   2.120 -0.3102 -0.7977  0.3905
 4916SOL     OW26380   3.708   1.776   6.054 -0.4923 -0.2057  0.0385
 4916SOL    HW126381   3.691   1.683   6.038 -0.1765 -0.0947 -0.9211
 4916SOL    HW226382   3.739   1.775   6.145 -0.8210  1.1301  0.1617
 4917SOL     OW26383   1.694   0.395   7.675  0.2349  0.1269 -0.2612
 4917SOL    HW126384   1.772   0.344   7.696 -0.5526 -0.9500  0.0417
 4917SOL    HW226385   1.665   0.406   7.765 -0.0662  2.7335 -0.6756
 4918SOL     OW26386   0.540   4.702   5.680  0.0528 -0.1464  0.2739
 4918SOL    HW126387   0.506   4.626   5.727  1.6620 -0.4976  0.8721
 4918SOL    HW226388   0.632   4.680   5.664 -0.0489 -2.0159  2.2475
 4919SOL     OW26389   1.258   2.475  12.113  0.9780  0.0958 -0.2603
 4919SOL    HW126390   1.292   2.473  12.202 -1.7201  0.7170  0.7722
 4919SOL    HW226391   1.293   2.393  12.079 -0.2160 -0.9366  1.0617
 4920SOL     OW26392   2.410   2.893   0.742 -0.2618 -0.3764  0.5075
 4920SOL    HW126393   2.391   2.882   0.835 -0.3938 -1.2778  0.3719
 4920SOL    HW226394   2.506   2.900   0.738 -0.5524  1.0505 -3.8895
 4921SOL     OW26395   4.229   3.845   3.242  0.3553 -0.5981 -0.4490
 4921SOL    HW126396   4.161   3.816   3.181 -1.2428  0.7127  0.7293
 4921SOL    HW226397   4.262   3.916   3.186 -3.1464  0.3993 -1.2738
 4922SOL     OW26398   3.607   2.519   8.099 -0.7130  0.5438 -0.0132
 4922SOL    HW126399   3.635   2.543   8.187  3.2126  0.5627 -1.2726
 4922SOL    HW226400   3.600   2.424   8.112  0.7780  0.7347  2.1328
 4923SOL     OW26401   0.415   0.437   2.534 -0.0898  0.3349 -0.7024
 4923SOL    HW126402   0.408   0.347   2.503 -2.1321 -0.2052  1.2924
 4923SOL    HW226403   0.424   0.395   2.620 -0.4974  1.8280  0.0771
 4924SOL     OW26404   2.653   4.430   1.672 -0.1100 -0.4479 -0.3579
 4924SOL    HW126405   2.713   4.356   1.671  0.5675  0.1283 -2.9039
 4924SOL    HW226406   2.688   4.497   1.614 -0.4406  0.1774  0.1559
 4925SOL     OW26407   4.019   2.479   5.300  0.2559 -0.3273 -0.0167
 4925SOL    HW126408   3.987   2.442   5.382  0.3881 -1.8396 -0.6576
 4925SOL    HW226409   4.111   2.462   5.321  1.0232  2.7925 -0.8617
 4926SOL     OW26410   2.194   1.168   8.992  0.1344 -0.1265 -0.8815
 4926SOL    HW126411   2.258   1.106   8.957  0.2329 -0.6369  0.1712
 4926SOL    HW226412   2.239   1.250   8.972  0.6555 -0.4912 -1.2144
 4927SOL     OW26413   1.625   2.673   2.658  0.0137 -0.3848 -0.1481
 4927SOL    HW126414   1.549   2.724   2.630 -1.5602 -2.2444  0.7545
 4927SOL    HW226415   1.580   2.613   2.717 -0.1432  0.5716  0.7191
 4928SOL     OW26416   4.133   4.046   4.473 -0.0976 -0.2341  0.2163
 4928SOL    HW126417   4.135   4.138   4.501  2.8684 -0.6362  1.3757
 4928SOL    HW226418   4.107   4.007   4.556  2.0316 -0.6565  0.6779
 4929SOL     OW26419   1.058   1.694   3.616  0.1735  0.3679 -0.0639
 4929SOL    HW126420   1.137   1.708   3.563 -0.7178 -2.3767 -2.0878
 4929SOL    HW226421   0.993   1.670   3.550 -1.3143  0.7236  1.2833
 4930SOL     OW26422   0.146   4.077   2.281 -0.8811 -0.6591 -0.1404
 4930SOL    HW126423   0.240   4.057   2.282 -1.2230 -2.2483  0.4357
 4930SOL    HW226424   0.142   4.152   2.222  1.8505 -0.1570  0.3284
 4931SOL     OW26425   3.564   0.131   1.669 -0.1735 -0.7349 -0.2892
 4931SOL    HW126426   3.492   0.113   1.608 -0.0193  1.1134 -1.0057
 4931SOL    HW226427   3.629   0.128   1.598 -0.0894  0.8346 -0.2620
 4932SOL     OW26428   2.380   2.966  15.205  0.4816  0.3670  0.7001
 4932SOL    HW126429   2.330   3.039  15.167 -2.4124 -1.4932  0.9193
 4932SOL    HW226430   2.386   2.900  15.136 -1.2053  2.1253 -1.1406
 4933SOL     OW26431   0.800   1.903   7.815  0.5616  0.3549 -0.1505
 4933SOL    HW126432   0.811   1.998   7.811  4.4172 -0.0009  1.4254
 4933SOL    HW226433   0.758   1.893   7.730 -0.4089 -1.0175  0.4718
 4934SOL     OW26434   2.530   3.372   4.524 -0.3128 -0.4157  0.2594
 4934SOL    HW126435   2.605   3.319   4.552  0.0567  0.4287  0.8558
 4934SOL    HW226436   2.559   3.462   4.535 -3.5803  0.5814  0.7672
 4935SOL     OW26437   3.229   2.429  11.921 -0.6438  0.4476 -0.0384
 4935SOL    HW126438   3.149   2.464  11.881 -0.7710  0.1803 -0.0151
 4935SOL    HW226439   3.202   2.425  12.013 -1.9178 -1.5588 -0.5140
 4936SOL     OW26440   4.591   3.143   2.019 -0.5433 -0.1217  0.1013
 4936SOL    HW126441   4.578   3.215   1.957 -0.4857  1.3866  1.8215
 4936SOL    HW226442   4.502   3.107   2.011 -0.1523 -0.7912 -1.2902
 4937SOL     OW26443   0.814   3.046   9.134  0.3519  0.5754  0.3232
 4937SOL    HW126444   0.783   2.956   9.138  0.1465  0.6110 -0.5177
 4937SOL    HW226445   0.779   3.075   9.050  1.6059  1.1197 -0.0176
 4938SOL     OW26446   4.390   2.248  16.998 -0.0464 -0.3345  0.2413
 4938SOL    HW126447   4.406   2.340  16.976  0.1751 -0.7369 -1.2747
 4938SOL    HW226448   4.401   2.199  16.917  1.4557 -0.0308  0.2729
 4939SOL     OW26449   3.989   3.815   8.842  0.6552  0.0744  0.1912
 4939SOL    HW126450   3.977   3.724   8.818 -0.6853  0.3385 -0.1466
 4939SOL    HW226451   4.028   3.846   8.760  2.0670 -1.6613  0.2128
 4940SOL     OW26452   3.047   3.300  10.988  0.2532  0.1104 -0.3822
 4940SOL    HW126453   3.020   3.301  11.079 -0.9799 -0.3432 -0.7450
 4940SOL    HW226454   3.090   3.385  10.978 -2.9490  1.7141 -0.4507
 4941SOL     OW26455   2.484   2.307  10.635  0.4508 -0.3047  0.0917
 4941SOL    HW126456   2.561   2.350  10.671  1.7007 -1.8701 -0.6909
 4941SOL    HW226457   2.421   2.327  10.705  0.8258  0.3446  0.2420
 4942SOL     OW26458   1.514   2.952  11.082  0.1777  0.3025 -0.0325
 4942SOL    HW126459   1.467   2.906  11.012 -1.2007  0.2932  0.8965
 4942SOL    HW226460   1.558   3.027  11.042 -0.9944  0.5553 -0.8463
 4943SOL     OW26461   3.395   3.943   2.313 -0.1591 -0.2093  0.8489
 4943SOL    HW126462   3.447   3.873   2.273  2.9506  1.3288  2.1596
 4943SOL    HW226463   3.413   3.923   2.405  0.2610  0.0865  0.8337
 4944SOL     OW26464   2.747   4.391   8.375 -0.4732 -0.0924  0.1049
 4944SOL    HW126465   2.737   4.296   8.375 -1.2262 -0.0129 -0.5162
 4944SOL    HW226466   2.752   4.404   8.280 -1.8068  1.3914  0.2384
 4945SOL     OW26467   1.427   3.911   6.720  0.1156  0.2984 -0.3314
 4945SOL    HW126468   1.445   3.953   6.636  1.6266 -1.9988 -1.1608
 4945SOL    HW226469   1.333   3.928   6.715  0.0855 -0.2957 -1.8461
 4946SOL     OW26470   3.600   1.743   4.083  0.2339 -0.6785  0.2595
 4946SOL    HW126471   3.596   1.709   3.994  0.2107 -0.1316  0.0521
 4946SOL    HW226472   3.644   1.827   4.068  1.4946 -1.6686 -1.6574
 4947SOL     OW26473   0.552   1.070   2.946 -0.2509  0.0756  0.7801
 4947SOL    HW126474   0.646   1.081   2.961  0.2840 -0.2234 -2.3970
 4947SOL    HW226475   0.537   1.000   3.011 -0.9665 -0.6742 -0.1839
 4948SOL     OW26476   1.002   4.415   4.967 -0.0465  0.1369 -0.2088
 4948SOL    HW126477   0.999   4.443   5.059  0.6665 -2.4893  0.6059
 4948SOL    HW226478   1.002   4.321   4.980 -2.4118  0.1156 -0.3972
 4949SOL     OW26479   1.556   2.762   3.619 -0.4746  0.3325  0.2985
 4949SOL    HW126480   1.490   2.751   3.550 -1.0493 -0.1170  0.9172
 4949SOL    HW226481   1.535   2.691   3.680  0.8746 -0.5179 -0.2226
 4950SOL     OW26482   4.343   2.241   4.413 -0.0398  0.0662  0.0841
 4950SOL    HW126483   4.410   2.306   4.435  2.0268 -1.6974 -0.9622
 4950SOL    HW226484   4.318   2.281   4.330  1.4747  0.8270 -0.0184
 4951SOL     OW26485   2.704   4.219   5.198  0.6484 -0.2954 -0.0830
 4951SOL    HW126486   2.644   4.283   5.236  0.6652  0.5011 -1.4044
 4951SOL    HW226487   2.656   4.198   5.117  1.4227 -0.1567 -0.5787
 4952SOL     OW26488   3.669   1.873   2.613 -0.0385 -0.5237  0.3069
 4952SOL    HW126489   3.594   1.831   2.570 -0.9964  1.3675  0.1578
 4952SOL    HW226490   3.694   1.945   2.556  0.6765  0.6217  2.0733
 4953SOL     OW26491   3.449   2.864   8.193 -0.0220 -0.1491  0.5086
 4953SOL    HW126492   3.361   2.874   8.229  0.6240  2.5303  1.3481
 4953SOL    HW226493   3.497   2.939   8.229  0.7937 -0.3448 -0.1808
 4954SOL     OW26494   1.016   1.383   8.185  0.2412 -0.8366 -0.0899
 4954SOL    HW126495   1.103   1.419   8.170  1.4178 -2.8307  1.9239
 4954SOL    HW226496   1.019   1.309   8.123 -1.7815 -0.2409 -0.8810
 4955SOL     OW26497   0.665   2.834   4.128 -0.4526 -0.5676  0.3183
 4955SOL    HW126498   0.756   2.807   4.138 -0.3455  0.0505  0.9469
 4955SOL    HW226499   0.675   2.900   4.060 -0.7913  0.1324  0.9502
 4956SOL     OW26500   1.737   3.320   1.207  0.3404  0.5480  0.0004
 4956SOL    HW126501   1.740   3.371   1.289  1.7516  0.9672 -0.3105
 4956SOL    HW226502   1.655   3.272   1.217  2.2523 -2.7428 -0.1909
 4957SOL     OW26503   0.499   1.301   8.710 -0.4355 -0.1786 -0.0918
 4957SOL    HW126504   0.552   1.317   8.789 -2.1216 -0.1783  1.0382
 4957SOL    HW226505   0.525   1.373   8.654  0.5622 -0.5476 -0.1000
 4958SOL     OW26506   1.711   1.144   6.375  0.3117 -0.3761  0.1796
 4958SOL    HW126507   1.700   1.166   6.283  1.3703 -1.0343 -0.1025
 4958SOL    HW226508   1.730   1.050   6.376 -1.6081 -0.7422  1.8133
 4959SOL     OW26509   0.021   0.382   3.037  0.5519 -0.1387 -0.2151
 4959SOL    HW126510   0.072   0.319   2.986  0.2145 -0.0936 -0.6090
 4959SOL    HW226511   0.088   0.389   3.104  1.7721 -0.2262 -1.4235
 4960SOL     OW26512   3.999   0.178  14.012  0.1919  0.0546  0.1994
 4960SOL    HW126513   3.945   0.152  14.087  1.5965 -1.2205  0.7868
 4960SOL    HW226514   3.982   0.272  14.011  1.1595  0.2058 -1.2891
 4961SOL     OW26515   2.812   2.771   1.622  0.2087  0.3320 -0.0979
 4961SOL    HW126516   2.781   2.838   1.684  0.4605 -0.9262  1.3943
 4961SOL    HW226517   2.760   2.798   1.547 -1.3791 -0.9463  0.5407
 4962SOL     OW26518   4.716   3.060   8.243 -0.3674  0.1939  0.3692
 4962SOL    HW126519   0.032   3.002   8.192  0.3316  1.4142 -0.2330
 4962SOL    HW226520   4.679   3.003   8.311  1.5262 -0.8193  0.5440
 4963SOL     OW26521   1.280   4.321   5.144  0.2422  0.3155 -0.3048
 4963SOL    HW126522   1.204   4.319   5.085 -1.4282 -0.4465  1.8993
 4963SOL    HW226523   1.291   4.231   5.174  0.5511 -0.4725 -2.7717
 4964SOL     OW26524   3.592   2.462  15.860 -0.5529 -0.0733 -0.5423
 4964SOL    HW126525   3.517   2.415  15.824 -1.5030  0.2476  1.0082
 4964SOL    HW226526   3.643   2.488  15.784 -1.3359  0.8540 -0.7486
 4965SOL     OW26527   0.743   2.786  13.539 -0.5927 -0.5959  0.3693
 4965SOL    HW126528   0.834   2.778  13.567  0.1738  1.6470 -1.5535
 4965SOL    HW226529   0.746   2.767  13.445 -1.5531 -3.2139  0.8353
 4966SOL     OW26530   2.259   1.799   5.225 -0.5249 -0.1293  0.1440
 4966SOL    HW126531   2.230   1.866   5.287  1.6351  0.3894  0.5880
 4966SOL    HW226532   2.251   1.715   5.271 -1.4214 -0.4221 -0.5404
 4967SOL     OW26533   2.995   4.508   2.009  0.2287 -0.5092  0.0930
 4967SOL    HW126534   3.021   4.467   1.927 -0.2754 -2.1985  0.7708
 4967SOL    HW226535   2.931   4.444   2.040 -0.3807 -0.0230 -0.1759
 4968SOL     OW26536   0.956   1.036   0.727  0.0010  0.1105  0.6908
 4968SOL    HW126537   0.951   1.008   0.636  0.1677  0.8144  0.4621
 4968SOL    HW226538   0.892   1.107   0.729  0.8812  0.8575  2.4969
 4969SOL     OW26539   2.118   2.538   6.385 -0.0809 -0.0011  0.6379
 4969SOL    HW126540   2.191   2.547   6.323 -0.8968 -0.2879 -0.3620
 4969SOL    HW226541   2.121   2.444   6.398  1.5505  0.0967  1.0550
 4970SOL     OW26542   2.633   0.887   7.288  0.1127 -0.5999 -0.0639
 4970SOL    HW126543   2.695   0.957   7.310 -0.4817 -0.6341  1.6985
 4970SOL    HW226544   2.644   0.886   7.193  0.5575 -1.0547 -0.0050
 4971SOL     OW26545   2.213   1.467   6.605 -0.2292  0.1119 -0.0824
 4971SOL    HW126546   2.269   1.514   6.666  0.3812 -2.0505  1.0277
 4971SOL    HW226547   2.261   1.478   6.523  2.2162  0.3880  1.3859
 4972SOL     OW26548   1.090   1.778   5.445 -0.2372  0.3755 -0.0472
 4972SOL    HW126549   1.030   1.757   5.516 -1.2684  0.0529 -1.0002
 4972SOL    HW226550   1.132   1.858   5.475 -0.3871  0.3175  0.3199
 4973SOL     OW26551   4.071   4.544   5.656 -0.4639 -0.0948 -0.0296
 4973SOL    HW126552   4.061   4.628   5.700  2.2725  0.8356 -1.1964
 4973SOL    HW226553   4.107   4.490   5.726  0.7676  1.0239  0.1841
 4974SOL     OW26554   1.229   2.782  12.336 -0.0766 -0.3521 -0.1356
 4974SOL    HW126555   1.191   2.765  12.250  3.1481  0.3455 -1.6874
 4974SOL    HW226556   1.259   2.693  12.355  2.1290  0.3257 -0.4216
 4975SOL     OW26557   0.197   2.936  16.317  0.1245  0.5514 -0.3815
 4975SOL    HW126558   0.191   2.946  16.411 -1.2820  2.2521 -0.6589
 4975SOL    HW226559   0.248   3.012  16.288  2.0140 -0.9575 -1.0058
 4976SOL     OW26560   3.875   1.308  14.698 -0.0282 -0.2014  0.7972
 4976SOL    HW126561   3.926   1.362  14.637 -3.1096  0.5163 -1.1537
 4976SOL    HW226562   3.905   1.367  14.767 -0.9367  0.3290  0.7345
 4977SOL     OW26563   1.649   0.564   1.949  0.3174  0.2433 -0.6242
 4977SOL    HW126564   1.708   0.636   1.972 -1.4382  2.0738 -1.8127
 4977SOL    HW226565   1.647   0.522   2.035  0.3639  1.5164  0.0012
 4978SOL     OW26566   3.480   0.321   8.981 -0.3514  0.1654 -0.0394
 4978SOL    HW126567   3.424   0.322   8.903  1.2565  0.2671 -1.2067
 4978SOL    HW226568   3.503   0.411   9.002  0.1178  0.0272  0.0358
 4979SOL     OW26569   4.091   2.160   7.006  0.3466 -0.7372  0.3082
 4979SOL    HW126570   4.095   2.099   6.932  0.6870 -1.4400  0.9130
 4979SOL    HW226571   4.015   2.211   6.980  1.8245  0.7847 -1.0541
 4980SOL     OW26572   4.036   0.835  15.649 -0.5131 -0.3998 -0.0281
 4980SOL    HW126573   4.034   0.929  15.669 -0.6348 -0.5534  0.6953
 4980SOL    HW226574   4.098   0.837  15.577 -1.4749  0.6487 -0.8293
 4981SOL     OW26575   4.003   0.339  12.993  0.5671  0.6910 -0.5011
 4981SOL    HW126576   4.016   0.340  12.898  3.1042  2.1164 -0.1142
 4981SOL    HW226577   4.085   0.297  13.018  0.1750 -0.4004 -1.0310
 4982SOL     OW26578   1.509   1.136   3.417 -0.0804  0.3751 -0.3414
 4982SOL    HW126579   1.527   1.192   3.493 -1.0666  0.1684  0.0427
 4982SOL    HW226580   1.414   1.147   3.416 -0.2091 -0.5359  1.3969
 4983SOL     OW26581   0.155   1.523   4.418  0.7000  0.3134  0.8812
 4983SOL    HW126582   0.082   1.464   4.438 -2.6615  4.4828  0.8773
 4983SOL    HW226583   0.136   1.556   4.330 -0.6324  1.3663  1.5602
 4984SOL     OW26584   0.591   0.574   2.031 -0.4344 -0.1872  0.6218
 4984SOL    HW126585   0.661   0.508   2.041 -0.2339  0.0646  0.8841
 4984SOL    HW226586   0.534   0.547   2.103 -2.1395 -0.0233 -0.6775
 4985SOL     OW26587   1.839   0.122   3.392 -0.3390 -0.2162  0.0250
 4985SOL    HW126588   1.873   0.113   3.481  1.6341 -1.7167 -0.8898
 4985SOL    HW226589   1.817   0.215   3.389 -1.6124 -0.4951  0.7274
 4986SOL     OW26590   3.237   2.723  13.378  0.8242 -0.3526 -0.0086
 4986SOL    HW126591   3.246   2.638  13.422 -0.9215 -0.4558  0.1813
 4986SOL    HW226592   3.144   2.744  13.392  0.1426 -1.9491 -2.1873
 4987SOL     OW26593   4.282   4.407   9.032 -0.0160  0.2573 -0.0074
 4987SOL    HW126594   4.320   4.456   9.105  1.8259  0.1281 -0.8738
 4987SOL    HW226595   4.188   4.400   9.046  0.3257 -0.5692  1.8939
 4988SOL     OW26596   2.300   1.530  16.575  0.0035 -0.1922 -0.5303
 4988SOL    HW126597   2.226   1.482  16.613  0.3470  0.7380  1.2780
 4988SOL    HW226598   2.252   1.612  16.563  0.8844  0.4925  0.6356
 4989SOL     OW26599   0.903   1.757   9.825  0.4720  0.4698 -0.0777
 4989SOL    HW126600   0.933   1.805   9.902  1.1503  0.2705 -0.2112
 4989SOL    HW226601   0.974   1.777   9.763  0.5982 -0.1955 -0.1543
 4990SOL     OW26602   0.640   0.355   7.769 -0.2162 -0.4195 -0.7523
 4990SOL    HW126603   0.620   0.445   7.745  1.9461  0.6356  1.4711
 4990SOL    HW226604   0.574   0.306   7.719  0.3984 -0.3339 -1.6532
 4991SOL     OW26605   2.079   1.245  17.084 -0.1779 -0.5936 -0.4017
 4991SOL    HW126606   1.999   1.196  17.068  0.4982 -1.1773 -2.0735
 4991SOL    HW226607   2.063   1.288  17.168  1.0359 -0.0434 -0.4518
 4992SOL     OW26608   3.031   1.257  17.543 -0.5203 -0.1648 -0.2479
 4992SOL    HW126609   3.009   1.271  17.450  1.6907  0.0552 -0.7289
 4992SOL    HW226610   3.092   1.183  17.541 -1.3422 -0.8863  1.2281
 4993SOL     OW26611   3.462   0.148   5.246 -0.1264 -0.2213 -0.5708
 4993SOL    HW126612   3.425   0.150   5.334  1.0312  1.1954 -0.1179
 4993SOL    HW226613   3.516   0.227   5.246 -0.1387 -0.2113 -0.1173
 4994SOL     OW26614   4.154   2.545   6.504 -0.5000 -0.2323 -0.1078
 4994SOL    HW126615   4.232   2.598   6.486  0.0637 -1.2456 -0.6326
 4994SOL    HW226616   4.123   2.596   6.579 -1.3281 -0.4043 -0.3400
 4995SOL     OW26617   4.302   1.014   7.410  0.3069  0.4511 -0.2945
 4995SOL    HW126618   4.305   0.969   7.325 -1.8453 -2.7580  1.3260
 4995SOL    HW226619   4.369   1.079   7.390  2.4489 -2.0225 -1.1492
 4996SOL     OW26620   2.302   0.871   1.919  0.0527  0.1242 -0.0209
 4996SOL    HW126621   2.272   0.901   1.833  1.5254  0.8752 -0.2709
 4996SOL    HW226622   2.343   0.786   1.905 -0.5906 -0.1535 -0.2070
 4997SOL     OW26623   1.960   3.753   3.448 -0.2133  0.1816 -0.0133
 4997SOL    HW126624   1.971   3.722   3.358 -0.6377 -1.3058  0.4429
 4997SOL    HW226625   1.883   3.702   3.472  1.1080 -0.7118  2.3278
 4998SOL     OW26626   0.101   4.678   4.950 -0.2056  0.0410 -0.4118
 4998SOL    HW126627   0.042   4.672   5.025  0.6976 -1.7034  0.1618
 4998SOL    HW226628   0.118   4.584   4.940 -0.2082  0.0894 -0.8927
 4999SOL     OW26629   4.243   1.026   5.357 -0.0514 -0.4223  0.3637
 4999SOL    HW126630   4.184   1.098   5.378  1.0147  1.5269 -3.3037
 4999SOL    HW226631   4.265   1.030   5.264 -1.4837 -0.8768  0.0034
 5000SOL     OW26632   4.174   4.476  11.161 -0.1402  0.0220 -0.1685
 5000SOL    HW126633   4.238   4.456  11.093  1.9238  0.0046  1.7891
 5000SOL    HW226634   4.221   4.482  11.244  0.9105  1.3933 -0.8619
 5001SOL     OW26635   2.066   2.860  14.023  0.1640  0.5623 -0.2144
 5001SOL    HW126636   2.070   2.813  13.940  1.7105 -0.6035  0.5073
 5001SOL    HW226637   2.137   2.925  14.021  1.3155 -0.6902 -0.2954
 5002SOL     OW26638   0.035   0.911  16.177 -0.0428 -0.3234  0.5314
 5002SOL    HW126639   4.691   0.933  16.137  0.3419  0.5050  0.1771
 5002SOL    HW226640   0.097   0.926  16.106 -1.3569  0.0835 -0.5394
 5003SOL     OW26641   2.971   3.180  15.968  0.2534  0.1593 -0.0035
 5003SOL    HW126642   3.018   3.172  16.051 -1.5914 -2.6602  0.7605
 5003SOL    HW226643   2.942   3.091  15.949  0.1204  0.1761  0.1294
 5004SOL     OW26644   2.422   1.513   7.040  0.7951 -0.5742 -0.0854
 5004SOL    HW126645   2.364   1.583   7.012  0.6028 -0.2720  1.0457
 5004SOL    HW226646   2.441   1.474   6.955 -1.0658 -2.0155  0.1432
 5005SOL     OW26647   2.134   4.394   7.978  0.5544 -0.5475 -0.2108
 5005SOL    HW126648   2.225   4.397   7.950  1.1051 -0.9360  1.5582
 5005SOL    HW226649   2.136   4.382   8.073 -1.4207 -0.0147 -0.0893
 5006SOL     OW26650   0.031   2.804   0.649 -0.5346 -0.1687 -0.2171
 5006SOL    HW126651   0.053   2.897   0.660 -0.1769 -0.1202 -1.3390
 5006SOL    HW226652   0.114   2.757   0.653 -0.6394 -0.4091 -0.8751
 5007SOL     OW26653   0.218   0.415   4.911  0.2617  0.1204 -0.0384
 5007SOL    HW126654   0.296   0.470   4.917 -1.2134  1.6801  4.9067
 5007SOL    HW226655   0.231   0.361   4.833  0.5601 -0.8429  0.6831
 5008SOL     OW26656   3.192   3.539   3.360 -0.3893 -0.4587 -0.2341
 5008SOL    HW126657   3.164   3.583   3.440 -1.7564 -3.3785  0.8992
 5008SOL    HW226658   3.116   3.487   3.338 -2.7549  2.6442  0.5914
 5009SOL     OW26659   0.029   0.438   0.935  0.5551 -0.2758  0.1489
 5009SOL    HW126660   0.059   0.474   1.019 -0.2690  2.1699 -0.6039
 5009SOL    HW226661   4.685   0.408   0.965  0.8174 -0.8228  0.3394
 5010SOL     OW26662   1.288   3.548  14.688  0.0433  0.6445 -0.1448
 5010SOL    HW126663   1.312   3.510  14.773 -0.5905  2.1209  0.6897
 5010SOL    HW226664   1.375   3.573  14.658 -0.0171 -0.2350 -1.0683
 5011SOL     OW26665   1.655   1.312   4.890  0.0267  0.1263  0.2542
 5011SOL    HW126666   1.645   1.406   4.905 -0.4456 -0.0177  0.8330
 5011SOL    HW226667   1.737   1.312   4.840 -1.0109  0.3729 -1.4149
 5012SOL     OW26668   3.061   0.150   6.086 -0.2870 -0.2162  0.1746
 5012SOL    HW126669   3.093   0.068   6.125  0.2575 -0.6348 -1.1692
 5012SOL    HW226670   3.052   0.123   5.995  0.0066  0.2558  0.0069
 5013SOL     OW26671   3.261   1.387   3.349  0.2095 -0.0394 -0.9365
 5013SOL    HW126672   3.179   1.414   3.390  0.7316 -0.5925  0.4654
 5013SOL    HW226673   3.295   1.469   3.315 -1.8769  1.1814 -0.0979
 5014SOL     OW26674   2.268   4.321   2.185  0.0908  0.4076  0.0714
 5014SOL    HW126675   2.286   4.351   2.274  1.5760 -1.5304  0.4166
 5014SOL    HW226676   2.179   4.353   2.170 -0.8190 -2.5670 -1.1048
 5015SOL     OW26677   3.592   0.583  15.746 -0.2094  0.9891  0.0456
 5015SOL    HW126678   3.588   0.492  15.717 -0.0400 -0.2251  3.8107
 5015SOL    HW226679   3.685   0.603  15.739 -0.4345  1.3779 -1.8060
 5016SOL     OW26680   2.538   0.930   3.398 -0.2862  0.5008 -0.3466
 5016SOL    HW126681   2.622   0.973   3.380 -0.0685 -0.8420 -2.6238
 5016SOL    HW226682   2.504   0.905   3.312  0.9666  2.8768 -1.5541
 5017SOL     OW26683   0.091   0.436   6.670 -0.2574 -0.4475  0.0490
 5017SOL    HW126684   0.128   0.523   6.655  0.6399 -0.7635  0.4695
 5017SOL    HW226685   0.048   0.422   6.586  0.5014 -0.7968 -0.2784
 5018SOL     OW26686   0.773   4.208   8.219 -0.4605  0.0220  0.6719
 5018SOL    HW126687   0.712   4.281   8.212 -1.3883 -0.5204  3.0200
 5018SOL    HW226688   0.837   4.251   8.163 -0.2239 -0.5867  0.4735
 5019SOL     OW26689   1.313   1.192   4.723  0.0386  0.3249  0.1902
 5019SOL    HW126690   1.331   1.098   4.723  0.2628  0.3679 -0.1987
 5019SOL    HW226691   1.346   1.215   4.810 -0.0499 -2.0114  0.8409
 5020SOL     OW26692   4.369   4.271  16.990  0.0973 -0.1427  0.1672
 5020SOL    HW126693   4.396   4.189  16.949  1.1154  0.2942 -0.0246
 5020SOL    HW226694   4.337   4.320  16.915  0.1212  2.6561  2.0104
 5021SOL     OW26695   3.842   3.750   2.585 -0.1272  0.2498  0.1435
 5021SOL    HW126696   3.901   3.708   2.523 -0.5008  1.1695 -0.8237
 5021SOL    HW226697   3.804   3.671   2.626 -0.0382 -0.5269 -1.2777
 5022SOL     OW26698   1.322   0.251   4.126 -0.7026  0.6107 -0.2786
 5022SOL    HW126699   1.296   0.158   4.129  0.1188  0.2813 -3.0527
 5022SOL    HW226700   1.264   0.287   4.194 -2.8690 -3.1432 -0.1275
 5023SOL     OW26701   0.088   4.412   9.389 -0.8126 -0.4905 -0.8201
 5023SOL    HW126702   0.083   4.507   9.396 -2.3633 -0.6548  0.3083
 5023SOL    HW226703   0.174   4.387   9.424 -0.0927  0.9166 -1.6124
 5024SOL     OW26704   0.059   3.940  16.795 -0.2405  0.1274 -0.2296
 5024SOL    HW126705   0.126   3.916  16.731  0.0343 -1.0326  0.5061
 5024SOL    HW226706   0.063   4.036  16.801 -2.6565  0.2390 -0.4547
 5025SOL     OW26707   1.087   0.677   5.592 -0.1822 -0.1779  0.0555
 5025SOL    HW126708   1.015   0.636   5.544  0.6717  0.0222 -1.4178
 5025SOL    HW226709   1.080   0.628   5.674  0.5515  0.3568  0.4372
 5026SOL     OW26710   0.218   3.142   1.553  0.0228  0.1112 -0.2306
 5026SOL    HW126711   0.244   3.058   1.514  0.2411  0.1769 -0.2266
 5026SOL    HW226712   0.256   3.201   1.488  0.4613  2.6416  2.3113
 5027SOL     OW26713   0.703   2.962   5.862  0.2858  0.2419  0.4787
 5027SOL    HW126714   0.654   3.044   5.852  1.3556  1.0510  1.8533
 5027SOL    HW226715   0.790   3.001   5.862 -0.2343  1.3966 -1.1566
 5028SOL     OW26716   4.398   3.848   9.422 -0.5422  0.2908  0.4721
 5028SOL    HW126717   4.451   3.879   9.495 -1.3489  0.3150  1.0456
 5028SOL    HW226718   4.311   3.838   9.462 -0.7535 -1.0274 -0.3195
 5029SOL     OW26719   0.688   1.798   2.825 -0.0278 -0.1934 -0.0788
 5029SOL    HW126720   0.762   1.840   2.782 -0.9195  0.7631 -0.6750
 5029SOL    HW226721   0.676   1.732   2.757  0.5141  0.3697 -0.7196
 5030SOL     OW26722   2.115   3.625   5.521  0.8930 -0.0531  0.2605
 5030SOL    HW126723   2.151   3.539   5.543 -1.2898 -0.7911  0.9546
 5030SOL    HW226724   2.044   3.608   5.458  1.4367  0.8303 -0.5971
 5031SOL     OW26725   3.919   0.463   8.492 -0.8328 -0.4481 -0.5545
 5031SOL    HW126726   3.829   0.470   8.525 -1.0294  2.1447 -1.6264
 5031SOL    HW226727   3.918   0.368   8.481  0.7059 -0.5496  0.2310
 5032SOL     OW26728   4.576   4.283   9.024  0.0115  0.1441  0.6054
 5032SOL    HW126729   4.540   4.195   9.010 -1.2245  0.4074  2.0976
 5032SOL    HW226730   4.533   4.310   9.106 -1.5198 -0.2476 -0.0702
 5033SOL     OW26731   3.545   1.186   4.562  0.7750 -0.0962 -0.1828
 5033SOL    HW126732   3.581   1.127   4.496 -1.6314 -2.0130  0.1876
 5033SOL    HW226733   3.591   1.268   4.547 -1.0281  0.9903  0.1787
 5034SOL     OW26734   1.193   2.506  10.496 -0.1027 -0.0035 -0.6143
 5034SOL    HW126735   1.265   2.528  10.555 -0.9937  1.5684 -0.0999
 5034SOL    HW226736   1.130   2.476  10.561  1.2428  0.5753  0.9512
 5035SOL     OW26737   3.909   0.847   3.065  0.2623 -0.4349 -0.8027
 5035SOL    HW126738   3.872   0.913   3.007 -0.3349 -1.4440 -1.5734
 5035SOL    HW226739   3.831   0.826   3.117  0.1664  1.2258 -0.2831
 5036SOL     OW26740   1.013   0.960   5.318 -0.4777 -0.0554  0.2341
 5036SOL    HW126741   0.981   0.872   5.294  0.9526 -0.2532 -0.9221
 5036SOL    HW226742   1.057   0.981   5.236 -1.1067  0.4360  0.0244
 5037SOL     OW26743   0.318   3.850  11.185  0.3463 -0.1891  0.1623
 5037SOL    HW126744   0.368   3.926  11.156 -0.0750  0.6360  1.5881
 5037SOL    HW226745   0.227   3.878  11.171 -0.2660 -2.5919 -0.6392
 5038SOL     OW26746   4.337   3.646   6.017  0.1869 -0.4321 -0.0959
 5038SOL    HW126747   4.351   3.575   5.954 -0.5284  0.5821 -1.3914
 5038SOL    HW226748   4.339   3.597   6.099 -1.1452 -1.8870 -0.9316
 5039SOL     OW26749   1.636   2.317   0.500  0.1544  0.1722 -0.2131
 5039SOL    HW126750   1.581   2.327   0.423  0.0138  0.0839 -0.1264
 5039SOL    HW226751   1.590   2.382   0.554 -0.8898 -1.9919  1.5328
 5040SOL     OW26752   2.099   0.885   3.576 -0.4902  0.2675  0.3159
 5040SOL    HW126753   2.013   0.845   3.561 -0.8889  1.4600 -0.5647
 5040SOL    HW226754   2.164   0.832   3.530  0.8228  1.3751  0.9105
 5041SOL     OW26755   3.448   2.707   7.961  0.3443  0.0219 -0.7581
 5041SOL    HW126756   3.448   2.771   8.032  0.2344  0.4519 -1.1476
 5041SOL    HW226757   3.495   2.641   8.012 -1.3170  0.5754  1.4805
 5042SOL     OW26758   2.234   0.568   7.390 -0.0304  0.3577  0.3688
 5042SOL    HW126759   2.146   0.534   7.375  0.4123 -0.6846  0.1675
 5042SOL    HW226760   2.240   0.642   7.330 -1.3813  0.5572  0.4817
 5043SOL     OW26761   2.199   1.517  16.217  0.3461  0.1822 -0.0921
 5043SOL    HW126762   2.138   1.577  16.259 -0.2081 -1.9106  2.0870
 5043SOL    HW226763   2.278   1.571  16.217 -0.6009  1.5490 -1.9848
 5044SOL     OW26764   3.952   1.660  10.874  0.4826  0.3589 -0.8934
 5044SOL    HW126765   3.923   1.745  10.909 -3.7624 -0.8076 -1.5669
 5044SOL    HW226766   4.024   1.692  10.820  2.3679 -1.8992  0.3045
 5045SOL     OW26767   4.584   0.336   1.688 -0.4232 -0.2813  0.0861
 5045SOL    HW126768   4.528   0.269   1.728 -1.1652  0.9668  1.1286
 5045SOL    HW226769   4.533   0.414   1.708 -0.7768 -0.7152  0.8574
 5046SOL     OW26770   2.334   2.767   8.266  0.4528 -0.0905  0.3959
 5046SOL    HW126771   2.402   2.811   8.214  1.4756 -1.1121  0.8707
 5046SOL    HW226772   2.258   2.781   8.209  0.3296  0.2026  0.6340
 5047SOL     OW26773   2.169   0.341  16.115 -0.2655  0.3123 -0.2478
 5047SOL    HW126774   2.124   0.292  16.046  0.1287 -3.0959  1.9128
 5047SOL    HW226775   2.188   0.266  16.173 -0.8642 -0.1831 -0.6935
 5048SOL     OW26776   2.518   2.501  17.530 -0.6966  0.1868 -0.0641
 5048SOL    HW126777   2.608   2.475  17.509 -0.4638 -0.4180  1.7148
 5048SOL    HW226778   2.524   2.597  17.534 -2.0989  0.2036  1.4655
 5049SOL     OW26779   2.798   1.016   3.343  0.5583  0.3824 -0.4697
 5049SOL    HW126780   2.803   1.023   3.247  1.3233  0.3904 -0.4323
 5049SOL    HW226781   2.877   0.964   3.357 -0.4535 -1.1147 -0.3764
 5050SOL     OW26782   3.150   3.176   4.568  0.8392  0.5388 -0.2509
 5050SOL    HW126783   3.205   3.182   4.646  2.2483 -0.2210 -1.1857
 5050SOL    HW226784   3.144   3.080   4.568  0.3017  0.5731 -0.3620
 5051SOL     OW26785   2.484   2.544   5.563 -0.0067  0.5745 -0.0179
 5051SOL    HW126786   2.555   2.604   5.542  1.8153 -0.8267  2.1056
 5051SOL    HW226787   2.399   2.580   5.536 -1.0210  0.0413  2.5023
 5052SOL     OW26788   0.898   4.087   2.639  0.3369 -0.4705 -0.1050
 5052SOL    HW126789   0.890   4.004   2.592 -0.4274  0.7315 -2.0881
 5052SOL    HW226790   0.890   4.157   2.574 -0.3016 -1.9015 -1.5621
 5053SOL     OW26791   0.409   0.928   3.574  0.1989 -0.4532  0.0998
 5053SOL    HW126792   0.452   1.013   3.579  1.5618 -1.2936  2.8560
 5053SOL    HW226793   0.314   0.935   3.562  0.0407 -3.8498 -0.6269
 5054SOL     OW26794   2.806   3.968  16.577 -0.3656 -0.7413  0.0702
 5054SOL    HW126795   2.899   3.960  16.555 -0.3558  0.3287 -0.2597
 5054SOL    HW226796   2.804   3.897  16.642 -1.7298  0.8510  1.7708
 5055SOL     OW26797   0.732   4.567  11.490 -0.2808  0.0443 -0.0362
 5055SOL    HW126798   0.673   4.642  11.498 -0.7541 -0.2771 -0.5028
 5055SOL    HW226799   0.798   4.599  11.429  1.0330  1.4794  2.1454
 5056SOL     OW26800   3.968   3.837   2.876  0.6930 -0.2675 -0.1016
 5056SOL    HW126801   4.003   3.781   2.945 -1.7385 -1.0475  0.5266
 5056SOL    HW226802   3.973   3.771   2.807  2.7028  0.3906 -0.5537
 5057SOL     OW26803   4.314   1.712   8.011  0.4389 -0.1988  0.1945
 5057SOL    HW126804   4.404   1.744   8.005  0.2864 -0.4263 -3.4961
 5057SOL    HW226805   4.289   1.712   7.918  0.5256 -0.2904  0.1716
 5058SOL     OW26806   4.232   2.896   7.185  0.0805 -0.0819 -0.2546
 5058SOL    HW126807   4.147   2.922   7.150  1.0050  0.9658 -1.7358
 5058SOL    HW226808   4.258   2.820   7.134  4.2783  1.1064  0.0781
 5059SOL     OW26809   1.999   1.630   8.430  0.0073  0.2991  0.2926
 5059SOL    HW126810   2.062   1.655   8.364  0.2798 -0.8526  0.1128
 5059SOL    HW226811   1.923   1.585   8.392 -0.4086  1.3254 -0.0865
 5060SOL     OW26812   0.579   0.621   7.722  0.2454  0.6023  0.5061
 5060SOL    HW126813   0.540   0.709   7.727 -0.0102  0.5642 -0.8997
 5060SOL    HW226814   0.669   0.646   7.744  0.1902  0.9334  0.3584
 5061SOL     OW26815   4.525   1.444   2.795  0.2479 -0.4464  0.0647
 5061SOL    HW126816   4.595   1.454   2.860  1.2623  0.8467 -1.2286
 5061SOL    HW226817   4.585   1.415   2.726  1.6819  0.2660  1.0066
 5062SOL     OW26818   0.994   2.131   0.427 -0.2213 -0.1129 -0.2677
 5062SOL    HW126819   1.006   2.133   0.332 -0.5156 -1.1351 -0.3170
 5062SOL    HW226820   1.086   2.109   0.444 -0.6053  0.1311  2.0875
 5063SOL     OW26821   4.358   0.026   5.267 -0.2333  0.3215 -0.7193
 5063SOL    HW126822   4.432   0.069   5.310 -1.5118  0.6513  1.1811
 5063SOL    HW226823   4.290   0.040   5.333  0.9360  0.3684  0.4708
 5064SOL     OW26824   3.542   3.080   2.207  0.2336 -0.6559 -0.7775
 5064SOL    HW126825   3.494   3.000   2.230  0.2186  0.0836  1.7524
 5064SOL    HW226826   3.562   3.060   2.116  2.5810 -1.5201 -0.0551
 5065SOL     OW26827   2.570   3.059   8.155  0.1591  0.6735  0.8750
 5065SOL    HW126828   2.489   3.107   8.174 -0.8570  0.2154 -2.3378
 5065SOL    HW226829   2.605   3.049   8.244 -0.5498 -0.4383  1.0310
 5066SOL     OW26830   1.627   0.557   3.649  0.4142  0.1876 -0.6387
 5066SOL    HW126831   1.609   0.619   3.720 -0.1333  1.4040 -1.8275
 5066SOL    HW226832   1.723   0.563   3.651  0.4828 -0.9969 -0.4758
 5067SOL     OW26833   2.006   2.367   2.043  0.1115 -0.2173  0.4658
 5067SOL    HW126834   1.935   2.416   2.001 -1.5999 -0.6127  2.8735
 5067SOL    HW226835   2.073   2.393   1.979 -1.0102  1.0040 -0.2329
 5068SOL     OW26836   1.081   0.782  14.142  0.3452  0.1270 -0.4141
 5068SOL    HW126837   1.092   0.843  14.215 -1.1199 -0.0626 -0.0416
 5068SOL    HW226838   1.147   0.714  14.158 -0.3434 -0.8079 -1.6068
 5069SOL     OW26839   1.111   1.793  16.766 -0.1917 -0.4685 -0.2530
 5069SOL    HW126840   1.091   1.731  16.695 -1.6883 -0.6772  0.3551
 5069SOL    HW226841   1.095   1.879  16.729  0.2664 -0.5467 -0.6399
 5070SOL     OW26842   3.452   2.981  14.866 -0.2816  0.3112 -0.5181
 5070SOL    HW126843   3.421   2.899  14.904 -2.1274  0.0880 -2.4714
 5070SOL    HW226844   3.443   3.033  14.946 -1.8897 -1.2001  0.2807
 5071SOL     OW26845   1.070   1.927   4.982 -0.1752 -0.0540 -0.0310
 5071SOL    HW126846   1.067   1.862   5.053 -0.4654  0.3870  0.3554
 5071SOL    HW226847   1.151   1.972   5.005  0.5133 -1.4679  0.3118
 5072SOL     OW26848   3.902   2.930   2.659 -0.0993 -0.6276  0.0832
 5072SOL    HW126849   3.958   2.953   2.733  0.3922 -2.1991  0.1993
 5072SOL    HW226850   3.907   2.834   2.653 -0.9670 -0.6620 -0.0268
 5073SOL     OW26851   1.237   1.740   4.782 -0.1778  0.1804  0.3137
 5073SOL    HW126852   1.296   1.684   4.832 -0.1940  0.5485  0.7532
 5073SOL    HW226853   1.248   1.818   4.836 -0.9906 -0.8911  2.0185
 5074SOL     OW26854   3.701   4.434   5.145  0.1955  0.0350 -0.5814
 5074SOL    HW126855   3.785   4.451   5.102  0.5436  1.8007  0.8078
 5074SOL    HW226856   3.659   4.518   5.128  0.2351  0.2416  0.3329
 5075SOL     OW26857   0.001   1.201   0.774  0.9349 -0.0815 -0.4133
 5075SOL    HW126858   4.731   1.296   0.786 -0.1429 -0.0132 -1.9302
 5075SOL    HW226859   0.043   1.186   0.859 -0.0704  0.1638  0.1307
 5076SOL     OW26860   4.002   4.694   8.085 -0.2775  0.4889  0.0514
 5076SOL    HW126861   3.978   0.043   8.063  0.3598  0.6062 -0.1412
 5076SOL    HW226862   3.964   4.648   8.010 -0.1634  0.2346  0.1469
 5077SOL     OW26863   0.420   0.373   9.874  0.4117  0.4627 -0.0534
 5077SOL    HW126864   0.433   0.357   9.968 -0.3917 -0.8148 -0.1577
 5077SOL    HW226865   0.505   0.411   9.851  1.0352  0.3147  1.9329
 5078SOL     OW26866   0.618   1.402   2.213 -0.6709 -0.3136  0.4828
 5078SOL    HW126867   0.628   1.478   2.156  1.5519 -0.0415  1.2326
 5078SOL    HW226868   0.616   1.342   2.139 -0.3066  0.0513  0.1817
 5079SOL     OW26869   3.669   4.160  11.207 -0.1237 -0.0316  0.1351
 5079SOL    HW126870   3.643   4.157  11.299  1.1256  2.7138  0.5605
 5079SOL    HW226871   3.660   4.068  11.182  0.0365  0.0572 -0.2496
 5080SOL     OW26872   1.589   3.725   6.857  0.1527  0.0408 -0.5318
 5080SOL    HW126873   1.516   3.779   6.827 -0.8579  0.0489  1.9070
 5080SOL    HW226874   1.607   3.681   6.774  0.2438  0.4986 -0.7551
 5081SOL     OW26875   1.317   2.262   9.198  0.1526 -0.0505 -0.7866
 5081SOL    HW126876   1.284   2.279   9.110  0.9323  0.2995 -1.0103
 5081SOL    HW226877   1.254   2.199   9.231  0.6339  0.2203  0.6557
 5082SOL     OW26878   1.761   0.359   9.842 -0.3155 -0.0407  0.0118
 5082SOL    HW126879   1.845   0.361   9.796  0.4331 -1.0070  1.3547
 5082SOL    HW226880   1.769   0.440   9.892 -1.2494  0.1325 -0.1334
 5083SOL     OW26881   2.230   2.813   5.560  0.1309  0.1376 -0.1656
 5083SOL    HW126882   2.275   2.803   5.644  2.2345  0.5117 -1.2491
 5083SOL    HW226883   2.285   2.873   5.510  2.6445 -1.6337  0.4529
 5084SOL     OW26884   2.749   2.344   6.447 -0.6372  1.0035  0.5897
 5084SOL    HW126885   2.788   2.273   6.395 -1.5678 -0.8886  2.4553
 5084SOL    HW226886   2.793   2.424   6.418  2.0736  0.2000  2.4961
 5085SOL     OW26887   3.167   2.375   7.424  0.1262 -0.4838 -0.3431
 5085SOL    HW126888   3.213   2.357   7.506 -0.7433  2.3208  0.7432
 5085SOL    HW226889   3.249   2.389   7.377 -0.5283  0.1097 -1.3195
 5086SOL     OW26890   1.088   0.091   8.432  0.2909 -0.2977 -0.1710
 5086SOL    HW126891   1.077   0.105   8.526 -1.4636  2.2125 -0.7565
 5086SOL    HW226892   1.107   4.738   8.437 -0.4500 -0.3620  1.5860
 5087SOL     OW26893   1.388   2.903   7.352  0.3267  0.1929  0.1193
 5087SOL    HW126894   1.481   2.882   7.366  0.5435 -1.9963 -4.4471
 5087SOL    HW226895   1.386   2.996   7.373 -4.4305  0.5692 -2.0136
 5088SOL     OW26896   2.372   0.150  15.059  0.1697  0.2696 -0.4459
 5088SOL    HW126897   2.394   0.216  15.125 -2.0937  0.9828 -0.3991
 5088SOL    HW226898   2.284   0.183  15.040  0.3261  0.7152 -0.4007
 5089SOL     OW26899   2.839   2.775   1.980  0.1522  0.3650 -0.2936
 5089SOL    HW126900   2.774   2.793   2.047  1.4119 -1.4172  1.4216
 5089SOL    HW226901   2.921   2.773   2.030 -0.4596  1.3653  0.7497
 5090SOL     OW26902   4.727   3.197   5.575  0.2702 -0.5233 -0.0045
 5090SOL    HW126903   0.053   3.222   5.639  1.1970  2.1778 -2.0490
 5090SOL    HW226904   4.694   3.284   5.553  1.2352 -0.2502 -0.3566
 5091SOL     OW26905   1.395   0.003   9.500 -0.0479 -0.3505 -0.6332
 5091SOL    HW126906   1.304   4.738   9.470 -0.3370  1.0216 -0.0681
 5091SOL    HW226907   1.395   4.739   9.595 -0.2398  0.4175 -0.5895
 5092SOL     OW26908   3.811   3.203  14.221 -0.4034 -0.3947  0.9235
 5092SOL    HW126909   3.733   3.179  14.271  0.1968 -2.3852  0.9029
 5092SOL    HW226910   3.803   3.299  14.220 -1.0038 -0.4340  2.5143
 5093SOL     OW26911   2.359   0.555   2.393 -0.8347 -0.3859  0.6604
 5093SOL    HW126912   2.379   0.467   2.362 -0.7931  0.2218 -1.0686
 5093SOL    HW226913   2.413   0.553   2.472  1.7760 -2.1326 -1.1806
 5094SOL     OW26914   1.948   1.979   3.198 -0.3910 -0.2805  0.2080
 5094SOL    HW126915   2.019   2.016   3.146 -2.4996  2.0572 -1.0397
 5094SOL    HW226916   1.976   1.888   3.203  2.3981  0.3933 -2.9942
 5095SOL     OW26917   1.275   3.698  15.456 -0.0707  0.4590  0.3717
 5095SOL    HW126918   1.259   3.609  15.490 -1.5447  1.1966  1.5845
 5095SOL    HW226919   1.264   3.749  15.536  0.4324  0.0948  0.6753
 5096SOL     OW26920   2.036   4.614   8.848  0.3199  0.0302 -0.2998
 5096SOL    HW126921   2.012   4.563   8.771 -1.1486  0.7544 -0.3286
 5096SOL    HW226922   1.947   4.618   8.884  0.7812 -0.7401  0.9187
 5097SOL     OW26923   2.283   0.323   2.658  0.3954  0.1121 -0.3565
 5097SOL    HW126924   2.318   0.403   2.697  0.6710 -0.5151  0.6947
 5097SOL    HW226925   2.219   0.358   2.597 -1.6402 -1.2601  1.0130
 5098SOL     OW26926   2.632   3.065  16.764  0.0201 -0.3924  0.0834
 5098SOL    HW126927   2.598   3.024  16.685  1.1204 -1.5649  0.2282
 5098SOL    HW226928   2.725   3.057  16.745 -0.2376  0.3255 -1.4457
 5099SOL     OW26929   3.669   3.248   7.226  0.4132  0.0480  0.0633
 5099SOL    HW126930   3.578   3.226   7.248  0.3259  0.4515  0.1079
 5099SOL    HW226931   3.714   3.195   7.292 -0.5252  0.9006  1.3674
 5100SOL     OW26932   3.124   4.306   2.449 -0.2568 -0.2376  0.2893
 5100SOL    HW126933   3.119   4.374   2.382 -1.3202 -0.4984  0.1119
 5100SOL    HW226934   3.037   4.304   2.488 -0.2932  0.2557  0.2324
 5101SOL     OW26935   3.644   3.277  14.825 -0.1285 -0.2402  0.3363
 5101SOL    HW126936   3.629   3.361  14.782  0.0468 -0.5716 -0.3694
 5101SOL    HW226937   3.622   3.297  14.916 -0.4840 -0.3812  0.2807
 5102SOL     OW26938   1.109   2.167  15.259 -0.0030  0.1640  0.8237
 5102SOL    HW126939   1.202   2.144  15.260 -0.4628 -1.6136  2.7986
 5102SOL    HW226940   1.072   2.083  15.233  0.5723 -0.3068  1.5220
 5103SOL     OW26941   3.792   0.529  13.058  0.4172 -0.3139 -1.1199
 5103SOL    HW126942   3.877   0.486  13.066  0.8056  0.5188 -0.7871
 5103SOL    HW226943   3.777   0.516  12.964  0.6330 -3.2918 -0.7351
 5104SOL     OW26944   2.856   4.318   9.248 -0.4525 -0.0159  0.1773
 5104SOL    HW126945   2.906   4.256   9.301  0.4314 -0.7934 -1.5526
 5104SOL    HW226946   2.782   4.271   9.208 -1.0361 -0.0251  1.2687
 5105SOL     OW26947   2.139   4.438  12.926 -0.0905  0.1752 -0.1709
 5105SOL    HW126948   2.181   4.503  12.982  1.4134 -1.2935  0.3842
 5105SOL    HW226949   2.067   4.415  12.985 -1.8161  3.5524 -0.9631
 5106SOL     OW26950   1.868   2.264  11.702  0.6954  0.5030 -0.9844
 5106SOL    HW126951   1.773   2.275  11.708  0.4357 -1.9657 -0.4962
 5106SOL    HW226952   1.877   2.212  11.622  1.5518 -0.4935 -0.2471
 5107SOL     OW26953   3.811   1.620   4.348 -0.2636  0.1907  0.0274
 5107SOL    HW126954   3.872   1.577   4.288 -0.4572  0.5891 -0.4465
 5107SOL    HW226955   3.862   1.696   4.374  0.4283  0.4238 -2.0115
 5108SOL     OW26956   1.991   2.673   8.347  0.1170  0.2642  0.8204
 5108SOL    HW126957   2.050   2.635   8.281 -0.3262  2.3998 -0.7813
 5108SOL    HW226958   1.909   2.624   8.345  0.5725 -0.4981  0.6000
 5109SOL     OW26959   0.420   3.465   8.853 -0.0588 -0.2652 -0.0766
 5109SOL    HW126960   0.459   3.536   8.905 -1.0218 -2.4843  3.6441
 5109SOL    HW226961   0.435   3.389   8.909 -0.5312 -1.2591 -1.3135
 5110SOL     OW26962   2.711   2.749   1.365 -0.1154  0.5106  0.1208
 5110SOL    HW126963   2.728   2.679   1.301 -0.9128 -1.2801  1.8818
 5110SOL    HW226964   2.618   2.728   1.371  0.6404 -1.9908  3.1712
 5111SOL     OW26965   1.356   1.196   2.629 -0.2143  0.2767  0.2383
 5111SOL    HW126966   1.322   1.108   2.621  2.4193 -0.6968 -0.3650
 5111SOL    HW226967   1.278   1.248   2.609 -0.6343 -0.1851  0.6758
 5112SOL     OW26968   3.993   1.397  17.720 -0.0541  1.0809  0.1323
 5112SOL    HW126969   4.071   1.348  17.695 -0.0037 -0.7354  3.8572
 5112SOL    HW226970   3.953   1.341   0.026  0.5147 -0.9896 -1.2205
 5113SOL     OW26971   3.568   3.117  11.088 -0.6496  0.2602  0.2702
 5113SOL    HW126972   3.622   3.116  11.167  1.4025  1.5535 -1.1337
 5113SOL    HW226973   3.613   3.058  11.027  0.7804  2.1575 -0.4923
 5114SOL     OW26974   0.230   1.005   2.658 -0.2122  0.4648 -0.0040
 5114SOL    HW126975   0.311   0.957   2.674 -0.2496 -0.7607 -3.4060
 5114SOL    HW226976   0.185   0.951   2.593  0.2848 -2.8659  2.4221
 5115SOL     OW26977   0.969   3.574   1.952 -0.8755 -0.0224  0.0218
 5115SOL    HW126978   1.033   3.618   2.008 -0.6578  0.0154 -0.2617
 5115SOL    HW226979   1.016   3.492   1.939 -3.0020 -1.0817 -0.9652
 5116SOL     OW26980   0.420   4.570  10.051  0.0484 -0.1307  0.1786
 5116SOL    HW126981   0.496   4.611  10.010  1.5198 -0.2960  2.7866
 5116SOL    HW226982   0.460   4.541  10.133  1.5909 -0.8847 -0.8435
 5117SOL     OW26983   1.049   1.407   5.662 -0.2620  0.4527 -0.1779
 5117SOL    HW126984   1.022   1.385   5.752  2.1520 -4.1219 -0.5592
 5117SOL    HW226985   1.133   1.364   5.644 -0.2499  0.2052  0.4661
 5118SOL     OW26986   1.836   0.517   4.779  0.2005 -0.0871 -0.2722
 5118SOL    HW126987   1.804   0.448   4.838 -1.9682 -0.1489 -1.5027
 5118SOL    HW226988   1.755   0.531   4.730 -0.0301  0.7221  0.3408
 5119SOL     OW26989   0.479   1.273   0.587  0.6102 -0.6615 -0.1316
 5119SOL    HW126990   0.464   1.337   0.517  1.4562 -0.2052  0.1094
 5119SOL    HW226991   0.422   1.201   0.561  0.8101 -1.0089  0.4027
 5120SOL     OW26992   1.619   3.448   4.438 -0.1315 -0.2330 -0.4565
 5120SOL    HW126993   1.607   3.499   4.518  2.4055 -1.0502  0.4364
 5120SOL    HW226994   1.541   3.393   4.426  1.6462 -2.6407 -0.9504
 5121SOL     OW26995   2.715   3.780   7.988 -0.7578  0.2836  0.4490
 5121SOL    HW126996   2.685   3.812   7.903  0.7398 -0.8415 -0.4892
 5121SOL    HW226997   2.631   3.756   8.026  0.8860 -3.0388  1.9982
 5122SOL     OW26998   2.352   4.152  16.443  0.2259 -0.2247 -0.1332
 5122SOL    HW126999   2.404   4.169  16.365  0.0618 -1.1683 -0.4491
 5122SOL    HW227000   2.419   4.163  16.511  0.2412  0.5955 -0.2793
 5123SOL     OW27001   3.493   4.116   5.212  0.7672 -0.7600 -0.3417
 5123SOL    HW127002   3.554   4.042   5.213  1.5365 -0.1177  2.0249
 5123SOL    HW227003   3.479   4.113   5.307 -1.6925 -1.3534 -0.7212
 5124SOL     OW27004   4.530   0.291  11.791  0.6287  0.4734 -0.4286
 5124SOL    HW127005   4.449   0.244  11.812  1.5074 -0.3960  1.0230
 5124SOL    HW227006   4.497   0.379  11.777  0.4503  1.0086  3.4140
 5125SOL     OW27007   0.891   3.127   9.389 -0.8985 -0.2545  0.0910
 5125SOL    HW127008   0.883   3.102   9.297  2.4559 -0.8555 -0.0613
 5125SOL    HW227009   0.806   3.114   9.431 -0.5205 -1.2705  0.5383
 5126SOL     OW27010   1.205   3.885   8.044  0.0595  0.5090 -0.3214
 5126SOL    HW127011   1.164   3.799   8.039  0.2665  0.4197 -0.5383
 5126SOL    HW227012   1.151   3.943   7.991  0.5517  0.0495 -1.3328
 5127SOL     OW27013   4.726   1.928   5.094  0.1836 -0.0285 -0.0485
 5127SOL    HW127014   4.676   1.877   5.031  1.9543  0.2089 -1.6524
 5127SOL    HW227015   4.684   2.014   5.099  1.8880  0.8044  0.1252
 5128SOL     OW27016   0.946   1.328   5.901  0.0945  0.3125  0.0340
 5128SOL    HW127017   0.901   1.244   5.895  0.3973  0.0605  1.3802
 5128SOL    HW227018   0.900   1.378   5.968 -1.1548 -1.5669  0.5751
 5129SOL     OW27019   2.972   0.966  13.876 -0.5965 -0.2982 -0.0293
 5129SOL    HW127020   2.980   0.921  13.792 -1.6127 -1.7989  0.6883
 5129SOL    HW227021   2.992   1.054  13.843 -0.7393 -0.2385  0.0425
 5130SOL     OW27022   1.311   1.328   8.642 -0.2102 -0.0454  0.4814
 5130SOL    HW127023   1.300   1.286   8.557  0.2680  0.5939  0.0985
 5130SOL    HW227024   1.257   1.271   8.697  1.8328 -1.3929  1.1063
 5131SOL     OW27025   0.760   0.108   1.979  0.0326  0.5046  0.1325
 5131SOL    HW127026   0.731   0.125   1.889 -1.2987  1.3121  0.7172
 5131SOL    HW227027   0.687   0.051   2.003  0.1672  0.4972  0.5229
 5132SOL     OW27028   2.291   3.488   6.980  0.4064 -0.2341 -0.0284
 5132SOL    HW127029   2.282   3.464   6.887  2.3507 -0.4115 -0.1723
 5132SOL    HW227030   2.292   3.400   7.019 -1.2979 -0.5191 -0.6274
 5133SOL     OW27031   2.590   3.680   4.732  0.3113  0.2584 -0.0589
 5133SOL    HW127032   2.641   3.600   4.746 -0.8119 -0.2109  1.4275
 5133SOL    HW227033   2.504   3.653   4.766 -0.8568  3.3646 -0.5648
 5134SOL     OW27034   2.753   3.310  17.232  0.5209 -0.5151 -0.4093
 5134SOL    HW127035   2.835   3.328  17.279 -0.5082  4.2195 -0.4324
 5134SOL    HW227036   2.719   3.230  17.270  0.7614 -0.9037 -1.0108
 5135SOL     OW27037   4.303   1.424   3.539 -0.7332 -0.1848 -0.2178
 5135SOL    HW127038   4.369   1.477   3.494 -0.9157  1.3773  1.3630
 5135SOL    HW227039   4.244   1.496   3.558  2.4964  2.5639 -0.5746
 5136SOL     OW27040   1.997   1.911   8.393 -0.6629  0.1076  0.7622
 5136SOL    HW127041   2.055   1.940   8.463  3.5852 -3.4536 -1.2034
 5136SOL    HW227042   1.993   1.820   8.423 -1.1672 -0.4985 -1.1225
 5137SOL     OW27043   3.365   2.683   5.692  0.1446 -0.1199 -0.2220
 5137SOL    HW127044   3.419   2.685   5.771 -1.2650  1.6403  0.7161
 5137SOL    HW227045   3.296   2.625   5.725  0.0415  1.1177  1.7562
 5138SOL     OW27046   0.343   0.219   7.279 -0.4376  0.1206  0.8270
 5138SOL    HW127047   0.262   0.173   7.298  0.2128 -0.4852  2.1476
 5138SOL    HW227048   0.316   0.310   7.272 -2.0124 -0.3291  1.1540
 5139SOL     OW27049   0.330   2.760   5.825 -0.1089 -1.1585 -0.0878
 5139SOL    HW127050   0.354   2.736   5.736  0.8774  0.1768 -0.1731
 5139SOL    HW227051   0.246   2.715   5.837 -0.4758  0.2936  2.9270
 5140SOL     OW27052   0.560   1.023   6.430 -0.0936  0.0060 -0.3825
 5140SOL    HW127053   0.653   1.034   6.450 -0.0035 -0.1300 -0.7223
 5140SOL    HW227054   0.556   1.063   6.343  0.4493 -1.1055 -0.9282
 5141SOL     OW27055   3.937   4.368  10.436 -0.8007  0.4135  0.0409
 5141SOL    HW127056   3.894   4.413  10.509 -0.3259  2.4776 -0.9510
 5141SOL    HW227057   4.029   4.359  10.460 -1.4871 -0.7399  2.2294
 5142SOL     OW27058   1.385   1.790  16.847 -0.3855  0.0648  0.1209
 5142SOL    HW127059   1.305   1.738  16.854  0.5981 -1.0420  3.2364
 5142SOL    HW227060   1.342   1.863  16.892 -0.3947  0.4136 -0.4548
 5143SOL     OW27061   4.637   2.344   6.589  0.6386  0.2747  0.1853
 5143SOL    HW127062   4.607   2.254   6.601  3.6140 -1.1154 -2.9736
 5143SOL    HW227063   4.716   2.353   6.642 -0.1924  0.5942  1.3838
 5144SOL     OW27064   2.097   4.553   4.073  0.7789  0.4511  0.4840
 5144SOL    HW127065   2.085   4.646   4.055  0.7974  0.2318 -0.6757
 5144SOL    HW227066   2.183   4.559   4.114  0.4107  0.6065  1.2442
 5145SOL     OW27067   2.140   3.714  13.936 -0.0343  0.3213  0.3959
 5145SOL    HW127068   2.141   3.808  13.919  0.8023  0.2266 -0.0646
 5145SOL    HW227069   2.059   3.687  13.894  0.6802  0.8125 -1.2989
 5146SOL     OW27070   4.034   4.484  16.692  0.2174 -0.2621  0.2670
 5146SOL    HW127071   3.994   4.490  16.605  0.7119  0.4266  0.0907
 5146SOL    HW227072   3.966   4.517  16.751 -0.7036  0.1379 -1.0381
 5147SOL     OW27073   1.135   0.703   8.420 -0.3742  0.1071  0.6558
 5147SOL    HW127074   1.107   0.634   8.361  0.3611 -2.1162  2.9304
 5147SOL    HW227075   1.088   0.657   8.490 -0.2455 -0.7139  0.1935
 5148SOL     OW27076   2.949   1.523   7.428 -0.1605 -0.1676  0.0182
 5148SOL    HW127077   2.964   1.611   7.463  0.8012 -1.1980  2.2158
 5148SOL    HW227078   3.021   1.509   7.366  1.9804 -0.0498  2.4959
 5149SOL     OW27079   0.508   2.576   0.508  0.2116 -0.1812 -0.1408
 5149SOL    HW127080   0.566   2.499   0.513  1.8402  0.7118 -5.1428
 5149SOL    HW227081   0.474   2.559   0.420 -0.1930  0.3257 -0.0820
 5150SOL     OW27082   2.489   0.108   2.861 -0.3471 -0.1696 -0.6043
 5150SOL    HW127083   2.551   0.096   2.933 -2.1850  0.9488  1.1530
 5150SOL    HW227084   2.544   0.153   2.797 -0.0119 -0.8034 -0.7679
 5151SOL     OW27085   4.174   3.287   6.719  0.5118  0.2135  0.2691
 5151SOL    HW127086   4.217   3.240   6.791 -1.7444 -0.1238  1.3865
 5151SOL    HW227087   4.135   3.355   6.774 -0.6570  0.5796 -1.0332
 5152SOL     OW27088   3.955   3.493   9.391  0.2854 -0.3280 -0.5894
 5152SOL    HW127089   3.974   3.403   9.364 -0.0990 -0.2967 -0.9675
 5152SOL    HW227090   4.022   3.505   9.458  1.9438 -2.8737 -1.7833
 5153SOL     OW27091   2.193   3.834  17.015 -0.1173 -0.7979  0.1962
 5153SOL    HW127092   2.272   3.886  17.000 -0.6518 -0.1601 -0.4161
 5153SOL    HW227093   2.224   3.757  17.062  0.2147 -2.2528 -2.3787
 5154SOL     OW27094   2.643   2.229   8.818 -0.2292  0.6277  0.8137
 5154SOL    HW127095   2.610   2.302   8.766  1.2202  0.5785 -0.1725
 5154SOL    HW227096   2.587   2.152   8.804 -0.8363  0.9883  1.2967
 5155SOL     OW27097   0.963   3.655   7.851  0.5339  0.3075 -0.0977
 5155SOL    HW127098   1.052   3.632   7.880  1.2033 -0.0903 -2.4875
 5155SOL    HW227099   0.919   3.571   7.849  1.3266 -0.1537  1.5367
 5156SOL     OW27100   0.314   1.163   8.004  0.1306  0.9835  0.1860
 5156SOL    HW127101   0.391   1.203   8.045 -0.2242  2.8283 -0.9652
 5156SOL    HW227102   0.355   1.139   7.921 -1.4983 -2.0419  0.2765
 5157SOL     OW27103   4.006   3.750   0.257  0.8227 -0.0064  0.0826
 5157SOL    HW127104   4.078   3.807   0.230  1.3879 -0.1947  1.2073
 5157SOL    HW227105   3.990   3.799   0.338 -1.0749  1.0743 -0.9354
 5158SOL     OW27106   0.441   3.499  15.549  0.4611  0.0315  0.2560
 5158SOL    HW127107   0.486   3.448  15.481 -1.7604  3.4295 -3.7617
 5158SOL    HW227108   0.424   3.583  15.507  1.0037  0.7090  1.3731
 5159SOL     OW27109   1.612   1.747   6.373  0.4448  0.2953 -0.3791
 5159SOL    HW127110   1.624   1.715   6.284  1.7126  0.5740 -0.3211
 5159SOL    HW227111   1.520   1.740   6.395  0.4274  0.8895 -0.2514
 5160SOL     OW27112   2.500   0.324   5.255 -0.4065 -0.2737  0.0862
 5160SOL    HW127113   2.523   0.235   5.283  2.2370  1.0423  2.0854
 5160SOL    HW227114   2.589   0.348   5.227 -0.5266 -1.0839 -1.0043
 5161SOL     OW27115   2.538   4.113   7.587  0.0362 -0.8044 -0.0665
 5161SOL    HW127116   2.519   4.171   7.513 -1.0739 -0.4658  0.4879
 5161SOL    HW227117   2.454   4.127   7.630 -0.4391 -0.9738 -0.9272
 5162SOL     OW27118   1.051   3.131   8.425 -0.7520  0.0155 -0.0252
 5162SOL    HW127119   1.124   3.192   8.436 -1.1343  0.4738 -0.0194
 5162SOL    HW227120   0.983   3.185   8.466 -0.4853 -0.7717  1.4269
 5163SOL     OW27121   3.999   1.677   0.069 -0.4268  0.6466 -0.0304
 5163SOL    HW127122   4.023   1.589   0.042  1.0045  1.0398 -0.0573
 5163SOL    HW227123   3.904   1.677   0.063 -0.4202  0.0030 -0.1263
 5164SOL     OW27124   3.835   3.279   8.994  0.3900 -0.2957 -0.6459
 5164SOL    HW127125   3.779   3.204   8.977  0.2108  0.0718 -1.6955
 5164SOL    HW227126   3.766   3.338   9.025 -0.1742 -1.2454 -0.0917
 5165SOL     OW27127   4.314   4.505   3.595  0.5338  0.2813 -0.4358
 5165SOL    HW127128   4.238   4.448   3.604 -0.5755  1.9934  0.8973
 5165SOL    HW227129   4.280   4.585   3.554  0.2783  0.7666  0.7355
 5166SOL     OW27130   2.310   3.683   4.093  0.1407  0.0852 -0.5222
 5166SOL    HW127131   2.304   3.703   4.000 -1.3146  1.0860 -0.2091
 5166SOL    HW227132   2.289   3.590   4.087 -2.7117  0.7840 -1.0195
 5167SOL     OW27133   1.313   4.022   7.647  0.0666  0.4940 -0.2201
 5167SOL    HW127134   1.323   3.932   7.677 -0.7072 -0.0713 -1.6767
 5167SOL    HW227135   1.249   4.003   7.578 -2.4762 -2.2163  2.8833
 5168SOL     OW27136   2.705   3.223  14.332 -0.5322 -0.1083  0.1904
 5168SOL    HW127137   2.773   3.169  14.292  1.1024  1.2874  1.0836
 5168SOL    HW227138   2.694   3.293  14.268  0.8298 -0.9550 -0.9825
 5169SOL     OW27139   4.644   2.815   2.214 -0.0232 -0.4843 -0.0577
 5169SOL    HW127140   4.605   2.731   2.240  1.0795 -1.3134 -1.1001
 5169SOL    HW227141   4.591   2.842   2.139 -0.6884  1.0922  0.9856
 5170SOL     OW27142   3.862   0.080  13.496  0.2093 -0.1946 -0.2513
 5170SOL    HW127143   3.766   0.077  13.499  0.0938  0.5554 -3.5330
 5170SOL    HW227144   3.879   0.158  13.444  0.5047 -0.6180 -0.7881
 5171SOL     OW27145   0.058   3.100   6.992  0.4296 -0.4739  0.1887
 5171SOL    HW127146   0.072   3.195   6.988  1.7335 -0.7450 -2.1504
 5171SOL    HW227147   0.020   3.086   6.905  1.3197 -0.6684 -0.1754
 5172SOL     OW27148   1.751   4.080   6.006  0.3161  0.1331  0.2245
 5172SOL    HW127149   1.682   4.115   5.951  2.4360  0.3570 -2.2647
 5172SOL    HW227150   1.815   4.053   5.941  1.3319 -0.6669  1.5413
 5173SOL     OW27151   0.360   1.619   1.148 -0.1568  1.0767 -0.4125
 5173SOL    HW127152   0.452   1.598   1.135 -0.9237 -2.4469 -0.1677
 5173SOL    HW227153   0.325   1.530   1.142 -0.2574  1.1096 -0.3201
 5174SOL     OW27154   0.088   4.640  14.246 -0.0782  0.7720 -0.1362
 5174SOL    HW127155   0.091   4.564  14.304 -2.3319  1.9153  1.4745
 5174SOL    HW227156   4.735   4.641  14.225  0.1961  1.6781 -1.3449
 5175SOL     OW27157   0.842   0.615   5.469  0.2624  0.4011  0.4565
 5175SOL    HW127158   0.817   0.548   5.532  1.9517 -1.0868 -0.4314
 5175SOL    HW227159   0.779   0.680   5.499  0.0561  1.1048 -1.4626
 5176SOL     OW27160   2.346   3.404  11.605 -0.3723 -0.0603  0.5087
 5176SOL    HW127161   2.269   3.348  11.597 -0.2647 -0.3475  1.5405
 5176SOL    HW227162   2.340   3.468  11.534  0.6312  2.3203  2.5735
 5177SOL     OW27163   3.303   3.217   5.813  0.0048 -0.1358  0.1161
 5177SOL    HW127164   3.233   3.256   5.864 -0.5057 -0.8404 -0.0341
 5177SOL    HW227165   3.280   3.230   5.721 -0.2010  0.8595  0.3084
 5178SOL     OW27166   2.476   0.910   8.591 -0.5790 -0.4763 -0.0646
 5178SOL    HW127167   2.527   0.943   8.517 -2.8242  1.7113 -0.6283
 5178SOL    HW227168   2.404   0.973   8.591  0.3423  0.6026  0.7021
 5179SOL     OW27169   1.739   2.766   3.048  0.2796  0.0454  0.2027
 5179SOL    HW127170   1.781   2.845   3.082  0.8341  0.4313 -1.4084
 5179SOL    HW227171   1.669   2.802   2.993 -0.1869 -1.0734  0.0767
 5180SOL     OW27172   3.617   3.991  16.902  0.0952 -0.3385  0.1371
 5180SOL    HW127173   3.603   4.080  16.870  1.0785 -0.3606 -0.3412
 5180SOL    HW227174   3.543   3.965  16.956  0.4300 -3.6056 -0.9864
 5181SOL     OW27175   3.686   0.522   8.117  0.0257 -0.0903  0.0527
 5181SOL    HW127176   3.689   0.442   8.169  1.2117 -0.3254 -0.3613
 5181SOL    HW227177   3.642   0.585   8.174 -0.8606  1.0640 -1.9137
 5182SOL     OW27178   1.929   1.816   7.596 -0.4007  0.0595 -0.6495
 5182SOL    HW127179   1.906   1.907   7.581 -1.9524 -0.5697 -2.1638
 5182SOL    HW227180   1.915   1.792   7.504 -1.6436 -0.8639 -0.2170
 5183SOL     OW27181   1.282   0.624  15.686  0.2747  0.6022  0.1892
 5183SOL    HW127182   1.345   0.602  15.617 -0.1533  1.5136 -0.4981
 5183SOL    HW227183   1.259   0.543  15.732  0.7890  0.6989  0.6096
 5184SOL     OW27184   3.947   0.247   1.573  0.6955  0.4971  0.4443
 5184SOL    HW127185   3.886   0.175   1.556  0.1078  1.0567  0.1844
 5184SOL    HW227186   3.998   0.240   1.492  2.0786 -1.9024  1.5405
 5185SOL     OW27187   2.675   3.107   4.554 -0.4931 -0.0543  0.2187
 5185SOL    HW127188   2.660   3.091   4.460 -2.6481 -1.7416  0.8460
 5185SOL    HW227189   2.759   3.150   4.567 -0.8162  0.2220  1.3166
 5186SOL     OW27190   1.136   3.941   7.432  0.1854 -0.1258 -0.1193
 5186SOL    HW127191   1.086   4.014   7.395  0.5602  0.9876  1.6010
 5186SOL    HW227192   1.065   3.876   7.439  0.3708 -0.3807 -0.5629
 5187SOL     OW27193   4.329   2.662  15.186  0.1429  0.1504  0.2604
 5187SOL    HW127194   4.395   2.595  15.167 -0.9017 -1.3672  1.9810
 5187SOL    HW227195   4.358   2.695  15.271 -1.2105 -2.8291  1.8897
 5188SOL     OW27196   0.696   4.427   5.697  0.1388  0.0653  0.3979
 5188SOL    HW127197   0.755   4.417   5.771 -0.0946  1.9990  0.8581
 5188SOL    HW227198   0.723   4.514   5.669  0.7636  0.6035  2.7269
 5189SOL     OW27199   0.057   3.898   0.169  1.3126  0.2461  0.0834
 5189SOL    HW127200   4.737   3.835   0.208  0.1448  3.6843  3.8372
 5189SOL    HW227201   0.025   3.978   0.210 -1.3918 -1.3416  1.0840
 5190SOL     OW27202   1.406   1.918   9.683 -0.3691 -0.2352  0.6013
 5190SOL    HW127203   1.351   1.990   9.653  0.4941 -0.4056 -1.3904
 5190SOL    HW227204   1.415   1.880   9.596 -2.1034 -0.8414  0.6940
 5191SOL     OW27205   1.953   1.925  14.261 -0.1498 -0.4695  0.2669
 5191SOL    HW127206   1.893   1.972  14.318 -0.9113 -1.1112 -0.0080
 5191SOL    HW227207   1.951   1.976  14.180 -1.4176 -1.7245 -0.4964
 5192SOL     OW27208   2.239   3.988   8.157 -0.3668 -0.3341  0.4403
 5192SOL    HW127209   2.322   4.034   8.168 -0.9428  0.3544  2.0333
 5192SOL    HW227210   2.181   4.018   8.227 -0.2837 -1.3220  0.9275
 5193SOL     OW27211   0.925   1.471   2.273  0.1420 -0.0905 -0.3766
 5193SOL    HW127212   0.943   1.500   2.184  0.6982  1.7401  0.3245
 5193SOL    HW227213   0.835   1.441   2.257  0.0395 -0.7729  1.5132
 5194SOL     OW27214   0.754   1.313   8.058 -0.5903 -0.3481 -0.2974
 5194SOL    HW127215   0.791   1.364   8.129 -2.7990 -0.4023  0.9013
 5194SOL    HW227216   0.799   1.230   8.074 -1.2108 -0.6551 -0.1418
 5195SOL     OW27217   2.324   3.839  11.788 -0.3116  0.1368  0.2599
 5195SOL    HW127218   2.264   3.776  11.747 -2.4309  1.6355  1.1091
 5195SOL    HW227219   2.273   3.859  11.866 -0.1604  3.8857 -0.6210
 5196SOL     OW27220   0.610   3.048   7.735 -0.0093 -0.0114 -0.2616
 5196SOL    HW127221   0.548   3.118   7.715  0.4356  0.7067  0.8666
 5196SOL    HW227222   0.634   3.080   7.823 -2.0870 -1.4611  0.8374
 5197SOL     OW27223   3.736   3.069   6.093 -0.7085  1.0341  0.1683
 5197SOL    HW127224   3.689   3.001   6.141 -0.0830  0.1340 -0.4943
 5197SOL    HW227225   3.678   3.144   6.099 -2.2220 -0.3271  2.5857
 5198SOL     OW27226   4.652   2.335   9.188  0.5062 -0.0988 -0.0974
 5198SOL    HW127227   4.600   2.301   9.115  1.2069  1.7119 -1.4579
 5198SOL    HW227228   0.002   2.322   9.161 -0.3631 -2.4980 -1.9060
 5199SOL     OW27229   3.324   2.194   0.175  0.3698 -0.2461 -0.1573
 5199SOL    HW127230   3.235   2.158   0.171 -0.5669  1.7871  2.2293
 5199SOL    HW227231   3.365   2.119   0.218  2.5362  1.0225 -0.0265
 5200SOL     OW27232   2.361   0.302   3.140  0.0201  0.3503 -0.0016
 5200SOL    HW127233   2.369   0.288   3.234  0.0033  0.2514 -0.0148
 5200SOL    HW227234   2.281   0.253   3.122  0.7230 -0.3413 -1.3035
 5201SOL     OW27235   0.562   3.629   4.675  0.2282  0.1055 -0.1148
 5201SOL    HW127236   0.515   3.706   4.708  1.9640  2.1284 -2.3717
 5201SOL    HW227237   0.544   3.648   4.583  0.3187  1.9949  0.2567
 5202SOL     OW27238   2.760   2.839   6.714 -0.0516  0.7718  0.3258
 5202SOL    HW127239   2.847   2.875   6.732  0.4366  0.1957 -0.8621
 5202SOL    HW227240   2.708   2.876   6.785 -1.9377  0.7780 -1.0595
 5203SOL     OW27241   0.927   2.901   3.999  0.6210  0.1282 -0.2877
 5203SOL    HW127242   0.927   2.805   3.990 -1.0116 -0.0642  1.7465
 5203SOL    HW227243   0.964   2.931   3.916  0.0529  2.8039  0.4359
 5204SOL     OW27244   3.219   2.764  17.502 -0.2933  0.3381 -0.7266
 5204SOL    HW127245   3.190   2.687  17.550  1.1425 -0.2518 -0.8203
 5204SOL    HW227246   3.201   2.737  17.412 -1.0687  2.4281 -1.2132
 5205SOL     OW27247   1.885   0.316   2.989  0.5076  0.1919 -0.5136
 5205SOL    HW127248   1.958   0.288   2.934  2.7716  0.2266  2.4572
 5205SOL    HW227249   1.816   0.286   2.930  0.1693  0.6646 -0.3527
 5206SOL     OW27250   3.226   1.713   7.906  0.4638  0.5087 -0.0253
 5206SOL    HW127251   3.314   1.742   7.931 -0.1368  1.7349  0.6092
 5206SOL    HW227252   3.235   1.706   7.811 -1.1036 -2.7454  0.0579
 5207SOL     OW27253   4.441   4.448   3.094 -0.1148  0.0780 -0.4412
 5207SOL    HW127254   4.434   4.442   2.998  0.4269 -2.8733 -0.3110
 5207SOL    HW227255   4.536   4.444   3.101 -0.4138 -0.9960  2.9177
 5208SOL     OW27256   2.943   2.654   8.979 -0.4979 -0.2727 -0.1622
 5208SOL    HW127257   3.033   2.677   8.955 -0.0482 -1.9732 -0.0629
 5208SOL    HW227258   2.911   2.744   8.991 -0.1156 -0.1452 -0.1250
 5209SOL     OW27259   4.643   0.077   2.030 -0.4683  0.5411 -0.3352
 5209SOL    HW127260   4.617   0.113   2.115  0.7356  1.1406 -0.2254
 5209SOL    HW227261   4.696   0.146   1.991  0.7663  0.5922  1.4510
 5210SOL     OW27262   1.840   3.945   2.701 -0.3964 -0.0541 -0.3892
 5210SOL    HW127263   1.811   4.020   2.649 -2.2759 -0.8487 -0.5037
 5210SOL    HW227264   1.761   3.892   2.710 -0.5516  0.0482 -1.1173
 5211SOL     OW27265   2.837   4.727   4.188 -0.3802  0.0996 -0.1167
 5211SOL    HW127266   2.907   0.002   4.252  1.1066 -1.0687 -1.4660
 5211SOL    HW227267   2.850   4.635   4.167  2.3593  0.7529 -1.3473
 5212SOL     OW27268   4.664   2.113   8.324 -0.0539  0.1561  0.3987
 5212SOL    HW127269   4.713   2.177   8.273  1.7694 -2.5624 -1.2475
 5212SOL    HW227270   4.701   2.027   8.306  0.6331  0.6037 -0.3021
 5213SOL     OW27271   2.923   1.954   4.231 -0.3539  0.0141  0.3808
 5213SOL    HW127272   2.843   1.970   4.280 -1.7713  1.4362 -2.4054
 5213SOL    HW227273   2.982   1.932   4.303 -0.6202  1.2031  0.9609
 5214SOL     OW27274   2.349   1.495   6.366  0.0274  0.3412  0.3545
 5214SOL    HW127275   2.318   1.522   6.280 -0.5685 -0.2192  0.3960
 5214SOL    HW227276   2.434   1.460   6.337 -0.6343 -0.1577 -0.9988
 5215SOL     OW27277   4.563   2.358   6.061  0.1432  0.1710 -0.3186
 5215SOL    HW127278   4.519   2.273   6.055 -1.2632  0.8682  0.1388
 5215SOL    HW227279   4.516   2.415   5.999 -0.9533  1.7646  1.9664
 5216SOL     OW27280   3.788   4.470   9.622  0.5564  0.0680  0.1285
 5216SOL    HW127281   3.879   4.495   9.602 -0.3337  2.4508 -0.9559
 5216SOL    HW227282   3.739   4.552   9.614  1.4436  0.7156  1.3855
 5217SOL     OW27283   3.797   2.214   4.084  0.1236 -0.2304  0.4317
 5217SOL    HW127284   3.853   2.286   4.056 -0.5508  0.2682  0.3767
 5217SOL    HW227285   3.776   2.228   4.176  0.6345  0.2233  0.4795
 5218SOL     OW27286   4.310   3.318  11.289 -0.3938  0.6563  0.0325
 5218SOL    HW127287   4.393   3.277  11.313 -1.3310 -2.6161 -2.3782
 5218SOL    HW227288   4.257   3.303  11.366 -1.9254 -0.3198 -1.2133
 5219SOL     OW27289   1.872   0.821   7.569 -0.4364  0.7125 -0.3472
 5219SOL    HW127290   1.815   0.745   7.576 -1.7711  1.6210 -1.3152
 5219SOL    HW227291   1.859   0.861   7.656  0.5706 -0.0595  0.1482
 5220SOL     OW27292   1.299   0.977   1.595 -0.3691  0.0460 -0.3100
 5220SOL    HW127293   1.329   1.064   1.570 -2.1951  1.1305  1.2963
 5220SOL    HW227294   1.249   0.951   1.518  0.8354  1.4759 -1.5660
 5221SOL     OW27295   4.496   0.291   2.599  0.0687  0.3089 -0.1787
 5221SOL    HW127296   4.480   0.267   2.691  0.0196  0.6704 -0.0954
 5221SOL    HW227297   4.411   0.275   2.558  0.0577  2.0177 -0.8169
 5222SOL     OW27298   2.796   4.475   4.081  0.2800  0.4822  0.3807
 5222SOL    HW127299   2.718   4.431   4.115 -0.8748  0.7328 -1.9285
 5222SOL    HW227300   2.759   4.514   4.002  0.5246 -1.0064 -0.4588
 5223SOL     OW27301   2.905   3.878   6.825  0.3602  0.1423  0.4033
 5223SOL    HW127302   2.825   3.847   6.784 -0.5396  3.2364 -0.1932
 5223SOL    HW227303   2.967   3.815   6.787  1.8582 -0.3439  3.6642
 5224SOL     OW27304   3.797   1.846   6.726  0.0202  0.5859 -1.0618
 5224SOL    HW127305   3.754   1.769   6.761 -0.9685  2.9266  2.8994
 5224SOL    HW227306   3.722   1.902   6.705 -0.9773  0.5251  2.2864
 5225SOL     OW27307   1.930   0.073   3.642  0.7024 -0.0360  0.1265
 5225SOL    HW127308   1.891   0.015   3.707 -1.0883  0.4781 -0.4875
 5225SOL    HW227309   1.990   0.127   3.693  0.5546  1.1871 -0.9777
 5226SOL     OW27310   4.355   2.924  13.239  0.0990  0.2618 -0.1685
 5226SOL    HW127311   4.266   2.900  13.266  0.2038 -0.6896 -0.6616
 5226SOL    HW227312   4.373   2.834  13.211 -2.8402 -0.0185 -1.1770
 5227SOL     OW27313   0.135   3.350   7.617 -0.3321 -0.1080 -0.1848
 5227SOL    HW127314   0.088   3.389   7.691  0.2454  1.4302 -0.6379
 5227SOL    HW227315   0.060   3.334   7.560  1.2426  2.4117 -2.9497
 5228SOL     OW27316   2.430   1.780  14.114  0.4156 -0.3511  0.5711
 5228SOL    HW127317   2.360   1.790  14.178  0.8075 -0.1608  0.9719
 5228SOL    HW227318   2.390   1.830  14.043  1.3574  0.2614  0.4724
 5229SOL     OW27319   2.624   0.111  16.260 -0.1769 -0.2523 -0.3985
 5229SOL    HW127320   2.674   0.070  16.189 -1.3673  0.0583 -1.4175
 5229SOL    HW227321   2.683   0.178  16.293  0.1974 -0.4540 -0.6638
 5230SOL     OW27322   3.193   3.019   5.548 -0.1780 -0.1253  0.1375
 5230SOL    HW127323   3.123   3.035   5.485  1.6511  2.3287 -1.2477
 5230SOL    HW227324   3.215   3.109   5.571 -1.4084  0.8551 -2.5353
 5231SOL     OW27325   3.743   0.511   7.325 -0.2163 -0.6027 -0.4501
 5231SOL    HW127326   3.655   0.538   7.299 -0.2923 -0.4941 -0.0776
 5231SOL    HW227327   3.758   0.560   7.405 -0.7007 -1.4294  0.1419
 5232SOL     OW27328   3.051   1.665   8.852 -0.4803  0.0584  1.0504
 5232SOL    HW127329   3.067   1.758   8.833 -0.0686 -0.7343 -2.3913
 5232SOL    HW227330   3.102   1.646   8.931 -0.2958 -0.2171  0.8633
 5233SOL     OW27331   2.344   4.127   7.179  0.0391  0.6964  0.2788
 5233SOL    HW127332   2.298   4.060   7.229  0.2700  0.4941  0.2168
 5233SOL    HW227333   2.293   4.207   7.196  2.1830  2.5672 -2.1195
 5234SOL     OW27334   1.787   4.195   2.634 -0.8102 -0.2628 -0.1135
 5234SOL    HW127335   1.706   4.239   2.662  0.5474  1.0711  1.7837
 5234SOL    HW227336   1.829   4.270   2.592  1.2013  0.0228  2.3755
 5235SOL     OW27337   0.050   1.740  14.571  0.2209 -0.5194  0.3097
 5235SOL    HW127338   4.712   1.687  14.581 -2.2373  2.9890 -0.1515
 5235SOL    HW227339   0.072   1.757  14.663 -1.4324  0.5008  0.5382
 5236SOL     OW27340   4.705   3.885   8.993 -0.3122  0.0093 -0.4849
 5236SOL    HW127341   4.626   3.921   8.955 -0.3911  1.3775  1.0000
 5236SOL    HW227342   0.013   3.867   8.912  0.3745  0.1721 -0.1028
 5237SOL     OW27343   0.009   2.649   8.822 -0.0793  0.3981 -0.1252
 5237SOL    HW127344   4.679   2.607   8.871 -0.4548  1.6858  0.4181
 5237SOL    HW227345   4.706   2.718   8.773  1.0899 -0.0386 -1.7810
 5238SOL     OW27346   4.513   3.944   2.308  0.3923 -0.4791  0.0891
 5238SOL    HW127347   4.506   3.950   2.212 -2.4079  0.2755  0.3192
 5238SOL    HW227348   4.423   3.954   2.339  0.6971 -0.6392  1.0079
 5239SOL     OW27349   0.055   1.866   4.381 -0.7191  0.0671 -0.3403
 5239SOL    HW127350   0.131   1.876   4.438  0.4222  1.5554 -2.1359
 5239SOL    HW227351   0.095   1.820   4.308  0.6401 -1.1827  1.1892
 5240SOL     OW27352   0.497   3.137   1.411  0.3845 -0.0394 -0.0132
 5240SOL    HW127353   0.450   3.081   1.473 -2.2330  1.1514 -0.9343
 5240SOL    HW227354   0.432   3.199   1.378 -0.1608 -0.7492 -0.2540
 5241SOL     OW27355   1.483   1.522   6.747 -0.0334  0.0427 -0.6059
 5241SOL    HW127356   1.577   1.538   6.759  0.0579 -1.4135  0.6080
 5241SOL    HW227357   1.452   1.538   6.836  1.8703 -1.1599  0.2781
 5242SOL     OW27358   4.174   4.612  16.002  0.7822  0.3504 -0.1952
 5242SOL    HW127359   4.267   4.611  16.025  0.9911 -1.7073 -1.1840
 5242SOL    HW227360   4.181   4.693  15.952  0.4690  0.0770 -0.6809
 5243SOL     OW27361   1.118   0.704   6.518 -0.1395  0.1684  0.2908
 5243SOL    HW127362   1.187   0.769   6.506 -0.8082  0.7614 -0.3184
 5243SOL    HW227363   1.047   0.767   6.522 -0.2246 -0.0293  1.9756
 5244SOL     OW27364   0.115   0.618   3.838 -0.4463 -0.0064  0.2189
 5244SOL    HW127365   0.155   0.705   3.849 -0.1934 -0.1788  0.6398
 5244SOL    HW227366   0.159   0.587   3.759 -0.9493  0.6483 -0.3204
 5245SOL     OW27367   2.812   0.255  13.425 -0.2795  0.1942 -0.1041
 5245SOL    HW127368   2.875   0.313  13.468  1.5501 -0.8795 -1.3344
 5245SOL    HW227369   2.805   0.309  13.347  0.6622 -0.3891 -0.5925
 5246SOL     OW27370   2.301   3.839   7.568  0.6755 -0.2727  0.4006
 5246SOL    HW127371   2.232   3.820   7.631  2.3019  0.8259  2.4923
 5246SOL    HW227372   2.262   3.907   7.513 -0.4466 -1.1239  0.1396
 5247SOL     OW27373   3.456   0.989   1.840  0.1541  0.5136  0.0341
 5247SOL    HW127374   3.473   1.047   1.913  0.5946  0.7726 -0.2748
 5247SOL    HW227375   3.453   0.905   1.887  0.7406  2.0446  2.7911
 5248SOL     OW27376   0.501   3.962   7.695 -0.2799  0.1383 -0.1004
 5248SOL    HW127377   0.462   3.921   7.773  0.9492 -2.0777 -0.6468
 5248SOL    HW227378   0.444   3.911   7.637 -1.2097  0.4853  0.5034
 5249SOL     OW27379   3.577   2.424   5.430  0.3214 -0.3035  0.2344
 5249SOL    HW127380   3.606   2.443   5.520 -0.5937  1.0717  0.2416
 5249SOL    HW227381   3.482   2.429   5.438  0.0893 -2.2346 -1.5564
 5250SOL     OW27382   0.021   0.629   9.771  0.1590  0.2552 -1.1717
 5250SOL    HW127383   0.073   0.698   9.813  1.6234 -2.3417  1.2982
 5250SOL    HW227384   0.077   0.551   9.770 -0.5756 -0.3090  1.0443
 5251SOL     OW27385   0.817   1.705   6.840  0.0098  0.3627  0.2246
 5251SOL    HW127386   0.867   1.625   6.828 -1.8952 -1.1374  2.2115
 5251SOL    HW227387   0.759   1.661   6.903 -1.2566  0.0575 -1.1378
 5252SOL     OW27388   1.068   2.988  12.365 -0.4673 -0.2667 -0.6451
 5252SOL    HW127389   1.005   2.946  12.307 -1.5008  0.1298  0.2047
 5252SOL    HW227390   1.148   2.937  12.349  0.2437  0.6653 -0.0760
 5253SOL     OW27391   3.866   3.612   5.532  0.4682  0.4109 -0.1591
 5253SOL    HW127392   3.946   3.632   5.483  0.1248  2.0392 -0.0418
 5253SOL    HW227393   3.886   3.520   5.550  2.2178  0.8320  0.0850
 5254SOL     OW27394   2.184   4.593   9.184  0.0754  0.6259 -0.3753
 5254SOL    HW127395   2.239   4.600   9.262 -0.5677  1.1141  0.0290
 5254SOL    HW227396   2.109   4.538   9.210 -0.5474  2.8220  2.3980
 5255SOL     OW27397   4.302   1.007   4.147  0.0470  0.1395 -0.3280
 5255SOL    HW127398   4.255   0.974   4.071  1.1415 -0.9420 -0.5365
 5255SOL    HW227399   4.267   1.095   4.160 -1.1764 -0.4728  0.5847
 5256SOL     OW27400   4.218   0.460   4.822 -0.2746  0.2704  0.4106
 5256SOL    HW127401   4.222   0.373   4.782  0.7766 -0.1684  1.4778
 5256SOL    HW227402   4.270   0.441   4.900 -0.4006 -3.4130 -0.3817
 5257SOL     OW27403   3.794   1.411   5.781 -0.3511  0.0216  0.0146
 5257SOL    HW127404   3.802   1.317   5.797 -1.5815 -0.2148 -0.7855
 5257SOL    HW227405   3.790   1.446   5.869  0.6783  1.1471 -0.3857
 5258SOL     OW27406   0.226   1.678   1.643 -0.6621  0.0945  0.0617
 5258SOL    HW127407   0.302   1.638   1.684 -0.9261 -0.8313 -0.3654
 5258SOL    HW227408   0.254   1.685   1.552 -0.9193  0.1061 -0.0159
 5259SOL     OW27409   2.982   4.313  10.523  0.0484 -0.5755  0.3196
 5259SOL    HW127410   2.905   4.256  10.518 -0.1652 -0.3268  0.8071
 5259SOL    HW227411   3.005   4.330  10.432  1.6919 -0.7179  0.7054
 5260SOL     OW27412   0.820   2.046   5.079 -0.3203  0.0178 -0.3304
 5260SOL    HW127413   0.904   2.005   5.060  0.0657  0.2096  0.9715
 5260SOL    HW227414   0.831   2.126   5.028  0.3088  0.9149  1.2046
 5261SOL     OW27415   1.421   2.195   7.329  0.1051  0.1688  0.0659
 5261SOL    HW127416   1.419   2.259   7.258  1.0063 -0.7566 -0.7810
 5261SOL    HW227417   1.384   2.252   7.397 -2.3327 -1.0864 -0.2048
 5262SOL     OW27418   3.732   3.442   3.383 -0.0537 -0.3585  0.0677
 5262SOL    HW127419   3.712   3.350   3.402 -0.8652  0.3842  2.7971
 5262SOL    HW227420   3.805   3.458   3.443 -1.6073 -1.4282  2.2337
 5263SOL     OW27421   0.760   1.798   3.090 -0.5383  0.1128  0.1250
 5263SOL    HW127422   0.758   1.886   3.127 -1.0249 -0.6214  1.8180
 5263SOL    HW227423   0.734   1.814   2.999  2.3251  1.0909 -0.5213
 5264SOL     OW27424   2.741   2.105   0.960  0.4060 -0.0619 -0.1824
 5264SOL    HW127425   2.745   2.033   1.023 -2.6761 -0.7798 -0.8353
 5264SOL    HW227426   2.663   2.154   0.988  0.1193 -0.3048 -0.5709
 5265SOL     OW27427   0.511   2.967   9.107  0.5117 -0.0938 -0.2152
 5265SOL    HW127428   0.486   3.056   9.081  0.2661  0.2721  1.2577
 5265SOL    HW227429   0.548   2.939   9.024 -0.1273 -1.5913  0.0169
 5266SOL     OW27430   0.107   3.607   9.210 -0.5859 -0.1349  0.1943
 5266SOL    HW127431   0.175   3.675   9.217  0.6662 -1.4763  0.9771
 5266SOL    HW227432   0.113   3.586   9.116  0.4603  0.0269  0.2256
 5267SOL     OW27433   0.236   3.286   4.974 -0.1324 -0.1919 -0.7298
 5267SOL    HW127434   0.282   3.205   4.998  0.9846  0.0439 -2.0672
 5267SOL    HW227435   0.268   3.307   4.886 -1.7965  0.4664 -1.1701
 5268SOL     OW27436   2.752   4.538   1.443  0.2980  0.2830  0.3165
 5268SOL    HW127437   2.734   4.631   1.436 -0.7595  0.0477 -0.0361
 5268SOL    HW227438   2.846   4.543   1.426  0.4889 -2.8317  0.4456
 5269SOL     OW27439   2.074   4.204  14.240 -0.0330 -0.1799 -0.4230
 5269SOL    HW127440   2.048   4.296  14.237  0.0489 -0.0448  2.5050
 5269SOL    HW227441   2.065   4.179  14.332 -1.5585 -0.0211 -0.5362
 5270SOL     OW27442   1.300   3.534  13.561  0.0266  0.5975  0.2251
 5270SOL    HW127443   1.305   3.452  13.609 -2.3355  0.5392  0.3427
 5270SOL    HW227444   1.390   3.567  13.566  0.0745  0.2253  1.6575
 5271SOL     OW27445   0.757   0.099   4.753 -0.1625 -0.0094 -0.6115
 5271SOL    HW127446   0.688   0.061   4.698  0.3844 -0.5599 -0.9148
 5271SOL    HW227447   0.816   0.028   4.779 -0.2948 -0.2494 -0.9670
 5272SOL     OW27448   1.969   3.169   3.298  0.3052 -0.1653  0.0176
 5272SOL    HW127449   2.013   3.230   3.357 -1.3271 -0.0707  1.1289
 5272SOL    HW227450   2.006   3.205   3.217 -1.9389 -0.5242 -1.1648
 5273SOL     OW27451   3.866   0.866   4.357  0.1818 -0.1873  0.7200
 5273SOL    HW127452   3.793   0.805   4.367  1.7735 -1.8792  1.9294
 5273SOL    HW227453   3.900   0.837   4.273  0.8152 -1.0442  1.2736
 5274SOL     OW27454   0.871   2.807   0.868  0.6991 -0.4590  0.4090
 5274SOL    HW127455   0.863   2.888   0.818  1.8115 -1.3028 -1.1369
 5274SOL    HW227456   0.838   2.843   0.950  1.5860 -0.7230  0.8848
 5275SOL     OW27457   1.480   0.535  10.034 -0.2810  0.2277  0.7997
 5275SOL    HW127458   1.575   0.538  10.030 -0.2571 -0.0469  1.2450
 5275SOL    HW227459   1.462   0.622   9.997 -0.6177 -0.1819 -0.0100
 5276SOL     OW27460   3.748   2.490   7.855 -0.0250 -0.2652 -0.4444
 5276SOL    HW127461   3.718   2.511   7.943  0.5300 -2.1954  0.2076
 5276SOL    HW227462   3.665   2.472   7.811  0.4746 -1.6560 -0.8284
 5277SOL     OW27463   2.741   3.087   0.452 -0.2690  0.5126  0.1182
 5277SOL    HW127464   2.720   3.164   0.505 -0.9707  0.1073  0.4363
 5277SOL    HW227465   2.739   3.023   0.523  1.1398  1.0223  0.6284
 5278SOL     OW27466   1.928   1.796  17.739 -0.8623 -0.7242 -0.4999
 5278SOL    HW127467   1.977   1.877  17.740 -0.9101 -0.7257  1.1385
 5278SOL    HW227468   1.886   1.801  17.653  0.0139  2.1192 -0.7535
 5279SOL     OW27469   1.841   1.308   9.411 -0.3847 -0.6166 -0.6116
 5279SOL    HW127470   1.774   1.241   9.401 -0.1953 -0.6197 -1.8673
 5279SOL    HW227471   1.798   1.375   9.359 -0.2496 -0.1276 -0.0859
 5280SOL     OW27472   3.052   3.071   8.641  0.7062 -0.2147  0.0160
 5280SOL    HW127473   3.091   3.151   8.606  0.0752 -0.0584 -0.3327
 5280SOL    HW227474   2.987   3.111   8.699  1.8954 -0.1711  1.3184
 5281SOL     OW27475   0.496   1.212  15.432 -1.0939  0.0606 -0.1040
 5281SOL    HW127476   0.517   1.207  15.339  0.7834  0.5630  0.2930
 5281SOL    HW227477   0.501   1.307  15.444  2.8779 -0.1995  0.2374
 5282SOL     OW27478   0.383   4.329   2.425  0.3967  0.7356  0.0750
 5282SOL    HW127479   0.302   4.307   2.469  0.1391  0.0273 -0.7439
 5282SOL    HW227480   0.362   4.416   2.391 -1.3247 -0.7318 -2.6905
 5283SOL     OW27481   0.696   0.818   5.552 -0.2596  0.3253  0.0059
 5283SOL    HW127482   0.627   0.849   5.612  1.3280  0.6760  1.6599
 5283SOL    HW227483   0.741   0.902   5.540 -0.5210  0.5344  0.4406
 5284SOL     OW27484   4.724   3.683   7.587  0.3238 -0.3435  0.2262
 5284SOL    HW127485   4.738   3.778   7.584  0.8095 -0.3610  1.8891
 5284SOL    HW227486   0.011   3.657   7.499  0.7808 -2.6789  1.0651
 5285SOL     OW27487   2.764   1.865   8.929 -0.0890  0.5253  0.0079
 5285SOL    HW127488   2.756   1.879   8.835  0.6315 -1.9106 -0.4162
 5285SOL    HW227489   2.685   1.911   8.958 -0.0365  1.7549 -1.8391
 5286SOL     OW27490   1.935   0.224   7.719  0.1466  0.0357  0.4615
 5286SOL    HW127491   2.014   0.273   7.740 -0.5464  0.3215  2.3816
 5286SOL    HW227492   1.947   0.142   7.766  0.9296  0.2992  0.7179
 5287SOL     OW27493   2.124   3.108   1.359  0.1970  0.1116  0.4832
 5287SOL    HW127494   2.029   3.097   1.358  0.2831 -0.5791  0.0869
 5287SOL    HW227495   2.138   3.163   1.436  0.6778  0.0940  0.4084
 5288SOL     OW27496   3.172   0.471   9.159  0.4185 -0.8328 -0.0256
 5288SOL    HW127497   3.123   0.418   9.096 -1.1566  0.5868 -0.0006
 5288SOL    HW227498   3.174   0.412   9.234  0.7864 -1.2746 -0.3828
 5289SOL     OW27499   1.306   3.751   2.379 -0.2286  0.2769 -0.3699
 5289SOL    HW127500   1.384   3.805   2.380  0.4689 -0.6975 -2.4405
 5289SOL    HW227501   1.233   3.810   2.401 -0.9641 -0.6348 -0.3586
 5290SOL     OW27502   3.932   3.901   7.521 -0.1765  0.3762  0.0121
 5290SOL    HW127503   3.841   3.872   7.527  0.2492 -1.0842 -0.7347
 5290SOL    HW227504   3.960   3.867   7.437  3.5274  0.7931  1.0528
 5291SOL     OW27505   2.769   2.943   3.454  0.1207  0.1792  0.4180
 5291SOL    HW127506   2.746   2.855   3.424  0.7088 -0.0289  0.5745
 5291SOL    HW227507   2.863   2.936   3.468  0.0227  2.1957  2.0875
 5292SOL     OW27508   2.531   4.377   6.546  0.5287  0.2188 -0.4057
 5292SOL    HW127509   2.471   4.427   6.491  0.7901 -0.0309 -0.9162
 5292SOL    HW227510   2.470   4.317   6.588  0.6729 -1.1304 -2.1149
 5293SOL     OW27511   0.853   4.632   6.760 -0.1005 -0.2855  0.0369
 5293SOL    HW127512   0.859   4.682   6.841  0.7489  2.1328 -1.5236
 5293SOL    HW227513   0.828   4.546   6.794  0.9532 -0.4775  0.3195
 5294SOL     OW27514   3.186   2.433  16.419  0.2242 -0.0074  0.6985
 5294SOL    HW127515   3.228   2.426  16.505 -1.4693 -2.7302  1.3235
 5294SOL    HW227516   3.101   2.478  16.421 -0.6354 -1.6982  2.5303
 5295SOL     OW27517   0.913   2.309   0.605 -0.5496  0.5930  0.2658
 5295SOL    HW127518   0.977   2.263   0.658 -0.1296 -0.4334 -1.1244
 5295SOL    HW227519   0.906   2.244   0.535  1.3512 -0.1927  0.8224
 5296SOL     OW27520   0.818   1.107   6.363 -0.2255  0.1358 -0.2502
 5296SOL    HW127521   0.845   1.199   6.363 -2.0982  0.7019  2.0412
 5296SOL    HW227522   0.842   1.085   6.273  0.6892  2.3697 -0.5576
 5297SOL     OW27523   2.444   1.334   2.816 -0.2895 -0.0127 -0.2134
 5297SOL    HW127524   2.489   1.282   2.749 -1.6180 -0.0934 -1.0462
 5297SOL    HW227525   2.471   1.295   2.899 -0.7788  1.8259  0.7926
 5298SOL     OW27526   3.802   3.496   6.698 -0.2492  0.5149 -0.2215
 5298SOL    HW127527   3.826   3.404   6.682 -1.3248  0.0452  0.8366
 5298SOL    HW227528   3.708   3.492   6.683 -0.0014 -0.2667 -1.5588
 5299SOL     OW27529   2.065   2.981  15.863 -0.0253  0.2386  0.2118
 5299SOL    HW127530   2.099   3.048  15.923  0.4898  1.2491 -1.2053
 5299SOL    HW227531   2.151   2.955  15.831 -1.2781 -0.9468 -2.2024
 5300SOL     OW27532   0.911   4.453   9.108  0.0747 -0.0213 -0.4513
 5300SOL    HW127533   0.873   4.369   9.135 -3.1240  1.0844 -1.5812
 5300SOL    HW227534   0.930   4.425   9.018 -1.3057  3.4581 -1.8218
 5301SOL     OW27535   1.975   0.834   9.268 -0.3673  1.3192 -0.0382
 5301SOL    HW127536   1.885   0.820   9.298 -0.3389 -1.9207 -1.4384
 5301SOL    HW227537   1.970   0.766   9.201 -1.9779  2.4989 -1.1098
 5302SOL     OW27538   1.447   1.192   9.899 -0.3549  0.1012 -0.2936
 5302SOL    HW127539   1.467   1.245   9.821  0.5637 -0.1395 -0.2122
 5302SOL    HW227540   1.534   1.166   9.929 -0.3246 -1.4201 -1.7019
 5303SOL     OW27541   4.497   2.535   1.999  0.3437 -0.5270  0.2977
 5303SOL    HW127542   4.481   2.473   1.927 -2.2222 -2.8279  2.8633
 5303SOL    HW227543   4.537   2.468   2.054  0.8410  0.3793  1.0391
 5304SOL     OW27544   2.250   2.426   7.418 -0.3695  0.4439 -0.2566
 5304SOL    HW127545   2.175   2.482   7.401  0.5992  0.4908 -4.6324
 5304SOL    HW227546   2.321   2.491   7.412 -0.9054  1.0368 -0.1640
 5305SOL     OW27547   0.544   0.969   6.870  0.5473  0.0463  0.2049
 5305SOL    HW127548   0.536   0.908   6.797  1.7172  1.0387 -0.7415
 5305SOL    HW227549   0.463   1.021   6.863  0.2765 -0.1983  1.5268
 5306SOL     OW27550   0.746   2.024   9.757  0.4927 -0.0727  0.2084
 5306SOL    HW127551   0.825   1.977   9.784  1.3207  1.5947  0.6809
 5306SOL    HW227552   0.754   2.105   9.806 -0.5858 -0.0364  0.3258
 5307SOL     OW27553   3.133   0.104   8.950 -0.3195  0.3122 -0.5667
 5307SOL    HW127554   3.062   0.041   8.936  0.9317 -1.0248 -0.9696
 5307SOL    HW227555   3.208   0.045   8.952  1.2625  2.1869 -4.0192
 5308SOL     OW27556   2.868   4.267   1.634  0.5183  0.2086  0.0910
 5308SOL    HW127557   2.933   4.321   1.680  2.6144 -1.3393 -1.0555
 5308SOL    HW227558   2.876   4.177   1.665 -0.3634 -0.0879 -0.5517
 5309SOL     OW27559   3.010   3.505   7.394 -0.3198 -0.2552 -0.4440
 5309SOL    HW127560   2.962   3.436   7.347 -0.1596 -1.0950  0.6200
 5309SOL    HW227561   2.966   3.580   7.352 -1.6651 -0.7946 -0.0081
 5310SOL     OW27562   0.323   2.400   1.757  0.1286 -0.4463  0.2155
 5310SOL    HW127563   0.307   2.412   1.851  0.9377  0.7008  0.2038
 5310SOL    HW227564   0.331   2.304   1.753  2.1209 -0.3702  2.3344
 5311SOL     OW27565   2.345   4.628   1.948 -0.9177 -0.2569 -0.7856
 5311SOL    HW127566   2.403   4.663   1.881 -0.3515 -1.8058 -1.1131
 5311SOL    HW227567   2.398   4.558   1.987  0.3804  1.5024  0.5691
 5312SOL     OW27568   4.303   1.112   8.780  0.0916  0.1047  0.7885
 5312SOL    HW127569   4.232   1.051   8.761  0.2444  0.5284 -1.1226
 5312SOL    HW227570   4.259   1.170   8.842 -0.9431  0.6952 -0.5045
 5313SOL     OW27571   2.047   2.271   6.863  0.0901  0.4710 -0.5453
 5313SOL    HW127572   2.011   2.209   6.926  1.2467 -0.1403 -0.4848
 5313SOL    HW227573   1.973   2.269   6.802  0.9706 -2.1032 -1.5464
 5314SOL     OW27574   0.077   2.739   1.900  0.2747 -0.1639  0.1738
 5314SOL    HW127575   0.081   2.643   1.898 -0.5985 -0.1386 -2.2277
 5314SOL    HW227576   4.730   2.747   1.862  0.3735 -1.2403 -0.2761
 5315SOL     OW27577   2.199   3.845  16.521  0.1989 -0.0241  0.8686
 5315SOL    HW127578   2.227   3.756  16.542  1.1844  0.3814  1.2909
 5315SOL    HW227579   2.246   3.893  16.590  0.2026  2.6082 -0.9709
 5316SOL     OW27580   4.343   2.739   8.586 -0.1869  0.4605  0.0710
 5316SOL    HW127581   4.254   2.761   8.558  0.6461 -0.7497 -3.4331
 5316SOL    HW227582   4.340   2.643   8.576  1.8436  0.5597 -1.2612
 5317SOL     OW27583   3.301   2.150   5.302  0.1523  0.1897  0.1644
 5317SOL    HW127584   3.309   2.054   5.299 -0.9640  0.0478  1.8478
 5317SOL    HW227585   3.247   2.167   5.224  3.0908 -0.6771 -2.0748
 5318SOL     OW27586   4.407   1.564   4.686 -0.5049 -0.8534 -0.4851
 5318SOL    HW127587   4.460   1.644   4.687 -0.0468 -1.1648  0.1527
 5318SOL    HW227588   4.317   1.596   4.688  0.1523  1.0057 -0.4749
 5319SOL     OW27589   0.490   3.051   6.961 -0.3099 -0.1283  0.2557
 5319SOL    HW127590   0.582   3.026   6.948 -0.5175 -0.4821 -0.4873
 5319SOL    HW227591   0.489   3.147   6.966 -0.6404 -0.1150 -0.1056
 5320SOL     OW27592   2.120   3.126  15.461  0.1709 -0.4326  0.0284
 5320SOL    HW127593   2.086   3.112  15.550  1.7410  1.7184  0.9745
 5320SOL    HW227594   2.210   3.143  15.490 -0.2779  1.9255 -0.0044
 5321SOL     OW27595   2.514   1.583   2.390 -0.1295 -0.4075 -0.0698
 5321SOL    HW127596   2.457   1.596   2.315 -1.6700  0.2031  1.2113
 5321SOL    HW227597   2.551   1.670   2.406 -0.6225 -0.3064  0.5290
 5322SOL     OW27598   3.901   0.463   7.576  0.5797  0.3602  0.3911
 5322SOL    HW127599   3.936   0.536   7.627  3.5259 -0.3383 -0.6316
 5322SOL    HW227600   3.949   0.467   7.493 -0.1557 -0.5010 -0.0720
 5323SOL     OW27601   2.837   1.684   2.358 -0.0043 -0.1182  0.8989
 5323SOL    HW127602   2.808   1.776   2.359  0.8337  0.1467 -0.2861
 5323SOL    HW227603   2.868   1.667   2.447  0.2845 -0.0755  0.8055
 5324SOL     OW27604   1.246   0.470   9.925 -1.0572  0.1543 -0.0005
 5324SOL    HW127605   1.267   0.430   9.840 -3.2434 -0.5024 -0.2456
 5324SOL    HW227606   1.332   0.484   9.965  0.0660 -1.5433 -1.7964
 5325SOL     OW27607   4.408   1.971   3.706  0.1748  0.4660 -0.0369
 5325SOL    HW127608   4.378   2.047   3.756 -0.9422  0.7935 -1.2202
 5325SOL    HW227609   4.342   1.966   3.637  1.4115 -0.5506 -1.1491
 5326SOL     OW27610   2.908   2.244   8.855 -0.0614 -0.5084 -0.0179
 5326SOL    HW127611   2.824   2.268   8.815  2.2977  2.4747 -3.1374
 5326SOL    HW227612   2.927   2.331   8.889  1.7137 -0.8318 -0.1760
 5327SOL     OW27613   3.292   1.860   5.270 -0.0320 -0.0573  0.0438
 5327SOL    HW127614   3.343   1.836   5.347  2.3733 -0.0604 -1.5389
 5327SOL    HW227615   3.292   1.775   5.227  2.4225 -0.6181  1.1926
 5328SOL     OW27616   0.735   4.246   3.760  0.0150  0.5431 -0.3518
 5328SOL    HW127617   0.800   4.315   3.747  0.6459 -0.4410 -2.4709
 5328SOL    HW227618   0.728   4.204   3.674  0.0866  0.2524 -0.2146
 5329SOL     OW27619   2.185   2.028   1.911  0.5143  0.1557 -0.2084
 5329SOL    HW127620   2.252   2.050   1.847  0.9842 -1.1255 -0.1639
 5329SOL    HW227621   2.181   2.112   1.957  1.0669  0.0693 -0.0005
 5330SOL     OW27622   0.542   2.800   5.990  0.4513 -0.4006  0.1873
 5330SOL    HW127623   0.467   2.795   5.930  0.5687  2.8668 -0.2192
 5330SOL    HW227624   0.604   2.841   5.930  0.3558 -1.7410 -0.8414
 5331SOL     OW27625   1.470   3.576   4.920 -0.4482 -0.2953 -0.3582
 5331SOL    HW127626   1.519   3.496   4.899  0.1175  0.4013 -1.6939
 5331SOL    HW227627   1.383   3.550   4.949  0.0144  0.6139  1.8412
 5332SOL     OW27628   4.565   2.575   6.821 -0.5844 -0.0910 -0.0984
 5332SOL    HW127629   4.636   2.549   6.763 -0.1479  0.0130  0.3842
 5332SOL    HW227630   4.586   2.520   6.898 -0.4852  1.0513  0.6900
 5333SOL     OW27631   0.177   1.751  16.338 -0.2082 -0.2293  0.5619
 5333SOL    HW127632   0.113   1.751  16.410 -1.8724  1.1490 -0.9170
 5333SOL    HW227633   0.229   1.828  16.358  0.2231 -0.3591 -0.0511
 5334SOL     OW27634   4.599   3.667   3.645 -0.7676 -0.3114 -0.2455
 5334SOL    HW127635   4.519   3.618   3.663  0.5487 -2.3344  0.0233
 5334SOL    HW227636   4.600   3.731   3.717 -1.2336 -0.4652 -0.0999
 5335SOL     OW27637   0.093   1.801  16.683  0.3800 -0.3545 -0.0122
 5335SOL    HW127638   0.042   1.879  16.665  1.4676  0.3722  0.0399
 5335SOL    HW227639   0.030   1.732  16.662 -0.3343  0.0326  0.8474
 5336SOL     OW27640   4.593   1.227  11.909 -0.1958  0.5490 -0.1021
 5336SOL    HW127641   4.684   1.198  11.910 -0.1138  0.7666 -0.7076
 5336SOL    HW227642   4.550   1.142  11.906 -4.2196  2.5584  0.0209
 5337SOL     OW27643   2.093   3.848   5.672  0.3578 -0.2033 -0.5381
 5337SOL    HW127644   2.091   3.784   5.601 -0.5756 -1.1400  0.3327
 5337SOL    HW227645   2.188   3.855   5.682  0.3286 -1.4947  0.6739
 5338SOL     OW27646   3.969   1.283   8.754  0.0081 -0.1149 -0.0432
 5338SOL    HW127647   3.981   1.205   8.700  0.8718 -0.0409  0.0523
 5338SOL    HW227648   4.000   1.245   8.837  2.1196 -1.6168 -1.5390
 5339SOL     OW27649   1.977   1.394   1.104  0.7635 -0.4741  1.1075
 5339SOL    HW127650   2.059   1.351   1.130  0.9596 -0.6063  0.2709
 5339SOL    HW227651   1.943   1.423   1.189 -1.5177  1.3642 -0.4442
 5340SOL     OW27652   3.500   1.594   7.712 -0.0785  0.0432  0.6029
 5340SOL    HW127653   3.566   1.574   7.779 -1.0611 -1.4934  1.1067
 5340SOL    HW227654   3.439   1.525   7.738 -0.8827 -0.4831 -2.6997
 5341SOL     OW27655   4.411   2.890   9.004 -0.3468  0.2241  0.0706
 5341SOL    HW127656   4.472   2.852   9.067 -0.0714  0.7286  0.1140
 5341SOL    HW227657   4.380   2.972   9.042 -0.3274 -0.0087  0.5966
 5342SOL     OW27658   4.300   4.611   4.452  0.5735  0.3966 -0.8521
 5342SOL    HW127659   4.312   4.706   4.448  1.4914  0.2490 -1.5526
 5342SOL    HW227660   4.355   4.583   4.526 -2.5075  0.0597  1.2991
 5343SOL     OW27661   0.372   4.670  10.483  0.7311 -0.5288 -0.0905
 5343SOL    HW127662   0.407   4.592  10.440 -0.2650  0.3097 -2.4097
 5343SOL    HW227663   0.447   4.727  10.469  0.8370 -0.7289 -0.3389
 5344SOL     OW27664   4.190   3.230   3.322 -0.2591 -0.3576  0.5450
 5344SOL    HW127665   4.105   3.195   3.349 -0.2527  0.1397  1.2203
 5344SOL    HW227666   4.233   3.147   3.300 -0.3722 -0.8836  2.3078
 5345SOL     OW27667   4.639   3.473   5.490  0.0401  0.0667  0.1291
 5345SOL    HW127668   4.705   3.511   5.549  1.3202  0.5890 -1.6312
 5345SOL    HW227669   4.560   3.522   5.513 -0.2989 -0.6771  0.5700
 5346SOL     OW27670   2.791   2.653   7.908 -0.2653  0.1980 -0.3113
 5346SOL    HW127671   2.878   2.616   7.893  0.0948  0.5930  0.7955
 5346SOL    HW227672   2.808   2.737   7.951  0.7619 -0.5236  0.6912
 5347SOL     OW27673   1.463   2.248   7.972  0.5414 -0.5491 -0.1546
 5347SOL    HW127674   1.402   2.217   8.038 -1.2456 -0.5596 -1.7938
 5347SOL    HW227675   1.426   2.198   7.898  2.3513 -1.2132 -0.5972
 5348SOL     OW27676   0.031   0.117  14.011  0.1614 -0.0010  0.5388
 5348SOL    HW127677   0.072   0.056  13.950  2.1399  0.8154  1.0462
 5348SOL    HW227678   0.048   0.073  14.095 -1.2097  2.0608  1.9163
 5349SOL     OW27679   1.797   0.872   6.324  0.2152 -0.3122  0.4839
 5349SOL    HW127680   1.874   0.836   6.279  0.7632  0.7979  0.5319
 5349SOL    HW227681   1.829   0.861   6.414  1.8731  0.2025 -0.0411
 5350SOL     OW27682   1.183   1.295  15.896  0.0576 -0.1531 -0.1390
 5350SOL    HW127683   1.166   1.353  15.970  0.5622 -0.2516  0.0550
 5350SOL    HW227684   1.176   1.203  15.923 -1.0511 -0.7694 -2.4772
 5351SOL     OW27685   3.814   1.990   3.752 -0.1033 -0.5042 -0.2055
 5351SOL    HW127686   3.787   1.960   3.839 -1.2355 -0.6104 -0.5930
 5351SOL    HW227687   3.878   2.058   3.768 -1.1499  0.9169 -2.0371
 5352SOL     OW27688   1.361   4.724  16.787 -0.3427  0.2908  0.4795
 5352SOL    HW127689   1.369   0.071  16.751 -0.3501  0.2318  0.3345
 5352SOL    HW227690   1.387   4.679  16.707 -2.6621  0.2758 -0.2660
 5353SOL     OW27691   1.431   0.370   3.902  1.0479 -0.3292 -0.1011
 5353SOL    HW127692   1.410   0.459   3.930 -3.9873 -0.7081 -2.7209
 5353SOL    HW227693   1.418   0.322   3.984  1.4190  3.3599  2.1396
 5354SOL     OW27694   3.428   2.457   3.363 -0.1659  0.5465  0.4095
 5354SOL    HW127695   3.503   2.503   3.400  0.0349  1.3896 -1.0307
 5354SOL    HW227696   3.464   2.368   3.365  1.3376  1.2561  4.0377
 5355SOL     OW27697   4.343   0.449   3.558  0.3891 -0.3486 -0.4151
 5355SOL    HW127698   4.409   0.411   3.500 -1.4348 -1.1727 -1.9537
 5355SOL    HW227699   4.371   0.540   3.571  0.3259 -0.3430 -0.3211
 5356SOL     OW27700   2.468   0.138   5.493  0.0266 -0.4533  0.1503
 5356SOL    HW127701   2.407   0.193   5.542 -1.5107 -1.6106 -0.4645
 5356SOL    HW227702   2.546   0.163   5.541  0.1447 -0.9616  0.2248
 5357SOL     OW27703   1.961   4.315   9.758 -0.1980  0.8733  0.0074
 5357SOL    HW127704   1.895   4.381   9.736 -0.5700  0.5120  0.0216
 5357SOL    HW227705   1.976   4.281   9.670 -0.2851 -3.0317  1.4964
 5358SOL     OW27706   1.691   4.689   3.021 -0.1903 -0.1155 -0.1042
 5358SOL    HW127707   1.695   0.042   3.003  1.1009 -0.2126 -0.2716
 5358SOL    HW227708   1.716   4.690   3.114  0.0395 -0.7630 -0.1592
 5359SOL     OW27709   3.975   1.616   9.706  0.4844 -0.3255  0.0864
 5359SOL    HW127710   4.029   1.539   9.723  1.1705  0.1529  0.0787
 5359SOL    HW227711   4.014   1.649   9.625  2.5222 -1.3509  0.6599
 5360SOL     OW27712   4.318   2.430   6.805 -0.5424  0.2530  0.4717
 5360SOL    HW127713   4.392   2.373   6.826 -0.0021  1.0241  0.6598
 5360SOL    HW227714   4.365   2.480   6.738 -2.6338 -0.6436 -1.6994
 5361SOL     OW27715   2.190   2.643  11.331 -0.5563  0.0662  0.3842
 5361SOL    HW127716   2.181   2.604  11.418  1.4131 -1.2672 -0.0142
 5361SOL    HW227717   2.267   2.595  11.300 -2.3503 -1.3996 -1.8225
 5362SOL     OW27718   2.600   0.784  16.817  0.4866 -0.0012 -0.6192
 5362SOL    HW127719   2.545   0.862  16.815 -0.4456 -0.6799 -1.4429
 5362SOL    HW227720   2.582   0.735  16.736 -1.3520  0.1096 -0.2799
 5363SOL     OW27721   2.962   2.156   7.248 -0.4740 -0.2669  0.1398
 5363SOL    HW127722   3.014   2.226   7.208 -0.6582  0.5361  1.3133
 5363SOL    HW227723   2.878   2.198   7.266 -1.0216 -0.4874 -1.8663
 5364SOL     OW27724   1.914   0.475   4.017 -0.0482 -0.0356 -0.4249
 5364SOL    HW127725   1.967   0.429   4.082 -0.3902 -1.1684 -0.9466
 5364SOL    HW227726   1.847   0.513   4.074  1.6259  3.0889 -0.5368
 5365SOL     OW27727   0.004   0.488  16.418 -0.2344 -0.9229 -0.3098
 5365SOL    HW127728   0.028   0.580  16.417 -1.5530 -0.5645  1.4207
 5365SOL    HW227729   0.058   0.471  16.341  1.0207  0.7347  0.2078
 5366SOL     OW27730   0.257   0.666   7.509  0.0730 -0.1332  0.1969
 5366SOL    HW127731   0.233   0.660   7.417 -0.6728  1.0414  0.3212
 5366SOL    HW227732   0.178   0.628   7.547  0.6752 -1.6568 -0.0637
 5367SOL     OW27733   1.186   2.789   3.217  0.2150  0.2510  0.3518
 5367SOL    HW127734   1.104   2.743   3.200  1.0860 -0.5909 -1.5007
 5367SOL    HW227735   1.253   2.733   3.178  0.4322  0.1357  0.8923
 5368SOL     OW27736   4.014   3.032   9.168 -0.0765  0.0467 -0.1454
 5368SOL    HW127737   4.001   2.946   9.129  3.8365 -0.4739 -0.3292
 5368SOL    HW227738   3.935   3.080   9.145 -0.4940  0.6091  2.4651
 5369SOL     OW27739   4.086   4.045   7.706  0.2960  0.7381  0.5769
 5369SOL    HW127740   4.144   4.082   7.639 -1.1089 -1.8500 -2.0724
 5369SOL    HW227741   4.043   3.988   7.642  1.2555 -0.0293  0.6049
 5370SOL     OW27742   4.697   3.862   5.247  0.2795  0.3050 -0.0320
 5370SOL    HW127743   4.680   3.881   5.339 -0.9519  0.3002 -0.2575
 5370SOL    HW227744   4.736   3.944   5.217  0.0716  0.1101 -0.8384
 5371SOL     OW27745   3.338   0.512   4.081 -0.2652 -0.4876 -0.0696
 5371SOL    HW127746   3.352   0.439   4.142 -1.8790 -0.0910  0.7707
 5371SOL    HW227747   3.266   0.479   4.027  1.7469 -2.6651 -1.4867
 5372SOL     OW27748   3.464   0.617   1.083 -0.0024  0.0203 -0.0567
 5372SOL    HW127749   3.530   0.671   1.040  0.9937 -1.8220 -0.8202
 5372SOL    HW227750   3.393   0.681   1.076  0.4708  0.4168 -1.1049
 5373SOL     OW27751   0.533   0.588  16.384 -0.5602 -0.7113 -0.1140
 5373SOL    HW127752   0.479   0.589  16.462 -0.0717  2.1562  0.1789
 5373SOL    HW227753   0.619   0.593  16.426 -0.3877 -2.1263 -0.2929
 5374SOL     OW27754   0.518   2.480   0.794 -0.2259 -0.1634  0.2367
 5374SOL    HW127755   0.492   2.407   0.851 -1.0523 -1.8236 -2.2567
 5374SOL    HW227756   0.526   2.450   0.704 -0.5706  4.2330 -1.2734
 5375SOL     OW27757   0.001   3.825   3.296 -0.4502 -0.4473  0.0217
 5375SOL    HW127758   4.721   3.743   3.341 -2.2265 -0.2263 -0.4291
 5375SOL    HW227759   4.730   3.883   3.371  0.5771  1.0487 -0.9795
 5376SOL     OW27760   4.552   1.175   8.801 -0.2064 -0.8335  0.5760
 5376SOL    HW127761   4.472   1.124   8.790  0.7150 -1.5033 -2.9448
 5376SOL    HW227762   4.613   1.102   8.807  0.1317 -0.5202  1.0022
 5377SOL     OW27763   0.946   0.266  15.957  0.2922  0.3245 -0.3410
 5377SOL    HW127764   0.950   0.327  15.884  3.4588  0.6556  0.0960
 5377SOL    HW227765   1.025   0.300  15.999 -0.6209  0.7809  0.9900
 5378SOL     OW27766   0.267   3.889  14.044 -0.2097  0.4656 -0.2939
 5378SOL    HW127767   0.281   3.967  13.991 -1.9869  0.0992 -1.3003
 5378SOL    HW227768   0.176   3.879  14.018 -0.7177  0.2896  1.5227
 5379SOL     OW27769   2.737   3.323   3.895 -0.0972  0.2182  0.3856
 5379SOL    HW127770   2.724   3.320   3.990 -1.5673 -0.9233  0.1342
 5379SOL    HW227771   2.651   3.294   3.866 -0.0465 -1.6733  2.1295
 5380SOL     OW27772   4.026   1.813  11.830  0.3219 -0.5111  0.1958
 5380SOL    HW127773   3.950   1.869  11.842  0.6519 -0.0538  0.1646
 5380SOL    HW227774   4.072   1.817  11.914 -0.2600  0.4066  0.4761
 5381SOL     OW27775   3.594   3.885   7.225  0.2026  0.3907 -0.0599
 5381SOL    HW127776   3.663   3.867   7.161 -0.0797  0.8317 -0.4977
 5381SOL    HW227777   3.635   3.902   7.310  1.3846  0.7179 -0.6982
 5382SOL     OW27778   3.813   1.986   6.318 -0.7271  0.0120  0.6081
 5382SOL    HW127779   3.857   2.015   6.398  1.8725  0.1685 -0.8655
 5382SOL    HW227780   3.841   1.894   6.313  0.3425  0.2738  1.8364
 5383SOL     OW27781   4.040   2.581   8.708  0.1138 -0.2271  0.4450
 5383SOL    HW127782   3.945   2.575   8.713 -0.1207  1.0971 -1.9018
 5383SOL    HW227783   4.066   2.584   8.800  1.6837  1.3040 -0.0397
 5384SOL     OW27784   4.719   3.578   0.663 -0.6587 -0.2831  0.1497
 5384SOL    HW127785   4.664   3.509   0.628 -0.1341 -0.5063 -0.2346
 5384SOL    HW227786   4.658   3.604   0.732 -0.8962  0.7953 -0.4516
 5385SOL     OW27787   4.171   2.865  11.832  0.2733 -0.4424 -0.1815
 5385SOL    HW127788   4.246   2.859  11.892  1.3626 -0.5635 -1.5506
 5385SOL    HW227789   4.162   2.771  11.815 -0.7692 -0.3463 -0.1640
 5386SOL     OW27790   2.276   3.206   8.196  0.0678  0.2365  0.5058
 5386SOL    HW127791   2.280   3.275   8.262 -0.6338  1.2076 -0.4588
 5386SOL    HW227792   2.241   3.242   8.115  0.3340 -1.8965 -0.5761
 5387SOL     OW27793   2.101   0.109   9.212 -0.3817 -0.1019 -0.1730
 5387SOL    HW127794   2.102   0.110   9.308 -0.8131 -0.1113 -0.1670
 5387SOL    HW227795   2.135   0.023   9.185  0.2713  0.4874 -1.2014
 5388SOL     OW27796   1.568   0.763   3.899  0.0719 -0.1246 -0.3935
 5388SOL    HW127797   1.558   0.850   3.860  1.0484 -0.1696 -0.7613
 5388SOL    HW227798   1.650   0.768   3.948  1.0772  0.1121 -2.0836
 5389SOL     OW27799   0.237   1.128  14.099 -0.5650  0.4240  0.3680
 5389SOL    HW127800   0.208   1.212  14.066 -3.0941 -1.0791 -1.2447
 5389SOL    HW227801   0.152   1.082  14.098 -0.6406  0.5719 -0.0240
 5390SOL     OW27802   4.573   0.085  10.870 -0.3471  0.2351 -0.8869
 5390SOL    HW127803   4.563   0.129  10.786 -0.1238  2.8484  0.4826
 5390SOL    HW227804   4.639   0.140  10.911 -0.4867 -1.1565  1.2357
 5391SOL     OW27805   4.170   4.261   9.554 -1.0649 -0.2900 -0.8165
 5391SOL    HW127806   4.205   4.300   9.634 -2.2385  1.1251 -0.9818
 5391SOL    HW227807   4.249   4.233   9.507 -2.4615  1.2585 -4.1044
 5392SOL     OW27808   0.542   1.852   5.309  0.8594  0.3183  0.7563
 5392SOL    HW127809   0.535   1.771   5.360  0.4577 -1.0774 -1.5230
 5392SOL    HW227810   0.486   1.840   5.232  1.3510 -2.3857  0.8008
 5393SOL     OW27811   2.967   0.233  10.435 -0.4889  0.1873  0.0884
 5393SOL    HW127812   3.044   0.180  10.420 -0.6755 -0.3209  0.9414
 5393SOL    HW227813   2.974   0.295  10.362  0.9694  1.6096  1.4560
 5394SOL     OW27814   0.559   3.735   6.203 -0.1348  0.2861  0.7318
 5394SOL    HW127815   0.482   3.792   6.201  1.6765  2.6392 -1.2556
 5394SOL    HW227816   0.619   3.796   6.160 -0.6614  0.7714  0.6941
 5395SOL     OW27817   4.086   2.673  15.459  0.0791  0.3026 -0.5495
 5395SOL    HW127818   4.037   2.670  15.376 -0.9360 -2.6671  0.1844
 5395SOL    HW227819   4.135   2.755  15.453  0.8354 -0.0502  0.8872
 5396SOL     OW27820   4.002   2.772  16.484  0.0256  0.2227 -0.1900
 5396SOL    HW127821   3.908   2.755  16.494 -0.1413  2.3809  1.9388
 5396SOL    HW227822   4.030   2.771  16.576  0.6865 -1.1226 -0.4063
 5397SOL     OW27823   4.293   0.041   1.311 -0.4123 -0.0930 -0.5781
 5397SOL    HW127824   4.310   4.703   1.260  1.8900  0.5080 -0.7453
 5397SOL    HW227825   4.350   0.038   1.387 -0.3442  0.8611 -0.5994
 5398SOL     OW27826   3.698   3.218   1.490 -0.4136  0.5385 -0.1586
 5398SOL    HW127827   3.631   3.177   1.545 -1.2798  0.3902 -1.3168
 5398SOL    HW227828   3.684   3.310   1.512 -2.2116  0.5085 -1.1603
 5399SOL     OW27829   2.476   2.644   9.195 -0.6041 -0.4141 -0.5515
 5399SOL    HW127830   2.435   2.648   9.282 -1.9864  0.7335 -1.2566
 5399SOL    HW227831   2.490   2.737   9.180  0.2164 -0.3292  0.6843
 5400SOL     OW27832   4.014   4.369   4.501 -0.2556  0.4188  0.8183
 5400SOL    HW127833   4.109   4.361   4.511 -0.1079  1.3227  0.1344
 5400SOL    HW227834   3.973   4.367   4.587 -0.0604 -0.5651  0.8920
 5401SOL     OW27835   0.793   2.405   6.061  0.4879 -0.1161 -0.2035
 5401SOL    HW127836   0.741   2.443   5.991 -0.1626 -1.5780 -0.5134
 5401SOL    HW227837   0.802   2.473   6.127 -1.5395  0.6490 -0.7049
 5402SOL     OW27838   2.567   2.430   4.965  0.0342  0.0697 -0.1770
 5402SOL    HW127839   2.498   2.495   4.960 -0.6788 -0.8180 -1.7649
 5402SOL    HW227840   2.559   2.381   4.883  2.4362 -1.4433  0.4621
 5403SOL     OW27841   4.667   3.449   5.781 -0.4766  1.0131  0.2746
 5403SOL    HW127842   0.005   3.420   5.826 -1.2102  1.1532  1.6689
 5403SOL    HW227843   4.694   3.531   5.740  0.6331  0.6136  0.2030
 5404SOL     OW27844   0.118   4.426  12.959 -0.3751  0.3653 -0.7215
 5404SOL    HW127845   0.162   4.509  12.941 -0.0089  0.2936 -0.1492
 5404SOL    HW227846   0.028   4.459  12.952 -0.8157 -0.5201  0.8114
 5405SOL     OW27847   4.169   4.668   0.669 -0.4836 -0.4125 -0.7425
 5405SOL    HW127848   4.207   4.689   0.583  2.4485  0.2876  0.7107
 5405SOL    HW227849   4.241   4.689   0.729 -0.3791 -1.8497 -0.3640
 5406SOL     OW27850   2.024   2.953  12.252 -0.0746 -0.7260 -0.1427
 5406SOL    HW127851   2.119   2.965  12.244  0.1446 -1.6484  1.0406
 5406SOL    HW227852   1.983   3.007  12.185  0.9840 -1.1464 -1.1427
 5407SOL     OW27853   1.854   3.297  15.715  0.4160  0.4225  0.1510
 5407SOL    HW127854   1.944   3.323  15.695  0.5249 -0.3905 -0.4151
 5407SOL    HW227855   1.804   3.356  15.658  0.4111  1.6862  1.4838
 5408SOL     OW27856   3.967   1.167   0.417 -0.0029  0.2472  0.1280
 5408SOL    HW127857   3.959   1.078   0.380  0.5969 -0.5995  2.0586
 5408SOL    HW227858   3.944   1.222   0.342  0.0343 -0.0095 -0.0762
 5409SOL     OW27859   4.552   4.614  14.182  0.4360  0.1159 -0.5185
 5409SOL    HW127860   4.494   4.620  14.257 -0.0786 -0.1263 -0.8939
 5409SOL    HW227861   4.490   4.661  14.126 -0.0481  0.1201  0.0294
 5410SOL     OW27862   3.515   1.682   2.495  0.2564 -0.0115 -0.7054
 5410SOL    HW127863   3.561   1.605   2.461 -0.0828 -0.1145 -0.9352
 5410SOL    HW227864   3.443   1.629   2.531  1.3855 -0.9847  0.1340
 5411SOL     OW27865   1.870   3.952   5.796 -0.6482  0.0907 -0.5159
 5411SOL    HW127866   1.962   3.952   5.771 -0.0945  0.2836  1.5280
 5411SOL    HW227867   1.820   3.947   5.715 -0.9212 -1.6102 -0.2417
 5412SOL     OW27868   2.471   2.478   8.950 -0.2955  0.0040  0.0845
 5412SOL    HW127869   2.535   2.413   8.978  1.3058  1.2030 -0.7362
 5412SOL    HW227870   2.498   2.548   9.009 -1.6115  2.0184 -1.6956
 5413SOL     OW27871   3.345   0.792   4.092 -0.3400 -0.2878  0.0146
 5413SOL    HW127872   3.256   0.783   4.126 -1.0651  0.6412 -1.6762
 5413SOL    HW227873   3.367   0.699   4.089 -0.9973 -0.5177  1.8673
 5414SOL     OW27874   1.710   2.579   8.299 -0.1908  0.2644  0.4535
 5414SOL    HW127875   1.629   2.546   8.260  1.0020 -1.5847 -0.4264
 5414SOL    HW227876   1.772   2.544   8.236 -0.7990  1.6713 -0.9372
 5415SOL     OW27877   0.851   3.923  17.406  0.4362  0.8299  0.1727
 5415SOL    HW127878   0.941   3.901  17.384 -0.6417 -1.5321 -1.8438
 5415SOL    HW227879   0.856   3.895  17.497  0.6952 -2.9032 -1.0118
 5416SOL     OW27880   2.718   1.810   5.712  0.4364 -0.0433 -0.6600
 5416SOL    HW127881   2.662   1.784   5.639 -0.7294  1.4391 -0.3001
 5416SOL    HW227882   2.773   1.877   5.671  1.4243 -0.7998 -0.5694
 5417SOL     OW27883   3.758   0.314   2.783  0.1887 -0.1405 -0.7648
 5417SOL    HW127884   3.838   0.286   2.827  0.4464  0.5864 -0.7613
 5417SOL    HW227885   3.721   0.236   2.742  2.9876 -3.7079  3.6783
 5418SOL     OW27886   1.760   1.522   2.859  0.2662  0.0687  0.1146
 5418SOL    HW127887   1.770   1.429   2.878 -0.5770 -0.1663 -0.5592
 5418SOL    HW227888   1.723   1.522   2.770  1.1995  1.2623 -0.2805
 5419SOL     OW27889   3.669   3.979  15.769  0.6882 -0.2983 -0.1743
 5419SOL    HW127890   3.595   4.040  15.767 -0.6919 -1.9124  1.7346
 5419SOL    HW227891   3.706   4.002  15.684  1.3432  0.5426  0.3395
 5420SOL     OW27892   3.008   1.290  17.266  0.2959 -0.8815  0.5503
 5420SOL    HW127893   3.004   1.383  17.244  1.2956 -1.0029 -0.1816
 5420SOL    HW227894   3.090   1.262  17.224 -0.2098 -0.2686 -0.8535
 5421SOL     OW27895   0.205   3.616   6.277  0.1003  0.1666 -0.0480
 5421SOL    HW127896   0.177   3.524   6.276 -1.6844  0.7268 -0.4352
 5421SOL    HW227897   0.188   3.638   6.186  0.3452  2.0510  0.3713
 5422SOL     OW27898   2.235   2.233   8.022 -0.1950  0.6011  0.0341
 5422SOL    HW127899   2.314   2.272   7.986  0.7831 -0.7387  0.7466
 5422SOL    HW227900   2.272   2.158   8.070 -1.7666  0.1414  0.5417
 5423SOL     OW27901   2.655   1.445   3.001 -0.5876 -0.1336  0.1397
 5423SOL    HW127902   2.689   1.384   2.936  1.8174  0.7227  0.5787
 5423SOL    HW227903   2.609   1.384   3.059 -0.0143 -0.6443  0.0609
 5424SOL     OW27904   3.863   3.314   6.344 -0.2620  0.3304 -0.6848
 5424SOL    HW127905   3.901   3.402   6.331  1.5564 -0.2783  0.5471
 5424SOL    HW227906   3.825   3.299   6.257 -0.1180 -1.4174 -0.4455
 5425SOL     OW27907   2.417   0.090   7.076 -0.3940  0.0818 -0.2639
 5425SOL    HW127908   2.442   0.050   6.993  1.9619  1.0112 -0.0117
 5425SOL    HW227909   2.440   0.183   7.080  0.6470 -0.1988  0.2739
 5426SOL     OW27910   2.493   4.641  15.538 -0.3149 -0.2114  0.2955
 5426SOL    HW127911   2.429   4.663  15.469  0.0045  1.1521  0.4418
 5426SOL    HW227912   2.431   4.605  15.602 -0.2628  0.5191  0.7496
 5427SOL     OW27913   2.132   3.011  11.007  0.2866 -0.1906 -0.5315
 5427SOL    HW127914   2.187   2.941  11.042  1.4231  0.0492 -1.8165
 5427SOL    HW227915   2.046   2.974  11.025 -0.8441  1.4134 -2.6644
 5428SOL     OW27916   1.987   3.956   8.628 -0.2111  0.1415  0.1489
 5428SOL    HW127917   2.001   3.998   8.713 -2.4380  1.2184 -0.0048
 5428SOL    HW227918   1.901   3.991   8.603  0.6032  2.6040  0.7576
 5429SOL     OW27919   3.823   3.578  15.044  0.1945  0.0728 -0.4296
 5429SOL    HW127920   3.771   3.501  15.021 -0.1649  0.2635 -0.2623
 5429SOL    HW227921   3.747   3.628  15.075  0.9826  0.4236  0.9570
 5430SOL     OW27922   4.645   0.339   7.196 -0.6834  0.3111 -0.3419
 5430SOL    HW127923   4.636   0.246   7.179 -0.7666  0.2246  0.1850
 5430SOL    HW227924   4.729   0.361   7.156 -0.5622 -1.5344 -1.1042
 5431SOL     OW27925   1.174   1.891   0.318 -0.4211 -0.2854 -0.4401
 5431SOL    HW127926   1.233   1.894   0.392  0.4830  1.8405 -1.2404
 5431SOL    HW227927   1.142   1.801   0.323 -2.3534  0.4653  0.9932
 5432SOL     OW27928   2.760   1.487   9.368 -0.5802 -0.1912  0.7528
 5432SOL    HW127929   2.714   1.569   9.350  1.6096  0.7318 -0.5947
 5432SOL    HW227930   2.750   1.433   9.289  1.3394  0.4330  0.0962
 5433SOL     OW27931   1.855   0.263   6.148 -0.1616  0.6634  0.4228
 5433SOL    HW127932   1.882   0.172   6.156 -1.7142  0.2773  1.2138
 5433SOL    HW227933   1.935   0.303   6.181  1.6202 -2.2555 -0.4162
 5434SOL     OW27934   0.830   4.641   2.406  0.0979 -0.1461  0.4309
 5434SOL    HW127935   0.923   4.616   2.412 -0.1686 -1.4820 -1.0472
 5434SOL    HW227936   0.815   4.674   2.495  1.5474  3.2902 -0.6223
 5435SOL     OW27937   2.379   1.729   3.555 -0.0767  0.0278  0.1155
 5435SOL    HW127938   2.313   1.673   3.513 -0.0931  0.7498 -0.8166
 5435SOL    HW227939   2.350   1.816   3.529 -0.5950  0.6910  2.9427
 5436SOL     OW27940   4.564   3.105   0.484  0.2355 -0.4960  1.0258
 5436SOL    HW127941   4.470   3.089   0.481  0.3200 -0.5183 -1.2364
 5436SOL    HW227942   4.575   3.109   0.389  1.2968  2.8732  1.2868
 5437SOL     OW27943   0.138   2.557   5.908 -0.5624  0.0659 -0.8101
 5437SOL    HW127944   0.197   2.484   5.894  0.2373  0.9975 -2.3393
 5437SOL    HW227945   0.102   2.534   5.993  0.1829 -1.3014 -0.8648
 5438SOL     OW27946   0.860   2.674  11.170 -0.7556 -0.2171 -0.0007
 5438SOL    HW127947   0.809   2.671  11.251 -1.1944 -1.2573 -0.3141
 5438SOL    HW227948   0.839   2.756  11.126  0.9038 -0.9759 -2.2355
 5439SOL     OW27949   3.498   2.098   8.363 -0.0671 -0.0761  0.3904
 5439SOL    HW127950   3.497   2.003   8.354 -0.2475 -0.2301  1.9744
 5439SOL    HW227951   3.415   2.103   8.410 -1.0093  1.2510 -1.4406
 5440SOL     OW27952   0.663   0.595   9.599  0.2055 -0.3693 -0.0308
 5440SOL    HW127953   0.683   0.509   9.561  0.7376 -0.4878  0.5105
 5440SOL    HW227954   0.699   0.568   9.684  0.2206 -0.1707  0.0258
 5441SOL     OW27955   2.333   3.603  17.062 -0.5628  0.5610 -0.3258
 5441SOL    HW127956   2.412   3.590  17.115 -0.1032 -1.7294 -1.5928
 5441SOL    HW227957   2.284   3.520  17.068 -2.2301  1.5066 -0.7528
 5442SOL     OW27958   2.300   3.487   5.048 -0.1167 -0.2884  0.0932
 5442SOL    HW127959   2.213   3.449   5.062 -0.3885  0.3987  0.2652
 5442SOL    HW227960   2.291   3.570   5.095  0.4511  0.1339 -0.5445
 5443SOL     OW27961   3.613   1.740   1.436  0.3696  0.2865  0.3329
 5443SOL    HW127962   3.555   1.816   1.439  1.1515  0.9384 -1.3787
 5443SOL    HW227963   3.687   1.764   1.492 -0.0666  0.1557  0.9754
 5444SOL     OW27964   2.901   2.554   4.264 -0.0099 -0.3558  0.6878
 5444SOL    HW127965   2.836   2.619   4.236  0.5012 -0.7968 -1.4474
 5444SOL    HW227966   2.977   2.610   4.280  0.7371 -0.4557 -2.6953
 5445SOL     OW27967   0.129   0.962   8.813 -0.0180 -0.2808  0.7631
 5445SOL    HW127968   0.203   1.019   8.794  0.5255 -0.5950  1.9364
 5445SOL    HW227969   0.169   0.875   8.810  0.1190 -0.1354 -2.3882
 5446SOL     OW27970   1.553   2.992   8.013 -0.2509 -0.0674 -0.0920
 5446SOL    HW127971   1.551   2.897   8.001 -1.4031 -0.0977  0.3495
 5446SOL    HW227972   1.487   3.019   7.950 -1.8775 -2.2671  0.6822
 5447SOL     OW27973   4.165   2.255   6.573  0.6169  0.3683  0.1999
 5447SOL    HW127974   4.248   2.285   6.610  0.5117  0.3903  0.4199
 5447SOL    HW227975   4.111   2.319   6.619  0.9449 -0.6748  2.0583
 5448SOL     OW27976   3.819   3.920   4.701  0.7558  0.1299 -0.1336
 5448SOL    HW127977   3.852   3.897   4.787 -1.2371 -0.9725  0.3498
 5448SOL    HW227978   3.799   3.833   4.665  0.8375  0.6082 -1.3480
 5449SOL     OW27979   0.274   2.666   2.875 -0.0631 -0.3134  0.7599
 5449SOL    HW127980   0.331   2.735   2.840  0.7077 -0.5389  1.5580
 5449SOL    HW227981   0.218   2.649   2.799  0.3638  0.2741  0.3160
 5450SOL     OW27982   3.343   0.005   6.655 -0.2177  0.1596 -0.3532
 5450SOL    HW127983   3.317   4.711   6.570 -1.7443 -1.3554  0.7376
 5450SOL    HW227984   3.366   4.667   6.704 -1.5732 -0.0709 -0.0729
 5451SOL     OW27985   3.705   0.479  12.797  1.4423  0.2518 -0.0408
 5451SOL    HW127986   3.628   0.423  12.791  1.9501 -0.3594 -0.8592
 5451SOL    HW227987   3.735   0.468  12.706  3.5485  0.8364  0.5963
 5452SOL     OW27988   1.978   3.394   7.618  0.4185 -0.2975  0.2881
 5452SOL    HW127989   1.978   3.343   7.699  2.9783 -1.2160 -0.2819
 5452SOL    HW227990   1.988   3.323   7.553  0.7639 -1.5838  1.7423
 5453SOL     OW27991   4.658   0.144   9.841 -0.4701 -0.1866 -0.1257
 5453SOL    HW127992   4.637   0.089   9.917 -0.5417  1.4461  1.0424
 5453SOL    HW227993   4.606   0.223   9.859 -1.0995 -0.4063 -1.0221
 5454SOL     OW27994   4.184   1.305   4.564 -0.0155 -0.3659 -0.2369
 5454SOL    HW127995   4.137   1.244   4.508  0.4518 -0.3604 -0.6328
 5454SOL    HW227996   4.197   1.380   4.506 -0.8475  0.0093  0.0606
 5455SOL     OW27997   3.993   3.777   7.953  0.0541 -0.1439 -0.1204
 5455SOL    HW127998   3.932   3.783   7.880  0.5624 -1.7939 -0.6701
 5455SOL    HW227999   3.962   3.703   8.005 -0.4565 -0.0046 -0.2358
 5456SOL     OW28000   0.682   3.177   7.956 -0.0473 -0.2245 -0.0428
 5456SOL    HW128001   0.649   3.264   7.979 -1.6336 -0.6096 -0.8426
 5456SOL    HW228002   0.739   3.155   8.030  0.5282  0.7837 -0.1895
 5457SOL     OW28003   4.642   0.410   9.425  0.8585  0.4618 -0.9850
 5457SOL    HW128004   4.575   0.430   9.360 -0.9811 -0.7419  0.5164
 5457SOL    HW228005   4.621   0.325   9.466  1.3358  0.5721 -0.5077
 5458SOL     OW28006   1.181   4.298   2.528 -0.1950 -0.2874 -0.0781
 5458SOL    HW128007   1.276   4.294   2.518 -0.1807  2.0373 -0.8207
 5458SOL    HW228008   1.147   4.334   2.446  0.5356  1.7745  0.5131
 5459SOL     OW28009   0.533   1.817  14.219 -0.3441  0.0523 -0.0327
 5459SOL    HW128010   0.616   1.865  14.217 -1.1088  1.4183  1.3829
 5459SOL    HW228011   0.480   1.878  14.168 -0.1142 -0.0539 -0.3995
 5460SOL     OW28012   3.075   1.740   3.111 -0.4048 -0.3503 -0.4469
 5460SOL    HW128013   3.118   1.673   3.057 -0.6236 -2.5176  2.0570
 5460SOL    HW228014   2.991   1.696   3.125 -0.2627 -0.1770  0.9020
 5461SOL     OW28015   1.661   4.346  12.883  0.3576 -0.1866  0.0974
 5461SOL    HW128016   1.626   4.414  12.941  0.6593 -0.1801  0.2750
 5461SOL    HW228017   1.616   4.360  12.800 -0.4434  0.1892  0.5940
 5462SOL     OW28018   0.823   3.612   0.987 -0.4376 -0.5333  0.9405
 5462SOL    HW128019   0.898   3.671   0.990  0.8140 -1.9761 -2.0861
 5462SOL    HW228020   0.832   3.581   0.897  1.1363 -2.7283  1.8520
 5463SOL     OW28021   3.538   2.546   4.217 -0.1035 -0.5421 -0.7276
 5463SOL    HW128022   3.595   2.616   4.248 -1.7063  0.2703  0.3948
 5463SOL    HW228023   3.515   2.517   4.305 -0.3486  2.5372  0.2258
 5464SOL     OW28024   1.032   0.029   1.764  0.0381 -0.2655 -0.4728
 5464SOL    HW128025   1.056   0.051   1.674 -1.6406  0.3247 -0.7819
 5464SOL    HW228026   0.941   0.004   1.748 -0.5532  0.1805  2.1486
 5465SOL     OW28027   2.660   0.971   3.923  0.0544 -0.1782  0.4905
 5465SOL    HW128028   2.745   1.012   3.938  0.0600  1.4247 -3.8998
 5465SOL    HW228029   2.606   1.042   3.889 -1.8546 -1.4498  0.8955
 5466SOL     OW28030   4.033   2.455   4.835 -0.4063  0.2719 -0.4469
 5466SOL    HW128031   4.085   2.523   4.878 -1.9492  1.6172 -0.6582
 5466SOL    HW228032   4.028   2.494   4.748 -1.6314 -1.0657 -0.9620
 5467SOL     OW28033   2.778   4.641   7.698  0.2502  0.4468  0.3816
 5467SOL    HW128034   2.730   4.722   7.682 -0.5622  0.1768  1.4720
 5467SOL    HW228035   2.867   4.664   7.671 -0.3601  2.2975 -0.0362
 5468SOL     OW28036   0.084   3.480   4.481  0.4903 -0.0824 -0.3470
 5468SOL    HW128037   0.015   3.445   4.538  1.4088 -0.8929  0.2837
 5468SOL    HW228038   0.111   3.406   4.426  1.3781 -0.9629  1.2693
 5469SOL     OW28039   2.640   2.694  14.581 -0.1471  0.6219 -0.1102
 5469SOL    HW128040   2.562   2.646  14.554 -0.3166  0.5489  0.5118
 5469SOL    HW228041   2.638   2.778  14.534 -2.7047  0.3951 -0.3987
 5470SOL     OW28042   0.618   3.220   5.795  0.6559  0.3565  0.2530
 5470SOL    HW128043   0.584   3.206   5.883 -0.7647  0.1775 -0.3190
 5470SOL    HW228044   0.643   3.313   5.795  0.4394  0.4093  1.2994
 5471SOL     OW28045   1.254   1.405  16.558  0.2310  0.1578 -0.1031
 5471SOL    HW128046   1.163   1.388  16.582  0.5082 -0.7478  0.2973
 5471SOL    HW228047   1.252   1.390  16.464 -0.8674  0.0262 -0.0527
 5472SOL     OW28048   3.039   0.760   4.039  0.3667  0.4725 -0.0728
 5472SOL    HW128049   2.979   0.685   4.044 -0.1113  0.7918 -0.8807
 5472SOL    HW228050   3.010   0.821   4.106 -0.3866 -0.4341  0.4328
 5473SOL     OW28051   3.006   3.124   3.423 -0.3447 -0.4316  0.2839
 5473SOL    HW128052   2.924   3.170   3.441  0.9364  1.7066  0.6183
 5473SOL    HW228053   3.022   3.157   3.335 -0.9761  2.5121  1.2711
 5474SOL     OW28054   2.740   0.771   5.311  0.3365 -0.5301  0.3823
 5474SOL    HW128055   2.654   0.807   5.331 -1.4800 -3.0615 -2.9314
 5474SOL    HW228056   2.751   0.805   5.222 -0.0760 -1.6916 -0.1213
 5475SOL     OW28057   1.051   0.840  15.827  0.2380  0.5464  0.3327
 5475SOL    HW128058   1.009   0.872  15.747 -0.1426 -0.9111 -0.0585
 5475SOL    HW228059   1.139   0.818  15.797 -0.2205  0.3483 -0.8808
 5476SOL     OW28060   2.486   2.542   5.202  0.2910 -0.2928  0.0621
 5476SOL    HW128061   2.571   2.542   5.246 -0.6289 -0.8574  1.8350
 5476SOL    HW228062   2.510   2.490   5.125  2.0474  0.0542  0.3759
 5477SOL     OW28063   0.323   0.422  15.303  0.3990  0.6132  0.4121
 5477SOL    HW128064   0.260   0.399  15.371 -0.6304  0.7848 -0.4687
 5477SOL    HW228065   0.391   0.454  15.362  0.2926  0.8460  0.4068
 5478SOL     OW28066   1.279   1.779   7.991 -0.6843 -0.1119 -0.1553
 5478SOL    HW128067   1.354   1.836   8.007 -1.8727  0.8698  1.8794
 5478SOL    HW228068   1.212   1.842   7.966  0.0629  1.6934  2.4059
 5479SOL     OW28069   2.246   3.702  14.560 -0.2907 -0.3472  0.4957
 5479SOL    HW128070   2.226   3.609  14.571 -0.0883 -0.4833 -0.3217
 5479SOL    HW228071   2.332   3.713  14.601  0.7237  0.7073 -1.9389
 5480SOL     OW28072   3.900   1.160  14.982  0.3552 -0.1522 -0.5050
 5480SOL    HW128073   3.890   1.176  14.888  1.3121  4.2392  0.1711
 5480SOL    HW228074   3.884   1.065  14.986 -0.5587  0.0162 -0.2372
 5481SOL     OW28075   0.339   0.411   8.912 -0.3325 -0.4345  0.4568
 5481SOL    HW128076   0.296   0.342   8.962 -1.9150 -1.1027 -1.8422
 5481SOL    HW228077   0.301   0.490   8.950  0.0869 -0.6551  1.3433
 5482SOL     OW28078   0.710   1.346   9.794 -0.0629  0.0184  0.5160
 5482SOL    HW128079   0.666   1.262   9.777  0.5736 -0.1691 -0.2007
 5482SOL    HW228080   0.697   1.374   9.704 -0.4522 -0.6344  0.3687
 5483SOL     OW28081   2.998   0.420  13.530  0.2135 -0.3348  0.6067
 5483SOL    HW128082   3.010   0.411  13.625  0.4955 -1.7140  0.4394
 5483SOL    HW228083   3.064   0.487  13.514  2.5184 -2.2187  2.2134
 5484SOL     OW28084   3.789   2.422   2.141  0.2653  0.2843  0.6569
 5484SOL    HW128085   3.796   2.396   2.049 -0.4979  1.0698  0.3679
 5484SOL    HW228086   3.734   2.358   2.186 -0.7526 -0.2306 -1.3080
 5485SOL     OW28087   1.070   1.355  12.602 -0.3109  0.0942  0.0697
 5485SOL    HW128088   0.994   1.391  12.648 -0.8493 -0.3697 -0.4600
 5485SOL    HW228089   1.064   1.403  12.520  1.8738 -1.2887 -0.8856
 5486SOL     OW28090   2.963   2.221   9.249 -0.2271 -0.4427 -0.0303
 5486SOL    HW128091   3.052   2.226   9.214 -0.5455 -0.3908 -0.8497
 5486SOL    HW228092   2.918   2.285   9.194 -2.4400 -0.0626  2.2390
 5487SOL     OW28093   0.441   4.318   9.439 -0.2540  0.2240  0.5485
 5487SOL    HW128094   0.381   4.370   9.493  0.8919  0.2930  1.7533
 5487SOL    HW228095   0.449   4.381   9.367  0.2980 -0.2582  0.1884
 5488SOL     OW28096   2.257   4.543  15.663  0.3530  0.4743  0.0380
 5488SOL    HW128097   2.239   4.460  15.709 -2.7692  1.3825  0.4673
 5488SOL    HW228098   2.198   4.529  15.588 -1.8064  1.0030  1.6369
 5489SOL     OW28099   1.558   0.612   3.030 -0.5945  0.3037 -0.6223
 5489SOL    HW128100   1.544   0.532   3.079  0.3909 -0.6902 -1.9654
 5489SOL    HW228101   1.654   0.613   3.026 -0.5981 -0.4497 -0.9468
 5490SOL     OW28102   1.812   3.029   8.100 -0.3010  0.0115  0.2543
 5490SOL    HW128103   1.785   2.940   8.120  2.7440 -1.2139 -1.0090
 5490SOL    HW228104   1.773   3.037   8.012 -1.0104 -0.7269  0.5000
 5491SOL     OW28105   0.004   1.629   8.439 -0.3351 -0.3335 -0.4401
 5491SOL    HW128106   4.733   1.534   8.431 -1.3158 -0.2811  0.3983
 5491SOL    HW228107   0.022   1.626   8.533 -0.7941 -0.6182 -0.3605
 5492SOL     OW28108   0.542   3.342   3.468  0.1892  0.1994  0.3617
 5492SOL    HW128109   0.602   3.326   3.395 -1.2207 -0.5420 -0.6424
 5492SOL    HW228110   0.514   3.432   3.455 -0.7909 -0.4441 -1.9573
 5493SOL     OW28111   0.949   2.530   3.997 -0.2886 -0.0555 -0.2567
 5493SOL    HW128112   0.922   2.544   3.906 -0.2888 -0.4600 -0.3171
 5493SOL    HW228113   1.038   2.495   3.996 -0.4688 -0.5845  2.0269
 5494SOL     OW28114   3.311   0.478   5.290  0.2501 -0.0683  0.5479
 5494SOL    HW128115   3.287   0.415   5.358  2.5708  0.3416  1.7401
 5494SOL    HW228116   3.257   0.551   5.320 -0.4622 -0.1348 -0.5417
 5495SOL     OW28117   4.673   0.749   1.774 -0.5861 -1.1632  0.2342
 5495SOL    HW128118   0.027   0.744   1.758 -0.3111  0.3467  1.4197
 5495SOL    HW228119   4.659   0.839   1.801 -0.2153 -0.4221 -2.0239
 5496SOL     OW28120   2.814   0.789   3.709  0.6068 -0.2466  0.1800
 5496SOL    HW128121   2.781   0.825   3.792  1.8386 -0.3776  0.7225
 5496SOL    HW228122   2.878   0.858   3.692  1.0628 -0.4872  0.9511
 5497SOL     OW28123   1.005   4.045   7.955 -0.0514  0.1508  0.4359
 5497SOL    HW128124   0.917   4.008   7.958 -0.8527  2.0659  0.0294
 5497SOL    HW228125   1.001   4.127   7.906  1.2050  0.5799  1.0495
 5498SOL     OW28126   2.218   1.150   2.089 -0.0656  0.5415 -0.2211
 5498SOL    HW128127   2.234   1.056   2.094  3.3227  1.2586  2.2447
 5498SOL    HW228128   2.237   1.185   2.175 -0.0172  1.8941 -0.7820
 5499SOL     OW28129   3.069   3.030   5.316  0.0439 -0.2052 -0.5162
 5499SOL    HW128130   3.111   3.067   5.238 -1.8423  0.9957 -0.9430
 5499SOL    HW228131   2.998   2.976   5.283  0.3783 -0.1338 -1.3526
 5500SOL     OW28132   4.568   0.926   9.053  0.5496 -0.3744  0.4973
 5500SOL    HW128133   4.593   1.018   9.047 -2.0905  0.2674 -0.4500
 5500SOL    HW228134   4.474   0.931   9.065  0.3583  1.9265 -2.1526
 5501SOL     OW28135   1.587   3.255  14.680 -0.9196  0.5666  0.0571
 5501SOL    HW128136   1.493   3.238  14.675 -1.0400  1.7731 -1.5264
 5501SOL    HW228137   1.622   3.263  14.592 -0.8513 -2.1086 -0.1815
 5502SOL     OW28138   4.465   0.738  14.725 -0.4398  0.4024 -0.3162
 5502SOL    HW128139   4.544   0.793  14.726 -0.7991  0.9487 -1.6125
 5502SOL    HW228140   4.429   0.765  14.810 -0.1421 -0.5358  0.1022
 5503SOL     OW28141   2.033   1.228   5.120 -0.4690  0.2787  0.1861
 5503SOL    HW128142   2.010   1.193   5.034 -0.1763 -0.6136  0.4682
 5503SOL    HW228143   1.982   1.309   5.129 -0.0666  0.7817 -2.1736
 5504SOL     OW28144   3.475   2.351   7.541 -0.1238 -0.2112 -0.8661
 5504SOL    HW128145   3.544   2.405   7.502  1.0871 -1.9259 -1.1117
 5504SOL    HW228146   3.456   2.403   7.619  1.7780 -1.7848  0.6346
 5505SOL     OW28147   1.680   3.935   3.361  0.1449 -0.0784 -0.2789
 5505SOL    HW128148   1.690   3.875   3.287 -0.2774  3.2080 -2.9884
 5505SOL    HW228149   1.667   4.022   3.323  0.8171  0.7782  1.4393
 5506SOL     OW28150   0.570   0.233   5.765 -0.3728  0.3988  0.4216
 5506SOL    HW128151   0.559   0.171   5.693  1.5597  0.5895 -0.0375
 5506SOL    HW228152   0.643   0.199   5.816 -1.1980 -3.1625 -0.8316
 5507SOL     OW28153   0.518   4.513   0.947  0.3993 -0.5576 -0.8676
 5507SOL    HW128154   0.554   4.425   0.944 -1.0003 -1.1571 -0.1124
 5507SOL    HW228155   0.478   4.521   0.861  0.5099 -1.4039 -0.9995
 5508SOL     OW28156   4.265   2.286  17.459 -0.9224  0.3184 -0.1611
 5508SOL    HW128157   4.264   2.341  17.537 -2.5148  1.4429 -0.9882
 5508SOL    HW228158   4.172   2.283  17.437 -0.6401 -0.0740 -1.3094
 5509SOL     OW28159   1.324   4.535   4.842  0.0327  0.4080  0.3513
 5509SOL    HW128160   1.281   4.543   4.757 -0.5320 -0.6005  0.5472
 5509SOL    HW228161   1.351   4.443   4.839  1.9129  1.0188 -2.0052
 5510SOL     OW28162   0.498   0.326   8.555 -0.2028  0.7087  0.0167
 5510SOL    HW128163   0.569   0.280   8.508  0.2147  1.0255  0.3346
 5510SOL    HW228164   0.512   0.300   8.646 -1.2134 -0.7250 -0.2329
 5511SOL     OW28165   4.223   3.350   8.377  0.5823 -1.0205  0.0504
 5511SOL    HW128166   4.213   3.442   8.401  2.2518 -1.2567  1.7315
 5511SOL    HW228167   4.131   3.327   8.386  0.2556  0.3688  0.2908
 5512SOL     OW28168   2.179   2.254   3.506  0.2474 -0.6729 -0.3349
 5512SOL    HW128169   2.112   2.197   3.543 -2.1295  1.2591 -1.6548
 5512SOL    HW228170   2.153   2.344   3.528 -0.7108 -1.1310  0.4047
 5513SOL     OW28171   0.747   2.560   2.449  0.2958 -0.0939  0.5824
 5513SOL    HW128172   0.728   2.500   2.376 -0.2021  0.1305  0.5220
 5513SOL    HW228173   0.787   2.506   2.516  0.7811  1.5131  1.5914
 5514SOL     OW28174   1.469   3.334   4.094  0.2581  0.5566 -0.1671
 5514SOL    HW128175   1.441   3.409   4.146  0.8754 -0.6854  1.9191
 5514SOL    HW228176   1.432   3.253   4.128 -1.1548  1.1626 -0.2440
 5515SOL     OW28177   1.380   4.082   6.950 -0.3349 -0.6253 -0.1753
 5515SOL    HW128178   1.403   4.007   6.896  0.3608  0.0587 -0.8269
 5515SOL    HW228179   1.356   4.148   6.885  0.2803 -0.2141  0.0161
 5516SOL     OW28180   4.502   1.349  12.991 -0.3037  0.3995  0.2462
 5516SOL    HW128181   4.502   1.344  13.087  0.1485  0.3927  0.2456
 5516SOL    HW228182   4.587   1.314  12.963 -0.2041 -0.0848  1.1465
 5517SOL     OW28183   2.826   4.414   4.577 -0.3284  0.9134 -0.0395
 5517SOL    HW128184   2.814   4.341   4.516  3.3896  0.4008 -0.1535
 5517SOL    HW228185   2.887   4.382   4.642 -0.5732 -0.3434 -0.4320
 5518SOL     OW28186   1.968   3.220   8.229  0.7050 -0.0756  0.1296
 5518SOL    HW128187   1.946   3.294   8.171 -0.9647 -0.9126 -0.2880
 5518SOL    HW228188   1.885   3.177   8.212  0.6629 -0.0936  0.3968
 5519SOL     OW28189   2.270   1.253   4.391 -0.0261 -1.0281 -0.1903
 5519SOL    HW128190   2.364   1.237   4.380 -0.1979  0.0241 -3.2989
 5519SOL    HW228191   2.242   1.270   4.301 -2.6187 -1.2433  0.5995
 5520SOL     OW28192   0.390   2.378   1.237  0.0434 -0.0739 -0.5491
 5520SOL    HW128193   0.398   2.467   1.272 -2.3183  0.9981 -2.8037
 5520SOL    HW228194   0.437   2.328   1.304  0.7447  1.1706 -0.1054
 5521SOL     OW28195   2.353   0.365   5.014 -0.4337 -0.4177 -0.4014
 5521SOL    HW128196   2.424   0.325   5.065 -1.5284  0.1363  1.5634
 5521SOL    HW228197   2.395   0.403   4.937  0.2391 -0.3269  0.0077
 5522SOL     OW28198   2.974   4.193  16.863  0.0225  0.5626 -0.0410
 5522SOL    HW128199   3.005   4.197  16.772  1.3370 -1.3775  0.3150
 5522SOL    HW228200   3.016   4.273  16.895  2.4709 -1.0198  0.7322
 5523SOL     OW28201   2.438   2.150   5.980 -0.5924 -0.0799 -0.6048
 5523SOL    HW128202   2.425   2.190   5.894 -1.4014  0.4687 -0.2229
 5523SOL    HW228203   2.520   2.190   6.008 -0.1329 -0.2950 -1.6474
 5524SOL     OW28204   0.240   3.898  16.591  0.5216 -0.1438 -0.4769
 5524SOL    HW128205   0.228   3.808  16.559 -0.1128  0.2678 -1.4224
 5524SOL    HW228206   0.198   3.950  16.523  0.1571  1.2061  0.7897
 5525SOL     OW28207   4.125   0.550  15.178  0.4572  0.1832 -0.1358
 5525SOL    HW128208   4.110   0.473  15.233  2.1138 -0.3861 -0.4745
 5525SOL    HW228209   4.213   0.573  15.208 -0.4447  3.1648  0.1864
 5526SOL     OW28210   2.663   3.481   9.214  0.3157 -0.1936 -0.1449
 5526SOL    HW128211   2.571   3.467   9.236  0.6427 -3.1131 -0.6911
 5526SOL    HW228212   2.646   3.505   9.123  0.8391  0.0488 -0.1807
 5527SOL     OW28213   2.216   1.575   5.387 -0.0906  0.1740  0.2562
 5527SOL    HW128214   2.134   1.525   5.384  0.5370 -0.5470 -3.9872
 5527SOL    HW228215   2.258   1.549   5.469  0.4135  1.2404  0.3343
 5528SOL     OW28216   1.082   1.924   7.674  0.1808  0.1835 -0.4248
 5528SOL    HW128217   1.001   1.886   7.708  0.2104  1.6995  1.3654
 5528SOL    HW228218   1.123   1.849   7.632 -0.4198 -0.7598  0.6731
 5529SOL     OW28219   4.340   4.647   9.983 -0.4149  0.1633  0.0112
 5529SOL    HW128220   4.409   4.709  10.005  0.1207  0.2155 -1.7797
 5529SOL    HW228221   4.396   4.571  10.001 -0.4868 -0.1341 -0.9894
 5530SOL     OW28222   1.739   4.341  16.713  0.5304 -0.0301 -0.0574
 5530SOL    HW128223   1.823   4.348  16.667  1.7343 -1.4906  1.8579
 5530SOL    HW228224   1.761   4.276  16.780 -0.8436 -1.2291 -0.7715
 5531SOL     OW28225   0.099   3.301  16.048  0.1190 -0.2493 -0.5281
 5531SOL    HW128226   0.142   3.251  16.117 -1.6309  0.7088  1.2560
 5531SOL    HW228227   0.075   3.237  15.980  0.7061  0.5865 -1.5152
 5532SOL     OW28228   1.495   1.615   5.455 -0.3992  0.1617  0.0447
 5532SOL    HW128229   1.579   1.587   5.490 -0.3606 -1.6282 -1.4786
 5532SOL    HW228230   1.457   1.533   5.422  1.5774 -1.0557  0.8028
 5533SOL     OW28231   2.873   1.520   3.173 -0.3677 -0.2369 -0.4691
 5533SOL    HW128232   2.799   1.531   3.114  1.1709  0.9431 -2.1680
 5533SOL    HW228233   2.869   1.426   3.190  1.0589 -0.6656 -2.4773
 5534SOL     OW28234   2.590   3.363   7.438  0.3085  0.2004  0.4011
 5534SOL    HW128235   2.665   3.373   7.380  1.4801  2.2448  2.2708
 5534SOL    HW228236   2.625   3.399   7.520 -0.5388  0.5212  0.6220
 5535SOL     OW28237   1.853   1.413  17.001 -0.3643 -0.0890 -0.0687
 5535SOL    HW128238   1.800   1.348  17.048 -0.5059 -0.5343 -0.8554
 5535SOL    HW228239   1.779   1.463  16.967 -1.5300 -1.9581 -0.2881
 5536SOL     OW28240   2.890   4.164  13.480 -0.5300 -0.0177 -0.1150
 5536SOL    HW128241   2.895   4.225  13.553  1.4163 -1.6455  1.0969
 5536SOL    HW228242   2.838   4.215  13.417 -1.2259 -0.9001 -0.2609
 5537SOL     OW28243   0.139   0.138   7.472  0.7727 -0.2684 -0.0044
 5537SOL    HW128244   0.073   0.095   7.417  1.5234 -0.5211 -0.7071
 5537SOL    HW228245   0.078   0.190   7.525  1.3182 -1.4040  1.7264
 5538SOL     OW28246   0.704   3.632   4.016  0.5110 -0.1370 -0.3547
 5538SOL    HW128247   0.747   3.546   4.022 -0.7640 -0.6644  1.1084
 5538SOL    HW228248   0.612   3.606   4.017  0.1783  1.1158  1.5884
 5539SOL     OW28249   0.578   0.667   2.558  0.1963  0.0156 -0.6190
 5539SOL    HW128250   0.514   0.709   2.615  2.3273  1.9531  0.3717
 5539SOL    HW228251   0.526   0.591   2.530  2.0445 -1.6235  0.3754
 5540SOL     OW28252   2.777   1.205  10.997 -0.1708 -0.2923  0.2442
 5540SOL    HW128253   2.745   1.193  11.086  1.1341  1.1780  0.9223
 5540SOL    HW228254   2.863   1.163  10.994 -0.3454 -0.6885  0.9081
 5541SOL     OW28255   4.549   0.999   2.278 -0.2737  0.2123  0.6238
 5541SOL    HW128256   4.497   0.935   2.229  0.4560  1.2580 -1.5118
 5541SOL    HW228257   4.535   1.079   2.228  1.7413 -0.3790 -0.8612
 5542SOL     OW28258   1.165   0.799   8.919 -0.3111  0.7183 -0.2746
 5542SOL    HW128259   1.103   0.852   8.867 -0.1350  0.6459 -0.5597
 5542SOL    HW228260   1.151   0.712   8.882  1.9214  0.3506 -0.2599
 5543SOL     OW28261   0.228   4.737   3.928  0.3682  0.6740  0.4628
 5543SOL    HW128262   0.194   4.672   3.866  1.1372  1.0134 -0.3131
 5543SOL    HW228263   0.314   4.700   3.945 -0.2491 -1.7144 -1.5919
 5544SOL     OW28264   0.711   1.321   2.801 -0.5515  0.4982  0.5872
 5544SOL    HW128265   0.689   1.252   2.738  0.6233 -2.6243  3.5979
 5544SOL    HW228266   0.673   1.285   2.881  0.1299 -1.4001  0.0616
 5545SOL     OW28267   0.404   0.896  17.087  0.1952  0.0730 -0.6488
 5545SOL    HW128268   0.332   0.956  17.104  0.2376 -0.7291  2.3461
 5545SOL    HW228269   0.476   0.916  17.147  0.3902  0.5945 -1.0551
 5546SOL     OW28270   0.702   0.649   3.206 -0.0069  0.4569  0.0420
 5546SOL    HW128271   0.663   0.593   3.139 -1.0966 -1.0198  1.9104
 5546SOL    HW228272   0.690   0.602   3.288 -3.0764  0.1238 -0.5823
 5547SOL     OW28273   2.292   0.097   1.340 -0.5294  0.7858  0.5894
 5547SOL    HW128274   2.237   0.020   1.356  0.6935 -1.0448 -3.9650
 5547SOL    HW228275   2.273   0.125   1.250 -1.9293  2.0510  1.2920
 5548SOL     OW28276   4.692   4.287  13.847  0.2579  0.1506  0.1908
 5548SOL    HW128277   4.721   4.375  13.823  2.1745 -0.3422  0.7051
 5548SOL    HW228278   4.665   4.293  13.939 -0.5990 -0.0321 -0.0466
 5549SOL     OW28279   1.997   3.513  11.965 -0.6967  0.2973  0.2995
 5549SOL    HW128280   1.982   3.557  11.882  2.0485 -2.3654 -1.6260
 5549SOL    HW228281   2.007   3.422  11.936 -0.5956  0.3570  0.1458
 5550SOL     OW28282   2.068   2.727  13.774 -0.4165 -0.5606 -0.7458
 5550SOL    HW128283   2.025   2.651  13.811 -0.2417 -0.2874  0.0149
 5550SOL    HW228284   2.078   2.702  13.682  1.1678  1.1165 -1.0484
 5551SOL     OW28285   3.043   0.559   4.398  0.3649  0.0523  0.8680
 5551SOL    HW128286   2.951   0.569   4.424  0.2351  1.9850 -0.3846
 5551SOL    HW228287   3.083   0.646   4.401  2.1875 -0.7598  0.2929
 5552SOL     OW28288   3.262   3.450   5.046 -0.2641  0.0937  0.1389
 5552SOL    HW128289   3.198   3.440   4.976 -1.5001 -1.4786  1.5241
 5552SOL    HW228290   3.338   3.405   5.008  0.0920  1.3468 -0.6736
 5553SOL     OW28291   1.935   2.154  16.168 -0.1291  0.2083 -0.6129
 5553SOL    HW128292   1.852   2.109  16.152 -0.0537  0.8421 -2.7854
 5553SOL    HW228293   1.918   2.245  16.147 -0.9906  0.0968 -0.4017
 5554SOL     OW28294   3.926   0.832   4.102  0.2162  0.5018  0.5127
 5554SOL    HW128295   4.000   0.801   4.050 -0.9444 -1.3028 -0.0658
 5554SOL    HW228296   3.885   0.896   4.044 -1.5426  0.1919  1.4050
 5555SOL     OW28297   3.395   2.348  17.234 -0.2413 -0.1688  0.0354
 5555SOL    HW128298   3.300   2.352  17.240 -0.3670  1.1532 -2.5405
 5555SOL    HW228299   3.404   2.302  17.150 -2.2386  1.6840 -1.2235
 5556SOL     OW28300   2.484   4.286   8.480  0.0118 -0.3017  0.1178
 5556SOL    HW128301   2.566   4.271   8.528 -0.3066  2.0490  1.3798
 5556SOL    HW228302   2.512   4.329   8.399 -1.8669  0.5373 -0.0709
 5557SOL     OW28303   2.005   1.931  11.469  0.2906 -0.0981 -0.6351
 5557SOL    HW128304   2.092   1.929  11.509  1.2945  0.8257 -2.7668
 5557SOL    HW228305   1.959   1.912  11.551  3.7384 -1.6044  0.9357
 5558SOL     OW28306   1.882   3.406  10.792  0.0735  0.2616  0.1181
 5558SOL    HW128307   1.793   3.403  10.827  0.4632 -0.2163  1.0873
 5558SOL    HW228308   1.875   3.353  10.713 -2.1635  2.7937 -1.3816
 5559SOL     OW28309   3.802   3.636  17.226  0.1410 -0.1573 -0.0355
 5559SOL    HW128310   3.819   3.704  17.161 -1.4618 -0.9640 -1.2992
 5559SOL    HW228311   3.711   3.652  17.248  0.6386 -0.6751  2.3811
 5560SOL     OW28312   0.322   1.698   9.017  0.2361  0.0211  0.4841
 5560SOL    HW128313   0.275   1.772   8.979  1.2666  0.1072 -0.6484
 5560SOL    HW228314   0.391   1.756   9.048  0.7163  0.1968 -0.8711
 5561SOL     OW28315   3.207   0.259   9.339  0.2879  0.6347  0.0810
 5561SOL    HW128316   3.214   0.193   9.408  1.7465  0.8889  0.1690
 5561SOL    HW228317   3.124   0.223   9.307  1.7997 -1.8580 -0.9911
 5562SOL     OW28318   0.446   1.620   4.395  0.1371 -0.4988  0.0701
 5562SOL    HW128319   0.481   1.531   4.403 -2.7219 -1.6779 -0.5964
 5562SOL    HW228320   0.352   1.606   4.393 -0.3285  2.6281  1.0920
 5563SOL     OW28321   3.982   4.518  13.378 -0.0192 -0.0511 -0.3351
 5563SOL    HW128322   3.918   4.475  13.434  0.2099 -3.1851 -2.5253
 5563SOL    HW228323   4.064   4.510  13.428 -0.3546 -3.5887 -0.3598
 5564SOL     OW28324   2.953   3.234   8.869  0.1405  0.4443 -0.2803
 5564SOL    HW128325   2.938   3.323   8.837 -2.1247  0.2755  0.2650
 5564SOL    HW228326   3.003   3.256   8.947  0.3604 -0.7041 -0.0981
 5565SOL     OW28327   2.016   1.699   5.578  0.2340 -0.0138  0.0259
 5565SOL    HW128328   2.089   1.757   5.598 -0.9645  1.1663  1.0419
 5565SOL    HW228329   2.041   1.666   5.492  1.7713  0.5064  0.2797
 5566SOL     OW28330   4.289   2.218  10.167  0.5791 -0.4317  0.0589
 5566SOL    HW128331   4.245   2.134  10.156  0.3944 -0.1699 -1.1282
 5566SOL    HW228332   4.229   2.291  10.180 -0.7669 -1.6230  0.5920
 5567SOL     OW28333   3.203   3.922   4.465 -0.3854 -0.5021 -0.5818
 5567SOL    HW128334   3.231   3.841   4.423  0.5320 -0.0641 -0.8117
 5567SOL    HW228335   3.242   3.984   4.403 -0.9152  0.5472  0.1167
 5568SOL     OW28336   4.640   3.488  11.262 -0.3951 -0.4360 -0.7337
 5568SOL    HW128337   4.655   3.506  11.355  1.0850 -2.5544 -0.5775
 5568SOL    HW228338   4.553   3.527  11.260 -2.0622 -3.9132  2.3856
 5569SOL     OW28339   0.056   4.280   1.881  0.2079  0.3624 -0.0738
 5569SOL    HW128340   0.070   4.326   1.963 -0.6594  2.4062 -1.0713
 5569SOL    HW228341   0.087   4.192   1.901  2.3979  0.8973 -1.1132
 5570SOL     OW28342   3.326   2.999   4.259  0.0896 -0.1399 -0.1001
 5570SOL    HW128343   3.310   3.040   4.174  1.8198  3.7320  1.4505
 5570SOL    HW228344   3.347   3.083   4.300 -0.7409  0.5655 -1.1083
 5571SOL     OW28345   2.443   2.300   1.277  0.3337  0.1642  0.3219
 5571SOL    HW128346   2.404   2.213   1.274 -0.3300  0.4871 -0.3979
 5571SOL    HW228347   2.387   2.358   1.224  0.5930 -2.7169 -3.1040
 5572SOL     OW28348   0.613   3.729   3.385 -0.5980  0.3975 -0.5856
 5572SOL    HW128349   0.592   3.779   3.306 -0.2626  0.4817 -0.6235
 5572SOL    HW228350   0.536   3.673   3.386  0.4818 -1.1003 -0.9987
 5573SOL     OW28351   0.511   0.032   2.918 -0.2978 -0.0323  0.1647
 5573SOL    HW128352   0.480   4.685   2.938 -0.5176  0.5281  2.2931
 5573SOL    HW228353   0.601   0.026   2.949 -0.8207 -0.1254  1.7116
 5574SOL     OW28354   2.933   2.773   7.086 -0.3215  0.1574 -0.5516
 5574SOL    HW128355   2.916   2.692   7.038  1.1465 -1.4692  1.6833
 5574SOL    HW228356   2.850   2.819   7.074  1.1241  2.5192 -1.5883
 5575SOL     OW28357   1.042   1.230  16.583  0.2281 -0.1371  0.3120
 5575SOL    HW128358   1.058   1.160  16.646 -0.0701 -1.3893 -1.0159
 5575SOL    HW228359   1.039   1.181  16.501  0.1984  0.4022 -0.0125
 5576SOL     OW28360   0.036   2.635   1.413 -0.3515  0.0023 -0.8807
 5576SOL    HW128361   0.018   2.587   1.332  0.0034 -1.0704 -0.3340
 5576SOL    HW228362   4.712   2.705   1.408 -0.4194 -0.1251 -1.6941
 5577SOL     OW28363   1.865   1.280   2.586  0.0637 -0.2678  0.1158
 5577SOL    HW128364   1.881   1.241   2.672 -1.2391  2.1566  1.4490
 5577SOL    HW228365   1.823   1.205   2.544  1.3175 -1.3653  0.8429
 5578SOL     OW28366   4.160   1.479   7.059  0.5349  0.0146 -0.1907
 5578SOL    HW128367   4.203   1.442   7.137 -1.4001  0.8885  1.2833
 5578SOL    HW228368   4.204   1.426   6.992  2.8807  2.0381 -0.2634
 5579SOL     OW28369   4.400   2.852   6.362 -0.5358 -0.0273  0.5567
 5579SOL    HW128370   4.483   2.805   6.366 -1.7613 -2.2248  0.2139
 5579SOL    HW228371   4.359   2.817   6.284  1.5347  0.0576 -0.5773
 5580SOL     OW28372   0.724   3.075   2.879 -0.6736  0.0868  0.1172
 5580SOL    HW128373   0.653   3.068   2.816 -0.0437  0.7931 -0.6624
 5580SOL    HW228374   0.795   3.075   2.814 -0.0028  1.6083  0.8570
 5581SOL     OW28375   2.240   1.955  10.249 -0.5415 -0.1846  0.0107
 5581SOL    HW128376   2.268   2.024  10.190  0.5580  0.8883  1.7775
 5581SOL    HW228377   2.153   1.929  10.218  0.2916  0.1404 -2.5683
 5582SOL     OW28378   3.850   0.483  10.636 -0.1952 -0.0690 -0.5255
 5582SOL    HW128379   3.926   0.497  10.579 -0.7898 -1.0621 -1.5768
 5582SOL    HW228380   3.877   0.408  10.689 -1.8434 -0.6649 -0.5145
 5583SOL     OW28381   1.114   2.140  12.406 -0.5180  0.7151 -0.2419
 5583SOL    HW128382   1.189   2.196  12.390  0.3995 -0.6022 -0.5117
 5583SOL    HW228383   1.098   2.165  12.497  2.5848  1.0227  0.1972
 5584SOL     OW28384   0.047   3.377  15.291 -0.1956 -0.6329 -0.2449
 5584SOL    HW128385   0.085   3.424  15.366 -0.2573 -1.0525  0.0464
 5584SOL    HW228386   0.084   3.433  15.223  1.2307 -0.7250  0.4597
 5585SOL     OW28387   2.918   0.102   8.628 -0.2187  0.1157  0.2416
 5585SOL    HW128388   2.992   0.042   8.617 -0.5093 -0.3236  0.6920
 5585SOL    HW228389   2.855   0.037   8.657  1.1690 -0.5646  1.7226
 5586SOL     OW28390   2.504   2.993  14.221  0.1075 -0.5557  0.0374
 5586SOL    HW128391   2.443   2.991  14.148 -1.3098 -2.9242  1.2971
 5586SOL    HW228392   2.568   3.059  14.193  0.7199 -0.7004  1.0925
 5587SOL     OW28393   3.264   1.413   8.219  0.6142  0.5663 -0.3917
 5587SOL    HW128394   3.213   1.464   8.282 -1.8916 -0.2984 -1.6836
 5587SOL    HW228395   3.228   1.449   8.138 -1.2093  0.2187  0.2471
 5588SOL     OW28396   3.716   2.489   6.340 -0.5944 -0.0544 -1.1123
 5588SOL    HW128397   3.671   2.413   6.378  1.5732 -0.6555  0.2680
 5588SOL    HW228398   3.646   2.554   6.347 -2.4857 -2.1919 -0.0408
 5589SOL     OW28399   3.570   3.218   8.046  0.4469 -0.5650 -0.0848
 5589SOL    HW128400   3.561   3.184   8.135 -1.1904  1.8012  0.6487
 5589SOL    HW228401   3.543   3.141   7.995 -0.8573  0.3290 -0.7499
 5590SOL     OW28402   3.773   0.125   7.819  0.1170 -0.2117 -0.1584
 5590SOL    HW128403   3.761   0.031   7.827  0.4434 -0.1130  1.4946
 5590SOL    HW228404   3.687   0.153   7.849 -0.0681 -2.2518  1.2114
 5591SOL     OW28405   3.220   0.296  12.756 -0.3892 -0.4628 -0.2377
 5591SOL    HW128406   3.146   0.356  12.747  0.4938  0.6607  0.0326
 5591SOL    HW228407   3.292   0.354  12.778  1.2231 -2.0893 -1.2574
 5592SOL     OW28408   1.881   4.310   3.665  0.1837  0.2808 -0.2950
 5592SOL    HW128409   1.880   4.302   3.761 -0.5005 -2.3334 -0.5330
 5592SOL    HW228410   1.898   4.218   3.648 -0.6409  0.2315 -0.8360
 5593SOL     OW28411   3.294   2.226   4.105 -0.3771  0.6251  0.2015
 5593SOL    HW128412   3.298   2.260   4.015  1.0291  1.7161  0.6887
 5593SOL    HW228413   3.378   2.179   4.103  1.1890  3.3839  0.5823
 5594SOL     OW28414   3.156   1.162   5.112 -0.2002 -0.4013 -0.2671
 5594SOL    HW128415   3.111   1.214   5.178 -1.8812 -1.3967 -0.6419
 5594SOL    HW228416   3.245   1.137   5.139 -0.6995 -1.3631  0.4821
 5595SOL     OW28417   1.865   2.979   7.106  0.5835  0.0187 -0.7570
 5595SOL    HW128418   1.775   2.972   7.076  1.4792  0.7936 -3.6187
 5595SOL    HW228419   1.892   3.060   7.064 -0.6062 -0.1292 -1.8118
 5596SOL     OW28420   0.524   4.308   7.249  0.3866 -0.0585 -0.0473
 5596SOL    HW128421   0.509   4.226   7.296  1.7559 -0.6017 -0.5416
 5596SOL    HW228422   0.513   4.379   7.312 -2.1902  0.3807 -1.0213
 5597SOL     OW28423   2.845   4.718  10.313  0.5979 -0.5068  0.2808
 5597SOL    HW128424   2.863   0.066  10.341  3.2897 -0.2175 -2.4315
 5597SOL    HW228425   2.754   4.710  10.342  0.4178 -0.0756 -0.1674
 5598SOL     OW28426   3.750   0.966   4.935 -0.2218 -0.0954 -0.5188
 5598SOL    HW128427   3.781   0.903   4.871 -0.2584 -0.1408 -0.4914
 5598SOL    HW228428   3.754   1.043   4.878  0.2403  0.8856  0.8041
 5599SOL     OW28429   2.292   3.369   2.726 -0.1514  0.3421 -0.1559
 5599SOL    HW128430   2.372   3.416   2.751  0.3669 -0.1921 -0.8180
 5599SOL    HW228431   2.225   3.415   2.776 -0.3359  1.4455 -1.4348
 5600SOL     OW28432   1.843   2.253   4.331 -0.4304  0.4516  0.1040
 5600SOL    HW128433   1.884   2.168   4.316 -1.8902  0.1715 -2.2035
 5600SOL    HW228434   1.867   2.266   4.423  0.4936 -0.6725  0.0100
 5601SOL     OW28435   3.710   4.633   5.920 -0.0831 -0.1041 -0.1636
 5601SOL    HW128436   3.703   4.696   5.992  2.6815  0.8388 -0.7178
 5601SOL    HW228437   3.776   4.574   5.956 -1.4048 -1.4223  0.0694
 5602SOL     OW28438   2.360   4.167   4.800 -0.0869 -0.0305  0.2815
 5602SOL    HW128439   2.290   4.129   4.852 -0.5920 -2.0645 -1.9111
 5602SOL    HW228440   2.306   4.206   4.730 -2.2676  0.0609  2.0196
 5603SOL     OW28441   0.060   4.367   6.368 -0.7664  0.4284  0.3319
 5603SOL    HW128442   0.152   4.378   6.342 -0.6647 -0.2866  0.4090
 5603SOL    HW228443   0.041   4.453   6.407  0.6720  1.0956 -0.4387
 5604SOL     OW28444   2.919   4.729   9.570 -0.2186  0.1789  0.1736
 5604SOL    HW128445   2.879   4.651   9.534  1.5811 -0.6892  0.0411
 5604SOL    HW228446   2.930   0.054   9.501 -0.8698 -0.4133 -0.4929
 5605SOL     OW28447   4.407   3.332  13.736  0.1833  0.6273  0.8808
 5605SOL    HW128448   4.480   3.292  13.783  1.2058  0.7947 -0.5713
 5605SOL    HW228449   4.432   3.327  13.644 -0.0216  0.7636  0.8177
 5606SOL     OW28450   2.691   0.313   8.788  0.5374 -0.8130 -0.2387
 5606SOL    HW128451   2.599   0.288   8.791  0.1884  0.7103  1.7532
 5606SOL    HW228452   2.722   0.223   8.803  0.9731 -0.2652  2.1465
 5607SOL     OW28453   2.003   0.684   4.911  0.4208 -0.3858  0.1709
 5607SOL    HW128454   2.091   0.661   4.881 -0.0431 -0.2622 -1.2570
 5607SOL    HW228455   1.949   0.622   4.861 -0.1992  0.1133  0.2163
 5608SOL     OW28456   4.522   4.494   2.482 -0.1242  0.3640  0.1650
 5608SOL    HW128457   4.542   4.504   2.389  2.1076  0.4065  0.6363
 5608SOL    HW228458   4.581   4.422   2.507 -0.5225 -0.2990 -0.7771
 5609SOL     OW28459   0.810   4.312   9.379 -0.7104 -0.0005 -0.2225
 5609SOL    HW128460   0.880   4.247   9.371  1.1201  1.8960  0.4221
 5609SOL    HW228461   0.745   4.247   9.404 -0.9105 -0.4538 -1.8634
 5610SOL     OW28462   1.262   2.482  15.368  0.5311  0.1946 -0.1072
 5610SOL    HW128463   1.338   2.430  15.343  0.8106 -0.8383  2.8990
 5610SOL    HW228464   1.238   2.442  15.452 -0.6135 -1.8728 -1.4062
 5611SOL     OW28465   4.325   0.954   2.853  0.3756  0.3805 -0.4145
 5611SOL    HW128466   4.261   0.931   2.786  0.5452  0.2847 -0.5468
 5611SOL    HW228467   4.366   0.869   2.869  0.6617  0.5335 -0.3271
 5612SOL     OW28468   2.383   0.498  14.262  0.4263  0.1282 -0.2658
 5612SOL    HW128469   2.399   0.501  14.357 -1.4255  1.3515  0.0086
 5612SOL    HW228470   2.298   0.540  14.249 -0.3577 -1.2328  0.3940
 5613SOL     OW28471   3.435   4.134  11.822 -0.0247  0.3593 -0.2409
 5613SOL    HW128472   3.498   4.175  11.881 -0.4868  1.2342 -0.3436
 5613SOL    HW228473   3.485   4.061  11.785 -0.0277 -0.0939  0.6585
 5614SOL     OW28474   2.462   2.785   3.295 -0.1797  0.1905 -0.2954
 5614SOL    HW128475   2.399   2.855   3.312  1.2151  0.8746  2.0246
 5614SOL    HW228476   2.497   2.760   3.381  0.1886 -0.7808 -0.7269
 5615SOL     OW28477   2.425   1.702  10.351 -0.3878 -0.5727 -0.2233
 5615SOL    HW128478   2.505   1.734  10.308 -0.5263 -1.1995 -0.9510
 5615SOL    HW228479   2.358   1.759  10.314 -1.5652 -2.3048 -0.7732
 5616SOL     OW28480   2.002   1.756   8.068 -0.4855 -0.3626 -0.3536
 5616SOL    HW128481   2.096   1.762   8.085 -0.3194 -2.6493 -0.5313
 5616SOL    HW228482   2.002   1.842   8.026  1.0527 -0.4375 -0.4848
 5617SOL     OW28483   1.217   3.388   1.836 -0.0120  0.2141 -0.0270
 5617SOL    HW128484   1.198   3.407   1.744  1.8383 -0.2442 -0.5139
 5617SOL    HW228485   1.147   3.329   1.860  0.8351  0.3042  2.6569
 5618SOL     OW28486   2.248   1.931  16.329  0.1181 -0.1509 -0.0111
 5618SOL    HW128487   2.209   2.007  16.373  0.7890  0.5567 -0.6445
 5618SOL    HW228488   2.238   1.858  16.390  1.4243 -0.9625 -0.7796
 5619SOL     OW28489   4.682   2.918   1.093 -0.5942 -0.4614  0.5133
 5619SOL    HW128490   4.630   2.960   1.025 -0.5310  3.2314  2.7708
 5619SOL    HW228491   0.025   2.899   1.050 -1.3295  1.9058 -1.9848
 5620SOL     OW28492   0.555   0.741   1.068  0.0698 -0.7735 -0.2844
 5620SOL    HW128493   0.474   0.690   1.073 -0.6846  0.6571  1.9214
 5620SOL    HW228494   0.542   0.813   1.129 -0.8945  1.3622 -2.9802
 5621SOL     OW28495   4.405   3.260   7.068  0.1313  0.7403 -0.5344
 5621SOL    HW128496   4.373   3.258   7.158  1.0088  2.2318 -0.1739
 5621SOL    HW228497   4.398   3.353   7.046  1.3046  0.5161 -1.8532
 5622SOL     OW28498   2.714   2.948   1.798 -0.2829  0.1056  0.0197
 5622SOL    HW128499   2.763   3.029   1.806 -0.4678  0.4602 -2.4299
 5622SOL    HW228500   2.764   2.891   1.856 -1.6118 -1.1837 -0.0904
 5623SOL     OW28501   1.118   2.709   6.818 -0.1545  0.0898 -0.1944
 5623SOL    HW128502   1.118   2.795   6.775 -1.7428 -0.4397 -1.2442
 5623SOL    HW228503   1.119   2.722   6.913  0.8625 -0.7273 -0.0997
 5624SOL     OW28504   0.295   3.289   3.636 -0.2092  0.1695  0.4758
 5624SOL    HW128505   0.246   3.368   3.616 -0.7495 -0.0261  1.0129
 5624SOL    HW228506   0.385   3.310   3.663 -0.9525  2.1163  1.3715
 5625SOL     OW28507   0.457   4.606   2.363  0.6208 -0.2685  0.4574
 5625SOL    HW128508   0.367   4.636   2.377  1.5768  1.6645  2.5014
 5625SOL    HW228509   0.493   4.639   2.445  0.8913 -1.4008  0.7950
 5626SOL     OW28510   1.528   1.994   0.883  0.2115  0.1668 -0.0329
 5626SOL    HW128511   1.558   1.991   0.793 -3.6339 -0.1443 -1.3161
 5626SOL    HW228512   1.453   2.054   0.881 -0.8708 -1.2514 -1.8866
 5627SOL     OW28513   2.225   4.405  10.515  0.6203  0.0353 -0.4802
 5627SOL    HW128514   2.261   4.366  10.436  0.9368 -0.6022 -0.0216
 5627SOL    HW228515   2.298   4.463  10.536  0.1482  0.9053 -1.2451
 5628SOL     OW28516   4.005   0.432   6.812  0.0621  0.4636  0.3534
 5628SOL    HW128517   4.031   0.415   6.721 -0.0203 -0.3433  0.4819
 5628SOL    HW228518   4.081   0.485   6.836  1.0679 -0.6341 -0.3942
 5629SOL     OW28519   2.002   4.060   7.700  0.2062 -0.0150  0.2937
 5629SOL    HW128520   2.034   3.972   7.720  1.4371 -0.1936 -2.4172
 5629SOL    HW228521   1.949   4.035   7.624 -0.8089 -0.8108  1.2565
 5630SOL     OW28522   3.059   4.553  11.609  0.4045 -0.0874  0.5432
 5630SOL    HW128523   3.015   4.480  11.567  1.4956  0.5088 -1.6255
 5630SOL    HW228524   3.043   4.543  11.703 -1.7979 -1.3151  0.0366
 5631SOL     OW28525   4.552   2.302  16.247 -0.0358  0.1409  0.6389
 5631SOL    HW128526   4.601   2.347  16.178 -0.2896  0.1187  0.4471
 5631SOL    HW228527   4.472   2.354  16.244 -1.1265 -1.5878 -0.3769
 5632SOL     OW28528   2.677   2.996  13.379  0.2499  0.6321 -0.2471
 5632SOL    HW128529   2.698   3.017  13.288 -2.2804 -2.2512 -1.5135
 5632SOL    HW228530   2.681   3.085  13.412 -0.4622  0.8010 -0.6324
 5633SOL     OW28531   1.842   2.828  11.816 -0.2750 -0.2681  0.1872
 5633SOL    HW128532   1.758   2.824  11.770  0.8139  1.4058 -1.9401
 5633SOL    HW228533   1.815   2.851  11.905  0.2326 -0.7921  0.4710
 5634SOL     OW28534   2.617   0.587   4.952  0.3267  0.3186  0.1631
 5634SOL    HW128535   2.574   0.527   4.891 -0.2137 -0.2178  1.0646
 5634SOL    HW228536   2.687   0.533   4.990 -0.1673 -1.2115 -1.1134
 5635SOL     OW28537   4.154   4.164   8.565 -0.1802 -0.0995 -0.1248
 5635SOL    HW128538   4.170   4.190   8.656 -0.8100  0.5571 -0.2062
 5635SOL    HW228539   4.191   4.239   8.519 -3.2842  1.7860  0.4358
 5636SOL     OW28540   2.058   2.797   8.587 -0.2751  0.5805  0.3019
 5636SOL    HW128541   2.032   2.746   8.510  3.8135  1.6615 -1.7479
 5636SOL    HW228542   1.986   2.782   8.649 -1.9893 -0.5923 -1.9643
 5637SOL     OW28543   3.106   3.300   9.328 -0.0100  0.4445 -0.2101
 5637SOL    HW128544   3.035   3.361   9.349 -0.6592 -0.7270  0.9961
 5637SOL    HW228545   3.177   3.319   9.389  1.3509  2.1066 -2.3160
 5638SOL     OW28546   1.524   1.015   8.219  0.4290  0.5465 -0.3118
 5638SOL    HW128547   1.533   1.000   8.125 -0.3055 -0.9383 -0.1421
 5638SOL    HW228548   1.526   0.922   8.244  0.8501  0.0722 -2.0931
 5639SOL     OW28549   2.041   0.286   3.198 -0.7809 -0.2366  0.3496
 5639SOL    HW128550   1.987   0.323   3.128 -1.8812 -3.0754 -0.3205
 5639SOL    HW228551   2.068   0.358   3.254  0.3947  0.0456 -0.5878
 5640SOL     OW28552   0.189   3.485  14.417  0.4628  0.0431  0.1786
 5640SOL    HW128553   0.197   3.554  14.351  1.0077 -0.6659 -0.4845
 5640SOL    HW228554   0.278   3.449  14.414  0.1880 -0.4653 -1.5801
 5641SOL     OW28555   3.005   0.145   2.196  0.3111  0.2538 -0.3221
 5641SOL    HW128556   2.931   0.091   2.224 -1.2268  1.9145 -1.1039
 5641SOL    HW228557   3.017   0.110   2.108  0.1771  1.2945 -0.7600
 5642SOL     OW28558   1.188   0.627   3.629  0.1864 -0.0700  0.1828
 5642SOL    HW128559   1.158   0.574   3.702 -0.0182  0.1496  0.2559
 5642SOL    HW228560   1.200   0.713   3.670  1.2300  0.2202 -0.7153
 5643SOL     OW28561   0.056   4.050   4.934 -0.0602 -0.0683  0.3312
 5643SOL    HW128562   0.056   4.135   4.889  1.7237 -0.7200 -0.8670
 5643SOL    HW228563   0.065   4.080   5.025  0.8694  2.2983 -0.5468
 5644SOL     OW28564   3.924   2.493   0.723  0.0697 -0.0210  0.5404
 5644SOL    HW128565   3.964   2.540   0.651 -2.1245 -1.9010 -1.9253
 5644SOL    HW228566   3.879   2.568   0.762 -2.9314 -1.8442  0.6622
 5645SOL     OW28567   0.467   2.949   1.658 -0.0315  0.7522 -0.1761
 5645SOL    HW128568   0.404   2.972   1.727 -0.7338  0.3657 -0.6857
 5645SOL    HW228569   0.408   2.883   1.621 -2.3786  1.8133  1.6616
 5646SOL     OW28570   4.038   2.120   8.659  0.0329 -0.3342  0.4248
 5646SOL    HW128571   4.068   2.195   8.608 -2.8249  0.4697 -0.0543
 5646SOL    HW228572   4.094   2.049   8.628  0.3974  0.7181 -1.2787
 5647SOL     OW28573   0.127   3.512   8.954  0.3535  0.3334 -0.0999
 5647SOL    HW128574   0.064   3.491   8.885  0.1490  0.6483 -0.0135
 5647SOL    HW228575   0.206   3.514   8.899  0.3094 -0.2181 -0.1810
 5648SOL     OW28576   0.229   0.126  10.760 -0.0779  0.6481 -0.4470
 5648SOL    HW128577   0.274   0.063  10.817  1.1753  0.6414 -1.4477
 5648SOL    HW228578   0.301   0.187  10.745 -0.1861  0.3631 -2.0402
 5649SOL     OW28579   2.185   2.564  13.555  0.3445  0.4816 -0.2570
 5649SOL    HW128580   2.239   2.643  13.562 -1.1133  1.2455  2.1979
 5649SOL    HW228581   2.248   2.498  13.583  1.2789  2.2935  1.9735
 5650SOL     OW28582   2.778   4.677   8.266 -0.3486  0.7522  0.1822
 5650SOL    HW128583   2.743   4.673   8.355 -2.7180  1.5626 -0.7021
 5650SOL    HW228584   2.837   0.011   8.266 -0.3897  0.7770 -1.2359
 5651SOL     OW28585   0.143   3.066   2.819  0.1611 -0.0310  0.4084
 5651SOL    HW128586   0.160   3.003   2.749 -2.9516  0.6677 -0.9422
 5651SOL    HW228587   0.202   3.042   2.891  0.0505 -0.1176  0.4699
 5652SOL     OW28588   1.738   0.225  11.251 -0.1063  0.2132 -0.0555
 5652SOL    HW128589   1.708   0.304  11.205  0.8134 -1.3251 -3.2765
 5652SOL    HW228590   1.799   0.265  11.313 -1.2825 -2.1318  2.5944
 5653SOL     OW28591   3.775   0.142   4.910 -0.2190  0.4222 -0.0574
 5653SOL    HW128592   3.814   0.119   4.994  0.8713  1.1320 -0.3737
 5653SOL    HW228593   3.850   0.138   4.851 -1.3247 -1.3854 -1.3593
 5654SOL     OW28594   1.323   1.512   7.530 -0.2056 -0.1404  0.6906
 5654SOL    HW128595   1.343   1.501   7.623  2.3773 -1.2395 -0.0074
 5654SOL    HW228596   1.357   1.600   7.518  0.1556 -0.7274 -2.4921
 5655SOL     OW28597   2.681   4.732   6.298 -0.0429  0.0917  0.2833
 5655SOL    HW128598   2.698   0.008   6.205 -0.7994 -0.8919 -0.0333
 5655SOL    HW228599   2.752   0.049   6.325 -0.6864  0.1353  1.9063
 5656SOL     OW28600   0.366   2.438   7.500  0.6104  0.1273 -0.3219
 5656SOL    HW128601   0.428   2.366   7.497  1.6604  1.0258 -0.1135
 5656SOL    HW228602   0.352   2.455   7.593  0.7909  3.7341 -0.9183
 5657SOL     OW28603   1.079   2.468   8.767  0.2643  0.4310 -0.1949
 5657SOL    HW128604   1.077   2.548   8.713  1.3731 -1.3795 -2.9114
 5657SOL    HW228605   1.115   2.411   8.700 -0.1771  1.3672 -1.2397
 5658SOL     OW28606   3.411   2.552   1.619 -0.2649 -0.1672 -1.0467
 5658SOL    HW128607   3.385   2.514   1.535  0.9005 -1.3804 -0.8468
 5658SOL    HW228608   3.395   2.487   1.688  1.9070  1.0360  0.5987
 5659SOL     OW28609   1.260   0.013   2.281  0.6055 -0.6783  0.5502
 5659SOL    HW128610   1.334   0.026   2.222 -2.5398 -0.3386 -3.3089
 5659SOL    HW228611   1.225   0.102   2.291 -2.2796 -1.8491  1.1159
 5660SOL     OW28612   2.700   3.934   1.142  0.5092 -0.3031  0.0236
 5660SOL    HW128613   2.627   3.929   1.203 -0.3353 -0.6083 -1.0071
 5660SOL    HW228614   2.764   3.950   1.211  2.0665  0.6481 -1.6162
 5661SOL     OW28615   2.994   2.499  11.819  0.6718  0.4953 -0.3414
 5661SOL    HW128616   2.959   2.567  11.761 -0.8051  0.2013  0.2033
 5661SOL    HW228617   2.940   2.508  11.898  2.0153 -1.9358  0.8522
 5662SOL     OW28618   4.023   2.602   4.623  0.5457  0.2579  0.3691
 5662SOL    HW128619   3.996   2.691   4.645  0.6415 -0.2892  2.6593
 5662SOL    HW228620   4.020   2.593   4.528  0.4943 -0.7521  0.4710
 5663SOL     OW28621   3.148   0.653  16.394 -0.1402 -0.0822 -0.2582
 5663SOL    HW128622   3.111   0.600  16.464  0.5865 -2.6508 -1.8122
 5663SOL    HW228623   3.220   0.604  16.354  1.2799  1.9130 -0.1578
 5664SOL     OW28624   2.680   0.536  15.239 -0.2252  1.0247  0.3439
 5664SOL    HW128625   2.612   0.534  15.172  1.7294  2.2760 -1.6652
 5664SOL    HW228626   2.649   0.470  15.301 -0.4756  0.0839 -0.7973
 5665SOL     OW28627   1.800   3.328   6.088  0.4781 -0.1216 -0.2699
 5665SOL    HW128628   1.733   3.369   6.035  0.6396  1.3825  0.7039
 5665SOL    HW228629   1.870   3.392   6.093 -0.8112  1.4086 -2.0436
 5666SOL     OW28630   3.323   1.033  14.710  0.6617  0.4833 -0.1684
 5666SOL    HW128631   3.314   1.128  14.721  0.2718  0.2928  1.0508
 5666SOL    HW228632   3.343   1.007  14.800  4.3572  1.7823 -0.6164
 5667SOL     OW28633   4.108   0.385   0.638 -0.7491 -0.0500  0.6462
 5667SOL    HW128634   4.128   0.469   0.597  3.8828 -0.8289  1.3885
 5667SOL    HW228635   4.166   0.375   0.713  0.9925 -0.4727 -0.7778
 5668SOL     OW28636   0.002   0.108   3.369 -0.0548 -0.0691  0.3970
 5668SOL    HW128637   0.072   0.111   3.434 -0.2978  1.8296  0.5562
 5668SOL    HW228638   4.690   0.052   3.426 -2.3512  1.0245 -0.6896
 5669SOL     OW28639   3.392   2.061   7.273 -0.3446  0.2461 -0.1892
 5669SOL    HW128640   3.388   2.094   7.363 -1.3066  1.7556 -0.7757
 5669SOL    HW228641   3.486   2.072   7.262 -0.0138 -1.4625  1.0138
 5670SOL     OW28642   3.742   2.454   5.215  0.1866 -0.1408 -0.6204
 5670SOL    HW128643   3.819   2.414   5.255  0.5868  0.0986 -1.1512
 5670SOL    HW228644   3.695   2.461   5.298  0.3946 -1.0453 -0.4299
 5671SOL     OW28645   3.983   1.461  14.516 -0.1730 -0.2410 -0.0189
 5671SOL    HW128646   3.931   1.431  14.441  2.1740 -1.4402 -1.1869
 5671SOL    HW228647   4.065   1.477  14.468 -0.3188  2.2010  0.5930
 5672SOL     OW28648   2.384   2.098  10.020 -0.1136  0.5822  0.0568
 5672SOL    HW128649   2.397   2.052   9.937  1.3195 -0.1323  0.6811
 5672SOL    HW228650   2.451   2.057  10.074  0.1383 -0.4228 -1.0373
 5673SOL     OW28651   4.727   3.239   3.855 -0.2606  0.5427  0.2666
 5673SOL    HW128652   0.002   3.310   3.792 -1.3113  1.2742  0.8265
 5673SOL    HW228653   4.660   3.182   3.817  0.5000 -1.7147  2.3751
 5674SOL     OW28654   3.169   2.388   2.202 -0.1965  0.3864  0.4321
 5674SOL    HW128655   3.136   2.453   2.264  1.6533  1.8442 -0.1273
 5674SOL    HW228656   3.104   2.402   2.132  2.4448 -0.5671 -2.1922
 5675SOL     OW28657   3.708   3.300   4.255 -0.3139  1.1018 -0.0394
 5675SOL    HW128658   3.740   3.211   4.240 -1.8623  0.1124  2.6874
 5675SOL    HW228659   3.617   3.292   4.228 -0.4933  0.7027  0.6914
 5676SOL     OW28660   0.635   2.577   5.045 -0.4419  0.1638 -0.3337
 5676SOL    HW128661   0.642   2.542   4.956  0.4925  1.3626 -0.7311
 5676SOL    HW228662   0.614   2.503   5.101 -1.5181  0.2433 -0.6220
 5677SOL     OW28663   0.602   2.374   8.414 -0.7259 -0.0319  0.4569
 5677SOL    HW128664   0.510   2.383   8.439 -1.2387 -0.0885 -1.4011
 5677SOL    HW228665   0.615   2.292   8.462 -1.8022 -0.9244 -0.7500
 5678SOL     OW28666   2.458   4.678   2.331  0.7873 -0.0402 -0.2279
 5678SOL    HW128667   2.457   4.587   2.361 -2.0765  0.2115  0.4909
 5678SOL    HW228668   2.483   4.729   2.408  1.6257 -2.0590  0.8491
 5679SOL     OW28669   2.788   0.661   7.117  0.0002  0.1755  0.2976
 5679SOL    HW128670   2.880   0.636   7.112 -0.3831 -0.8332 -1.9705
 5679SOL    HW228671   2.778   0.676   7.023  2.4468 -2.0968 -0.3272
 5680SOL     OW28672   0.339   1.328   9.435  0.0213 -0.4877  0.5347
 5680SOL    HW128673   0.412   1.318   9.374  0.6917 -0.1475  1.2840
 5680SOL    HW228674   0.365   1.280   9.513 -3.2801 -2.8157  0.1930
 5681SOL     OW28675   0.872   1.066  11.459  0.2610  0.2180  0.1816
 5681SOL    HW128676   0.853   0.975  11.485  1.4613 -0.5778 -1.6970
 5681SOL    HW228677   0.835   1.122  11.527  2.1195  1.3976  0.2028
 5682SOL     OW28678   2.941   2.895   4.846  0.4668  0.6482  0.2258
 5682SOL    HW128679   2.927   2.801   4.854  2.7528  0.2239 -0.7367
 5682SOL    HW228680   2.860   2.938   4.872 -1.7190 -3.2849 -0.1359
 5683SOL     OW28681   0.724   4.414   6.598  0.5772  0.4010 -0.0539
 5683SOL    HW128682   0.719   4.397   6.692 -1.0386 -1.3480 -0.4521
 5683SOL    HW228683   0.650   4.474   6.589 -0.0948 -0.5592 -0.9630
 5684SOL     OW28684   3.503   2.118   4.352 -0.1386  0.1304 -0.0578
 5684SOL    HW128685   3.498   2.028   4.385  2.4198 -0.1483 -0.4066
 5684SOL    HW228686   3.416   2.150   4.377 -1.1197 -1.9811 -0.7242
 5685SOL     OW28687   2.506   2.962   8.754  0.7830  0.4060 -0.2004
 5685SOL    HW128688   2.478   3.042   8.709 -1.2390  0.8872  1.8715
 5685SOL    HW228689   2.420   2.921   8.767  1.0496 -0.3210 -0.7605
 5686SOL     OW28690   2.398   0.769   3.191  0.0986  0.3614 -0.2504
 5686SOL    HW128691   2.367   0.691   3.144 -0.5210 -0.2423  1.1592
 5686SOL    HW228692   2.329   0.833   3.175  0.2437  0.1283 -1.8283
 5687SOL     OW28693   1.074   0.212   9.192 -0.1575 -0.1333 -0.0466
 5687SOL    HW128694   1.015   0.167   9.132 -3.2337  0.0135  2.8019
 5687SOL    HW228695   1.106   0.136   9.241 -2.8906 -1.9975 -1.1364
 5688SOL     OW28696   3.343   0.944   4.974  0.1850 -0.3268  0.0942
 5688SOL    HW128697   3.391   0.954   4.892  0.4595 -1.6035  0.0941
 5688SOL    HW228698   3.294   1.025   4.988 -2.9767 -2.3738  0.8220
 5689SOL     OW28699   0.996   4.225  11.587  0.6823 -0.3503 -0.3898
 5689SOL    HW128700   0.973   4.266  11.671  0.0727  2.4871 -1.9377
 5689SOL    HW228701   0.956   4.139  11.600  2.3035 -1.1474 -0.7071
 5690SOL     OW28702   0.967   1.856   7.031  0.1931  0.3208  0.0861
 5690SOL    HW128703   0.905   1.913   7.075  0.5366  1.8800 -1.4436
 5690SOL    HW228704   0.920   1.811   6.961  2.9562 -1.6994 -0.4913
 5691SOL     OW28705   0.824   0.379   2.017  0.1279 -0.7052  0.5230
 5691SOL    HW128706   0.800   0.417   1.933  0.9074  0.4687  0.8336
 5691SOL    HW228707   0.801   0.286   2.013  2.5791 -1.2991  0.5443
 5692SOL     OW28708   1.983   1.973   9.228 -0.4112  0.4802 -0.5311
 5692SOL    HW128709   2.024   1.941   9.148 -0.0230 -1.0339  0.2906
 5692SOL    HW228710   1.935   2.049   9.194 -1.2656 -0.2757 -1.0092
 5693SOL     OW28711   3.102   3.123  17.302 -0.1486 -0.2006 -0.0949
 5693SOL    HW128712   3.085   3.207  17.344 -0.8110 -0.5378  0.3169
 5693SOL    HW228713   3.194   3.138  17.284 -0.0796 -1.9652 -1.2454
 5694SOL     OW28714   2.709   3.418  14.115 -0.0188  0.2897  0.4068
 5694SOL    HW128715   2.764   3.496  14.110  0.3923  0.0923  1.8373
 5694SOL    HW228716   2.675   3.416  14.025 -1.1493 -0.8222  0.8651
 5695SOL     OW28717   0.478   0.499   7.488 -0.6147  0.4028 -0.1357
 5695SOL    HW128718   0.400   0.555   7.489 -0.0964  1.1011  0.2548
 5695SOL    HW228719   0.513   0.520   7.574  1.4083 -1.5137 -0.4877
 5696SOL     OW28720   0.642   4.509   8.768  0.1483 -0.0454 -0.3046
 5696SOL    HW128721   0.721   4.522   8.714 -0.3549 -1.9076 -1.4847
 5696SOL    HW228722   0.617   4.423   8.734 -0.6658 -1.0124  2.7576
 5697SOL     OW28723   1.436   1.692   5.872  0.3453 -0.1121  0.0878
 5697SOL    HW128724   1.342   1.702   5.888  0.3386 -1.4773  0.9248
 5697SOL    HW228725   1.450   1.741   5.792 -0.5432  0.1722  0.1123
 5698SOL     OW28726   3.586   2.719   8.656  0.4696 -0.6161 -0.1578
 5698SOL    HW128727   3.571   2.766   8.738 -0.4627  0.1792 -0.7904
 5698SOL    HW228728   3.668   2.671   8.670  1.4385  1.5603  1.5516
 5699SOL     OW28729   1.157   0.482   3.862 -0.2378  0.3803  0.6715
 5699SOL    HW128730   1.212   0.477   3.940 -1.9097 -0.4335  1.7960
 5699SOL    HW228731   1.079   0.434   3.889  1.8821 -3.2901  0.2470
 5700SOL     OW28732   3.139   0.200   7.856  0.0753  0.4692 -0.2859
 5700SOL    HW128733   3.056   0.155   7.874  0.6692 -1.1030 -1.5692
 5700SOL    HW228734   3.163   0.165   7.770 -2.0787 -0.3632 -0.5602
 5701SOL     OW28735   0.311   3.247  11.860 -0.2549  0.4193  0.2484
 5701SOL    HW128736   0.252   3.289  11.797  0.3964  0.7605 -0.1400
 5701SOL    HW228737   0.305   3.154  11.841 -2.9310  0.6103  0.1498
 5702SOL     OW28738   3.638   4.519   7.493  0.6315 -0.3141  0.2432
 5702SOL    HW128739   3.696   4.548   7.422 -0.4896  2.1134  0.3285
 5702SOL    HW228740   3.614   4.437   7.450  2.3250 -0.6316 -0.1015
 5703SOL     OW28741   2.943   4.183   7.810  0.5400  0.2517  0.0838
 5703SOL    HW128742   2.891   4.143   7.740  1.3366 -0.6495 -0.0005
 5703SOL    HW228743   2.985   4.255   7.764  1.9149  0.0445  1.0252
 5704SOL     OW28744   3.073   1.888   2.393 -0.2740 -0.3010 -0.3893
 5704SOL    HW128745   3.161   1.871   2.358 -0.5380  0.0437 -1.2071
 5704SOL    HW228746   3.090   1.870   2.485  0.6430  1.0350 -0.2987
 5705SOL     OW28747   4.426   4.313   6.894  0.1819  0.0898  0.1382
 5705SOL    HW128748   4.514   4.289   6.922  0.6371  0.7961 -0.6873
 5705SOL    HW228749   4.434   4.393   6.842  1.5968  1.0466  1.8555
 5706SOL     OW28750   4.623   3.042   4.839  0.3359 -0.4317  0.1263
 5706SOL    HW128751   4.610   2.953   4.808 -2.3573  0.2598 -0.6837
 5706SOL    HW228752   4.718   3.054   4.828  0.4216 -2.1312 -0.9092
 5707SOL     OW28753   1.263   4.362   1.632 -0.3064 -0.4562 -0.1929
 5707SOL    HW128754   1.317   4.437   1.606 -0.9687 -0.5002 -1.6856
 5707SOL    HW228755   1.199   4.410   1.684 -0.0479 -1.1050  0.7176
 5708SOL     OW28756   3.571   3.285  13.043 -0.1714  0.2411 -0.0484
 5708SOL    HW128757   3.477   3.266  13.049  0.1186 -0.8081  1.1143
 5708SOL    HW228758   3.600   3.194  13.039 -1.4000 -0.0876 -1.3776
 5709SOL     OW28759   0.567   1.119   6.164 -0.1603  0.4065  0.1455
 5709SOL    HW128760   0.662   1.114   6.165 -0.0994  1.6106  0.1078
 5709SOL    HW228761   0.529   1.048   6.113  0.2787  0.3295 -0.0644
 5710SOL     OW28762   2.997   3.985   4.031  0.4954  0.1764 -0.2241
 5710SOL    HW128763   3.083   3.965   3.995  0.0412 -1.5176 -0.3460
 5710SOL    HW228764   2.996   4.081   4.022 -2.1793  0.3760  1.8912
 5711SOL     OW28765   0.232   0.392   0.733  0.0353 -0.4184 -0.3474
 5711SOL    HW128766   0.158   0.369   0.677 -0.2736  0.1113 -0.1680
 5711SOL    HW228767   0.185   0.395   0.817 -0.1345  1.0705 -0.4917
 5712SOL     OW28768   2.820   1.299   2.255  0.3070 -0.5504 -0.2417
 5712SOL    HW128769   2.897   1.251   2.284  1.7108  2.2023  0.5522
 5712SOL    HW228770   2.801   1.336   2.341 -0.3522 -1.3597 -0.0385
 5713SOL     OW28771   1.436   1.861   9.422 -0.5609  0.4311 -0.6435
 5713SOL    HW128772   1.517   1.834   9.379  0.2069  0.5863  0.6751
 5713SOL    HW228773   1.368   1.839   9.359 -0.5627 -0.1672 -0.4378
 5714SOL     OW28774   2.682   3.776  12.243 -0.4215 -0.5507  0.6708
 5714SOL    HW128775   2.703   3.865  12.216  0.4035 -1.6970 -2.4118
 5714SOL    HW228776   2.706   3.783  12.336 -0.7262  1.6793  0.5714
 5715SOL     OW28777   3.021   2.799   4.273 -0.1736 -0.3311 -0.6566
 5715SOL    HW128778   3.010   2.893   4.264  1.2619 -0.2458 -1.5337
 5715SOL    HW228779   3.090   2.787   4.208  0.6071  2.0981 -0.2462
 5716SOL     OW28780   3.915   1.149   1.956  0.4667  0.2534 -0.0079
 5716SOL    HW128781   3.837   1.202   1.970 -0.1023 -0.6326  0.2202
 5716SOL    HW228782   3.900   1.109   1.871 -1.8008  0.7268  0.1917
 5717SOL     OW28783   1.106   1.496   7.812  0.0923  0.1408 -0.2860
 5717SOL    HW128784   1.034   1.559   7.822  0.6564  0.6599  0.4952
 5717SOL    HW228785   1.088   1.431   7.880 -1.2350  1.3723  0.5579
 5718SOL     OW28786   0.038   0.072   1.372  0.0977  0.2711 -0.1168
 5718SOL    HW128787   0.092   0.106   1.301 -3.1019  1.6534 -1.9005
 5718SOL    HW228788   0.041   4.720   1.351  0.8798  0.5086 -1.0599
 5719SOL     OW28789   2.950   0.340  17.003  0.5078  0.2497  0.3877
 5719SOL    HW128790   2.876   0.359  16.946 -0.8988 -1.9577  1.4695
 5719SOL    HW228791   2.956   0.247  16.982  2.1680  0.5098 -0.3596
 5720SOL     OW28792   4.536   1.168   3.101  0.0612  0.8719 -0.0408
 5720SOL    HW128793   4.558   1.133   3.187 -0.9915  0.5194  0.0900
 5720SOL    HW228794   4.492   1.247   3.134 -0.7207  1.0240 -1.4557
 5721SOL     OW28795   1.221   0.006  16.074  0.1273  0.2540  0.0580
 5721SOL    HW128796   1.277   4.714  16.004  0.0266  0.6459 -0.2074
 5721SOL    HW228797   1.147   0.051  16.033 -1.4127 -0.0489  2.4951
 5722SOL     OW28798   2.268   3.277   4.446  0.0382 -0.0954  0.2482
 5722SOL    HW128799   2.353   3.298   4.486  0.4112 -1.4820  0.1757
 5722SOL    HW228800   2.297   3.231   4.368  1.9338 -0.2919  1.0704
 5723SOL     OW28801   2.266   4.514   5.215  0.4102 -0.4450  0.7134
 5723SOL    HW128802   2.191   4.490   5.161  0.0795 -2.5049  2.1065
 5723SOL    HW228803   2.240   4.510   5.306 -0.1732  0.9241  0.6142
 5724SOL     OW28804   3.230   2.107   2.160  0.4211 -0.2566  0.1864
 5724SOL    HW128805   3.203   2.199   2.162 -2.1766 -0.9467 -2.0545
 5724SOL    HW228806   3.325   2.111   2.169  0.4651 -1.2370  0.1563
 5725SOL     OW28807   3.707   3.261   2.733  0.0901 -0.5420  0.5162
 5725SOL    HW128808   3.651   3.203   2.785  1.7384  0.7557  3.7648
 5725SOL    HW228809   3.664   3.266   2.648  1.6809 -0.7166 -0.2961
 5726SOL     OW28810   4.483   4.058  11.543 -0.1439  0.2531  0.5589
 5726SOL    HW128811   4.480   3.989  11.609 -1.0432  0.1346  0.3837
 5726SOL    HW228812   4.536   4.008  11.480 -1.1878 -1.0778  0.7489
 5727SOL     OW28813   0.207   2.327   8.031 -0.3754  0.6693 -0.5248
 5727SOL    HW128814   0.193   2.284   8.115 -0.5874 -1.2936 -1.5841
 5727SOL    HW228815   0.265   2.263   7.989 -0.1778 -0.3309  1.2813
 5728SOL     OW28816   1.362   2.841   4.451 -0.3722  0.6214  0.5767
 5728SOL    HW128817   1.280   2.826   4.404  0.1423  1.9092 -0.6907
 5728SOL    HW228818   1.399   2.752   4.451 -1.5109  0.1578 -0.8780
 5729SOL     OW28819   0.888   3.002   5.435  0.3307  0.2014  0.3719
 5729SOL    HW128820   0.926   2.936   5.377 -1.1097 -1.1839  1.0353
 5729SOL    HW228821   0.967   3.047   5.466  0.4754 -1.3852  2.2651
 5730SOL     OW28822   4.121   1.797   5.259  0.3746  0.1329  0.4488
 5730SOL    HW128823   4.196   1.838   5.216  0.0228  0.7894  0.4537
 5730SOL    HW228824   4.090   1.865   5.319  1.0562  0.8491 -0.0019
 5731SOL     OW28825   0.681   2.476   4.786 -0.2760 -0.2560  0.9331
 5731SOL    HW128826   0.605   2.498   4.732  0.4317 -0.9024 -0.3319
 5731SOL    HW228827   0.695   2.391   4.744 -0.7520  0.5692 -0.9180
 5732SOL     OW28828   0.784   1.396   3.832  0.5439 -0.2385 -0.0647
 5732SOL    HW128829   0.785   1.419   3.739 -1.3902  0.3983  0.0738
 5732SOL    HW228830   0.869   1.416   3.870  1.0713 -1.9140 -0.3522
 5733SOL     OW28831   3.473   1.785   7.501  0.2108  0.2946  0.8221
 5733SOL    HW128832   3.485   1.714   7.565  0.6008 -1.1831 -0.8944
 5733SOL    HW228833   3.402   1.839   7.537 -0.9159 -2.1590  2.3086
 5734SOL     OW28834   2.221   3.796  11.537  0.1164  0.1662 -0.2373
 5734SOL    HW128835   2.286   3.740  11.495 -1.5108 -0.4508 -1.9333
 5734SOL    HW228836   2.155   3.727  11.538  1.8658 -1.5051 -0.0948
 5735SOL     OW28837   2.497   3.168  17.552  0.2785 -0.2048 -0.2140
 5735SOL    HW128838   2.536   3.133  17.471  2.0213 -0.4652  0.7475
 5735SOL    HW228839   2.528   3.103  17.615  0.1738  0.4452  0.5022
 5736SOL     OW28840   0.916   0.993   4.687  0.4079 -0.2013  0.3667
 5736SOL    HW128841   0.911   1.063   4.752 -0.4679 -0.5399  0.6589
 5736SOL    HW228842   0.974   0.925   4.721  0.8445 -0.6447 -1.2990
 5737SOL     OW28843   3.711   4.669   6.501 -0.0907  0.2355  0.1073
 5737SOL    HW128844   3.646   4.615   6.546 -0.3799  1.8821  1.6795
 5737SOL    HW228845   3.779   4.669   6.568  1.5799  0.1369 -1.5840
 5738SOL     OW28846   3.715   2.346   5.918 -0.3794 -0.2283  0.5406
 5738SOL    HW128847   3.779   2.293   5.965  0.2479  1.0902  1.1790
 5738SOL    HW228848   3.719   2.431   5.961 -2.5796  0.2427 -0.1978
 5739SOL     OW28849   3.926   0.199   0.625  0.2656  0.1559 -0.0677
 5739SOL    HW128850   3.982   0.270   0.657 -0.6561  0.9237 -0.1726
 5739SOL    HW228851   3.968   0.176   0.542 -0.6479  0.1110 -0.5113
 5740SOL     OW28852   2.881   2.637   4.802 -0.2199 -0.1470  0.2410
 5740SOL    HW128853   2.895   2.567   4.737  1.7179 -1.2764  1.8577
 5740SOL    HW228854   2.859   2.590   4.883  0.8564  0.7217  1.0310
 5741SOL     OW28855   4.643   3.678   6.754 -0.4983  0.0056 -0.1681
 5741SOL    HW128856   4.670   3.632   6.675 -1.1543  1.1465 -1.0614
 5741SOL    HW228857   4.564   3.724   6.727 -1.1500 -0.4683  0.9172
 5742SOL     OW28858   1.387   0.759  13.172 -0.1001  0.2172  0.2296
 5742SOL    HW128859   1.334   0.711  13.235 -0.3922  0.4824  0.1895
 5742SOL    HW228860   1.452   0.691  13.158 -1.0170 -1.0026  1.8720
 5743SOL     OW28861   0.098   2.160   8.642  0.2971 -0.2081 -0.1718
 5743SOL    HW128862   0.052   2.237   8.608 -1.0187 -0.5950  0.7006
 5743SOL    HW228863   0.145   2.126   8.566  1.2130 -1.4296  0.9353
 5744SOL     OW28864   1.608   3.644   6.313 -0.3789  0.3613  0.2217
 5744SOL    HW128865   1.673   3.620   6.247 -1.0790  1.0145 -0.7034
 5744SOL    HW228866   1.562   3.561   6.305  2.0115 -0.8935 -0.5236
 5745SOL     OW28867   4.618   2.196   5.066  0.1208 -0.3132 -0.3066
 5745SOL    HW128868   4.560   2.203   4.990 -0.7413 -1.1514  0.2732
 5745SOL    HW228869   4.703   2.206   5.025  0.2999 -1.2378 -0.1473
 5746SOL     OW28870   2.384   2.954   2.401 -0.2538  0.3636 -0.4462
 5746SOL    HW128871   2.406   3.040   2.436 -1.6063  0.9397 -1.0127
 5746SOL    HW228872   2.329   2.978   2.326 -0.4115  0.4573 -0.3010
 5747SOL     OW28873   2.944   0.423  12.767  0.3922 -0.2465 -0.3880
 5747SOL    HW128874   2.871   0.465  12.813 -0.5137 -1.5706 -0.6169
 5747SOL    HW228875   2.904   0.404  12.682  2.2574 -2.9410 -0.6494
 5748SOL     OW28876   1.253   0.654   5.065  0.7958 -0.1596 -0.1964
 5748SOL    HW128877   1.271   0.746   5.087 -0.4363 -0.1835  0.9055
 5748SOL    HW228878   1.340   0.620   5.087  0.9380  0.2631 -0.0999
 5749SOL     OW28879   1.494   1.731   3.862  0.8062 -0.0217 -0.5100
 5749SOL    HW128880   1.519   1.823   3.876  2.4279 -0.7933  1.5826
 5749SOL    HW228881   1.519   1.713   3.771 -1.3313 -0.6731 -0.9642
 5750SOL     OW28882   4.342   1.364   2.955 -0.2142  0.0184 -0.1570
 5750SOL    HW128883   4.385   1.431   3.008 -0.4327  0.0225  0.0169
 5750SOL    HW228884   4.395   1.381   2.877 -1.9556  0.6887 -1.1784
 5751SOL     OW28885   4.427   3.416   5.892 -0.0202 -0.4860 -0.2841
 5751SOL    HW128886   4.398   3.327   5.873  1.5694 -1.5237  2.0552
 5751SOL    HW228887   4.511   3.425   5.845  0.2204  1.4463  0.5064
 5752SOL     OW28888   1.061   0.768   3.399 -0.3749 -0.0216 -0.0238
 5752SOL    HW128889   0.970   0.741   3.413 -0.5202 -0.9784 -2.8826
 5752SOL    HW228890   1.107   0.712   3.462 -0.3895 -1.6444 -1.4697
 5753SOL     OW28891   2.927   0.255   7.471  0.0856  0.2522  0.2103
 5753SOL    HW128892   2.947   0.306   7.392 -1.0042  3.0751  1.7455
 5753SOL    HW228893   2.935   0.324   7.537  0.0920  0.6489 -0.2086
 5754SOL     OW28894   2.019   3.294   4.842 -0.6581 -0.5220 -0.0854
 5754SOL    HW128895   2.054   3.224   4.786 -1.8908 -0.4533 -0.9337
 5754SOL    HW228896   1.965   3.340   4.778 -0.8424  0.8748  1.0769
 5755SOL     OW28897   3.633   1.655   8.243 -0.4023 -0.1183  0.7100
 5755SOL    HW128898   3.676   1.739   8.259  2.7048 -1.2158 -1.8728
 5755SOL    HW228899   3.543   1.689   8.249 -0.0580  0.8332  0.5345
 5756SOL     OW28900   3.920   0.090   6.057 -0.1810  0.6976 -0.2120
 5756SOL    HW128901   3.877   0.175   6.052  0.2095  0.9284  0.4904
 5756SOL    HW228902   3.993   0.100   6.118  1.1058 -2.6764 -1.1739
 5757SOL     OW28903   0.054   3.775  17.000 -0.2687 -0.1506 -0.1776
 5757SOL    HW128904   4.704   3.750  16.985 -1.0886  0.9938  2.9948
 5757SOL    HW228905   0.076   3.828  16.924 -1.7110 -2.5888 -2.3160
 5758SOL     OW28906   3.355   0.712  11.386 -0.4971 -0.0499 -0.0473
 5758SOL    HW128907   3.402   0.641  11.342  2.7616  1.4199  1.0398
 5758SOL    HW228908   3.353   0.783  11.322  0.9522 -0.3151 -0.3918
 5759SOL     OW28909   1.282   1.303   4.356 -0.3556  0.1080 -0.3258
 5759SOL    HW128910   1.252   1.330   4.442  1.7218 -0.3066  0.5376
 5759SOL    HW228911   1.345   1.236   4.384  0.4258  1.4880  1.2065
 5760SOL     OW28912   3.084   4.377  10.264  0.1624 -0.0806 -0.8003
 5760SOL    HW128913   2.995   4.411  10.251 -0.8216 -2.2411  0.3666
 5760SOL    HW228914   3.136   4.427  10.201  0.1396 -0.1637 -0.8852
 5761SOL     OW28915   3.929   1.147   3.127 -0.6011 -0.2675 -0.0109
 5761SOL    HW128916   4.011   1.195   3.137 -0.0055 -0.9726 -1.6148
 5761SOL    HW228917   3.940   1.101   3.044 -1.5073 -0.7684  0.1409
 5762SOL     OW28918   2.833   1.699   5.296 -0.4153 -0.0425 -0.4232
 5762SOL    HW128919   2.749   1.688   5.252 -0.5618 -1.8138  0.2978
 5762SOL    HW228920   2.812   1.788   5.326 -0.5150  0.1053 -0.9388
 5763SOL     OW28921   0.100   1.557  17.297  0.4712  0.4494  0.1947
 5763SOL    HW128922   0.106   1.652  17.308  1.0062  0.2252  1.8277
 5763SOL    HW228923   0.009   1.540  17.321  0.1204  1.0781 -0.7173
 5764SOL     OW28924   2.768   0.692   6.828 -0.0664 -0.3977 -0.3695
 5764SOL    HW128925   2.774   0.597   6.834  0.0235 -0.4310 -1.0408
 5764SOL    HW228926   2.802   0.703   6.740 -1.5035  0.0951 -0.8719
 5765SOL     OW28927   1.490   1.473   8.299  0.1187 -0.1707 -0.3082
 5765SOL    HW128928   1.522   1.386   8.321  0.3910  0.2010  0.7658
 5765SOL    HW228929   1.396   1.455   8.288  0.2912 -0.8794 -0.5694
 5766SOL     OW28930   0.397   1.123  12.706 -0.0443 -0.3508  0.1166
 5766SOL    HW128931   0.410   1.215  12.729  0.3855 -0.5709  0.7464
 5766SOL    HW228932   0.313   1.097  12.743 -1.7278  1.8004 -2.2191
 5767SOL     OW28933   1.384   3.684   1.938  0.4260 -0.4722  0.2218
 5767SOL    HW128934   1.329   3.705   2.013  2.6885  0.7225  1.5538
 5767SOL    HW228935   1.395   3.590   1.952 -0.2732 -0.5682  0.0973
 5768SOL     OW28936   0.195   2.889   2.625 -0.0710 -0.1764 -0.2172
 5768SOL    HW128937   0.112   2.896   2.579 -0.0464  0.7426 -0.1248
 5768SOL    HW228938   0.249   2.891   2.546 -1.2552 -2.2456 -1.0459
 5769SOL     OW28939   3.724   0.332   2.458 -0.3512 -0.3378 -0.0661
 5769SOL    HW128940   3.797   0.391   2.476 -1.2225  1.7281 -3.2879
 5769SOL    HW228941   3.721   0.339   2.362  1.5427  1.7879  0.0243
 5770SOL     OW28942   0.797   0.941   2.403  0.5261  0.0916 -0.2871
 5770SOL    HW128943   0.801   0.866   2.462  0.2182  0.0365 -0.3398
 5770SOL    HW228944   0.862   0.902   2.344  0.3389 -0.3606 -0.1961
 5771SOL     OW28945   1.777   0.800   6.910  0.9182  0.2138 -0.4926
 5771SOL    HW128946   1.760   0.869   6.847 -1.1390  0.1617  0.0029
 5771SOL    HW228947   1.742   0.719   6.872 -1.1778 -0.1308  2.1375
 5772SOL     OW28948   2.683   0.342   5.933  0.4220 -0.4083 -0.0520
 5772SOL    HW128949   2.636   0.399   5.994 -0.9684 -1.8220  0.1988
 5772SOL    HW228950   2.757   0.403   5.927 -0.2740  0.5699  1.3058
 5773SOL     OW28951   1.418   1.792   6.908 -0.2191  0.4401 -0.5389
 5773SOL    HW128952   1.364   1.843   6.969 -0.6702 -1.1970  0.4299
 5773SOL    HW228953   1.416   1.705   6.949 -0.8771  0.7970  0.1877
 5774SOL     OW28954   1.556   2.530   0.635  0.4997  0.6499  0.3400
 5774SOL    HW128955   1.598   2.584   0.703  2.7564  0.0964 -0.5973
 5774SOL    HW228956   1.471   2.571   0.624  1.3513  2.3978  0.1617
 5775SOL     OW28957   0.924   2.788  11.861  0.4316 -0.0456  0.1331
 5775SOL    HW128958   0.873   2.712  11.889  1.2472 -0.9401 -0.8173
 5775SOL    HW228959   0.859   2.833  11.807 -0.1193  0.2001  0.9973
 5776SOL     OW28960   0.225   2.759  17.027 -0.5480  0.1557  0.4648
 5776SOL    HW128961   0.262   2.842  17.056  1.5409 -0.4338 -0.4906
 5776SOL    HW228962   0.273   2.707  17.091 -0.9520 -1.3049 -0.3984
 5777SOL     OW28963   1.251   1.361  16.292 -0.4611  0.4142 -0.1638
 5777SOL    HW128964   1.329   1.315  16.263  0.4146  1.1855  0.9719
 5777SOL    HW228965   1.193   1.285  16.285  0.7674 -0.4718 -0.6248
 5778SOL     OW28966   1.521   3.928   4.956 -0.0382 -0.1775  0.4508
 5778SOL    HW128967   1.434   3.910   4.989 -0.3294  0.3703 -0.0122
 5778SOL    HW228968   1.551   4.002   5.008  1.5602 -2.6718  3.1021
 5779SOL     OW28969   3.250   2.352  12.861 -0.0412  0.3408 -0.4571
 5779SOL    HW128970   3.181   2.326  12.921 -1.0421  0.6845 -1.4755
 5779SOL    HW228971   3.308   2.277  12.847  1.4136  1.2543  0.5632
 5780SOL     OW28972   3.785   3.519   1.898  0.5847  0.0479 -0.0852
 5780SOL    HW128973   3.809   3.519   1.805  1.8570  2.8103  0.2341
 5780SOL    HW228974   3.726   3.444   1.899  0.7007 -0.0691 -1.8058
 5781SOL     OW28975   0.601   0.609   8.532  0.1789 -0.2577  0.7518
 5781SOL    HW128976   0.552   0.528   8.548  1.8328 -1.2405  0.9465
 5781SOL    HW228977   0.661   0.579   8.464  0.5755 -0.8852  1.3690
 5782SOL     OW28978   3.073   0.630  17.059 -0.3824 -0.1749  0.3339
 5782SOL    HW128979   3.023   0.682  17.122  0.4321  0.6832  0.2821
 5782SOL    HW228980   3.069   0.680  16.977 -0.2361  0.2601  0.5881
 5783SOL     OW28981   1.828   2.571   6.539  0.1558 -0.1131  0.2225
 5783SOL    HW128982   1.782   2.540   6.617 -3.2120  0.5159 -1.5322
 5783SOL    HW228983   1.918   2.541   6.551  0.1708 -0.9053 -2.0244
 5784SOL     OW28984   3.366   2.953  17.260 -0.7989 -0.5993 -0.1203
 5784SOL    HW128985   3.350   2.860  17.275 -0.0541 -0.6517  0.3545
 5784SOL    HW228986   3.424   2.963  17.335 -0.7963  0.9240 -0.3243
 5785SOL     OW28987   1.937   0.592   9.119 -0.1636  0.8064  0.2638
 5785SOL    HW128988   1.868   0.566   9.058  1.3564 -3.0782  0.2480
 5785SOL    HW228989   2.017   0.560   9.078 -2.4833 -0.1107 -3.5701
 5786SOL     OW28990   3.773   2.594   6.827  0.0200 -0.1057 -0.4332
 5786SOL    HW128991   3.705   2.558   6.770  1.3416  0.0767 -2.1276
 5786SOL    HW228992   3.735   2.682   6.830  0.3335  0.0129 -0.0132
 5787SOL     OW28993   2.642   4.463   6.060 -0.0104 -0.3218  0.1973
 5787SOL    HW128994   2.554   4.502   6.051 -0.2938 -0.7990  0.8681
 5787SOL    HW228995   2.665   4.458   5.967  0.9215 -3.2094  0.6048
 5788SOL     OW28996   2.634   2.375   2.597 -0.6568 -0.3214 -0.5910
 5788SOL    HW128997   2.572   2.447   2.597 -0.3388 -0.0496  0.2653
 5788SOL    HW228998   2.577   2.298   2.594 -2.2491  0.8419  0.6848
 5789SOL     OW28999   1.779   3.344  11.763  0.1841 -0.7816  0.4684
 5789SOL    HW129000   1.709   3.279  11.768 -0.7759 -0.0091 -2.6232
 5789SOL    HW229001   1.750   3.400  11.835 -1.7764 -1.0417 -0.1207
 5790SOL     OW29002   4.693   3.255   8.506 -0.2615 -0.2881  0.5228
 5790SOL    HW129003   4.626   3.219   8.565  0.5234 -2.9352 -0.2054
 5790SOL    HW229004   4.639   3.247   8.427  2.0691  2.8580 -1.3495
 5791SOL     OW29005   4.733   0.461  10.232  0.1175  0.1953 -0.7309
 5791SOL    HW129006   4.706   0.385  10.284  1.8305 -0.0731 -0.2305
 5791SOL    HW229007   4.671   0.450  10.160  0.2855  0.0612 -0.8554
 5792SOL     OW29008   0.099   3.313  16.704 -0.5429 -0.1179 -0.3169
 5792SOL    HW129009   0.059   3.400  16.702  2.0406  1.0813  0.4813
 5792SOL    HW229010   0.118   3.302  16.610 -1.4356 -0.0425 -0.5025
 5793SOL     OW29011   4.681   0.243   5.746  0.2871 -0.1782 -0.5358
 5793SOL    HW129012   4.735   0.237   5.667 -0.9258  0.1391 -1.3956
 5793SOL    HW229013   4.642   0.330   5.743  0.5949 -0.0116  0.3958
 5794SOL     OW29014   4.242   3.471   8.782  0.2887  0.5497 -0.6103
 5794SOL    HW129015   4.182   3.513   8.844 -0.0201 -0.0066 -0.5313
 5794SOL    HW229016   4.263   3.392   8.832 -0.1653  1.4646  1.0459
 5795SOL     OW29017   1.600   2.218   2.260 -0.4311 -0.3909 -0.0118
 5795SOL    HW129018   1.618   2.312   2.267 -6.2739  0.7732 -0.5029
 5795SOL    HW229019   1.681   2.186   2.298 -0.6211  1.4898  2.0042
 5796SOL     OW29020   2.205   0.676   2.194 -0.1055  0.1733 -0.5567
 5796SOL    HW129021   2.252   0.622   2.258  0.8871  2.3786  0.5820
 5796SOL    HW229022   2.281   0.719   2.154  0.3922  0.5090  0.7561
 5797SOL     OW29023   0.537   2.407   2.635 -0.1725 -0.4476 -0.3782
 5797SOL    HW129024   0.585   2.417   2.717  3.8250 -1.7048 -2.6150
 5797SOL    HW229025   0.510   2.316   2.639  0.6458 -0.7168 -1.0172
 5798SOL     OW29026   2.466   1.197   5.384  0.3559  0.1240 -0.6338
 5798SOL    HW129027   2.471   1.292   5.371  1.9836  0.4951  2.7808
 5798SOL    HW229028   2.388   1.172   5.334  0.9983 -0.1286 -1.4981
 5799SOL     OW29029   3.101   0.799   8.169  0.1429 -0.1079  0.4821
 5799SOL    HW129030   3.112   0.768   8.079 -2.1391  1.1534 -0.2357
 5799SOL    HW229031   3.028   0.858   8.148 -0.0082  0.3601  2.2744
 5800SOL     OW29032   2.054   2.599   7.396  0.4829  0.0953 -0.5880
 5800SOL    HW129033   1.972   2.553   7.376  1.0075 -1.3877  0.7139
 5800SOL    HW229034   2.025   2.690   7.386  0.1252  0.1164  0.6796
 5801SOL     OW29035   2.095   4.016   6.593  0.5480  0.1961  0.6212
 5801SOL    HW129036   2.051   3.988   6.673  0.1817 -1.2598 -0.1000
 5801SOL    HW229037   2.022   4.040   6.537  1.7244 -0.6551 -1.2642
 5802SOL     OW29038   0.233   1.498   3.737  0.2274 -0.4018  0.5937
 5802SOL    HW129039   0.260   1.409   3.713  1.4647  0.3839 -0.9142
 5802SOL    HW229040   0.239   1.539   3.651 -0.2380 -0.1123  0.6969
 5803SOL     OW29041   3.507   3.853   2.721 -0.4479  0.1153 -0.0473
 5803SOL    HW129042   3.592   3.864   2.678 -0.9703 -0.4142 -1.2272
 5803SOL    HW229043   3.465   3.819   2.642  1.4420 -2.0146 -0.1596
 5804SOL     OW29044   1.085   1.690   2.099 -0.1937 -0.2728 -0.6032
 5804SOL    HW129045   1.135   1.746   2.157 -2.1931 -0.0040  0.8691
 5804SOL    HW229046   1.154   1.679   2.034 -0.4398 -1.0174 -0.7368
 5805SOL     OW29047   3.726   1.267   9.047 -0.1020 -0.0616 -0.2643
 5805SOL    HW129048   3.741   1.350   9.094 -1.0983 -0.2532  0.3871
 5805SOL    HW229049   3.724   1.305   8.959 -1.3786 -1.9210 -1.0213
 5806SOL     OW29050   0.924   2.771   3.551 -0.4844 -0.6966  0.3064
 5806SOL    HW129051   0.832   2.770   3.575 -0.0718 -0.8118  1.8847
 5806SOL    HW229052   0.942   2.861   3.525 -3.3246 -0.9430 -2.4102
 5807SOL     OW29053   2.636   4.145   7.952 -0.1854  0.8500 -0.1113
 5807SOL    HW129054   2.645   4.093   7.873 -2.0464 -1.7840  1.4226
 5807SOL    HW229055   2.650   4.234   7.919 -1.7498  0.2111 -2.4514
 5808SOL     OW29056   3.498   0.070   4.566  0.3642 -0.2383 -0.2756
 5808SOL    HW129057   3.511   0.036   4.477 -1.3563 -0.4375 -0.4512
 5808SOL    HW229058   3.405   0.092   4.566  0.5407  0.5109 -1.5123
 5809SOL     OW29059   0.702   4.091   6.616  0.5436 -0.3027 -0.6773
 5809SOL    HW129060   0.639   4.147   6.569  1.4421  2.2189  1.1048
 5809SOL    HW229061   0.730   4.047   6.536 -2.8062 -3.4647 -0.0838
 5810SOL     OW29062   2.107   3.323  13.622 -0.1399  0.3075 -0.1125
 5810SOL    HW129063   2.091   3.280  13.707  1.0617 -1.0459 -0.5693
 5810SOL    HW229064   2.139   3.249  13.572  3.8893  1.6458  0.4633
 5811SOL     OW29065   4.226   3.509   8.065  0.0081 -0.0289  0.2284
 5811SOL    HW129066   4.300   3.557   8.103 -0.3034  0.2928  0.4241
 5811SOL    HW229067   4.147   3.546   8.102 -0.2258  0.7145 -1.0034
 5812SOL     OW29068   0.762   2.241   8.775  0.1184 -0.5111 -0.0552
 5812SOL    HW129069   0.834   2.183   8.754  1.4405  1.2069 -0.2616
 5812SOL    HW229070   0.804   2.287   8.847  0.9935 -1.8417  0.2791
 5813SOL     OW29071   3.396   0.663   5.829 -0.0730 -0.6891  0.3898
 5813SOL    HW129072   3.331   0.725   5.862 -0.1834 -0.3102 -0.5156
 5813SOL    HW229073   3.373   0.578   5.865 -2.9126 -0.0770 -0.0110
 5814SOL     OW29074   1.496   1.009   0.207 -0.0551  0.4205  0.0524
 5814SOL    HW129075   1.574   0.961   0.179 -0.3163  0.7679 -1.2652
 5814SOL    HW229076   1.509   1.023   0.301 -1.0833  0.4165  0.1899
 5815SOL     OW29077   4.431   0.781  14.446 -0.6915 -0.5956  0.0656
 5815SOL    HW129078   4.418   0.747  14.534  1.4179 -0.0845  0.5719
 5815SOL    HW229079   4.438   0.703  14.390  1.0623 -0.7845  0.5735
 5816SOL     OW29080   1.384   4.016   4.545  0.4286  0.2824  0.4761
 5816SOL    HW129081   1.433   4.026   4.463  0.7244 -2.2181  0.3345
 5816SOL    HW229082   1.459   4.006   4.604  1.4662  0.3096 -0.8334
 5817SOL     OW29083   4.417   3.617   5.548 -0.2105 -0.4339  0.1630
 5817SOL    HW129084   4.365   3.539   5.567 -2.2944  0.5096 -1.6985
 5817SOL    HW229085   4.423   3.650   5.638  0.3669 -0.6827  0.2179
 5818SOL     OW29086   3.989   3.881  17.336  0.6754  0.2442 -0.3710
 5818SOL    HW129087   4.009   3.969  17.369  1.1430  0.8536 -2.2940
 5818SOL    HW229088   3.939   3.906  17.258 -2.1281 -1.7495  0.7888
 5819SOL     OW29089   2.133   4.513   0.239 -0.1635  0.0083 -0.0675
 5819SOL    HW129090   2.164   4.469   0.318  2.7320 -0.0454 -1.1977
 5819SOL    HW229091   2.187   4.467   0.174  0.0338  1.4754 -0.9417
 5820SOL     OW29092   1.681   1.851   6.616  0.0117 -0.1266  0.1718
 5820SOL    HW129093   1.666   1.939   6.581  0.6944 -0.4501 -0.9223
 5820SOL    HW229094   1.655   1.797   6.542  0.2717  1.4023 -1.0296
 5821SOL     OW29095   0.191   4.511   7.297 -0.8550  0.0705 -0.1343
 5821SOL    HW129096   0.200   4.543   7.387  3.8355 -3.7259  0.7195
 5821SOL    HW229097   0.210   4.418   7.311 -2.1659 -0.6012 -2.7913
 5822SOL     OW29098   2.277   0.051   8.799 -0.0767  0.7872  0.3041
 5822SOL    HW129099   2.189   0.035   8.765  0.4669 -1.2977 -0.1191
 5822SOL    HW229100   2.285   4.717   8.858  0.5110 -1.2488 -2.3126
 5823SOL     OW29101   3.714   2.472   3.467 -0.6710 -0.8115  0.1831
 5823SOL    HW129102   3.787   2.454   3.527  1.4934 -0.2548 -2.2547
 5823SOL    HW229103   3.762   2.473   3.384 -1.5064  2.3577 -0.2613
 5824SOL     OW29104   1.251   4.212  16.806 -0.5202 -0.1670  0.0704
 5824SOL    HW129105   1.171   4.193  16.855 -2.4094  1.0096 -2.5739
 5824SOL    HW229106   1.211   4.205  16.719  0.0126  2.7481 -0.3971
 5825SOL     OW29107   4.697   2.283   2.523 -0.0452  0.0308 -0.1883
 5825SOL    HW129108   4.619   2.244   2.561 -0.4572 -0.3669 -1.4506
 5825SOL    HW229109   4.689   2.289   2.427  0.1014 -0.9862 -0.2625
 5826SOL     OW29110   1.213   1.854   0.973  0.1882 -0.0954  0.0353
 5826SOL    HW129111   1.258   1.934   1.000 -0.0180  0.4141 -1.1243
 5826SOL    HW229112   1.200   1.814   1.059  1.3601  0.1034  0.3037
 5827SOL     OW29113   0.413   0.900   6.062  0.0280  0.1934 -0.3977
 5827SOL    HW129114   0.348   0.843   6.103  0.6245 -1.2985 -1.5155
 5827SOL    HW229115   0.489   0.841   6.060  0.0915  0.2714 -0.2268
 5828SOL     OW29116   1.548   4.561   9.380  0.3080  0.5660 -0.1143
 5828SOL    HW129117   1.633   4.596   9.404  0.4750  0.4776 -0.5731
 5828SOL    HW229118   1.496   4.628   9.423 -1.4370  0.7305 -2.4797
 5829SOL     OW29119   4.557   2.122  14.031 -0.4574 -0.3730 -0.2867
 5829SOL    HW129120   4.462   2.119  14.020 -0.5661  1.3013  0.1028
 5829SOL    HW229121   4.580   2.193  13.971  1.7268 -0.4527  0.4345
 5830SOL     OW29122   3.505   3.889   3.915  0.5617  0.0320  0.2437
 5830SOL    HW129123   3.559   3.872   3.839  0.7986 -1.8456  0.8484
 5830SOL    HW229124   3.570   3.898   3.984  0.4990  1.6768  0.0917
 5831SOL     OW29125   1.776   4.621   8.319  0.0144  0.3548 -0.6878
 5831SOL    HW129126   1.865   4.598   8.346 -0.5395 -0.0219  0.8684
 5831SOL    HW229127   1.760   4.692   8.381  2.7780 -0.8813  1.4652
 5832SOL     OW29128   2.231   0.959   3.862  0.4219 -0.8534 -0.1749
 5832SOL    HW129129   2.199   1.017   3.793  0.0959  0.1879  0.8715
 5832SOL    HW229130   2.173   0.883   3.859  0.6404 -0.9919 -0.9578
 5833SOL     OW29131   0.001   2.214   7.567 -0.3590 -0.4034 -0.1337
 5833SOL    HW129132   0.033   2.247   7.651  0.4142 -0.7186 -0.2964
 5833SOL    HW229133   4.714   2.297   7.530  0.4591  0.4763  1.2357
 5834SOL     OW29134   0.305   2.913   1.909  0.1567  0.3924  1.0331
 5834SOL    HW129135   0.248   2.841   1.881  1.7981 -1.6619  2.9098
 5834SOL    HW229136   0.251   2.978   1.952 -1.0046  0.9392 -1.2660
 5835SOL     OW29137   3.184   4.565   8.079 -0.3926 -0.2592  0.9682
 5835SOL    HW129138   3.225   4.629   8.021 -1.6787 -0.4060 -0.0868
 5835SOL    HW229139   3.104   4.542   8.033 -0.9158  2.2174  0.6466
 5836SOL     OW29140   1.753   2.867  12.286 -0.7105  0.0771 -0.1874
 5836SOL    HW129141   1.733   2.779  12.255 -0.2693  0.2675 -1.0181
 5836SOL    HW229142   1.846   2.871  12.263 -0.4155  0.5766  1.0725
 5837SOL     OW29143   2.379   1.642   4.835  0.1720 -0.1048 -0.3195
 5837SOL    HW129144   2.386   1.565   4.779  0.2165 -1.2935  1.3135
 5837SOL    HW229145   2.406   1.717   4.782  1.6934 -0.2408  0.2536
 5838SOL     OW29146   3.160   4.358  13.482  0.2133 -0.0666 -0.4893
 5838SOL    HW129147   3.215   4.280  13.492 -0.9991 -1.2907 -3.3847
 5838SOL    HW229148   3.113   4.340  13.400 -0.4226 -1.1279  0.1101
 5839SOL     OW29149   0.564   4.202  13.470  0.1058 -0.0614 -0.2192
 5839SOL    HW129150   0.516   4.171  13.547 -2.4074  2.5976 -0.7062
 5839SOL    HW229151   0.514   4.155  13.403  0.6619  0.0333 -0.7022
 5840SOL     OW29152   4.484   2.440   4.150 -0.6937 -0.4319  0.1791
 5840SOL    HW129153   4.525   2.373   4.095 -1.0436  0.8703 -1.6869
 5840SOL    HW229154   4.418   2.478   4.092  0.6776 -0.4538 -1.4198
 5841SOL     OW29155   3.070   3.561   8.519  0.5073 -0.5089  0.1624
 5841SOL    HW129156   3.042   3.567   8.428  0.8978  2.1460  0.2206
 5841SOL    HW229157   3.131   3.635   8.521 -0.4973  0.3056  0.2163
 5842SOL     OW29158   0.703   1.247  10.607 -0.6460  0.5444  0.6853
 5842SOL    HW129159   0.748   1.321  10.566 -1.2206  1.1999  1.2338
 5842SOL    HW229160   0.614   1.255  10.574  0.1402  1.4768 -1.1993
 5843SOL     OW29161   3.682   4.698   9.560  0.0953  0.5404 -0.3440
 5843SOL    HW129162   3.593   4.726   9.582  0.1259  0.3969 -0.0359
 5843SOL    HW229163   3.722   0.040   9.535  0.6576 -0.0382 -1.3449
 5844SOL     OW29164   3.387   1.400  11.076  0.3240 -0.0284 -0.2941
 5844SOL    HW129165   3.434   1.411  11.159  0.9842 -0.2431 -0.6388
 5844SOL    HW229166   3.397   1.489  11.041 -0.3056  0.7425  1.4739
 5845SOL     OW29167   1.872   0.161   7.481 -0.0874 -0.2259  0.3586
 5845SOL    HW129168   1.907   0.190   7.566  1.9719  0.2696 -0.6552
 5845SOL    HW229169   1.792   0.113   7.503  0.3430 -0.3279  1.7206
 5846SOL     OW29170   2.932   2.171  14.918  0.3637 -0.2087  0.0836
 5846SOL    HW129171   2.923   2.077  14.904 -0.5315 -0.1510  0.2315
 5846SOL    HW229172   2.901   2.210  14.836 -0.1811 -1.2686 -0.2214
 5847SOL     OW29173   2.981   1.079   2.401 -0.7055  0.1123 -0.8542
 5847SOL    HW129174   3.061   1.117   2.438 -0.7432 -0.5718 -0.0922
 5847SOL    HW229175   2.985   0.985   2.418  1.1983 -0.1339 -2.6801
 5848SOL     OW29176   0.434   1.410   0.824  0.1084  0.1046  0.0386
 5848SOL    HW129177   0.413   1.324   0.860  1.4498  0.0654  0.7238
 5848SOL    HW229178   0.460   1.388   0.735  0.9932 -2.4445  0.9201
 5849SOL     OW29179   0.608   3.131   6.427 -0.6910 -0.0627  0.3373
 5849SOL    HW129180   0.603   3.074   6.350 -1.8946  1.0820 -0.4244
 5849SOL    HW229181   0.530   3.183   6.409  1.2979  2.7842 -0.0770
 5850SOL     OW29182   3.491   4.350  15.048 -0.3212  0.0950  0.0511
 5850SOL    HW129183   3.569   4.295  15.053  0.3487  0.8745 -1.6628
 5850SOL    HW229184   3.429   4.290  15.008  0.7111 -0.0004 -1.3955
 5851SOL     OW29185   4.244   0.022   2.738  0.3433  0.5420 -0.5758
 5851SOL    HW129186   4.256   4.710   2.659 -0.1928  2.2447 -1.7963
 5851SOL    HW229187   4.265   0.108   2.702 -1.4219  1.0948 -0.2863
 5852SOL     OW29188   1.058   1.496   4.824  0.2270  0.3787 -0.0048
 5852SOL    HW129189   1.077   1.589   4.832  1.8073 -0.1177  1.8815
 5852SOL    HW229190   0.962   1.500   4.815  0.2339  1.7441  0.5789
 5853SOL     OW29191   3.311   3.049   0.368 -0.5918  0.1645  0.9191
 5853SOL    HW129192   3.290   3.141   0.352 -1.0723 -0.2464 -0.7649
 5853SOL    HW229193   3.281   3.036   0.458 -1.3021 -2.2992  0.3240
 5854SOL     OW29194   1.891   2.490   0.901 -0.1499  0.2633  0.0960
 5854SOL    HW129195   1.979   2.470   0.868 -0.4709 -0.1579 -0.5006
 5854SOL    HW229196   1.922   2.522   0.985  0.4551  0.2673 -0.1276
 5855SOL     OW29197   1.310   3.916  11.369 -0.3513  0.1429  0.4596
 5855SOL    HW129198   1.225   3.960  11.378  0.8762  2.8399 -1.3405
 5855SOL    HW229199   1.280   3.825  11.374  1.5478 -0.4914  0.3131
 5856SOL     OW29200   2.785   3.361  13.274  0.2912 -0.2593 -0.2083
 5856SOL    HW129201   2.734   3.380  13.353  0.7117 -0.7395  0.1810
 5856SOL    HW229202   2.747   3.426  13.216 -0.2482 -0.7389 -0.3977
 5857SOL     OW29203   1.218   3.002   0.686 -0.5462 -0.8346  0.0805
 5857SOL    HW129204   1.234   2.929   0.746 -0.5751 -0.1146  0.9640
 5857SOL    HW229205   1.168   2.961   0.615 -2.2290  3.1056 -1.0102
 5858SOL     OW29206   4.061   4.124  17.442  0.3946 -0.2742 -0.0054
 5858SOL    HW129207   4.117   4.178  17.386  0.3083  1.6108  1.7500
 5858SOL    HW229208   4.080   4.166  17.526  1.3751 -1.9382  0.6128
 5859SOL     OW29209   2.034   0.460   8.311 -0.2679  0.3153 -0.5021
 5859SOL    HW129210   2.026   0.486   8.219  1.7435  0.2080 -0.7219
 5859SOL    HW229211   2.070   0.535   8.358  1.3022 -1.1935  0.7465
 5860SOL     OW29212   4.335   0.269   3.285  0.0658 -0.0434  0.0778
 5860SOL    HW129213   4.359   0.305   3.370  0.5548 -0.2691  0.0343
 5860SOL    HW229214   4.266   0.330   3.258 -2.2520 -1.4278  2.8952
 5861SOL     OW29215   4.514   0.825   8.793  0.0273 -0.1056 -0.1768
 5861SOL    HW129216   4.438   0.875   8.764 -0.3653  0.6110  2.0664
 5861SOL    HW229217   4.518   0.855   8.884 -1.3325 -0.9925  0.1779
 5862SOL     OW29218   1.998   2.488   4.365 -0.2677 -0.0985  0.0702
 5862SOL    HW129219   2.073   2.450   4.320 -0.5945  1.3191 -1.6395
 5862SOL    HW229220   1.930   2.426   4.340 -0.5312  0.2805 -0.1384
 5863SOL     OW29221   2.831   0.369  16.389 -0.0032  0.1860 -0.4160
 5863SOL    HW129222   2.805   0.368  16.481  0.9562 -2.0614 -0.1816
 5863SOL    HW229223   2.827   0.464  16.382  1.9503  0.4662  1.8423
 5864SOL     OW29224   2.533   2.103   4.423  0.2490 -0.5078  0.0163
 5864SOL    HW129225   2.438   2.102   4.408  0.5702 -0.5325 -1.9919
 5864SOL    HW229226   2.554   2.155   4.345  0.1953 -0.9046 -0.2632
 5865SOL     OW29227   2.878   3.514   6.564 -0.8876 -0.6590 -0.7978
 5865SOL    HW129228   2.827   3.588   6.532  2.7782  2.0646 -0.3747
 5865SOL    HW229229   2.829   3.440   6.527 -1.7579 -0.7054  0.4555
 5866SOL     OW29230   3.936   2.113   6.517  0.0475  0.7144 -0.2659
 5866SOL    HW129231   4.013   2.169   6.513 -0.5690  1.3873 -2.8052
 5866SOL    HW229232   3.882   2.173   6.568  0.4823 -1.4095  2.6669
 5867SOL     OW29233   0.191   3.342   6.225  0.0707 -0.2058 -0.1337
 5867SOL    HW129234   0.265   3.330   6.285 -0.2771 -0.6810  0.2028
 5867SOL    HW229235   0.115   3.305   6.269  0.4555 -1.7477 -0.7297
 5868SOL     OW29236   1.511   1.062  13.545  0.0600  0.3394 -0.3809
 5868SOL    HW129237   1.537   0.971  13.533 -1.0794  0.0732 -0.9153
 5868SOL    HW229238   1.499   1.086  13.453 -1.5354  1.3910  0.0968
 5869SOL     OW29239   2.473   1.728  13.802  0.0968  0.2142 -0.0992
 5869SOL    HW129240   2.417   1.796  13.840 -0.0452 -0.7628  1.4567
 5869SOL    HW229241   2.529   1.693  13.871 -0.2434  1.3737  0.7796
 5870SOL     OW29242   3.452   3.299   6.270  0.1448  0.2272 -0.5812
 5870SOL    HW129243   3.524   3.329   6.215 -0.4036  1.3146 -0.7125
 5870SOL    HW229244   3.398   3.379   6.274  0.6914  0.5963 -0.6582
 5871SOL     OW29245   2.339   2.287  11.978 -0.6196 -0.0166  0.5226
 5871SOL    HW129246   2.305   2.268  12.065 -2.1228  1.2072  0.1905
 5871SOL    HW229247   2.262   2.320  11.932  1.0110  0.6348 -1.7279
 5872SOL     OW29248   1.345   3.081   4.246 -0.4993  0.1835 -0.4662
 5872SOL    HW129249   1.301   3.008   4.289  1.0916  0.1528  1.1131
 5872SOL    HW229250   1.315   3.066   4.157  1.2705  1.0082 -1.2180
 5873SOL     OW29251   2.852   0.461  10.053  0.4022 -0.0880 -0.2275
 5873SOL    HW129252   2.781   0.487  10.112 -0.8877 -3.2061 -0.4280
 5873SOL    HW229253   2.850   0.538   9.996 -0.2250 -1.0151 -1.4571
 5874SOL     OW29254   1.644   3.621   4.174 -0.0562 -0.0991  0.2514
 5874SOL    HW129255   1.553   3.591   4.175  0.2174 -0.9182  0.2796
 5874SOL    HW229256   1.659   3.627   4.269 -0.0690 -1.0392  0.3155
 5875SOL     OW29257   1.985   1.586  13.898 -0.2069  0.8735 -0.6718
 5875SOL    HW129258   1.922   1.549  13.836 -1.0214  1.0659  0.0319
 5875SOL    HW229259   1.922   1.622  13.961 -1.1360 -0.9512 -0.5636
 5876SOL     OW29260   2.016   0.504   4.541  0.3139  0.5207  0.1964
 5876SOL    HW129261   1.964   0.504   4.622 -1.6291 -1.4899 -1.0251
 5876SOL    HW229262   2.005   0.599   4.534 -0.7770  0.3150 -0.8637
 5877SOL     OW29263   3.318   2.467   1.348  0.1548 -0.1275  0.9261
 5877SOL    HW129264   3.277   2.547   1.316 -0.6463  0.3273  3.1184
 5877SOL    HW229265   3.398   2.461   1.296  0.1338  1.9594  0.6695
 5878SOL     OW29266   1.616   0.742  11.987 -0.1177  0.2356 -0.4921
 5878SOL    HW129267   1.642   0.748  12.079  0.4408  0.8269 -0.6909
 5878SOL    HW229268   1.694   0.779  11.945  1.4044 -2.2181  0.2261
 5879SOL     OW29269   3.696   1.792  10.437  0.3193  0.1527  0.8723
 5879SOL    HW129270   3.720   1.873  10.393 -2.8266  0.8770  0.4481
 5879SOL    HW229271   3.610   1.771  10.400 -1.0593  2.3468  2.7821
 5880SOL     OW29272   3.544   3.459   3.803  0.6644 -0.2405  0.2244
 5880SOL    HW129273   3.482   3.528   3.827  1.4585 -0.1615  2.0085
 5880SOL    HW229274   3.610   3.470   3.872  1.8653 -1.4298 -0.7454
 5881SOL     OW29275   3.800   0.585   1.604  0.0258 -0.3123  0.1202
 5881SOL    HW129276   3.718   0.581   1.554  1.3969  2.4683 -2.3932
 5881SOL    HW229277   3.859   0.550   1.537  2.5128  1.1285  1.5450
 5882SOL     OW29278   2.281   4.246   2.993  0.6866 -0.8337 -0.1660
 5882SOL    HW129279   2.315   4.165   2.955 -2.0621 -1.9901 -0.1627
 5882SOL    HW229280   2.224   4.219   3.065  1.4723  0.9346  1.1118
 5883SOL     OW29281   1.900   2.094  14.025 -0.8712  0.4036 -0.0076
 5883SOL    HW129282   1.977   2.111  13.971  0.7055  1.9819  2.7256
 5883SOL    HW229283   1.843   2.053  13.959  0.0276 -0.4601 -0.2498
 5884SOL     OW29284   2.909   2.009  14.380 -0.0178 -0.0229 -0.0152
 5884SOL    HW129285   2.961   2.054  14.446  0.4001  0.1180 -0.4503
 5884SOL    HW229286   2.820   2.034  14.407  0.7469  2.4872  0.0890
 5885SOL     OW29287   0.631   0.609  13.988 -0.5931  0.7578 -0.5145
 5885SOL    HW129288   0.568   0.591  13.917 -0.5625 -0.2830 -0.2739
 5885SOL    HW229289   0.587   0.678  14.038  1.0068 -0.4399  2.4801
 5886SOL     OW29290   0.423   2.530   1.516  0.5779  0.2207  0.1591
 5886SOL    HW129291   0.453   2.439   1.514 -0.0122  0.0561 -0.9372
 5886SOL    HW229292   0.369   2.527   1.595 -0.3223 -0.0235 -0.4649
 5887SOL     OW29293   1.153   4.066   2.900  0.0688  0.3695 -0.2692
 5887SOL    HW129294   1.249   4.061   2.895  0.3059  2.7527  2.0144
 5887SOL    HW229295   1.124   3.983   2.863  0.7955 -1.0126  2.2389
 5888SOL     OW29296   1.860   1.150   8.526 -0.0688  0.2154 -0.0125
 5888SOL    HW129297   1.945   1.120   8.493 -1.7364 -3.2389 -1.2418
 5888SOL    HW229298   1.872   1.237   8.490  1.9836 -0.4216 -0.8691
 5889SOL     OW29299   3.632   1.281  15.399 -0.6604  0.3651 -0.4538
 5889SOL    HW129300   3.562   1.238  15.351 -1.5089 -0.2847  1.3726
 5889SOL    HW229301   3.678   1.312  15.321  0.5269  0.7013  0.3873
 5890SOL     OW29302   4.373   0.650  15.289 -0.2045 -0.1083  0.5811
 5890SOL    HW129303   4.453   0.694  15.319 -0.3219 -1.2500  2.5432
 5890SOL    HW229304   4.380   0.669  15.196  1.5170 -0.0942  0.7247
 5891SOL     OW29305   3.825   1.028   3.895 -0.2046 -0.0964  0.1687
 5891SOL    HW129306   3.838   1.109   3.944 -1.8488  0.7170 -0.7470
 5891SOL    HW229307   3.876   1.042   3.815  1.2206  1.7129  1.3925
 5892SOL     OW29308   0.409   1.567  14.561 -0.4053  0.2000 -0.7121
 5892SOL    HW129309   0.486   1.520  14.530  0.1902  1.9322 -1.8779
 5892SOL    HW229310   0.445   1.656  14.559 -1.0538  0.4077 -2.9482
 5893SOL     OW29311   0.040   0.739   2.173 -0.1671 -0.1522  0.2279
 5893SOL    HW129312   4.740   0.786   2.100  0.5928  1.0094  0.5529
 5893SOL    HW229313   0.086   0.812   2.214  1.0262 -0.5821 -0.3611
 5894SOL     OW29314   0.007   1.366   3.241 -0.2155 -0.2082 -0.1532
 5894SOL    HW129315   0.027   1.283   3.285  0.6250  0.0538 -0.0511
 5894SOL    HW229316   4.655   1.365   3.262  0.0476  3.5845  1.1226
 5895SOL     OW29317   3.446   1.819   8.318  0.8567 -0.3839  0.5589
 5895SOL    HW129318   3.355   1.838   8.297  0.9410 -1.8786 -1.1172
 5895SOL    HW229319   3.423   1.745   8.374  2.0046 -0.7120  0.5946
 5896SOL     OW29320   3.262   2.389   9.212  0.6296  0.0041  0.1609
 5896SOL    HW129321   3.311   2.331   9.270  0.8387  0.5381  0.5217
 5896SOL    HW229322   3.252   2.334   9.134 -0.0003  1.4031 -0.7346
 5897SOL     OW29323   0.314   0.066  12.222 -0.2631 -0.2972 -0.4165
 5897SOL    HW129324   0.306   4.723  12.266 -0.1008  0.6659  1.4421
 5897SOL    HW229325   0.273   0.028  12.144 -1.1131 -0.3669  0.0663
 5898SOL     OW29326   3.020   3.185   0.716  0.3485 -1.0874 -0.0263
 5898SOL    HW129327   2.970   3.234   0.651  1.8180 -3.3219 -2.8435
 5898SOL    HW229328   2.977   3.205   0.799 -0.3158 -0.6091 -0.4847
 5899SOL     OW29329   4.730   3.267   2.712  0.3082  0.3984  0.2928
 5899SOL    HW129330   0.036   3.335   2.760 -0.2288  1.4601 -0.6591
 5899SOL    HW229331   0.029   3.191   2.752  2.2928  0.5257 -1.4349
 5900SOL     OW29332   1.728   1.465   3.333  0.2201  0.3647 -0.3387
 5900SOL    HW129333   1.749   1.386   3.282 -1.9648  1.0121 -2.2554
 5900SOL    HW229334   1.633   1.458   3.333  0.2879 -0.6686  0.6787
 5901SOL     OW29335   3.169   2.082  15.486 -0.4794  0.1272  0.6765
 5901SOL    HW129336   3.259   2.071  15.455  0.1159  0.4503  2.2755
 5901SOL    HW229337   3.157   1.989  15.507 -1.7361 -0.0115 -0.6669
 5902SOL     OW29338   1.109   1.746  16.324 -0.1104  0.6469 -0.6419
 5902SOL    HW129339   1.028   1.721  16.280  0.7193 -2.4168 -0.4048
 5902SOL    HW229340   1.177   1.732  16.258  1.6430  1.3317  1.0127
 5903SOL     OW29341   3.403   2.292   6.747  0.6074  0.4224  0.3476
 5903SOL    HW129342   3.449   2.372   6.774  4.7990 -1.7563 -0.2431
 5903SOL    HW229343   3.360   2.329   6.670  1.5949 -0.4297 -0.6186
 5904SOL     OW29344   3.095   4.293   9.146  0.8044  0.6290  0.5259
 5904SOL    HW129345   3.002   4.305   9.167  0.8730 -1.7519  2.1624
 5904SOL    HW229346   3.117   4.221   9.205  0.7431  1.0030  1.0150
 5905SOL     OW29347   2.989   2.217   6.105  0.4931  0.0627  0.8790
 5905SOL    HW129348   2.996   2.164   6.184 -0.2492  0.1673  1.0190
 5905SOL    HW229349   3.062   2.273   6.128 -1.0555  1.3469  2.6321
 5906SOL     OW29350   1.926   0.634   6.607 -0.9172  0.3713 -0.2742
 5906SOL    HW129351   1.966   0.606   6.689  4.2208 -0.9536 -3.2811
 5906SOL    HW229352   1.982   0.607   6.535  0.5939 -1.3670  1.5606
 5907SOL     OW29353   3.577   2.552   9.186 -0.2898 -0.1744 -0.0322
 5907SOL    HW129354   3.497   2.535   9.135  0.4082 -1.6857 -0.6184
 5907SOL    HW229355   3.553   2.519   9.273  0.6762 -1.7853 -0.3806
 5908SOL     OW29356   4.201   3.036   8.604 -0.6623  0.1171  0.6226
 5908SOL    HW129357   4.199   3.006   8.695  0.1623  0.9614  0.9167
 5908SOL    HW229358   4.155   2.967   8.556  0.6776 -0.8971  0.7767
 5909SOL     OW29359   3.545   3.531  14.331 -0.2030  0.1432  0.5974
 5909SOL    HW129360   3.503   3.452  14.297 -0.9914  1.0685 -0.5309
 5909SOL    HW229361   3.629   3.539  14.286  1.0916 -0.8001  2.8311
 5910SOL     OW29362   1.773   1.610  11.293 -0.0593 -0.1435  0.0848
 5910SOL    HW129363   1.782   1.650  11.380  0.4831  1.0005 -0.5022
 5910SOL    HW229364   1.848   1.654  11.254 -0.3653  0.2715 -0.0362
 5911SOL     OW29365   3.021   3.427  10.186 -0.0770 -0.0194 -0.2305
 5911SOL    HW129366   3.039   3.438  10.280  1.6115 -3.4093 -0.1297
 5911SOL    HW229367   3.046   3.335  10.177  0.7743  0.1468  0.3388
 5912SOL     OW29368   4.194   0.579  14.708  0.4764 -0.2681 -0.4609
 5912SOL    HW129369   4.134   0.602  14.779  3.1996 -0.2675  1.8461
 5912SOL    HW229370   4.228   0.664  14.681  1.0059 -0.0247  0.9686
 5913SOL     OW29371   2.802   4.054   7.622  0.1181 -0.0359 -0.7027
 5913SOL    HW129372   2.829   3.985   7.560  0.4974  0.6253 -1.2778
 5913SOL    HW229373   2.707   4.060   7.617  0.2231  1.0502 -1.4097
 5914SOL     OW29374   1.403   2.242   1.601  0.2951 -0.2708  0.3696
 5914SOL    HW129375   1.408   2.252   1.696  1.0806 -1.6143  0.4598
 5914SOL    HW229376   1.309   2.248   1.584  0.5709  2.0368 -0.4364
 5915SOL     OW29377   3.205   3.314   8.583 -0.3066 -0.4528  0.7180
 5915SOL    HW129378   3.140   3.369   8.627  1.7420  3.1423 -0.7208
 5915SOL    HW229379   3.278   3.376   8.577  0.1002 -0.7677  2.3026
 5916SOL     OW29380   3.194   2.637  13.075 -0.0315 -0.3618 -0.1306
 5916SOL    HW129381   3.251   2.665  13.147 -0.2061  1.2291 -0.6130
 5916SOL    HW229382   3.255   2.617  13.003 -0.5043  0.0356 -0.6335
 5917SOL     OW29383   3.939   1.823  12.995 -0.0887  0.0873 -0.2826
 5917SOL    HW129384   4.011   1.883  12.975 -0.2436  0.9855  1.9283
 5917SOL    HW229385   3.963   1.797  13.083  1.0991  0.5438 -0.4640
 5918SOL     OW29386   4.664   3.502  12.667 -0.1274  0.8171  0.2347
 5918SOL    HW129387   4.728   3.492  12.738 -0.2776 -0.1970  0.2309
 5918SOL    HW229388   4.718   3.502  12.588 -1.8529 -0.8654 -0.9647
 5919SOL     OW29389   0.343   2.537  17.216 -0.0788  0.1474 -0.2661
 5919SOL    HW129390   0.409   2.532  17.146 -1.2884  2.0944 -1.5510
 5919SOL    HW229391   0.376   2.604  17.275 -0.3261 -0.6605  0.7904
 5920SOL     OW29392   3.463   1.268   9.772 -0.5180  0.0595 -0.0310
 5920SOL    HW129393   3.483   1.181   9.805  1.7359  0.2238 -0.9478
 5920SOL    HW229394   3.499   1.317   9.846 -1.1742  2.9844 -1.6368
 5921SOL     OW29395   0.356   1.750   2.263  0.1327  0.1447 -0.2811
 5921SOL    HW129396   0.450   1.734   2.254  0.1946  1.0302 -1.3374
 5921SOL    HW229397   0.323   1.673   2.308  0.4406  0.4997  0.5542
 5922SOL     OW29398   0.974   2.785   5.293 -0.4831 -0.4912  0.7280
 5922SOL    HW129399   0.900   2.825   5.247  1.4385  0.2176 -1.7275
 5922SOL    HW229400   0.931   2.706   5.324 -1.0529  0.1157  1.4874
 5923SOL     OW29401   1.321   2.811   1.859 -0.9455  0.0447 -0.2624
 5923SOL    HW129402   1.380   2.861   1.803  0.6919 -1.8405 -0.2151
 5923SOL    HW229403   1.290   2.882   1.914 -1.7662 -1.1729  0.8566
 5924SOL     OW29404   0.685   1.327   3.105 -0.2138  0.2599  0.6534
 5924SOL    HW129405   0.746   1.287   3.168 -0.3604 -1.3823 -0.2451
 5924SOL    HW229406   0.725   1.413   3.103  0.1987 -0.0097 -1.9096
 5925SOL     OW29407   1.966   3.241   0.259  0.5197  0.2207  0.9873
 5925SOL    HW129408   1.922   3.159   0.236  1.6699 -0.8553  2.6099
 5925SOL    HW229409   1.900   3.311   0.255  0.0344 -0.3979 -1.7145
 5926SOL     OW29410   0.001   3.886   7.295 -0.3272  0.3345  0.4456
 5926SOL    HW129411   0.004   3.980   7.317  3.2563 -0.2327  2.4008
 5926SOL    HW229412   4.652   3.878   7.265 -0.6740 -0.3782  1.6681
 5927SOL     OW29413   2.556   4.246   4.116 -0.4193 -0.4451 -0.1118
 5927SOL    HW129414   2.595   4.187   4.181  0.7650  0.8479  0.3512
 5927SOL    HW229415   2.518   4.315   4.170  2.1174  0.9274 -0.0945
 5928SOL     OW29416   3.895   4.493   6.878 -0.4436 -0.4313  0.0987
 5928SOL    HW129417   3.979   4.491   6.833 -0.8466  4.1388 -0.9120
 5928SOL    HW229418   3.911   4.569   6.935 -1.0723 -1.5065  1.6949
 5929SOL     OW29419   3.856   4.272   2.828 -0.0109  0.2376 -0.3421
 5929SOL    HW129420   3.829   4.180   2.832  0.6676  0.0096 -1.0273
 5929SOL    HW229421   3.935   4.270   2.774 -0.0091 -1.5703 -0.2573
 5930SOL     OW29422   2.775   1.118   0.993  0.3446  0.4432  0.4335
 5930SOL    HW129423   2.723   1.140   0.915 -0.8043  0.7817  1.2952
 5930SOL    HW229424   2.724   1.050   1.038 -1.9522  1.4150 -0.6763
 5931SOL     OW29425   4.579   3.159  14.017  0.3394 -0.4280 -0.2220
 5931SOL    HW129426   4.537   3.100  14.080 -1.4268  1.2333  0.1643
 5931SOL    HW229427   4.658   3.108  13.998  2.2033  1.8248  1.4355
 5932SOL     OW29428   3.740   2.023  15.349  0.3876 -0.5316 -0.3071
 5932SOL    HW129429   3.706   2.009  15.261 -1.1099 -1.4714  0.4167
 5932SOL    HW229430   3.806   1.954  15.343 -1.0375 -2.1267  2.2108
 5933SOL     OW29431   2.596   2.515   3.999 -0.0345 -0.0949  0.4321
 5933SOL    HW129432   2.687   2.487   3.987  0.1724  1.3201 -1.2087
 5933SOL    HW229433   2.557   2.501   3.913 -0.5281  2.0286  0.3009
 5934SOL     OW29434   2.360   1.901  15.846 -0.0576 -0.2786 -0.3421
 5934SOL    HW129435   2.305   1.823  15.850 -0.4540 -0.0468 -1.1820
 5934SOL    HW229436   2.353   1.942  15.932  1.7931 -1.9205  0.5991
 5935SOL     OW29437   3.039   2.510   2.674  0.4158 -0.1668  0.2843
 5935SOL    HW129438   3.014   2.454   2.748  1.1713 -0.0689  0.6064
 5935SOL    HW229439   3.045   2.600   2.705  3.1683 -0.4360  0.4679
 5936SOL     OW29440   4.484   2.076   6.589  0.2822 -0.0102  0.6364
 5936SOL    HW129441   4.470   2.108   6.678  1.1572  1.1191  0.3666
 5936SOL    HW229442   4.484   1.980   6.594 -0.8017  0.0769  2.4510
 5937SOL     OW29443   1.930   1.119   1.397 -0.3206 -1.2521  0.0491
 5937SOL    HW129444   2.019   1.143   1.423 -0.3916 -0.7216 -0.2165
 5937SOL    HW229445   1.910   1.045   1.455  0.1976 -1.8687 -0.5605
 5938SOL     OW29446   3.768   0.372  15.711  0.3891  0.4604  0.1121
 5938SOL    HW129447   3.856   0.387  15.748  0.2309 -0.6021  0.9218
 5938SOL    HW229448   3.723   0.344  15.791 -0.1498 -0.2376 -0.4426
 5939SOL     OW29449   0.771   2.777   5.630  0.4866 -0.2786 -0.4307
 5939SOL    HW129450   0.766   2.827   5.712  1.2101  2.7726 -2.2421
 5939SOL    HW229451   0.816   2.841   5.575 -1.4328  1.2866 -0.2090
 5940SOL     OW29452   1.014   0.121   4.149  0.5775 -0.3414 -0.1757
 5940SOL    HW129453   0.963   0.043   4.171  0.6076 -0.3791 -0.2370
 5940SOL    HW229454   1.099   0.077   4.145  0.7815 -0.0261  0.7828
 5941SOL     OW29455   2.646   0.162  15.668  0.0999 -0.7333 -0.1662
 5941SOL    HW129456   2.705   0.220  15.717 -1.5166 -0.1808  1.1543
 5941SOL    HW229457   2.711   0.102  15.632  1.6986  2.5055 -2.7050
 5942SOL     OW29458   4.081   0.348   3.630  0.1120  0.4581 -0.3256
 5942SOL    HW129459   4.066   0.371   3.538 -1.1893 -0.0889 -0.2487
 5942SOL    HW229460   4.170   0.382   3.641  0.7446 -0.9997 -1.0031
 5943SOL     OW29461   3.867   0.718   5.169 -0.0594  0.0902 -0.3789
 5943SOL    HW129462   3.789   0.753   5.126  0.2913  0.4659 -0.7090
 5943SOL    HW229463   3.910   0.680   5.092 -2.7996 -1.3925 -1.2145
 5944SOL     OW29464   3.498   2.662   3.659 -0.0747  0.0578 -0.1472
 5944SOL    HW129465   3.512   2.638   3.750 -2.1355 -1.1579 -0.1606
 5944SOL    HW229466   3.552   2.596   3.614  1.2896  2.5708 -2.2023
 5945SOL     OW29467   0.450   0.262  14.670  0.4954  0.1791  0.0604
 5945SOL    HW129468   0.457   0.272  14.765 -1.6046 -0.9184  0.3460
 5945SOL    HW229469   0.444   0.167  14.662 -1.2316  0.2830 -0.0519
 5946SOL     OW29470   2.275   2.851  11.188  0.4689  0.2127  0.1472
 5946SOL    HW129471   2.350   2.837  11.246  0.4497 -1.1600 -0.1454
 5946SOL    HW229472   2.222   2.789  11.238  1.6458 -0.2563  0.8095
 5947SOL     OW29473   0.618   4.416   3.409  0.5705  0.4654  0.4201
 5947SOL    HW129474   0.650   4.409   3.318  0.8339  2.0039  0.3976
 5947SOL    HW229475   0.556   4.343   3.408 -0.0159  0.9802 -1.0024
 5948SOL     OW29476   0.771   1.967   2.217 -0.1903  0.0471 -0.0576
 5948SOL    HW129477   0.809   2.016   2.290  1.6169  1.0522 -1.6781
 5948SOL    HW229478   0.684   1.943   2.248  0.1794 -1.6264 -0.2948
 5949SOL     OW29479   0.253   1.267   1.849 -0.1911 -0.0573 -0.1654
 5949SOL    HW129480   0.173   1.221   1.876  0.6190 -0.5405  1.4389
 5949SOL    HW229481   0.317   1.199   1.871  2.2712  1.5462 -2.5291
 5950SOL     OW29482   3.553   2.913  15.538  0.2792 -0.1887  0.2796
 5950SOL    HW129483   3.481   2.891  15.597  0.1258 -2.2091 -0.6907
 5950SOL    HW229484   3.614   2.926  15.611  0.4163 -1.6199  0.4208
 5951SOL     OW29485   0.880   1.324   7.357 -0.4643  0.0308 -0.4745
 5951SOL    HW129486   0.857   1.398   7.301 -0.1702  0.2884 -0.2513
 5951SOL    HW229487   0.936   1.267   7.304 -0.6393 -0.2326 -0.3823
 5952SOL     OW29488   2.467   3.315  15.476 -0.1377 -0.4462 -0.2781
 5952SOL    HW129489   2.477   3.410  15.479 -1.8957 -0.3344  2.0725
 5952SOL    HW229490   2.535   3.290  15.414  1.4968  1.2060  0.8603
 5953SOL     OW29491   2.967   2.754   1.133 -0.8318  0.1875  0.0409
 5953SOL    HW129492   2.925   2.668   1.131 -0.0880 -0.1564 -0.9591
 5953SOL    HW229493   3.001   2.778   1.047  0.2245  2.3005  1.0464
 5954SOL     OW29494   2.618   0.017   1.379  0.3013  0.1925  0.7261
 5954SOL    HW129495   2.548   0.010   1.314  0.4363 -1.9750  0.8079
 5954SOL    HW229496   2.660   0.097   1.349 -0.5615  0.5994  0.6133
 5955SOL     OW29497   1.861   4.101   6.441 -0.2247 -0.1621  0.2890
 5955SOL    HW129498   1.797   4.122   6.510 -0.9503 -0.9911 -0.1362
 5955SOL    HW229499   1.812   4.028   6.402 -1.6422  1.8306 -1.6725
 5956SOL     OW29500   3.569   4.682   5.091 -0.2171 -0.1636 -0.7412
 5956SOL    HW129501   3.536   4.740   5.160  0.9769  1.1198 -1.2333
 5956SOL    HW229502   3.638   4.738   5.056  0.7500 -2.2849 -2.1648
 5957SOL     OW29503   2.168   0.647  14.235  0.2071  0.4711  0.1825
 5957SOL    HW129504   2.079   0.628  14.265 -0.5257 -0.1412 -2.4479
 5957SOL    HW229505   2.158   0.631  14.141 -0.3230  2.3328 -0.0816
 5958SOL     OW29506   2.202   0.112  16.239 -0.1479 -0.5509 -0.0412
 5958SOL    HW129507   2.115   0.096  16.275  0.4755 -2.0031  0.8142
 5958SOL    HW229508   2.260   0.044  16.272  2.0568 -0.1131 -2.9851
 5959SOL     OW29509   4.540   4.133  10.618 -0.2537  0.4392 -0.1247
 5959SOL    HW129510   4.566   4.041  10.618  1.0210  0.8142  0.9100
 5959SOL    HW229511   4.455   4.132  10.572  0.1951  0.8425 -0.9568
 5960SOL     OW29512   1.086   1.381   9.005  0.1377 -0.1127 -0.5320
 5960SOL    HW129513   1.061   1.458   9.056  0.1926 -0.7611  0.4773
 5960SOL    HW229514   1.158   1.410   8.949  0.9151 -0.4877  0.2684
 5961SOL     OW29515   3.666   0.575   2.708 -0.2797 -0.4426  0.0530
 5961SOL    HW129516   3.601   0.578   2.638  0.3482  0.7837 -0.4682
 5961SOL    HW229517   3.647   0.487   2.740 -0.0407  0.0061  1.4327
 5962SOL     OW29518   4.557   1.449   4.193  0.1575 -0.3204  0.3833
 5962SOL    HW129519   4.548   1.499   4.273  0.2250 -0.1860  0.3070
 5962SOL    HW229520   4.505   1.502   4.132  0.9750  0.6149  0.5089
 5963SOL     OW29521   2.852   1.480   7.952  0.4367  0.5357 -0.6743
 5963SOL    HW129522   2.762   1.451   7.969  0.9638  0.1673  1.4239
 5963SOL    HW229523   2.838   1.569   7.919  0.2211  0.9571  0.5623
 5964SOL     OW29524   3.978   0.645   8.275 -0.0776  0.1684  0.3445
 5964SOL    HW129525   3.889   0.636   8.239 -0.0149 -0.4625  0.3529
 5964SOL    HW229526   3.978   0.583   8.348  0.6401  1.8604  1.7816
 5965SOL     OW29527   1.593   4.004   4.703 -0.3549 -0.1786 -0.4535
 5965SOL    HW129528   1.571   3.970   4.789  0.6549  1.2338  0.3614
 5965SOL    HW229529   1.688   3.996   4.706 -0.3354  0.1632 -0.1729
 5966SOL     OW29530   0.963   0.539   5.810  0.3131  0.1112 -0.5951
 5966SOL    HW129531   0.883   0.498   5.778  0.3124 -0.9434  0.7734
 5966SOL    HW229532   0.929   0.595   5.879 -1.2532  0.9775 -2.0695
 5967SOL     OW29533   1.363   0.950  17.720  0.0270  0.0305  0.1320
 5967SOL    HW129534   1.404   0.959   0.046 -0.1133  2.2414 -0.0374
 5967SOL    HW229535   1.278   0.908  17.734  0.1377  0.4931  2.2188
 5968SOL     OW29536   3.480   1.910   3.211  0.1302  0.5167  0.3595
 5968SOL    HW129537   3.396   1.882   3.247  0.4298 -2.6583 -1.4151
 5968SOL    HW229538   3.457   1.979   3.149 -1.7864  0.5389  1.1030
 5969SOL     OW29539   2.933   1.520   5.456  0.2629 -0.1080 -0.6904
 5969SOL    HW129540   2.895   1.577   5.388 -1.9236 -0.7780 -0.0360
 5969SOL    HW229541   3.022   1.552   5.441  0.1755  0.7460  0.6207
 5970SOL     OW29542   0.116   3.457   3.452 -0.0528 -0.5733 -0.2602
 5970SOL    HW129543   0.081   3.378   3.493 -0.0243  0.5171  1.8580
 5970SOL    HW229544   0.030   3.488   3.422 -1.5089 -0.3991  4.1195
 5971SOL     OW29545   4.643   2.077  10.123 -0.0955  0.4162 -0.0815
 5971SOL    HW129546   4.670   2.167  10.141 -0.6839  0.7270 -0.7617
 5971SOL    HW229547   4.713   2.045  10.065 -0.9318 -2.3279  0.4068
 5972SOL     OW29548   4.528   2.537   8.929 -0.2681 -0.4723  0.5124
 5972SOL    HW129549   4.442   2.558   8.964 -0.7961 -1.0568 -0.4393
 5972SOL    HW229550   4.543   2.448   8.963  2.1659 -1.0192 -1.9914
 5973SOL     OW29551   4.219   3.188  14.899  0.1737  0.1246  0.1745
 5973SOL    HW129552   4.134   3.220  14.868  0.5913  1.1793  0.1174
 5973SOL    HW229553   4.274   3.266  14.908  1.0085 -0.4204 -0.1799
 5974SOL     OW29554   3.322   2.352   0.405 -0.2566 -0.2164  0.0336
 5974SOL    HW129555   3.350   2.319   0.319  2.3847  2.5050 -0.1628
 5974SOL    HW229556   3.227   2.355   0.392 -0.4012 -0.2420  1.1142
 5975SOL     OW29557   3.465   0.970   8.400 -0.4995  0.2509  0.1869
 5975SOL    HW129558   3.477   0.995   8.492 -0.4211 -0.9791  0.5149
 5975SOL    HW229559   3.370   0.983   8.399 -0.6781 -1.3936 -4.0734
 5976SOL     OW29560   1.761   0.694  12.973 -0.4763 -0.4153  0.1618
 5976SOL    HW129561   1.794   0.777  12.937  2.3880 -1.7245 -0.2379
 5976SOL    HW229562   1.691   0.715  13.036 -1.3901  2.5275 -1.8227
 5977SOL     OW29563   2.092   3.139   5.282  0.4578 -0.0675  0.1166
 5977SOL    HW129564   2.014   3.166   5.331 -0.6224 -0.1230 -1.5388
 5977SOL    HW229565   2.083   3.205   5.213 -1.3071 -0.6278 -0.2147
 5978SOL     OW29566   2.629   0.027   3.707  0.3004 -0.4895  0.2572
 5978SOL    HW129567   2.535   0.047   3.716  0.2662 -0.1118 -0.8430
 5978SOL    HW229568   2.658   0.071   3.626 -1.4525 -0.2593 -0.2504
 5979SOL     OW29569   0.088   1.733   2.474 -0.3213 -0.1963 -0.3459
 5979SOL    HW129570   0.043   1.770   2.550  0.7217  2.0226 -0.8102
 5979SOL    HW229571   0.135   1.659   2.514  0.4423  1.5145  1.8863
 5980SOL     OW29572   0.839   0.019   6.528  0.5253  0.4505 -0.0965
 5980SOL    HW129573   0.831   4.721   6.615  1.0367  0.2183 -0.1588
 5980SOL    HW229574   0.835   0.112   6.554 -1.3161  0.6868 -1.1745
 5981SOL     OW29575   4.173   4.458   5.906 -0.2253 -0.1005 -0.3616
 5981SOL    HW129576   4.189   4.524   5.973  2.5667 -0.0314 -1.0903
 5981SOL    HW229577   4.092   4.413   5.931  0.2731  0.7783  2.8012
 5982SOL     OW29578   2.158   3.624   9.454  0.2852 -0.0021  0.0228
 5982SOL    HW129579   2.095   3.641   9.525  0.1931 -0.3174  0.0200
 5982SOL    HW229580   2.196   3.542   9.486  1.8881 -0.3605 -2.7664
 5983SOL     OW29581   0.163   3.683  17.698  1.0464 -0.1341  0.4799
 5983SOL    HW129582   0.071   3.660  17.683  0.3842  2.5262  0.5280
 5983SOL    HW229583   0.200   3.596  17.714  0.2995 -0.4669  0.4221
 5984SOL     OW29584   1.666   0.665   6.520  0.3586 -0.3855  0.5027
 5984SOL    HW129585   1.756   0.654   6.550  0.6099  0.4931  0.0700
 5984SOL    HW229586   1.672   0.760   6.505 -0.0335 -0.4016  0.2491
 5985SOL     OW29587   0.039   4.086  15.981  0.3587  0.1827  0.1623
 5985SOL    HW129588   0.074   4.048  15.901 -0.0358 -0.7908  0.4481
 5985SOL    HW229589   0.000   4.018  16.036  1.0342 -1.4206 -1.3413
 5986SOL     OW29590   4.079   3.175   4.098  0.7631  0.1261 -0.1696
 5986SOL    HW129591   4.137   3.134   4.032  0.0907 -0.7429 -0.2214
 5986SOL    HW229592   4.087   3.110   4.168  1.2705  1.6961  1.2065
 5987SOL     OW29593   1.382   3.025   3.292  0.1934  0.2103  1.1945
 5987SOL    HW129594   1.341   3.106   3.323  0.5786  0.9423 -0.1945
 5987SOL    HW229595   1.307   2.965   3.283 -2.1813  3.4544 -0.7108
 5988SOL     OW29596   0.556   3.204   9.842  0.6286 -0.1797  0.2674
 5988SOL    HW129597   0.624   3.270   9.838 -0.4830  0.9574  0.1544
 5988SOL    HW229598   0.480   3.254   9.813  1.0039 -0.6505 -1.5276
 5989SOL     OW29599   0.502   1.415   7.613  0.2181 -0.2982  0.2773
 5989SOL    HW129600   0.509   1.498   7.661  0.5747  0.3510 -0.9017
 5989SOL    HW229601   0.407   1.404   7.612 -0.0039  1.7073 -1.5988
 5990SOL     OW29602   1.420   3.340  13.711  0.3259 -0.1757  0.3435
 5990SOL    HW129603   1.461   3.297  13.786 -1.3235 -1.5417  0.4652
 5990SOL    HW229604   1.414   3.273  13.644  0.4748  0.2144 -0.0565
 5991SOL     OW29605   2.844   4.584   9.348 -0.2262 -0.0723  0.3591
 5991SOL    HW129606   2.876   4.500   9.317  0.2623  0.4226 -0.4797
 5991SOL    HW229607   2.848   4.643   9.273 -1.8447 -2.2031 -1.4131
 5992SOL     OW29608   3.000   3.019   2.042 -0.3127 -0.9742 -0.1870
 5992SOL    HW129609   3.066   2.997   1.977  0.0839  2.8677 -1.0914
 5992SOL    HW229610   2.944   3.079   1.992  1.0195  1.6514  1.4492
 5993SOL     OW29611   4.472   1.989   8.125 -0.2324 -0.3486  0.1156
 5993SOL    HW129612   4.383   2.008   8.153 -0.1462 -0.3470  0.3944
 5993SOL    HW229613   4.506   1.938   8.198 -0.7491  0.9426  1.2512
 5994SOL     OW29614   1.328   2.157   1.903  0.0420 -0.4567 -0.5371
 5994SOL    HW129615   1.285   2.235   1.938  1.2172  0.9898 -2.3756
 5994SOL    HW229616   1.421   2.166   1.920  0.2112  0.1962 -1.8164
 5995SOL     OW29617   0.532   1.343  11.939 -0.0900  0.1874  0.0375
 5995SOL    HW129618   0.509   1.339  11.847 -1.1661 -1.1889  0.3638
 5995SOL    HW229619   0.452   1.324  11.989 -0.4784  3.5723  0.6619
 5996SOL     OW29620   1.572   1.831  14.237 -0.9041 -0.8163  0.7230
 5996SOL    HW129621   1.564   1.802  14.327 -1.6994 -1.0129  0.5845
 5996SOL    HW229622   1.480   1.826  14.210 -1.5709  1.0287  2.6532
 5997SOL     OW29623   0.463   2.516   4.612  0.1406 -0.4112 -0.6051
 5997SOL    HW129624   0.401   2.446   4.591 -1.9801  1.5437 -0.8818
 5997SOL    HW229625   0.402   2.590   4.607  1.1432  0.2584 -2.7824
 5998SOL     OW29626   1.758   2.301   7.449  0.9668  0.4411 -0.4421
 5998SOL    HW129627   1.675   2.292   7.497  0.2127  0.8056 -1.6876
 5998SOL    HW229628   1.732   2.299   7.357 -1.0137 -2.9715  0.1760
 5999SOL     OW29629   2.926   2.905   2.260  0.2470  0.2102  0.4369
 5999SOL    HW129630   2.936   2.946   2.175 -0.2028  0.2565  0.4094
 5999SOL    HW229631   2.831   2.903   2.268  0.1142 -1.4481 -1.5805
 6000SOL     OW29632   2.728   3.164   2.712  0.0457 -0.4907 -0.8036
 6000SOL    HW129633   2.791   3.195   2.647  0.1083  1.1386  0.0230
 6000SOL    HW229634   2.775   3.174   2.795  3.0390 -3.3526 -2.1400
 6001SOL     OW29635   3.507   2.538  17.639  0.3798  0.3379  0.6530
 6001SOL    HW129636   3.495   2.618  17.689 -0.5441  1.7448 -1.8331
 6001SOL    HW229637   3.428   2.490  17.665  0.3618  0.2546  0.4456
 6002SOL     OW29638   3.711   0.304   2.169  0.1482  0.3049 -0.3913
 6002SOL    HW129639   3.675   0.312   2.081 -0.3749  1.6774 -0.0625
 6002SOL    HW229640   3.656   0.232   2.200  1.4010  0.0537  1.2989
 6003SOL     OW29641   0.636   0.961   8.829 -0.5695 -0.0330  0.2298
 6003SOL    HW129642   0.629   0.869   8.805 -0.7785  0.4009 -1.3377
 6003SOL    HW229643   0.696   0.970   8.904  0.4066  0.8632 -0.6676
 6004SOL     OW29644   3.641   4.219   7.352 -0.2967  0.2881 -0.1894
 6004SOL    HW129645   3.622   4.242   7.261  1.0182 -1.9901 -1.0184
 6004SOL    HW229646   3.737   4.222   7.355 -0.2727 -0.5919 -0.1226
 6005SOL     OW29647   1.836   0.219   1.330 -0.2061 -0.3296  0.3174
 6005SOL    HW129648   1.767   0.179   1.277  0.2591 -0.3362 -0.2907
 6005SOL    HW229649   1.851   0.139   1.381 -0.2079 -0.0862  0.6982
 6006SOL     OW29650   0.958   1.702   7.882  0.6210  0.0995  0.3000
 6006SOL    HW129651   0.896   1.628   7.875 -0.7181  1.2913 -0.5595
 6006SOL    HW229652   0.902   1.777   7.862  1.2036  0.4321 -0.0607
 6007SOL     OW29653   0.628   1.551   6.988  0.5215  0.5549  0.1859
 6007SOL    HW129654   0.542   1.587   7.009 -0.3736 -0.2876 -1.9483
 6007SOL    HW229655   0.604   1.475   6.934  0.5639  1.3914 -1.0078
 6008SOL     OW29656   2.915   4.324   3.597 -0.0554 -0.2713 -0.7401
 6008SOL    HW129657   2.984   4.379   3.634 -0.6093 -0.9439  1.2927
 6008SOL    HW229658   2.857   4.391   3.561  0.8327  0.7371 -0.2707
 6009SOL     OW29659   4.001   2.978  10.267 -0.8745  0.4849 -0.5799
 6009SOL    HW129660   4.009   3.058  10.318 -0.7320 -0.3913  0.7556
 6009SOL    HW229661   4.030   2.913  10.330 -0.7523  0.7342 -0.3766
 6010SOL     OW29662   1.144   0.920   5.736  0.2521  0.0702 -0.5362
 6010SOL    HW129663   1.122   0.844   5.682 -1.1196  0.1550 -0.0916
 6010SOL    HW229664   1.102   0.890   5.817  0.5259 -0.1829 -0.4853
 6011SOL     OW29665   0.555   4.511   2.737  0.4168  0.2088  0.2580
 6011SOL    HW129666   0.538   4.497   2.830  0.5991 -1.6446  0.0099
 6011SOL    HW229667   0.568   4.419   2.715 -1.2365 -0.4960  2.1903
 6012SOL     OW29668   0.794   2.525   5.291  0.3117  0.1984 -0.2013
 6012SOL    HW129669   0.860   2.514   5.360  0.5671  3.7519  0.0979
 6012SOL    HW229670   0.834   2.497   5.209  0.5610  0.5904 -0.2143
 6013SOL     OW29671   1.541   4.412   5.120  0.1343  0.1267  0.3153
 6013SOL    HW129672   1.548   4.456   5.036 -2.0592 -2.7341 -1.3664
 6013SOL    HW229673   1.449   4.387   5.113 -0.3062  1.7056  0.6359
 6014SOL     OW29674   3.617   3.677   8.292 -0.5361  0.2488  0.7357
 6014SOL    HW129675   3.552   3.661   8.361 -1.5547  2.7517  0.3329
 6014SOL    HW229676   3.642   3.767   8.312 -1.4955  0.2385  1.9839
 6015SOL     OW29677   4.429   0.728   7.594 -0.0702 -0.3938  0.3560
 6015SOL    HW129678   4.467   0.816   7.597 -1.3565  0.1694  0.1963
 6015SOL    HW229679   4.435   0.697   7.685  0.8140  2.0365  1.1170
 6016SOL     OW29680   2.712   4.446   8.091  0.3970 -0.2432  0.1694
 6016SOL    HW129681   2.721   4.450   7.996  0.3883 -0.9304  0.1448
 6016SOL    HW229682   2.724   4.537   8.120  0.5416 -0.1687 -0.1197
 6017SOL     OW29683   0.209   0.201   2.908 -0.1080 -0.2273  0.3358
 6017SOL    HW129684   0.203   0.110   2.881 -0.0589  0.4266 -1.8599
 6017SOL    HW229685   0.243   0.187   2.997 -1.5286 -2.6839  0.4977
 6018SOL     OW29686   1.823   0.542   9.399  0.3380 -0.5016 -0.0412
 6018SOL    HW129687   1.742   0.532   9.349 -0.0435  0.7429  0.3287
 6018SOL    HW229688   1.881   0.554   9.323  1.5391 -0.7707  0.8314
 6019SOL     OW29689   3.190   4.524   4.133  0.1953 -0.2213 -0.0513
 6019SOL    HW129690   3.283   4.503   4.125  0.2987 -0.8848  2.9303
 6019SOL    HW229691   3.183   4.486   4.221 -0.8783  0.9975  0.4104
 6020SOL     OW29692   0.407   3.039   9.977  0.7017  0.2815 -0.1710
 6020SOL    HW129693   0.455   3.096   9.917 -1.8372 -1.0733 -3.4303
 6020SOL    HW229694   0.329   3.089  10.000  2.0142  1.9570  0.6307
 6021SOL     OW29695   4.316   4.594   9.236 -0.2490  0.0410  0.1628
 6021SOL    HW129696   4.251   4.663   9.249  0.8587  0.8646  1.3644
 6021SOL    HW229697   4.385   4.603   9.302  0.2277  2.5738 -0.6548
 6022SOL     OW29698   3.112   4.444   0.014  0.0917  0.2056  0.4384
 6022SOL    HW129699   3.180   4.415  17.715 -0.2091  1.4241 -0.4918
 6022SOL    HW229700   3.045   4.376   0.017 -0.1721  0.4168 -0.5634
 6023SOL     OW29701   4.515   2.386   5.692  0.3317  0.2357 -0.4139
 6023SOL    HW129702   4.422   2.367   5.680  0.2923 -0.0779  0.3855
 6023SOL    HW229703   4.513   2.480   5.672 -2.2693  0.1505 -0.5544
 6024SOL     OW29704   1.612   3.904  16.384  0.2326 -0.6646  0.3425
 6024SOL    HW129705   1.667   3.915  16.462 -2.7857  0.7045  2.2486
 6024SOL    HW229706   1.599   3.810  16.400 -0.0288 -0.5510  0.8061
 6025SOL     OW29707   0.687   1.746   4.808 -0.4065 -0.0815  0.8561
 6025SOL    HW129708   0.743   1.671   4.792  0.6244  1.0850 -1.0786
 6025SOL    HW229709   0.735   1.812   4.757 -2.1154 -0.3924 -1.1904
 6026SOL     OW29710   1.042   0.454   6.615 -0.5059  0.0218 -0.6724
 6026SOL    HW129711   1.081   0.535   6.582  0.4764 -0.6803 -1.2641
 6026SOL    HW229712   1.054   0.462   6.709 -1.1379 -0.2199 -0.5725
 6027SOL     OW29713   2.368   3.677   2.978  0.4502  0.3600 -0.3991
 6027SOL    HW129714   2.408   3.664   3.064  1.8992  1.2288 -0.9320
 6027SOL    HW229715   2.343   3.768   2.992  1.3786  0.3367  1.3594
 6028SOL     OW29716   1.802   2.128   2.992 -0.5359  0.5483  0.4911
 6028SOL    HW129717   1.729   2.074   2.963  1.2196 -1.6997  0.3319
 6028SOL    HW229718   1.841   2.072   3.060 -0.1502 -1.9360 -1.7896
 6029SOL     OW29719   2.937   0.460   8.134  0.0471 -0.4207  0.2923
 6029SOL    HW129720   2.899   0.547   8.126 -0.4875 -0.7460 -0.7846
 6029SOL    HW229721   2.971   0.463   8.223 -0.4261 -0.9947  0.4954
 6030SOL     OW29722   3.492   2.767  17.444 -0.0956 -0.0451  0.1183
 6030SOL    HW129723   3.543   2.740  17.520  0.1026 -0.6983 -0.2424
 6030SOL    HW229724   3.397   2.766  17.461  0.0497 -1.1230  0.8688
 6031SOL     OW29725   2.314   2.130   8.398 -0.0003  0.5663 -1.0219
 6031SOL    HW129726   2.247   2.199   8.403 -0.2485  0.3359 -1.2082
 6031SOL    HW229727   2.394   2.175   8.369  1.5798 -0.8872  1.0879
 6032SOL     OW29728   1.226   2.309   8.584  0.4581 -0.0406 -0.2154
 6032SOL    HW129729   1.258   2.291   8.496  3.2028 -2.5548  1.3137
 6032SOL    HW229730   1.306   2.292   8.633 -0.7520 -0.0428  1.7295
 6033SOL     OW29731   3.788   3.332   0.715 -0.1827  0.3594 -0.1510
 6033SOL    HW129732   3.853   3.269   0.745  1.8968  2.1451 -0.9181
 6033SOL    HW229733   3.713   3.272   0.705 -0.8507  1.1544  0.0637
 6034SOL     OW29734   3.218   4.198   3.050  0.1021 -0.4457 -0.1575
 6034SOL    HW129735   3.164   4.223   2.974  2.6749 -1.8838 -2.4209
 6034SOL    HW229736   3.282   4.143   3.006  0.0642 -0.8205  0.2547
 6035SOL     OW29737   3.904   0.798   9.474  0.0655  0.0873  0.3900
 6035SOL    HW129738   3.992   0.827   9.499  0.2071  0.6926 -0.8433
 6035SOL    HW229739   3.914   0.786   9.380 -1.1042  1.0624  0.1514
 6036SOL     OW29740   0.111   4.528   8.136  0.4563 -0.1940 -0.5432
 6036SOL    HW129741   0.037   4.490   8.182  0.6145 -0.1009 -0.2120
 6036SOL    HW229742   0.093   4.619   8.116 -1.6297 -0.5450 -0.2318
 6037SOL     OW29743   2.415   0.953   6.709  0.2460 -0.0140 -0.5275
 6037SOL    HW129744   2.453   0.870   6.680 -0.1306  0.5774 -2.7427
 6037SOL    HW229745   2.429   0.944   6.803  2.0009 -1.0672 -0.8946
 6038SOL     OW29746   0.649   2.156  12.335  0.2893 -0.7600 -0.6728
 6038SOL    HW129747   0.568   2.188  12.297  1.1222  2.7536  0.5719
 6038SOL    HW229748   0.615   2.096  12.401 -0.1280 -0.3986 -0.5617
 6039SOL     OW29749   0.099   0.449   2.223  0.2096  0.1392 -0.1502
 6039SOL    HW129750   0.088   0.541   2.198 -0.8567  0.1327  0.2730
 6039SOL    HW229751   0.069   0.450   2.314  0.2010  0.4847 -0.1560
 6040SOL     OW29752   4.460   3.623   8.164 -0.2202 -0.1047 -0.0595
 6040SOL    HW129753   4.540   3.577   8.140 -0.3162 -1.3085  1.9732
 6040SOL    HW229754   4.494   3.711   8.184  1.4296 -0.1087 -2.7724
 6041SOL     OW29755   0.446   4.028   3.998 -0.3051 -0.6359  0.0546
 6041SOL    HW129756   0.430   4.023   3.904  0.5507 -2.1985 -0.0236
 6041SOL    HW229757   0.540   4.046   3.988 -0.6711  0.0979 -1.9920
 6042SOL     OW29758   1.321   1.065  16.482 -0.0298  0.5410 -0.3580
 6042SOL    HW129759   1.340   1.060  16.388  0.5034 -0.7883 -0.1764
 6042SOL    HW229760   1.257   0.995  16.492 -0.1177  0.9734  2.1662
 6043SOL     OW29761   1.561   1.181  17.593  0.5623 -0.2964 -0.2178
 6043SOL    HW129762   1.598   1.096  17.616  0.7099 -0.2710 -0.3626
 6043SOL    HW229763   1.644   1.218  17.561  1.3702 -1.9507 -0.0293
 6044SOL     OW29764   1.403   1.643   4.977  0.1205  0.1421 -0.1625
 6044SOL    HW129765   1.372   1.562   5.017  0.4247 -0.1059 -0.4300
 6044SOL    HW229766   1.389   1.695   5.056 -1.4037  0.3760 -0.5738
 6045SOL     OW29767   1.064   2.374   2.337  0.0036  1.0384 -0.1372
 6045SOL    HW129768   1.021   2.382   2.252 -0.8216  0.1596  0.2055
 6045SOL    HW229769   1.133   2.317   2.304 -1.0405 -0.9291  1.0704
 6046SOL     OW29770   3.715   0.543  12.318 -0.7618 -0.1369 -0.3990
 6046SOL    HW129771   3.798   0.591  12.321  0.6605 -2.6288  1.2077
 6046SOL    HW229772   3.665   0.615  12.280 -1.3591 -0.7067 -0.6880
 6047SOL     OW29773   1.304   3.781  14.474  0.3667 -0.0708 -0.5431
 6047SOL    HW129774   1.239   3.848  14.456 -0.0171 -0.5657 -0.9952
 6047SOL    HW229775   1.341   3.822  14.552  1.8779  1.3827 -2.0122
 6048SOL     OW29776   4.349   3.324   3.748  0.1350  0.0772 -0.3591
 6048SOL    HW129777   4.362   3.393   3.682 -0.3741  1.0538  0.5527
 6048SOL    HW229778   4.313   3.380   3.817  1.3928 -0.2720  0.5818
 6049SOL     OW29779   2.707   3.900   1.635  0.3191 -0.0526 -0.3787
 6049SOL    HW129780   2.795   3.864   1.641  0.9346  1.4215 -0.5939
 6049SOL    HW229781   2.715   3.986   1.593  0.7054 -0.6988 -1.6224
 6050SOL     OW29782   3.964   4.222   6.502  0.3829 -0.8596  0.5418
 6050SOL    HW129783   4.027   4.292   6.512 -1.8438  1.3561 -0.9814
 6050SOL    HW229784   4.028   4.152   6.486 -0.1728 -0.9673 -1.3371
 6051SOL     OW29785   2.127   1.173   0.938  0.4366 -0.1741 -0.0212
 6051SOL    HW129786   2.061   1.239   0.917  2.0082  1.2247 -0.4852
 6051SOL    HW229787   2.069   1.117   0.990  1.4003 -1.5668 -0.4437
 6052SOL     OW29788   3.181   0.360   5.491  0.2576  0.2623  0.7402
 6052SOL    HW129789   3.137   0.286   5.449 -0.0393 -0.0461  1.6000
 6052SOL    HW229790   3.109   0.398   5.541  0.0397 -0.4709  0.9788
 6053SOL     OW29791   3.509   0.330   3.818 -0.3041  0.6789  0.3003
 6053SOL    HW129792   3.454   0.331   3.897  0.7295  3.1339  0.9977
 6053SOL    HW229793   3.599   0.349   3.846 -0.3548  2.7277 -0.9510
 6054SOL     OW29794   4.383   0.596   9.915 -0.1643 -0.1531  0.0823
 6054SOL    HW129795   4.410   0.676   9.960  1.0160  0.5813 -1.8758
 6054SOL    HW229796   4.296   0.631   9.898  0.1097 -0.2825 -1.6191
 6055SOL     OW29797   3.113   2.198   2.516 -0.7418  0.0151 -0.3064
 6055SOL    HW129798   3.062   2.179   2.437  0.0517 -1.7651 -0.3981
 6055SOL    HW229799   3.040   2.177   2.575  0.1911  0.8236  1.1265
 6056SOL     OW29800   1.914   1.603   6.046 -0.2593 -0.7490  0.2030
 6056SOL    HW129801   1.917   1.598   6.142 -1.5136 -0.6589  0.2543
 6056SOL    HW229802   1.892   1.695   6.033  0.6714 -0.4578  0.7274
 6057SOL     OW29803   3.774   2.552   8.745 -0.4360 -0.0752  0.3298
 6057SOL    HW129804   3.784   2.459   8.726 -1.4129 -0.3061  0.9664
 6057SOL    HW229805   3.740   2.548   8.835  0.9376 -2.3613  0.7540
 6058SOL     OW29806   0.227   4.636   1.604  0.3160  0.2833  0.1084
 6058SOL    HW129807   0.181   4.552   1.601  0.1743  0.4426 -2.1281
 6058SOL    HW229808   0.152   4.692   1.583  0.6275  0.2784 -1.0302
 6059SOL     OW29809   3.401   1.940   1.408  0.6645 -0.3059 -0.1350
 6059SOL    HW129810   3.421   2.031   1.432 -1.1317  0.3103 -0.9937
 6059SOL    HW229811   3.390   1.951   1.314  0.4611 -0.5703 -0.1397
 6060SOL     OW29812   0.173   2.095   7.382 -0.5416 -0.5009  0.5536
 6060SOL    HW129813   0.110   2.137   7.324 -0.6170  1.4005  1.9948
 6060SOL    HW229814   0.126   2.095   7.466  0.6092  0.7908  1.1928
 6061SOL     OW29815   4.243   2.542   2.800 -0.7786 -0.6513 -0.1220
 6061SOL    HW129816   4.180   2.594   2.849 -2.9023 -3.5640  0.2485
 6061SOL    HW229817   4.207   2.453   2.797  0.6170 -1.2838  1.9771
 6062SOL     OW29818   2.345   0.060   3.778 -0.0580  0.0103  0.0729
 6062SOL    HW129819   2.307   0.140   3.814  2.0464  0.8922  0.2857
 6062SOL    HW229820   2.294   0.050   3.698  2.4352 -4.2055 -0.9563
 6063SOL     OW29821   0.713   0.117   7.468  0.0184 -0.2708  0.3499
 6063SOL    HW129822   0.673   0.065   7.538 -3.0824 -1.0266 -1.9734
 6063SOL    HW229823   0.630   0.150   7.435  0.2730  0.7305  0.7258
 6064SOL     OW29824   1.242   2.498  11.449 -0.6189 -0.1601  0.0634
 6064SOL    HW129825   1.241   2.561  11.521 -1.4350  0.8487 -0.8402
 6064SOL    HW229826   1.194   2.555  11.389 -1.1385  1.0134  1.6006
 6065SOL     OW29827   3.527   0.055   2.255  0.4001  0.0526  0.4967
 6065SOL    HW129828   3.452   0.033   2.310  0.5328 -0.8576  0.3210
 6065SOL    HW229829   3.477   0.093   2.183  2.2509 -1.5099 -1.6122
 6066SOL     OW29830   1.071   4.229  17.004 -0.6066 -0.5457  0.8924
 6066SOL    HW129831   0.996   4.181  16.970 -0.7881 -0.7485  1.5829
 6066SOL    HW229832   1.046   4.282  17.079  0.7453 -0.5610  1.3539
 6067SOL     OW29833   2.395   3.506   9.267  0.4271  0.0006  0.4913
 6067SOL    HW129834   2.335   3.579   9.252 -0.4598 -0.9268 -0.4132
 6067SOL    HW229835   2.338   3.430   9.257  1.7318 -0.6630 -1.9524
 6068SOL     OW29836   0.436   3.383   2.767 -0.3495  0.0339  0.0702
 6068SOL    HW129837   0.431   3.402   2.861 -0.3743  0.8172 -0.0950
 6068SOL    HW229838   0.353   3.399   2.722  0.7121  2.1106 -1.1180
 6069SOL     OW29839   3.081   1.016  15.737  0.1126  0.2800  0.3251
 6069SOL    HW129840   3.069   1.042  15.645 -1.6908 -0.3983  0.3697
 6069SOL    HW229841   3.125   1.090  15.779 -1.5037  1.0093  0.7337
 6070SOL     OW29842   4.253   3.722   2.300  0.0863 -0.0482 -0.1687
 6070SOL    HW129843   4.297   3.637   2.291  0.6495  0.2608 -0.3709
 6070SOL    HW229844   4.241   3.740   2.393  0.3054  1.5617 -0.4577
 6071SOL     OW29845   4.292   4.622   2.509 -0.0804  0.0427 -0.1133
 6071SOL    HW129846   4.377   4.578   2.512 -0.3227 -0.4862 -1.3150
 6071SOL    HW229847   4.313   4.672   2.430  0.9244  1.4690  1.0534
 6072SOL     OW29848   0.811   3.383   7.409 -0.4077  0.1006  0.5951
 6072SOL    HW129849   0.898   3.388   7.448 -0.3542  0.9851  0.3677
 6072SOL    HW229850   0.812   3.441   7.333  0.5838  0.2090  0.6917
 6073SOL     OW29851   3.909   0.181   8.478 -0.1200  0.0153 -0.8102
 6073SOL    HW129852   3.825   0.146   8.448 -0.0341  1.0265 -2.2116
 6073SOL    HW229853   3.928   0.134   8.559  1.6730 -0.8837 -1.7499
 6074SOL     OW29854   1.168   4.703   4.960 -0.2616 -0.4291 -0.2839
 6074SOL    HW129855   1.218   4.625   4.934  0.4047  0.6908 -2.4097
 6074SOL    HW229856   1.144   4.679   5.049  0.4880 -0.1638 -0.0120
 6075SOL     OW29857   3.167   3.476   4.670  0.0834 -0.1737  0.3008
 6075SOL    HW129858   3.082   3.506   4.639  0.0752  0.8043  1.2734
 6075SOL    HW229859   3.147   3.411   4.738  0.2425  1.2578  1.7100
 6076SOL     OW29860   0.422   1.852   2.588  0.1070 -0.0543 -0.1795
 6076SOL    HW129861   0.384   1.800   2.518  1.0468  0.7065 -1.2455
 6076SOL    HW229862   0.510   1.866   2.555 -0.1987  1.0800 -0.5027
 6077SOL     OW29863   2.700   1.031   5.534  0.0704 -0.5209  0.0251
 6077SOL    HW129864   2.645   0.956   5.514  1.3906 -1.6047  0.4534
 6077SOL    HW229865   2.635   1.102   5.530 -0.9438 -1.4955 -0.7073
 6078SOL     OW29866   3.749   4.391   2.447 -1.0878  0.2047  0.4018
 6078SOL    HW129867   3.775   4.450   2.517 -2.4707  0.2323  0.8975
 6078SOL    HW229868   3.683   4.446   2.404 -1.4483 -1.8010 -1.5919
 6079SOL     OW29869   3.762   1.885   3.152 -0.8396 -0.1414  0.2948
 6079SOL    HW129870   3.686   1.901   3.209 -1.4138 -2.4415  0.1832
 6079SOL    HW229871   3.733   1.800   3.120  0.6596 -0.4322 -0.2922
 6080SOL     OW29872   0.346   0.289   6.687  0.1803  0.2832 -0.6097
 6080SOL    HW129873   0.356   0.277   6.781 -0.3784  0.3264 -0.5445
 6080SOL    HW229874   0.256   0.315   6.668 -0.3598 -0.6510  0.7362
 6081SOL     OW29875   1.753   3.897  16.606 -0.4659 -0.5518 -0.2523
 6081SOL    HW129876   1.836   3.935  16.578  1.2439 -2.3163  2.4073
 6081SOL    HW229877   1.740   3.954  16.682  0.9296 -1.8922  0.9956
 6082SOL     OW29878   2.680   2.303   5.582  0.3363 -0.1742 -0.1589
 6082SOL    HW129879   2.755   2.361   5.594  0.9191 -1.1478  0.7822
 6082SOL    HW229880   2.606   2.364   5.586 -0.1672 -0.7509 -0.6345
 6083SOL     OW29881   4.391   1.240  15.037  0.2775  0.6089  0.0876
 6083SOL    HW129882   4.438   1.212  15.115 -0.6067 -0.9399  0.0643
 6083SOL    HW229883   4.310   1.190  15.030  0.3250  0.7502 -1.4775
 6084SOL     OW29884   4.039   2.015   6.754  0.2069  0.2049 -0.2093
 6084SOL    HW129885   3.977   1.946   6.730  0.8469 -0.7953  0.9956
 6084SOL    HW229886   4.048   2.046   6.664  1.1210  1.9804  0.4946
 6085SOL     OW29887   0.958   4.642   8.838  0.2344 -0.2935 -0.0952
 6085SOL    HW129888   1.051   4.651   8.816  0.7063 -1.2638  1.5303
 6085SOL    HW229889   0.913   4.634   8.755 -0.3411 -1.7693  0.3703
 6086SOL     OW29890   3.535   2.031   7.775  0.1251 -0.0906  0.0730
 6086SOL    HW129891   3.630   2.033   7.787 -0.0434  1.1272  1.0861
 6086SOL    HW229892   3.511   2.123   7.778  2.6297  0.6214 -2.0914
 6087SOL     OW29893   1.328   3.725   9.486  0.5407 -1.4470  0.4239
 6087SOL    HW129894   1.351   3.785   9.557  4.0619 -2.1658 -0.1295
 6087SOL    HW229895   1.247   3.763   9.450  2.7710  1.9156 -1.0315
 6088SOL     OW29896   1.042   0.332   1.558 -0.3495 -0.0619  0.2387
 6088SOL    HW129897   1.049   0.373   1.644 -0.4806 -0.3616  0.3920
 6088SOL    HW229898   1.105   0.383   1.507 -0.1446 -1.3689 -0.8173
 6089SOL     OW29899   3.972   0.364   2.248 -0.6350  0.6354  0.3449
 6089SOL    HW129900   3.997   0.456   2.252  0.0362  0.4570  0.4194
 6089SOL    HW229901   3.882   0.361   2.217 -0.7285 -0.4169  0.7196
 6090SOL     OW29902   3.049   3.399  15.325 -0.2275 -0.0041 -0.4965
 6090SOL    HW129903   3.139   3.397  15.291 -0.4921 -1.7532 -1.0690
 6090SOL    HW229904   3.059   3.463  15.396 -2.2185  0.2072 -0.4006
 6091SOL     OW29905   1.467   1.734   7.521 -0.0576 -0.1791 -0.3520
 6091SOL    HW129906   1.531   1.786   7.472  0.6441  0.3129  1.0636
 6091SOL    HW229907   1.490   1.766   7.608 -0.0259 -0.7020 -0.1689
 6092SOL     OW29908   3.525   0.177   5.878 -0.2149  0.2042 -0.9002
 6092SOL    HW129909   3.516   0.098   5.824  2.2023 -2.3371  2.4023
 6092SOL    HW229910   3.497   0.138   5.960  0.5924  1.0579 -0.2287
 6093SOL     OW29911   2.936   3.675   7.629  0.4473 -0.2184  0.0697
 6093SOL    HW129912   3.016   3.714   7.664  2.0683 -3.2733 -0.2522
 6093SOL    HW229913   2.975   3.631   7.554 -0.3186  1.4615 -1.3226
 6094SOL     OW29914   0.262   1.627   0.805  0.2433 -0.4510 -0.7772
 6094SOL    HW129915   0.307   1.673   0.734  1.9302 -1.9783 -0.7028
 6094SOL    HW229916   0.335   1.585   0.849  1.0452  0.3207 -1.3803
 6095SOL     OW29917   4.446   3.167   4.663  0.3979  0.2330  0.4662
 6095SOL    HW129918   4.487   3.124   4.737 -0.5643 -1.3559  0.0956
 6095SOL    HW229919   4.355   3.166   4.694  0.0662  1.3167 -0.4663
 6096SOL     OW29920   3.700   4.726  14.395 -0.1944 -0.0199 -0.2417
 6096SOL    HW129921   3.676   4.634  14.410 -0.3610 -0.1034 -1.0193
 6096SOL    HW229922   3.693   0.020  14.484 -0.2383  2.3065 -1.1636
 6097SOL     OW29923   0.732   0.553   8.313 -0.5822  0.4087 -0.3375
 6097SOL    HW129924   0.824   0.529   8.310 -0.3020  1.2859  1.1671
 6097SOL    HW229925   0.689   0.500   8.246  0.9896 -0.8845 -0.3269
 6098SOL     OW29926   0.604   2.409  16.382  0.1844  0.4098 -0.2751
 6098SOL    HW129927   0.629   2.354  16.307 -2.1288 -1.2045  0.1226
 6098SOL    HW229928   0.599   2.498  16.347  1.0519  1.2952  1.8680
 6099SOL     OW29929   0.881   4.597  11.801 -0.0814 -0.1067 -0.3959
 6099SOL    HW129930   0.871   4.507  11.770  0.4513 -0.2563 -0.1433
 6099SOL    HW229931   0.942   4.624  11.733  1.1122  1.5507  1.3450
 6100SOL     OW29932   2.990   3.034  11.012  0.2444  0.0787 -0.6141
 6100SOL    HW129933   3.005   3.127  10.992  2.4758 -0.1619 -0.1251
 6100SOL    HW229934   3.080   3.002  11.004  0.9188  1.5059  1.0354
 6101SOL     OW29935   4.705   3.249   3.573  0.1571  0.3213  0.2374
 6101SOL    HW129936   4.645   3.223   3.503  3.3411  0.8702 -2.6640
 6101SOL    HW229937   0.022   3.173   3.582 -0.2008  0.0552  0.2730
 6102SOL     OW29938   1.017   1.135   4.309 -0.6651  0.9096  0.3613
 6102SOL    HW129939   1.018   1.230   4.300 -1.0429  0.8320 -0.5700
 6102SOL    HW229940   0.933   1.123   4.354  0.1635  0.5488  1.8063
 6103SOL     OW29941   4.374   4.067   4.184  0.2457  0.6608 -0.3863
 6103SOL    HW129942   4.349   4.016   4.261  0.4577 -2.1763 -2.1774
 6103SOL    HW229943   4.375   4.150   4.230 -1.0367  0.1252  0.5784
 6104SOL     OW29944   1.140   0.978   2.766  0.3046  0.5767 -0.3127
 6104SOL    HW129945   1.061   0.987   2.713 -0.6487 -0.8541  0.8760
 6104SOL    HW229946   1.120   0.913   2.833 -0.4681 -0.4264 -1.5075
 6105SOL     OW29947   1.536   1.819   4.506  0.5162  0.2367  0.7232
 6105SOL    HW129948   1.488   1.740   4.483 -0.5963  1.3478 -0.8081
 6105SOL    HW229949   1.478   1.891   4.482  0.9629  0.8285  1.4141
 6106SOL     OW29950   3.258   2.651   2.345 -0.2938  0.2985 -0.1447
 6106SOL    HW129951   3.210   2.664   2.427 -1.7976 -0.2559 -0.9309
 6106SOL    HW229952   3.323   2.581   2.358 -2.4505 -1.7671 -0.3548
 6107SOL     OW29953   4.556   0.972   4.138 -0.2124 -0.4309  0.0661
 6107SOL    HW129954   4.531   0.896   4.084 -0.1357  0.9822 -1.9703
 6107SOL    HW229955   4.467   0.997   4.160  0.7121  1.1414  1.9995
 6108SOL     OW29956   3.248   1.276  17.140  0.4653 -0.4043  0.2565
 6108SOL    HW129957   3.290   1.357  17.111  0.8515 -0.7939 -0.2765
 6108SOL    HW229958   3.231   1.231  17.057  0.6805  0.0681 -0.0452
 6109SOL     OW29959   1.019   0.780  10.156  0.0116 -0.1333  0.2755
 6109SOL    HW129960   1.060   0.756  10.239 -0.6349  1.8441  1.1750
 6109SOL    HW229961   1.102   0.789  10.110  0.4822 -1.2270  0.9256
 6110SOL     OW29962   2.255   3.645   2.579 -0.3297  0.2500  0.5488
 6110SOL    HW129963   2.345   3.670   2.559 -0.7658  0.7695 -0.7194
 6110SOL    HW229964   2.263   3.610   2.668 -4.5844 -0.3154  0.7148
 6111SOL     OW29965   1.469   4.531   8.519  0.1711  0.0155  0.5971
 6111SOL    HW129966   1.539   4.522   8.583 -0.0758  0.9606  0.9917
 6111SOL    HW229967   1.482   4.451   8.468 -0.2539  0.5815 -0.3954
 6112SOL     OW29968   3.585   3.152   0.767 -0.4111  0.1548 -0.5726
 6112SOL    HW129969   3.495   3.163   0.738 -0.9422 -1.4401  0.5078
 6112SOL    HW229970   3.574   3.173   0.860  0.6208 -3.0080  0.2694
 6113SOL     OW29971   3.108   2.379  13.826 -0.6317 -0.2673  0.2192
 6113SOL    HW129972   3.071   2.300  13.865  0.1930 -1.1964 -0.8527
 6113SOL    HW229973   3.110   2.448  13.892  1.2436 -0.6363  0.5585
 6114SOL     OW29974   2.603   0.010  17.241  0.0338 -0.2928  0.0244
 6114SOL    HW129975   2.538   0.000  17.310 -0.3116  3.0365  0.1645
 6114SOL    HW229976   2.558   4.715  17.164  0.3434 -2.4861  0.8636
 6115SOL     OW29977   1.405   1.646   3.111  0.0607 -0.5107 -1.2521
 6115SOL    HW129978   1.410   1.587   3.035  1.8900 -1.6880 -0.2340
 6115SOL    HW229979   1.471   1.711   3.086 -0.8436  0.7967 -0.2223
 6116SOL     OW29980   3.412   3.120   8.560 -0.2429 -0.2872  0.0460
 6116SOL    HW129981   3.328   3.168   8.564 -0.3734 -0.2917 -2.7333
 6116SOL    HW229982   3.394   3.030   8.586  0.3216  0.2948  2.4589
 6117SOL     OW29983   0.442   4.575   4.048 -0.5359  0.4831  0.8830
 6117SOL    HW129984   0.517   4.571   4.107 -0.5920  0.5932  0.9629
 6117SOL    HW229985   0.463   4.496   3.999  2.0620  1.3475  0.6273
 6118SOL     OW29986   0.865   3.202   3.138 -0.4748 -0.0695  1.0301
 6118SOL    HW129987   0.953   3.224   3.110 -1.4743  1.2232 -1.0334
 6118SOL    HW229988   0.845   3.146   3.063  3.1245 -1.3534  1.0071
 6119SOL     OW29989   0.713   1.244  12.699 -0.4345  0.4840 -0.2142
 6119SOL    HW129990   0.717   1.191  12.779  0.8122  0.6939 -0.1370
 6119SOL    HW229991   0.726   1.334  12.730 -0.5243  0.0638  1.0234
 6120SOL     OW29992   4.594   3.256   7.532  0.3689 -0.3489  0.3710
 6120SOL    HW129993   4.587   3.179   7.476 -1.1625  0.0666 -0.0042
 6120SOL    HW229994   4.561   3.215   7.612 -1.0614  0.2439  0.0826
 6121SOL     OW29995   3.967   4.360   1.695 -0.0039 -0.0664 -0.1686
 6121SOL    HW129996   4.029   4.433   1.692 -0.3564  0.2322 -0.2598
 6121SOL    HW229997   3.890   4.401   1.655  1.3327  1.5070 -1.1585
 6122SOL     OW29998   2.801   1.940   7.020 -0.2122  0.7128 -0.8683
 6122SOL    HW129999   2.731   1.877   7.007 -0.1808  1.0325 -2.5493
 6122SOL    HW230000   2.849   1.941   6.937  1.4707  0.8791  0.0999
 6123SOL     OW30001   1.977   2.831   2.296  0.6647 -0.1728  0.6951
 6123SOL    HW130002   2.038   2.780   2.241  0.4306  0.6997 -0.3561
 6123SOL    HW230003   1.977   2.786   2.381  0.3633  0.1129  0.8432
 6124SOL     OW30004   0.390   3.184  17.728  0.2889 -0.2747 -0.1448
 6124SOL    HW130005   0.454   3.153   0.030 -1.1554  0.0662  1.5016
 6124SOL    HW230006   0.383   3.276  17.756  0.1264  0.0695 -1.3015
 6125SOL     OW30007   4.602   1.848   9.135  0.0441  0.4474  0.0758
 6125SOL    HW130008   4.672   1.831   9.199 -2.5981  0.7433  3.0080
 6125SOL    HW230009   4.545   1.899   9.192 -1.3692  0.9223 -1.7753
 6126SOL     OW30010   0.668   0.128  12.956  0.1524 -0.3287  0.0799
 6126SOL    HW130011   0.581   0.148  12.922  0.0767 -0.7388  0.0401
 6126SOL    HW230012   0.675   0.044  12.911  0.6081 -0.1760 -0.1465
 6127SOL     OW30013   1.877   3.040   4.568  0.2415  0.2775 -0.2857
 6127SOL    HW130014   1.902   3.123   4.528  0.8753 -0.5064 -1.5249
 6127SOL    HW230015   1.784   3.044   4.590  0.4833  0.7627  0.6662
 6128SOL     OW30016   2.045   2.856   3.073  0.3201 -0.1255 -0.2885
 6128SOL    HW130017   2.118   2.917   3.067  0.3970 -0.0463  1.4551
 6128SOL    HW230018   1.969   2.902   3.038  1.0958  2.8166  1.9288
 6129SOL     OW30019   4.632   1.909  14.208 -0.4826  0.0349 -0.1777
 6129SOL    HW130020   4.569   1.951  14.266  0.8362  1.1067  0.4745
 6129SOL    HW230021   4.620   1.960  14.128 -1.4943 -0.8519 -0.5991
 6130SOL     OW30022   0.544   3.575   3.741 -0.7761 -0.5429 -0.2461
 6130SOL    HW130023   0.627   3.623   3.746  0.4419 -2.4600 -1.7694
 6130SOL    HW230024   0.489   3.647   3.712  1.1149  0.3966 -1.4807
 6131SOL     OW30025   1.023   0.939   2.183  0.6660  0.2341  0.0339
 6131SOL    HW130026   0.952   0.987   2.141  0.3252  0.1845  0.5628
 6131SOL    HW230027   0.999   0.847   2.179 -2.1796  1.0420 -1.4106
 6132SOL     OW30028   3.139   4.608   6.174 -0.1100  0.2761 -0.2157
 6132SOL    HW130029   3.152   4.521   6.137 -0.0691  0.9676 -1.8499
 6132SOL    HW230030   3.045   4.618   6.184 -0.0313  0.5536  0.2395
 6133SOL     OW30031   4.720   1.480   2.989  0.7228  0.6032 -0.3492
 6133SOL    HW130032   0.051   1.543   2.983  0.5125  0.9789  0.9705
 6133SOL    HW230033   4.737   1.451   3.079 -2.5202  1.6448  0.6011
 6134SOL     OW30034   2.103   1.997   9.643  0.2062 -0.0948  0.3134
 6134SOL    HW130035   2.032   1.977   9.705  1.1770 -3.4421  0.3401
 6134SOL    HW230036   2.182   1.974   9.692  0.2940  1.0897  0.7380
 6135SOL     OW30037   0.462   1.003   1.460 -0.1893  0.0029 -0.3940
 6135SOL    HW130038   0.410   0.922   1.464  0.5367 -0.4351  0.1308
 6135SOL    HW230039   0.509   1.011   1.543 -1.6413  0.4865  0.3860
 6136SOL     OW30040   4.261   0.886   7.159 -0.6200  0.4752 -0.6896
 6136SOL    HW130041   4.166   0.881   7.157 -0.6513  1.2809 -1.2457
 6136SOL    HW230042   4.279   0.803   7.204  1.2962  1.4045  0.2919
 6137SOL     OW30043   4.017   1.302   1.555 -0.4629  0.1362  1.1226
 6137SOL    HW130044   4.104   1.262   1.559 -0.8720 -0.9195 -0.5157
 6137SOL    HW230045   3.977   1.221   1.522 -0.0610  1.2312 -2.1089
 6138SOL     OW30046   1.378   0.347   5.784  0.1538 -0.4027  0.3244
 6138SOL    HW130047   1.458   0.357   5.836  1.3112 -1.8095 -1.1846
 6138SOL    HW230048   1.409   0.393   5.706 -1.9990 -2.7908 -1.9116
 6139SOL     OW30049   4.592   3.227   4.338 -0.0378  0.2819  0.1920
 6139SOL    HW130050   4.614   3.302   4.393  1.1544  1.2809 -1.6335
 6139SOL    HW230051   4.674   3.229   4.289  0.8161 -1.5250  1.5396
 6140SOL     OW30052   1.124   0.259   5.253  0.2844 -0.5761 -0.3610
 6140SOL    HW130053   1.092   0.350   5.250 -1.6035 -1.2576 -0.8772
 6140SOL    HW230054   1.081   0.235   5.334 -1.7519 -1.0915 -1.5874
 6141SOL     OW30055   1.384   4.248   8.326 -0.2173 -0.4996  0.5336
 6141SOL    HW130056   1.353   4.226   8.238  1.6414 -1.0311  0.0119
 6141SOL    HW230057   1.473   4.284   8.319 -1.4436  2.8097  2.1595
 6142SOL     OW30058   3.214   0.094   7.615  0.2441 -0.1982 -0.2505
 6142SOL    HW130059   3.243   0.015   7.659 -0.7016 -1.2093 -1.4476
 6142SOL    HW230060   3.284   0.123   7.555  0.1381 -0.1637 -0.3579
 6143SOL     OW30061   3.852   0.327   5.395  0.7286  0.1997 -0.0594
 6143SOL    HW130062   3.808   0.308   5.312  0.5190  1.1002 -0.1472
 6143SOL    HW230063   3.795   0.391   5.437 -0.2468 -0.3777 -0.4992
 6144SOL     OW30064   2.386   0.434   7.011 -0.2433 -0.0435 -0.1694
 6144SOL    HW130065   2.373   0.524   6.983  0.7982  1.0320  2.8331
 6144SOL    HW230066   2.439   0.394   6.942  0.3407  1.1608 -0.4116
 6145SOL     OW30067   1.295   0.200  12.003 -0.3791 -0.2727 -0.2045
 6145SOL    HW130068   1.209   0.232  11.977 -0.3227 -0.2763 -0.3999
 6145SOL    HW230069   1.342   0.284  12.006 -0.1782 -0.4820  2.1992
 6146SOL     OW30070   1.675   0.581   5.393 -0.0978  0.0774  0.5240
 6146SOL    HW130071   1.646   0.672   5.384 -1.0981 -0.2691  0.2825
 6146SOL    HW230072   1.770   0.591   5.396  0.0123  0.1222 -3.0208
 6147SOL     OW30073   1.256   0.810   4.384  0.0333  0.1113 -0.8481
 6147SOL    HW130074   1.225   0.892   4.423  1.1578  0.6078 -0.9954
 6147SOL    HW230075   1.244   0.746   4.454 -0.1325  0.3536 -0.6540
 6148SOL     OW30076   3.986   1.665   3.415  0.2623  0.2825 -0.2658
 6148SOL    HW130077   3.922   1.735   3.405 -0.4993 -0.2816  0.6540
 6148SOL    HW230078   4.026   1.650   3.329  2.3775 -1.1484  0.9790
 6149SOL     OW30079   0.222   3.231   0.862 -0.1243  0.3572 -0.4279
 6149SOL    HW130080   0.242   3.308   0.810  0.4619  0.4498 -0.0596
 6149SOL    HW230081   0.160   3.196   0.797  1.1096  0.1799 -1.5041
 6150SOL     OW30082   4.263   1.958  16.162 -0.0992  0.6345  0.3922
 6150SOL    HW130083   4.212   1.900  16.104  1.1871 -1.0549  0.9435
 6150SOL    HW230084   4.268   2.033  16.103  0.8790 -0.4075 -0.8363
 6151SOL     OW30085   1.781   3.684   2.091  0.6303  0.5863 -0.2708
 6151SOL    HW130086   1.864   3.640   2.108 -0.2605  0.1098  2.8702
 6151SOL    HW230087   1.726   3.605   2.091  0.4023  0.7451 -1.2659
 6152SOL     OW30088   2.726   0.043   8.914  0.4468 -0.3914  0.1834
 6152SOL    HW130089   2.763   4.724   8.850 -0.3020  2.1333 -2.6094
 6152SOL    HW230090   2.641   0.002   8.930  0.1297 -0.1499 -0.8766
 6153SOL     OW30091   0.967   4.444  10.453  0.6371  0.3117  0.4212
 6153SOL    HW130092   0.961   4.349  10.454  0.1474  0.3375 -0.0966
 6153SOL    HW230093   0.996   4.448  10.545 -1.9390  0.5489  1.2230
 6154SOL     OW30094   1.206   4.051  14.027 -0.5147  0.4458 -0.0418
 6154SOL    HW130095   1.294   4.062  14.063  0.1683 -1.8703 -0.9703
 6154SOL    HW230096   1.209   3.965  13.986  0.4282  0.0253  0.9022
 6155SOL     OW30097   4.641   3.349   6.746 -0.1624 -0.0358 -1.0615
 6155SOL    HW130098   4.615   3.257   6.747  0.8712 -0.3250 -1.0438
 6155SOL    HW230099   4.705   3.353   6.817 -1.0827 -0.6865 -0.1796
 6156SOL     OW30100   4.282   2.779   6.130 -0.3938 -0.2689 -0.0550
 6156SOL    HW130101   4.234   2.827   6.063 -0.8248  1.3685  1.3987
 6156SOL    HW230102   4.280   2.688   6.102 -0.1427 -0.3418  0.1623
 6157SOL     OW30103   4.279   0.010  12.534 -0.1476  0.0507 -0.0368
 6157SOL    HW130104   4.222   4.681  12.566 -0.3965  0.5895  0.6826
 6157SOL    HW230105   4.299   4.719  12.446 -1.0383 -0.0487 -0.2071
 6158SOL     OW30106   1.429   0.163   1.706 -0.5668 -0.2966  0.6746
 6158SOL    HW130107   1.480   0.106   1.649 -0.1708  1.5004 -0.7755
 6158SOL    HW230108   1.432   0.238   1.647  0.2827  0.0300  1.1406
 6159SOL     OW30109   0.274   0.128   8.342 -0.7517 -0.3302  0.2068
 6159SOL    HW130110   0.206   0.188   8.374  2.3737  2.3601  1.8858
 6159SOL    HW230111   0.297   0.081   8.422  0.6288 -1.7010 -0.9995
 6160SOL     OW30112   1.374   3.434   2.075  0.0670  0.0680 -0.0948
 6160SOL    HW130113   1.321   3.403   2.002  0.5466 -1.0922  0.0408
 6160SOL    HW230114   1.306   3.420   2.141  1.0588 -0.0883  0.9046
 6161SOL     OW30115   2.126   0.811  11.471 -0.2734  0.1095  0.5112
 6161SOL    HW130116   2.198   0.875  11.470  0.0508 -0.2572 -2.9369
 6161SOL    HW230117   2.068   0.868  11.421  0.3820 -0.8023 -1.3016
 6162SOL     OW30118   3.053   2.227   0.251  1.1777 -0.3584 -0.3541
 6162SOL    HW130119   2.986   2.288   0.282 -0.9395 -1.9778 -1.7455
 6162SOL    HW230120   3.027   2.145   0.294 -1.1187  0.5658  0.0220
 6163SOL     OW30121   3.435   2.452   4.445 -0.1859 -0.2592  0.0361
 6163SOL    HW130122   3.399   2.500   4.520 -0.5293  1.7354 -1.3859
 6163SOL    HW230123   3.359   2.404   4.413 -1.4106  2.7189 -1.5923
 6164SOL     OW30124   4.599   4.665   7.675 -0.5614  0.4823  0.1808
 6164SOL    HW130125   4.613   4.706   7.760 -0.3564 -0.1563  0.4552
 6164SOL    HW230126   4.569   4.733   7.615 -0.0609  1.5215  1.1077
 6165SOL     OW30127   2.490   2.393  17.162 -0.5797 -0.0657  0.0542
 6165SOL    HW130128   2.438   2.329  17.114 -0.4894  0.0676 -0.2176
 6165SOL    HW230129   2.546   2.337  17.216 -1.6446 -0.1497  1.0800
 6166SOL     OW30130   0.049   4.353   2.452 -0.4148 -0.2833  0.5630
 6166SOL    HW130131   4.714   4.297   2.436  1.0328 -1.4756 -2.0858
 6166SOL    HW230132   0.100   4.302   2.515  2.0733 -0.2487 -1.4351
 6167SOL     OW30133   3.168   2.204   5.055 -0.2693  0.3139  0.2256
 6167SOL    HW130134   3.226   2.279   5.041  1.2760 -0.8270  0.5509
 6167SOL    HW230135   3.132   2.198   4.966 -1.6343 -2.7731  0.9912
 6168SOL     OW30136   0.149   4.529  13.926 -0.1562  0.3660  0.2935
 6168SOL    HW130137   0.227   4.576  13.895 -0.7509  1.3971  0.3572
 6168SOL    HW230138   0.192   4.472  13.990 -1.6852 -0.3243  0.6909
 6169SOL     OW30139   2.879   0.165   6.303  0.5837  0.3328  0.5910
 6169SOL    HW130140   2.940   0.151   6.230  1.4026  0.1388  1.3079
 6169SOL    HW230141   2.937   0.201   6.371  0.1101  1.9833  0.1292
 6170SOL     OW30142   2.146   1.809   2.756 -0.0161 -0.6374  0.4516
 6170SOL    HW130143   2.116   1.769   2.838 -2.0328 -0.0415 -0.0073
 6170SOL    HW230144   2.162   1.734   2.698 -1.3284  1.0232 -2.0541
 6171SOL     OW30145   3.845   3.213   6.665  0.6272 -0.2425 -0.6114
 6171SOL    HW130146   3.940   3.202   6.666  0.6078 -0.5275 -2.2544
 6171SOL    HW230147   3.813   3.178   6.582  1.3097  0.5220 -1.1819
 6172SOL     OW30148   3.934   3.811   4.926  0.2940 -0.1142  0.0992
 6172SOL    HW130149   3.976   3.884   4.972  2.7353 -0.4303 -1.6061
 6172SOL    HW230150   3.884   3.767   4.994  0.4861  0.4832  0.6309
 6173SOL     OW30151   0.230   1.050   0.637 -0.0095 -0.3080  0.4655
 6173SOL    HW130152   0.181   1.120   0.679 -0.1042  0.7123 -1.3195
 6173SOL    HW230153   0.169   0.991   0.594  2.7171 -2.6994 -0.1459
 6174SOL     OW30154   2.890   3.113  14.678  0.4188 -0.0446 -0.3444
 6174SOL    HW130155   2.818   3.078  14.731 -0.7642  1.1596 -1.1889
 6174SOL    HW230156   2.909   3.034  14.627 -0.5149 -0.5872  0.1375
 6175SOL     OW30157   1.497   4.665  10.180  0.3331  0.2167 -0.2692
 6175SOL    HW130158   1.571   4.697  10.232  0.3835 -0.7643  0.2625
 6175SOL    HW230159   1.434   4.736  10.173 -0.3160 -0.4071 -0.7500
 6176SOL     OW30160   0.476   2.140   2.610 -0.2724  0.5548  0.0118
 6176SOL    HW130161   0.567   2.126   2.583 -0.3566  0.2794 -0.1347
 6176SOL    HW230162   0.436   2.053   2.610  1.7379 -0.3869  0.6113
 6177SOL     OW30163   1.944   3.851  14.149  0.0190 -0.4617  0.3094
 6177SOL    HW130164   2.016   3.823  14.206 -0.3061 -1.5105  0.2070
 6177SOL    HW230165   1.974   3.935  14.114  1.3080 -0.6704  0.9171
 6178SOL     OW30166   1.832   1.329   5.770 -0.4461 -0.4804  0.2599
 6178SOL    HW130167   1.791   1.317   5.684 -0.9356  1.1616  0.2699
 6178SOL    HW230168   1.752   1.363   5.812  0.3093 -0.3190  1.5621
 6179SOL     OW30169   2.491   1.222   3.080 -0.4629 -0.0905 -0.2558
 6179SOL    HW130170   2.536   1.148   3.040 -1.2691 -0.2858 -0.8079
 6179SOL    HW230171   2.406   1.184   3.102  0.3414  0.2562  3.4474
 6180SOL     OW30172   1.051   3.227  14.811 -0.0685 -0.1117 -0.0622
 6180SOL    HW130173   1.047   3.226  14.907 -0.0588 -2.4674 -0.0907
 6180SOL    HW230174   1.033   3.321  14.803 -2.0135 -0.5252 -0.6881
 6181SOL     OW30175   4.107   4.165  13.394  0.0904 -0.1935  0.0522
 6181SOL    HW130176   4.015   4.181  13.372 -0.4733 -1.5559  1.3979
 6181SOL    HW230177   4.148   4.250  13.406 -0.4255  0.2692 -1.3343
 6182SOL     OW30178   4.591   3.529  13.044  0.6339 -0.1064  0.0879
 6182SOL    HW130179   4.522   3.541  12.979  1.7801 -1.2026 -1.3396
 6182SOL    HW230180   4.638   3.450  13.015  1.7177  0.2011  1.0182
 6183SOL     OW30181   3.824   2.436   1.855 -0.1481 -0.0938  0.1153
 6183SOL    HW130182   3.785   2.514   1.814  0.3040 -0.3427 -0.7711
 6183SOL    HW230183   3.916   2.462   1.850 -0.1730  0.1127  0.7490
 6184SOL     OW30184   1.835   1.485   8.728  0.1484  0.6695 -0.3257
 6184SOL    HW130185   1.843   1.495   8.823 -0.7252 -1.6525 -0.0189
 6184SOL    HW230186   1.776   1.410   8.736 -1.3055  1.5237 -3.1323
 6185SOL     OW30187   3.368   0.976  11.269 -0.8382  0.1401  0.3161
 6185SOL    HW130188   3.417   1.009  11.344  0.3253  0.3126 -0.5226
 6185SOL    HW230189   3.341   1.055  11.222  0.0645 -0.0936 -0.6079
 6186SOL     OW30190   3.671   2.481   0.161  0.1301 -0.2272  0.2650
 6186SOL    HW130191   3.635   2.431   0.234  2.3473  0.3618  1.7624
 6186SOL    HW230192   3.644   2.565   0.199 -1.8153  0.4527 -2.5846
 6187SOL     OW30193   1.777   2.849   7.769  0.2349 -0.1558  0.3280
 6187SOL    HW130194   1.867   2.824   7.750  0.3343  0.2254  0.2999
 6187SOL    HW230195   1.779   2.944   7.755 -0.5293 -0.1966 -0.0729
 6188SOL     OW30196   4.721   4.161   5.498  0.2176 -0.0471  0.5369
 6188SOL    HW130197   0.026   4.080   5.473  2.2404  1.3995 -0.4419
 6188SOL    HW230198   4.725   4.157   5.593  2.4706  1.3237  0.5097
 6189SOL     OW30199   0.582   4.290   2.204 -0.3305 -0.4766 -0.2151
 6189SOL    HW130200   0.622   4.376   2.192 -0.3475 -1.0014 -4.0372
 6189SOL    HW230201   0.523   4.308   2.277 -1.2767  3.6059 -1.9728
 6190SOL     OW30202   1.628   3.948   1.657 -0.5191 -0.1490 -0.3898
 6190SOL    HW130203   1.706   3.991   1.692 -0.1515 -0.5481 -0.7271
 6190SOL    HW230204   1.558   4.006   1.686 -0.5152  1.0966 -2.9296
 6191SOL     OW30205   1.752   4.168   7.559 -0.3439  0.0690  0.3921
 6191SOL    HW130206   1.726   4.080   7.586 -0.5853  0.3390  1.0404
 6191SOL    HW230207   1.727   4.166   7.466  1.8723  0.5911 -0.2209
 6192SOL     OW30208   3.651   1.609   3.852  0.2095 -0.1522 -0.4498
 6192SOL    HW130209   3.633   1.611   3.758 -2.0660  1.7762  0.0216
 6192SOL    HW230210   3.561   1.589   3.876  0.2582 -1.9122 -1.6786
 6193SOL     OW30211   0.748   2.248   4.668  0.5986 -0.2595 -0.1802
 6193SOL    HW130212   0.710   2.162   4.653 -0.7833  0.1919  0.7391
 6193SOL    HW230213   0.775   2.254   4.577  2.4655  1.0072  0.4459
 6194SOL     OW30214   1.707   2.293  14.988 -0.2085  0.0082  0.0209
 6194SOL    HW130215   1.621   2.253  14.998  1.3622 -3.1364  0.8530
 6194SOL    HW230216   1.678   2.384  14.990 -3.3773 -0.9693 -1.7461
 6195SOL     OW30217   4.739   3.863   5.830  0.1479 -0.2963  0.4557
 6195SOL    HW130218   4.667   3.925   5.825  0.7682  0.4850  1.1972
 6195SOL    HW230219   0.023   3.861   5.922 -0.2432  2.1912  0.6062
 6196SOL     OW30220   0.862   4.088   4.372  0.0624 -0.3299  0.7949
 6196SOL    HW130221   0.846   4.022   4.304  0.6121 -1.3386  1.6398
 6196SOL    HW230222   0.786   4.089   4.431 -1.0089 -1.2463 -0.5740
 6197SOL     OW30223   1.664   3.591   8.553 -0.6889 -0.4094 -0.5963
 6197SOL    HW130224   1.611   3.629   8.483  0.4608 -0.1183 -1.3121
 6197SOL    HW230225   1.604   3.546   8.611 -0.2941 -1.1119 -0.7352
 6198SOL     OW30226   0.610   3.428  10.032  0.0380 -0.2301 -0.1631
 6198SOL    HW130227   0.520   3.462  10.033  0.6206  1.2722  1.4723
 6198SOL    HW230228   0.640   3.455  10.119 -0.8308 -2.0939  0.7194
 6199SOL     OW30229   2.289   2.913   0.478 -0.2431 -0.2396  0.2785
 6199SOL    HW130230   2.229   2.988   0.478  0.2764  0.1802 -0.6752
 6199SOL    HW230231   2.340   2.921   0.558 -0.3580 -1.0778  0.4347
 6200SOL     OW30232   2.829   0.605   4.124 -0.1794  0.1339  0.4571
 6200SOL    HW130233   2.829   0.512   4.101 -1.1850 -0.1785  1.7219
 6200SOL    HW230234   2.824   0.583   4.217  1.0906  0.0012  0.4970
 6201SOL     OW30235   3.442   0.575   7.820 -0.3867 -0.0744 -0.3858
 6201SOL    HW130236   3.416   0.535   7.738  0.1843 -1.7762  0.2711
 6201SOL    HW230237   3.368   0.550   7.875  0.2738  1.4496  1.2055
 6202SOL     OW30238   1.389   3.040   7.758  0.3180  1.0884  0.1913
 6202SOL    HW130239   1.400   3.130   7.790  1.5582  1.0647 -0.2024
 6202SOL    HW230240   1.344   3.066   7.677  1.0126  0.3478 -0.4344
 6203SOL     OW30241   0.806   0.501   1.744  0.2614  0.1194  0.2619
 6203SOL    HW130242   0.798   0.463   1.657  1.5360  0.7809 -0.1420
 6203SOL    HW230243   0.863   0.578   1.738  0.1049  0.1081 -1.3582
 6204SOL     OW30244   3.668   1.546   0.000 -0.2350 -0.1371  0.6638
 6204SOL    HW130245   3.724   1.598  17.703 -0.0561 -1.1065 -0.0252
 6204SOL    HW230246   3.609   1.613   0.035  0.4476  1.2467 -0.8399
 6205SOL     OW30247   3.145   4.649  12.516  0.8311  0.2892  0.8575
 6205SOL    HW130248   3.233   4.680  12.494  0.5348 -0.2705 -1.1740
 6205SOL    HW230249   3.144   4.651  12.611 -0.1300 -0.0870  0.8596
 6206SOL     OW30250   4.343   3.522   7.026 -0.7389  0.1599  0.6609
 6206SOL    HW130251   4.266   3.488   6.980  1.1303 -0.2265 -2.1739
 6206SOL    HW230252   4.337   3.613   6.997  0.8655 -1.0492 -3.5903
 6207SOL     OW30253   4.331   4.035   1.130  0.8078  0.3043 -0.1337
 6207SOL    HW130254   4.250   3.987   1.113  0.2666  1.3001 -0.3670
 6207SOL    HW230255   4.395   3.967   1.149 -0.1650 -0.7449 -0.5997
 6208SOL     OW30256   3.505   3.406  11.661  0.2264  0.1390  0.5131
 6208SOL    HW130257   3.490   3.312  11.660 -1.2424  0.3844 -0.7528
 6208SOL    HW230258   3.414   3.433  11.646  0.3759  1.1379  1.4242
 6209SOL     OW30259   1.960   2.541   4.047  0.8157 -0.7047 -0.5368
 6209SOL    HW130260   1.917   2.616   4.007 -0.3831 -0.4559  1.2523
 6209SOL    HW230261   1.969   2.563   4.139 -0.6563 -1.0346 -0.3188
 6210SOL     OW30262   1.405   4.163   8.014 -0.1704  0.1457  0.5644
 6210SOL    HW130263   1.338   4.201   7.957 -1.8011 -1.8590  1.1175
 6210SOL    HW230264   1.488   4.191   7.974 -0.1829 -1.1640 -0.3971
 6211SOL     OW30265   4.658   3.694   6.076 -0.2464  0.0929 -0.0634
 6211SOL    HW130266   4.580   3.728   6.122  0.4004  1.1915  0.2239
 6211SOL    HW230267   4.653   3.601   6.095  0.2651  0.0091 -0.3430
 6212SOL     OW30268   2.196   0.887   1.614 -0.8693 -0.0368 -0.4787
 6212SOL    HW130269   2.110   0.928   1.601 -0.6895  0.8380  1.2129
 6212SOL    HW230270   2.251   0.965   1.606 -2.7687  1.3288 -0.3336
 6213SOL     OW30271   3.748   2.747  16.503  0.3111 -0.1587  0.0610
 6213SOL    HW130272   3.682   2.716  16.441 -0.5342  0.7852  0.4905
 6213SOL    HW230273   3.690   2.790  16.565 -0.3470  0.9787 -1.3238
 6214SOL     OW30274   2.257   4.248  12.696  0.3302 -0.2454 -0.4014
 6214SOL    HW130275   2.252   4.157  12.723 -0.0630 -0.1254 -0.0591
 6214SOL    HW230276   2.164   4.270  12.707  0.4767  0.2991 -0.2438
 6215SOL     OW30277   2.157   2.762   4.193  0.0048 -0.0440 -0.1079
 6215SOL    HW130278   2.237   2.808   4.219 -0.3775  0.6588 -0.1910
 6215SOL    HW230279   2.102   2.806   4.258  0.2377  0.3261 -0.1638
 6216SOL     OW30280   3.211   0.410  17.562 -0.8084  0.3602  0.1044
 6216SOL    HW130281   3.153   0.480  17.533 -1.4802  0.9361  2.8214
 6216SOL    HW230282   3.243   0.452  17.642 -1.3825 -1.5383  1.3304
 6217SOL     OW30283   4.450   1.666   5.145  0.3756 -0.3544 -0.1228
 6217SOL    HW130284   4.444   1.695   5.236  1.6539  0.5289 -0.3278
 6217SOL    HW230285   4.508   1.592   5.165 -2.4027 -1.8652  2.2723
 6218SOL     OW30286   3.786   1.520   0.277 -0.2553  0.2212  0.2974
 6218SOL    HW130287   3.758   1.595   0.225  1.4044  0.9822  0.4925
 6218SOL    HW230288   3.865   1.549   0.322  0.2572 -0.5006 -0.1434
 6219SOL     OW30289   4.488   0.106   4.954 -0.8806 -0.6530  0.0956
 6219SOL    HW130290   4.552   0.117   4.884 -0.1507 -1.8586  0.5643
 6219SOL    HW230291   4.538   0.037   4.999 -0.5858 -0.6600 -0.2451
 6220SOL     OW30292   0.147   0.642   5.136 -0.1815  0.0953  0.3075
 6220SOL    HW130293   0.198   0.655   5.056 -0.3776 -2.9686 -0.3174
 6220SOL    HW230294   0.207   0.668   5.206 -0.4705  2.4329 -0.3207
 6221SOL     OW30295   1.484   2.636   3.852 -0.0975 -0.4924 -0.1113
 6221SOL    HW130296   1.545   2.565   3.829 -0.2646 -0.2532 -1.3114
 6221SOL    HW230297   1.529   2.667   3.930  0.1608 -0.3108 -0.3334
 6222SOL     OW30298   4.705   3.502   1.662  0.6658  0.0235 -0.1494
 6222SOL    HW130299   4.666   3.416   1.673 -0.1503  0.6412  1.7906
 6222SOL    HW230300   0.045   3.489   1.711  1.3268  4.2382 -0.1458
 6223SOL     OW30301   1.219   3.747  14.042  0.1540 -0.3764  0.3856
 6223SOL    HW130302   1.254   3.669  13.999  3.2074 -0.2495  2.6620
 6223SOL    HW230303   1.134   3.759  14.000  1.1284  1.7904 -0.9644
 6224SOL     OW30304   4.465   1.258   7.500  0.1912 -0.5111 -0.3278
 6224SOL    HW130305   4.492   1.325   7.438  1.1121 -1.8616 -1.3804
 6224SOL    HW230306   4.382   1.298   7.526  0.9897  0.2817  1.0227
 6225SOL     OW30307   0.570   2.077   3.199 -0.0076  0.2515  0.3303
 6225SOL    HW130308   0.664   2.079   3.217  0.5199 -1.9063 -2.0416
 6225SOL    HW230309   0.573   2.066   3.104 -1.7111 -0.7217  0.3910
 6226SOL     OW30310   4.440   3.846   6.634  0.2699  0.2884  0.4968
 6226SOL    HW130311   4.445   3.941   6.644  4.1031  0.1194  0.2204
 6226SOL    HW230312   4.349   3.837   6.661 -0.4845  2.2457 -1.3925
 6227SOL     OW30313   4.650   2.963   3.653  0.3060 -0.4677 -0.1691
 6227SOL    HW130314   4.740   2.996   3.645  0.3033 -0.4561 -0.1515
 6227SOL    HW230315   4.640   2.985   3.745  2.5959 -0.5186  0.1026
 6228SOL     OW30316   1.268   4.483   6.683 -0.2144  0.7168 -0.0752
 6228SOL    HW130317   1.211   4.540   6.632 -0.2168 -0.0031 -0.8823
 6228SOL    HW230318   1.246   4.513   6.771 -0.8326  1.2568 -0.4197
 6229SOL     OW30319   2.602   2.448   0.959  0.1543  0.5599 -0.1637
 6229SOL    HW130320   2.649   2.404   0.889 -1.1191  0.5244 -0.9929
 6229SOL    HW230321   2.544   2.375   0.979 -0.4569  1.0020 -0.3370
 6230SOL     OW30322   1.100   4.600   2.430 -0.1092 -0.1692  0.9008
 6230SOL    HW130323   1.174   4.540   2.435  1.4589  1.5790 -1.6579
 6230SOL    HW230324   1.139   4.679   2.393 -1.9582 -0.3049 -1.3461
 6231SOL     OW30325   1.600   2.463   2.433 -0.5018  0.1581  0.0995
 6231SOL    HW130326   1.591   2.529   2.502  0.9173 -0.0548  0.4929
 6231SOL    HW230327   1.547   2.388   2.459  0.4037 -0.4009  0.3241
 6232SOL     OW30328   2.310   0.180   8.155 -0.2677 -0.5885  0.7202
 6232SOL    HW130329   2.231   0.167   8.207 -0.6589 -0.2317  0.2144
 6232SOL    HW230330   2.283   0.134   8.075  0.9966 -0.9045  0.4745
 6233SOL     OW30331   2.377   3.162   8.579 -0.1969 -1.0423  0.1671
 6233SOL    HW130332   2.350   3.078   8.544 -0.7308  0.0055 -1.8940
 6233SOL    HW230333   2.379   3.206   8.494 -3.2287  2.7853  2.0752
 6234SOL     OW30334   0.344   3.363   4.743  0.1578  0.0701  0.4094
 6234SOL    HW130335   0.336   3.458   4.733 -0.9401 -0.1020 -0.3532
 6234SOL    HW230336   0.351   3.337   4.651  1.2720  2.5581 -0.2148
 6235SOL     OW30337   2.288   0.103   7.596  0.4723  0.2100 -0.2441
 6235SOL    HW130338   2.330   0.179   7.554 -1.6224  1.6284  0.2022
 6235SOL    HW230339   2.345   0.039   7.554  0.0197 -1.7003  2.0831
 6236SOL     OW30340   4.030   0.407   4.235 -0.3596 -0.6802 -0.1823
 6236SOL    HW130341   3.962   0.463   4.198  1.9094  2.0482 -0.1616
 6236SOL    HW230342   4.110   0.457   4.242 -0.7680  0.0106 -0.4079
 6237SOL     OW30343   2.643   1.351   9.574  0.6158  0.0651  0.4305
 6237SOL    HW130344   2.701   1.397   9.513 -1.6389  0.4312 -1.4693
 6237SOL    HW230345   2.561   1.401   9.578  0.3146 -0.3115 -0.9164
 6238SOL     OW30346   0.165   0.716   7.952 -0.0179  0.0747 -0.0623
 6238SOL    HW130347   0.114   0.782   7.904  0.7919  0.4456 -0.4047
 6238SOL    HW230348   0.172   0.745   8.043 -0.1522  0.1432 -0.0729
 6239SOL     OW30349   0.020   3.951   6.304 -0.3074 -0.3179 -0.3723
 6239SOL    HW130350   4.675   3.909   6.290 -0.7232 -0.2633  2.0566
 6239SOL    HW230351   0.043   3.980   6.216  2.9204  0.2562  0.6837
 6240SOL     OW30352   4.623   2.106  17.664 -0.1456  0.7509 -0.0874
 6240SOL    HW130353   4.562   2.068  17.601  0.9885 -3.1777  1.2002
 6240SOL    HW230354   4.621   2.197  17.634  0.9751  1.1890  1.1412
 6241SOL     OW30355   3.752   4.689   2.070  0.2233 -0.4691  0.0568
 6241SOL    HW130356   3.686   4.658   2.006 -1.6674  0.0026  1.7771
 6241SOL    HW230357   3.691   4.713   2.140 -0.7154 -2.4348 -0.0660
 6242SOL     OW30358   0.641   2.061   3.891  0.0255  0.0583 -1.1785
 6242SOL    HW130359   0.640   2.156   3.909 -2.4760 -0.6062  2.3253
 6242SOL    HW230360   0.708   2.025   3.949 -1.4584 -0.9757 -0.0933
 6243SOL     OW30361   3.993   1.591  11.494  0.6215  0.1044 -0.0060
 6243SOL    HW130362   4.041   1.510  11.473  0.5353  0.0432  0.0356
 6243SOL    HW230363   3.987   1.577  11.589  0.6418 -3.3823 -0.5253
 6244SOL     OW30364   4.640   2.943   1.798  0.1554  0.2013  0.4396
 6244SOL    HW130365   4.698   2.983   1.733  1.6918 -1.7230  0.6471
 6244SOL    HW230366   4.553   2.974   1.770 -0.6110 -2.1937  0.1662
 6245SOL     OW30367   0.649   1.352   8.934  0.2248 -0.8920 -0.2358
 6245SOL    HW130368   0.691   1.414   8.994 -4.3282  2.5435 -0.5437
 6245SOL    HW230369   0.631   1.275   8.988  1.2573 -0.5087  0.6502
 6246SOL     OW30370   0.441   0.853  12.225  0.0732 -0.6021 -0.2820
 6246SOL    HW130371   0.482   0.904  12.295  0.3976 -3.1557  1.3928
 6246SOL    HW230372   0.406   0.783  12.279  0.0965 -1.3646 -1.2655
 6247SOL     OW30373   0.482   4.179   0.681  0.1537 -0.3165  0.1757
 6247SOL    HW130374   0.553   4.213   0.736  3.0545 -1.0234 -3.0988
 6247SOL    HW230375   0.414   4.240   0.707 -0.2000  0.0493 -1.5834
 6248SOL     OW30376   4.675   0.640   6.260  0.2765 -0.0531  0.0989
 6248SOL    HW130377   4.649   0.571   6.199 -0.3259 -0.3879  0.7291
 6248SOL    HW230378   4.648   0.709   6.200 -1.7424 -0.6052  0.3776
 6249SOL     OW30379   1.698   1.183   3.600 -0.4960 -0.9193 -0.2560
 6249SOL    HW130380   1.695   1.267   3.645 -0.9556 -1.0294 -0.0822
 6249SOL    HW230381   1.791   1.175   3.578 -1.2172  0.1102 -3.6884
 6250SOL     OW30382   3.741   0.311   5.954 -0.1323  0.0483  0.0144
 6250SOL    HW130383   3.673   0.266   5.904  0.6041 -0.2473 -0.7184
 6250SOL    HW230384   3.681   0.336   6.025 -0.6685  2.6847 -1.3782
 6251SOL     OW30385   2.841   1.092   7.379  0.2297 -0.2322  0.4809
 6251SOL    HW130386   2.850   1.115   7.286 -0.1349 -0.8646  0.2856
 6251SOL    HW230387   2.931   1.108   7.405  0.9375  0.4162 -2.3156
 6252SOL     OW30388   3.423   0.436   9.421 -0.1061  0.2594  0.1525
 6252SOL    HW130389   3.334   0.412   9.395 -0.6082  1.7242  0.5317
 6252SOL    HW230390   3.402   0.441   9.514 -1.5323 -1.1459 -0.0928
 6253SOL     OW30391   2.343   1.444   8.946  0.1700  0.7011  0.7976
 6253SOL    HW130392   2.341   1.434   8.851  0.8653  0.7014  0.7897
 6253SOL    HW230393   2.274   1.507   8.971 -1.3984 -1.1023  1.0172
 6254SOL     OW30394   3.062   2.911   3.141  0.0419  0.3030  0.2842
 6254SOL    HW130395   3.104   2.862   3.211  0.4700 -0.6579 -0.6544
 6254SOL    HW230396   2.981   2.863   3.130  0.5901 -0.3775 -0.7267
 6255SOL     OW30397   2.695   2.983   4.935 -0.7276  0.0035  0.5653
 6255SOL    HW130398   2.668   2.925   4.864 -1.4161  2.9723 -1.5756
 6255SOL    HW230399   2.632   3.056   4.933 -0.2741  0.3295 -1.4588
 6256SOL     OW30400   3.071   0.045  17.374  0.0945 -0.4971  0.3464
 6256SOL    HW130401   3.136   0.089  17.319  0.0181  1.5062  1.8483
 6256SOL    HW230402   2.999   0.084  17.325  1.5910  0.9062 -0.7702
 6257SOL     OW30403   3.317   1.310  14.799  0.2606  0.6609  0.2772
 6257SOL    HW130404   3.254   1.304  14.871 -0.0167  2.7327  0.2300
 6257SOL    HW230405   3.263   1.375  14.753 -0.6822 -1.1763 -1.1766
 6258SOL     OW30406   3.498   3.052   1.679 -0.1935 -0.2037 -0.2817
 6258SOL    HW130407   3.443   3.108   1.624  0.2807  0.0139 -0.5359
 6258SOL    HW230408   3.473   2.967   1.645  0.9689 -0.7979  0.3418
 6259SOL     OW30409   1.844   4.377   0.219  0.2666  0.3392  0.1323
 6259SOL    HW130410   1.867   4.400   0.129 -0.9707  0.5137 -0.1413
 6259SOL    HW230411   1.766   4.324   0.201 -0.4850  1.0194  1.4519
 6260SOL     OW30412   0.761   0.063   4.355 -0.2809  0.1379 -0.0370
 6260SOL    HW130413   0.829   0.111   4.402  0.2664 -0.9278  0.2710
 6260SOL    HW230414   0.705   0.043   4.430  1.2938 -5.8622 -0.4678
 6261SOL     OW30415   4.689   4.247   9.988  0.3903 -0.7108 -0.1862
 6261SOL    HW130416   0.010   4.182   9.955  0.9303 -1.6468  2.6816
 6261SOL    HW230417   4.671   4.208  10.073  0.2763  0.2800  0.2491
 6262SOL     OW30418   2.016   4.382   3.239  0.1680  0.1047  0.1594
 6262SOL    HW130419   1.954   4.424   3.179  0.0459  0.3235  0.4354
 6262SOL    HW230420   2.010   4.436   3.319  1.0007  0.7470 -0.2186
 6263SOL     OW30421   4.404   2.846   3.523 -0.5561  0.4944  0.0195
 6263SOL    HW130422   4.431   2.755   3.532  0.6248  0.9483  1.0985
 6263SOL    HW230423   4.483   2.889   3.556 -0.4130 -0.3920  0.8296
 6264SOL     OW30424   2.218   4.550   0.816 -0.2810 -0.2813  0.6784
 6264SOL    HW130425   2.199   4.476   0.758  0.0904  0.0669  0.1036
 6264SOL    HW230426   2.305   4.570   0.781  0.9918 -0.4496  3.7401
 6265SOL     OW30427   2.819   4.471  13.952 -0.1070  0.5464 -0.4566
 6265SOL    HW130428   2.753   4.501  14.014 -3.0329 -2.9821 -1.8199
 6265SOL    HW230429   2.901   4.510  13.982 -0.5403  2.8570 -2.2780
 6266SOL     OW30430   0.346   2.696   7.924  0.3287 -0.2680  0.4921
 6266SOL    HW130431   0.286   2.709   7.851 -1.2959  0.6961  1.9943
 6266SOL    HW230432   0.391   2.780   7.924 -0.5392  0.1895  2.1453
 6267SOL     OW30433   2.860   3.433  10.862 -0.3052  0.1893  0.0607
 6267SOL    HW130434   2.895   3.521  10.853  2.5390 -1.2175 -2.4697
 6267SOL    HW230435   2.930   3.385  10.906 -0.1191  0.9440  0.5800
 6268SOL     OW30436   0.540   1.346  17.359 -0.0577 -0.4166 -0.0471
 6268SOL    HW130437   0.626   1.387  17.370  0.2337 -0.6893 -1.2859
 6268SOL    HW230438   0.495   1.430  17.348 -2.0409 -1.6145 -1.0056
 6269SOL     OW30439   0.060   1.109   3.372  0.7470 -0.0882 -0.3428
 6269SOL    HW130440   0.094   1.101   3.461  1.3516  0.3502 -0.5381
 6269SOL    HW230441   4.714   1.071   3.388 -0.2055  0.9890 -2.9637
 6270SOL     OW30442   0.239   0.942   5.227  0.3087 -0.6896 -0.1727
 6270SOL    HW130443   0.318   0.961   5.177 -0.0618  2.3353  0.3438
 6270SOL    HW230444   0.189   0.875   5.181  0.9541 -1.4750  0.2718
 6271SOL     OW30445   2.435   3.847   1.722 -0.3632  1.1948  0.0230
 6271SOL    HW130446   2.520   3.888   1.709 -1.1934  2.6742 -0.7746
 6271SOL    HW230447   2.399   3.871   1.637  0.3281  1.7944 -0.0962
 6272SOL     OW30448   0.380   3.273   7.682  0.2281 -0.3975  0.1883
 6272SOL    HW130449   0.447   3.301   7.620 -0.4877  0.6277 -0.1132
 6272SOL    HW230450   0.297   3.306   7.647  1.7467 -0.0930 -3.1693
 6273SOL     OW30451   0.540   2.466  14.482 -0.0051  0.1628 -0.0701
 6273SOL    HW130452   0.568   2.543  14.530  0.4538  2.8370 -4.5927
 6273SOL    HW230453   0.545   2.503  14.394  1.3402  0.3033  0.0684
 6274SOL     OW30454   2.412   4.642   6.052 -0.5835 -0.0739  0.2876
 6274SOL    HW130455   2.350   4.674   6.117  0.4011 -0.4168  1.3856
 6274SOL    HW230456   2.482   4.707   6.053 -1.5594  0.9626  1.1016
 6275SOL     OW30457   2.236   0.459  10.544  0.5240  0.1936  0.5380
 6275SOL    HW130458   2.233   0.544  10.588 -1.4547  0.8144 -0.7803
 6275SOL    HW230459   2.264   0.399  10.614  1.1627  1.4612  1.3609
 6276SOL     OW30460   1.481   4.692   5.014  0.1609 -0.3022 -0.1814
 6276SOL    HW130461   1.419   4.621   4.996  0.6242 -0.8515  0.3896
 6276SOL    HW230462   1.429   0.023   5.050 -0.5466 -0.9969  0.2049
 6277SOL     OW30463   1.843   1.653   2.383  0.6139  0.2882 -0.6133
 6277SOL    HW130464   1.902   1.696   2.320  0.0829  0.8030 -0.7637
 6277SOL    HW230465   1.839   1.726   2.445 -0.4009 -0.8349  0.6062
 6278SOL     OW30466   4.078   3.972   7.209 -0.1681  0.3180  0.0315
 6278SOL    HW130467   4.085   4.018   7.125 -0.2168  0.5507  0.1544
 6278SOL    HW230468   4.169   3.949   7.226 -0.5717 -0.4410  1.1327
 6279SOL     OW30469   4.557   1.823   8.345  0.3643  0.6551 -0.1176
 6279SOL    HW130470   4.472   1.781   8.356 -0.2737  1.8261 -0.5008
 6279SOL    HW230471   4.615   1.755   8.377 -1.0025 -0.1445  0.6614
 6280SOL     OW30472   1.077   3.723   5.022 -0.0196  0.2721  0.2022
 6280SOL    HW130473   0.987   3.707   5.051  0.1944 -0.1898  0.5890
 6280SOL    HW230474   1.078   3.766   4.936  0.0726 -1.0267 -0.4432
 6281SOL     OW30475   1.720   0.603   8.146  0.0328 -0.3366  0.3062
 6281SOL    HW130476   1.681   0.632   8.228 -0.7646 -1.2874  0.2629
 6281SOL    HW230477   1.743   0.691   8.117 -1.2948  0.2711  1.1142
 6282SOL     OW30478   0.840   3.602  17.368  0.3075  0.1328  0.3931
 6282SOL    HW130479   0.750   3.610  17.399  1.2825  0.7179  3.0679
 6282SOL    HW230480   0.826   3.661  17.294  1.5069  0.0433  0.1039
 6283SOL     OW30481   3.721   4.057   5.843  0.2963 -0.3475  0.1709
 6283SOL    HW130482   3.790   4.058   5.909  0.7040 -1.2986 -0.2456
 6283SOL    HW230483   3.685   3.969   5.845 -1.0793  0.2233  0.4314
 6284SOL     OW30484   3.949   2.296   8.958  0.2607 -0.4391  0.0465
 6284SOL    HW130485   3.855   2.312   8.962  0.2814  0.3002 -2.2130
 6284SOL    HW230486   3.966   2.208   8.992 -0.7288 -0.3547  0.7511
 6285SOL     OW30487   3.952   0.730   5.660 -0.0563  0.9949 -0.5047
 6285SOL    HW130488   3.896   0.662   5.697  1.0587  1.0174  1.2507
 6285SOL    HW230489   3.948   0.710   5.566 -1.8046 -0.9053 -0.0194
 6286SOL     OW30490   2.260   2.870   6.184  0.1187  0.2427 -0.3959
 6286SOL    HW130491   2.214   2.891   6.103  0.3986 -0.2782 -0.6913
 6286SOL    HW230492   2.203   2.916   6.246 -0.1139 -1.3140  0.5459
 6287SOL     OW30493   1.229   2.066  10.689 -0.2521  0.4977 -0.0344
 6287SOL    HW130494   1.228   2.042  10.782 -1.6897  1.5232  0.2370
 6287SOL    HW230495   1.274   2.150  10.698 -0.8616  0.9620 -1.2656
 6288SOL     OW30496   2.641   3.820   6.722  0.0637 -0.1299  0.8954
 6288SOL    HW130497   2.588   3.883   6.673  0.2711 -0.1853  0.5982
 6288SOL    HW230498   2.578   3.771   6.775 -1.6233  0.3485 -0.6970
 6289SOL     OW30499   3.599   3.354  15.076  0.0519  0.3116  0.0475
 6289SOL    HW130500   3.516   3.309  15.060  0.5903 -1.3308  1.8407
 6289SOL    HW230501   3.587   3.387  15.165  0.1774 -0.4257  0.3409
 6290SOL     OW30502   3.416   0.047   8.985 -0.3273  0.5976  0.4522
 6290SOL    HW130503   3.429   0.141   8.968 -2.2226  0.9263  0.7909
 6290SOL    HW230504   3.506   0.015   8.990 -0.5759 -0.0304  0.8805
 6291SOL     OW30505   1.927   0.621   8.632 -0.0793 -0.1466 -0.1190
 6291SOL    HW130506   1.993   0.675   8.588 -1.2046  0.9619 -0.4502
 6291SOL    HW230507   1.967   0.610   8.718  1.7962  3.1601 -0.5587
 6292SOL     OW30508   2.052   0.204   3.884  0.1667 -0.4996  0.0804
 6292SOL    HW130509   2.132   0.239   3.923  1.4927 -1.2405 -1.9947
 6292SOL    HW230510   2.016   0.154   3.958  2.6187 -0.2173  1.4846
 6293SOL     OW30511   3.133   1.551   7.233  0.5530 -0.2674  0.1159
 6293SOL    HW130512   3.204   1.608   7.204 -0.1578  0.3285 -0.4304
 6293SOL    HW230513   3.133   1.495   7.155 -1.2175  0.0795 -0.1125
 6294SOL     OW30514   0.225   2.616   2.388  0.1239  0.3060  0.5559
 6294SOL    HW130515   0.215   2.671   2.310  2.0145 -1.9234 -1.2615
 6294SOL    HW230516   0.311   2.638   2.423  1.2234 -1.8139 -0.8262
 6295SOL     OW30517   2.952   0.192   8.212  1.0448 -0.2822  1.0806
 6295SOL    HW130518   3.034   0.185   8.261  0.7549  1.5284  1.8277
 6295SOL    HW230519   2.951   0.279   8.172 -2.8859  0.3567  2.6096
 6296SOL     OW30520   0.946   2.940  14.994 -0.0430 -0.3781  0.1521
 6296SOL    HW130521   0.959   2.869  15.057  1.1334 -2.0672 -1.9667
 6296SOL    HW230522   1.033   2.979  15.002 -0.2926  0.2281 -0.0751
 6297SOL     OW30523   2.626   0.877   6.146 -0.1450  0.6159  0.2577
 6297SOL    HW130524   2.558   0.828   6.192  1.6116 -0.7482  1.3800
 6297SOL    HW230525   2.661   0.805   6.093 -0.7599  2.8028 -3.1252
 6298SOL     OW30526   1.701   1.201   3.200  0.1450 -0.2584  0.1783
 6298SOL    HW130527   1.632   1.186   3.265  1.3066 -1.2398  1.1827
 6298SOL    HW230528   1.659   1.200   3.114 -0.0250 -0.7501  0.2635
 6299SOL     OW30529   4.447   4.319  13.617 -1.2421 -0.0265 -0.2812
 6299SOL    HW130530   4.482   4.332  13.706  1.1368 -1.1721 -1.0634
 6299SOL    HW230531   4.496   4.245  13.581 -1.2176  0.2832 -0.8827
 6300SOL     OW30532   0.578   1.500   1.052 -0.2013  0.4820  0.1940
 6300SOL    HW130533   0.657   1.544   1.020 -0.7460  0.7421 -0.8029
 6300SOL    HW230534   0.534   1.456   0.979 -0.9812  1.4654  0.0737
 6301SOL     OW30535   2.782   0.607  16.324  0.1807  0.4420  0.0256
 6301SOL    HW130536   2.835   0.622  16.245 -0.1783  1.0472 -0.1049
 6301SOL    HW230537   2.729   0.687  16.327 -0.0724  0.3279 -1.3000
 6302SOL     OW30538   3.014   2.389   9.491 -0.9631  0.7006 -0.1604
 6302SOL    HW130539   3.047   2.299   9.495 -2.2484  0.2205 -0.5544
 6302SOL    HW230540   2.930   2.384   9.445 -1.0622  1.6567 -0.0835
 6303SOL     OW30541   4.621   4.599  10.511  0.3742  0.4679 -0.2073
 6303SOL    HW130542   4.686   4.532  10.534 -0.5149 -0.1608  0.4571
 6303SOL    HW230543   4.662   4.673  10.556 -0.5233  2.5746 -2.8320
 6304SOL     OW30544   1.705   4.442   6.576  0.1025  0.1010  0.2873
 6304SOL    HW130545   1.713   4.363   6.523  1.5666 -0.1450  0.8675
 6304SOL    HW230546   1.645   4.408   6.643  0.0815 -2.8812 -1.2523
 6305SOL     OW30547   3.770   2.126   5.077 -0.0594 -1.0016 -0.2134
 6305SOL    HW130548   3.686   2.171   5.084 -0.0709 -1.0719  0.0920
 6305SOL    HW230549   3.800   2.151   4.990 -0.0451 -1.2823 -0.2891
 6306SOL     OW30550   3.974   1.494   3.942 -0.0056  0.0034 -0.5903
 6306SOL    HW130551   3.908   1.426   3.928  1.0402 -1.3603  1.2130
 6306SOL    HW230552   3.956   1.552   3.867 -0.8419  0.3317 -0.1317
 6307SOL     OW30553   2.312   4.674  11.063 -0.0245  0.3890 -0.4206
 6307SOL    HW130554   2.262   4.600  11.097  3.7558 -1.7441  0.4619
 6307SOL    HW230555   2.387   4.673  11.123 -0.3759 -1.2485 -0.0053
 6308SOL     OW30556   2.894   0.171   3.883 -0.1379 -0.2728  0.1439
 6308SOL    HW130557   2.892   0.165   3.788  0.6451 -0.7966  0.1527
 6308SOL    HW230558   2.972   0.117   3.901  0.7154  0.4884 -1.2221
 6309SOL     OW30559   3.305   1.242   9.211  0.8656  1.0220  0.2077
 6309SOL    HW130560   3.252   1.167   9.185  1.2914  0.0150  2.2854
 6309SOL    HW230561   3.343   1.274   9.129  0.8932  1.4476  0.3860
 6310SOL     OW30562   4.237   4.031  13.168  0.2823  0.0706  0.0289
 6310SOL    HW130563   4.322   4.049  13.207  0.6712 -2.6321  0.4030
 6310SOL    HW230564   4.182   4.044  13.245  1.9065  1.4783  0.9382
 6311SOL     OW30565   3.744   1.582   3.118  0.0222  0.9399 -0.0835
 6311SOL    HW130566   3.733   1.551   3.208  1.1137  0.6285 -0.0609
 6311SOL    HW230567   3.763   1.502   3.069  2.5456  1.4967 -0.0121
 6312SOL     OW30568   1.972   3.667   4.761  0.0613  0.0217  0.0606
 6312SOL    HW130569   2.039   3.684   4.694 -1.4782  0.9934 -1.2334
 6312SOL    HW230570   1.956   3.759   4.783  0.8735 -0.0549  0.9566
 6313SOL     OW30571   1.707   3.790   4.446 -0.0183 -0.3403  0.6290
 6313SOL    HW130572   1.675   3.867   4.399 -0.9926  0.3049  2.3829
 6313SOL    HW230573   1.658   3.804   4.527 -1.3642 -0.4845 -0.1609
 6314SOL     OW30574   0.193   4.665   9.244  0.8067 -0.2968  0.7163
 6314SOL    HW130575   0.160   4.725   9.311 -0.5498 -0.7821  0.4810
 6314SOL    HW230576   0.286   4.673   9.265  1.4071  0.0657 -2.0574
 6315SOL     OW30577   1.896   1.492   1.363 -0.3774  0.5287  0.0530
 6315SOL    HW130578   1.910   1.512   1.456  1.5456 -0.9109  0.0812
 6315SOL    HW230579   1.814   1.443   1.366  0.6407 -1.1924  0.3363
 6316SOL     OW30580   1.040   1.179   1.040  0.6547 -0.6006 -0.5805
 6316SOL    HW130581   1.096   1.253   1.065 -0.5559 -0.3038  1.2901
 6316SOL    HW230582   1.082   1.155   0.958 -0.0007 -0.4948 -0.9433
 6317SOL     OW30583   1.450   3.682  14.995 -0.2091 -0.4001  0.5638
 6317SOL    HW130584   1.509   3.653  15.065  0.2249  2.1237  1.2327
 6317SOL    HW230585   1.494   3.657  14.914  1.7226 -0.3278  1.5830
 6318SOL     OW30586   0.420   0.341  15.067  0.4285 -0.5475  0.3683
 6318SOL    HW130587   0.390   0.352  15.157 -0.5730  1.9811 -0.2731
 6318SOL    HW230588   0.344   0.289  15.039  0.9778 -0.2007 -1.7949
 6319SOL     OW30589   2.213   3.389   3.735 -0.1008 -0.1845  0.7592
 6319SOL    HW130590   2.145   3.451   3.709 -0.8280 -0.9205  0.8811
 6319SOL    HW230591   2.240   3.425   3.819  2.2542  1.9329 -0.9056
 6320SOL     OW30592   2.397   3.118   7.557 -0.0371 -1.0150  0.0640
 6320SOL    HW130593   2.438   3.041   7.520  1.9466 -0.5663  1.3271
 6320SOL    HW230594   2.475   3.155   7.599  0.2744  0.3596 -1.7362
 6321SOL     OW30595   0.945   4.597   2.881 -0.6278 -0.1807  0.1099
 6321SOL    HW130596   0.969   4.522   2.827 -3.0953 -1.7948  1.2793
 6321SOL    HW230597   0.981   4.556   2.960  1.1607  1.3213  0.0847
 6322SOL     OW30598   1.882   3.076   3.877 -0.2909 -0.3716 -0.4014
 6322SOL    HW130599   1.935   3.105   3.802 -0.1333  2.9865  0.9882
 6322SOL    HW230600   1.794   3.080   3.839  0.2083  2.0572 -1.2810
 6323SOL     OW30601   2.413   0.262   1.985  0.1870  0.0039 -0.8291
 6323SOL    HW130602   2.393   0.322   2.056  0.0336 -1.2182  0.1562
 6323SOL    HW230603   2.489   0.211   2.013 -1.2808 -1.4480  0.4901
 6324SOL     OW30604   2.087   0.003   3.251 -0.0142  0.3488  0.1677
 6324SOL    HW130605   2.058   0.092   3.231  0.3023  0.1346 -1.2747
 6324SOL    HW230606   2.003   4.707   3.277 -0.4798  0.5485 -1.0443
 6325SOL     OW30607   1.111   3.717  13.294 -0.1384 -0.8444 -0.4119
 6325SOL    HW130608   1.039   3.780  13.293  0.7566  0.1721 -0.7175
 6325SOL    HW230609   1.182   3.768  13.333 -0.7911 -0.8074  0.7211
 6326SOL     OW30610   2.745   2.041  17.231 -0.1340 -0.0818  0.4045
 6326SOL    HW130611   2.828   2.085  17.251 -0.0243 -0.1897  0.1849
 6326SOL    HW230612   2.691   2.118  17.251  0.1957  0.2623 -0.0373
 6327SOL     OW30613   0.362   2.968  12.072 -0.2775  0.1204 -0.0220
 6327SOL    HW130614   0.378   2.933  11.984 -0.0492  4.6345 -1.8081
 6327SOL    HW230615   0.448   2.980  12.111 -1.7530  0.9133  3.0110
 6328SOL     OW30616   0.331   1.661   3.929  0.3257 -0.2862 -0.4537
 6328SOL    HW130617   0.331   1.751   3.896  3.3391 -0.0622  0.2093
 6328SOL    HW230618   0.282   1.609   3.866 -1.5640  3.9882 -2.5249
 6329SOL     OW30619   4.273   1.379   7.310  1.0972  0.0942 -0.0391
 6329SOL    HW130620   4.225   1.434   7.371  0.7845 -0.9373  0.6507
 6329SOL    HW230621   4.226   1.296   7.311  1.8156 -0.3412 -3.1344
 6330SOL     OW30622   1.372   3.895   3.129  0.2134 -0.0202 -0.4172
 6330SOL    HW130623   1.407   3.965   3.074 -1.5384 -1.1507 -2.9496
 6330SOL    HW230624   1.397   3.819   3.077  1.2947 -0.5951  0.9500
 6331SOL     OW30625   1.056   3.431   7.494  0.1207 -0.1750 -0.4371
 6331SOL    HW130626   1.073   3.390   7.579  1.0763 -2.8760 -1.9202
 6331SOL    HW230627   1.134   3.397   7.450 -0.3197 -0.5611 -0.9246
 6332SOL     OW30628   4.734   3.437   7.839  0.0445 -0.2072  0.0039
 6332SOL    HW130629   0.009   3.390   7.921 -0.6391  1.3162  1.0151
 6332SOL    HW230630   4.640   3.421   7.840 -0.3309  1.8530 -1.5120
 6333SOL     OW30631   1.424   3.214   0.682  0.1815  0.2133 -0.1996
 6333SOL    HW130632   1.437   3.121   0.666 -0.2121  0.0435  0.4740
 6333SOL    HW230633   1.458   3.245   0.598  0.7176  1.4470  0.4742
 6334SOL     OW30634   4.547   0.412   9.790 -0.1610  0.1061  0.2615
 6334SOL    HW130635   4.481   0.474   9.821 -0.4539 -0.1888  0.2299
 6334SOL    HW230636   4.619   0.472   9.774 -0.8944  1.1792  0.9861
 6335SOL     OW30637   1.982   3.509  16.604 -0.6527  0.6063  0.3620
 6335SOL    HW130638   1.968   3.530  16.512 -0.0329 -2.1507 -0.3538
 6335SOL    HW230639   2.066   3.554  16.598  0.1437 -0.8050  0.8227
 6336SOL     OW30640   4.680   0.717   8.286  0.4041  0.6091  0.2101
 6336SOL    HW130641   4.713   0.662   8.215 -0.7617  1.4110 -0.9425
 6336SOL    HW230642   4.661   0.793   8.231 -0.1133  0.7038  0.5195
 6337SOL     OW30643   2.082   4.173   6.296  0.1040  0.0925 -0.7014
 6337SOL    HW130644   2.028   4.247   6.267  2.2567  1.2139 -1.8521
 6337SOL    HW230645   2.013   4.134   6.350  1.0394 -1.8480 -0.9168
 6338SOL     OW30646   0.713   2.275  14.590 -0.3763 -0.0206  0.0394
 6338SOL    HW130647   0.659   2.342  14.548 -1.7293 -1.3699 -0.3707
 6338SOL    HW230648   0.652   2.202  14.581  1.5056 -1.4378 -1.2441
 6339SOL     OW30649   2.105   0.383   7.846 -0.5242 -0.0634  0.6130
 6339SOL    HW130650   2.174   0.448   7.842 -0.2045 -0.3710  1.1497
 6339SOL    HW230651   2.053   0.418   7.918  0.6958  1.7223  0.5990
 6340SOL     OW30652   1.824   0.280   5.475 -0.2516  0.3003 -0.4720
 6340SOL    HW130653   1.893   0.333   5.514 -0.4015 -0.7461  1.2021
 6340SOL    HW230654   1.767   0.275   5.552  2.4126  0.3269  1.4677
 6341SOL     OW30655   2.030   4.274   5.950 -0.5231  0.1738  0.4020
 6341SOL    HW130656   2.045   4.201   6.010  0.4542 -1.2879 -1.6120
 6341SOL    HW230657   2.117   4.315   5.948 -0.4521  0.0173  0.2945
 6342SOL     OW30658   1.856   0.108  17.619  0.0332 -0.2983  0.5432
 6342SOL    HW130659   1.886   0.123  17.529 -1.6089 -1.2890 -0.1534
 6342SOL    HW230660   1.763   0.127  17.608  0.4628  1.2638 -0.2996
 6343SOL     OW30661   0.017   0.802   4.558 -0.2979  0.8677  0.6635
 6343SOL    HW130662   4.740   0.802   4.464  0.6579  0.5874  0.4743
 6343SOL    HW230663   4.704   0.875   4.588 -0.0826  1.2741  0.0643
 6344SOL     OW30664   3.053   4.253  12.105  0.8883 -0.1726  0.2005
 6344SOL    HW130665   3.131   4.226  12.154 -0.6083 -1.4764  1.8983
 6344SOL    HW230666   3.040   4.340  12.144 -0.6871 -0.7033  0.8526
 6345SOL     OW30667   0.104   1.433  14.916 -0.1516  0.2659 -0.1661
 6345SOL    HW130668   0.014   1.403  14.907 -0.2572  0.8424 -1.0644
 6345SOL    HW230669   0.139   1.436  14.827  2.5744  0.4699  0.9161
 6346SOL     OW30670   1.909   3.257   5.439 -0.0692  0.0708  0.0426
 6346SOL    HW130671   1.820   3.291   5.433  0.4528  1.4519  0.3293
 6346SOL    HW230672   1.909   3.193   5.510 -1.5012  0.6892  0.6047
 6347SOL     OW30673   1.883   3.058   4.263 -0.2506  0.2462  0.1300
 6347SOL    HW130674   1.816   2.995   4.291 -0.7029 -0.0610 -1.5989
 6347SOL    HW230675   1.858   3.078   4.172  1.8426 -0.8939 -0.7012
 6348SOL     OW30676   4.171   4.539   5.392  0.0527 -0.3490 -0.3177
 6348SOL    HW130677   4.116   4.551   5.470 -1.9070  0.0520 -1.7620
 6348SOL    HW230678   4.256   4.517   5.430  0.3934  1.6947  0.0910
 6349SOL     OW30679   0.461   3.548   7.401 -0.5002  0.0820  0.1456
 6349SOL    HW130680   0.453   3.453   7.406 -0.8519  0.0057 -2.1226
 6349SOL    HW230681   0.543   3.560   7.355 -0.5160  0.6195  0.2576
 6350SOL     OW30682   0.455   4.471   8.963  0.3813 -0.0159  0.1755
 6350SOL    HW130683   0.514   4.505   8.896 -1.4400  1.8801 -0.4594
 6350SOL    HW230684   0.494   4.384   8.973  0.2087 -0.0012  0.9811
 6351SOL     OW30685   4.585   1.694   8.025  0.3445  0.2674  0.1854
 6351SOL    HW130686   4.664   1.748   8.021  0.4873  0.0709  0.3138
 6351SOL    HW230687   4.620   1.608   8.048 -2.3827 -0.7956  0.3038
 6352SOL     OW30688   3.800   2.011   2.411 -1.3088  0.6740 -0.5350
 6352SOL    HW130689   3.884   2.033   2.451 -1.1355 -1.3227  0.2279
 6352SOL    HW230690   3.819   1.960   2.332  1.6613  0.7218  0.1390
 6353SOL     OW30691   2.833   4.597  17.208  0.6903  0.3272  0.0453
 6353SOL    HW130692   2.746   4.636  17.216  1.5168  2.3310 -0.8482
 6353SOL    HW230693   2.854   4.620  17.118  0.3144 -0.3517 -0.2161
 6354SOL     OW30694   2.063   1.206   9.867  0.1145  0.2144 -0.3033
 6354SOL    HW130695   2.110   1.283   9.899 -1.2862  0.5781  0.8956
 6354SOL    HW230696   2.040   1.235   9.779 -1.8977  1.4716  0.6384
 6355SOL     OW30697   3.631   3.767   7.543  0.3414 -0.4577 -0.1818
 6355SOL    HW130698   3.549   3.723   7.567 -0.9630  2.2466  0.4143
 6355SOL    HW230699   3.684   3.696   7.509  0.0648 -0.9219  0.3528
 6356SOL     OW30700   4.425   4.656   8.293 -0.3110 -0.9063 -0.0854
 6356SOL    HW130701   4.402   4.656   8.386  1.2571 -0.4337  0.3005
 6356SOL    HW230702   4.474   4.738   8.291  0.8756 -1.5927  0.9556
 6357SOL     OW30703   0.475   2.610  16.203 -0.8330 -0.1317 -0.1575
 6357SOL    HW130704   0.429   2.653  16.132  1.2097  1.5270 -0.4768
 6357SOL    HW230705   0.551   2.567  16.162 -0.6189 -1.0405  1.1978
 6358SOL     OW30706   3.410   1.761   6.697  0.2865 -0.2008 -0.2030
 6358SOL    HW130707   3.439   1.758   6.789 -0.9802  2.1764  0.2607
 6358SOL    HW230708   3.408   1.855   6.680 -1.4807 -0.4847 -1.4482
 6359SOL     OW30709   0.707   3.282  16.487 -0.1133 -0.4419 -0.1650
 6359SOL    HW130710   0.762   3.359  16.502  1.3815 -1.4132 -0.6701
 6359SOL    HW230711   0.743   3.218  16.548  3.3341  0.5115 -1.1765
 6360SOL     OW30712   4.243   2.183   8.870  0.1861 -0.1517  0.2549
 6360SOL    HW130713   4.149   2.169   8.858 -0.0966  0.7053  1.4875
 6360SOL    HW230714   4.285   2.180   8.784  1.4307  1.5947  0.8065
 6361SOL     OW30715   4.553   0.294  16.333 -0.1233  0.1506 -0.3005
 6361SOL    HW130716   4.626   0.333  16.380 -0.1640  1.0131 -0.9611
 6361SOL    HW230717   4.555   0.332  16.245  0.1323  0.6148 -0.0940
 6362SOL     OW30718   2.289   4.574   4.548 -0.0446  0.7436 -0.7288
 6362SOL    HW130719   2.219   4.611   4.602 -3.1468 -4.0937 -1.3760
 6362SOL    HW230720   2.284   4.630   4.471 -2.5721  1.3081 -0.1679
 6363SOL     OW30721   0.288   1.672   3.530  0.1602 -0.4683  0.2590
 6363SOL    HW130722   0.264   1.747   3.474  0.7928 -0.3100  0.2076
 6363SOL    HW230723   0.276   1.600   3.468 -0.6966 -1.3085  1.4009
 6364SOL     OW30724   1.755   1.800   9.980 -0.3148  0.2662 -0.3270
 6364SOL    HW130725   1.669   1.762   9.960  0.0664 -0.0740 -1.3266
 6364SOL    HW230726   1.739   1.790  10.074  1.3432  4.0816  0.3383
 6365SOL     OW30727   4.057   1.688   0.686  0.1431 -0.0034 -0.3090
 6365SOL    HW130728   3.987   1.642   0.732 -1.6246  0.9224 -2.0271
 6365SOL    HW230729   4.115   1.704   0.760 -0.0986 -0.4592 -0.0215
 6366SOL     OW30730   0.556   4.364   8.021 -0.1325 -0.3682 -0.6936
 6366SOL    HW130731   0.588   4.284   7.978  0.9547  1.4539 -3.2756
 6366SOL    HW230732   0.478   4.384   7.970 -1.8429 -0.7749  1.7866
 6367SOL     OW30733   0.194   3.439  11.422  0.4034  0.2390  0.1955
 6367SOL    HW130734   0.222   3.440  11.331 -1.1044 -0.3609 -0.2861
 6367SOL    HW230735   0.175   3.532  11.436 -0.8182  0.1822 -1.0895
 6368SOL     OW30736   1.044   3.444   6.510  0.1708 -0.5350 -0.0608
 6368SOL    HW130737   1.038   3.486   6.596 -0.1224 -1.0234  0.1557
 6368SOL    HW230738   1.029   3.521   6.455 -0.9779  0.2587  1.3516
 6369SOL     OW30739   1.566   1.974   4.902 -0.1617 -0.2284  0.2542
 6369SOL    HW130740   1.599   1.903   4.847 -1.0090  0.9781 -1.8556
 6369SOL    HW230741   1.648   1.999   4.944  0.4255 -0.4525 -0.7381
 6370SOL     OW30742   1.651   2.639  12.137  0.1780  0.2955 -0.4488
 6370SOL    HW130743   1.573   2.682  12.101  0.6987 -0.2616 -2.2649
 6370SOL    HW230744   1.682   2.594  12.058  4.0013  1.7823  0.1874
 6371SOL     OW30745   0.208   3.504  14.009 -0.2633 -0.9220 -0.2821
 6371SOL    HW130746   0.235   3.425  14.056  0.0601 -1.6682 -1.7014
 6371SOL    HW230747   0.278   3.527  13.948 -1.2467  1.9082 -0.3288
 6372SOL     OW30748   2.383   1.481   7.426 -0.2605  0.5294  0.3346
 6372SOL    HW130749   2.464   1.436   7.451  0.3154  1.5170  0.2464
 6372SOL    HW230750   2.327   1.420   7.377 -1.1749  2.1139 -0.5685
 6373SOL     OW30751   2.346   0.028   4.796  0.0662 -0.3075 -0.3308
 6373SOL    HW130752   2.275   4.710   4.824  0.4611 -0.7637 -0.2831
 6373SOL    HW230753   2.381   0.060   4.879 -1.9578 -0.0172  0.4062
 6374SOL     OW30754   3.607   2.967   3.245 -0.1777 -0.2215  0.1260
 6374SOL    HW130755   3.675   2.907   3.275 -0.7862 -1.0435 -0.1315
 6374SOL    HW230756   3.527   2.915   3.254 -2.1663  2.7097 -0.5879
 6375SOL     OW30757   2.472   1.704   8.362 -0.1312 -0.5395  0.4520
 6375SOL    HW130758   2.547   1.701   8.302  1.1377  0.8993  1.9854
 6375SOL    HW230759   2.476   1.625   8.417  0.2075 -0.6594  0.2584
 6376SOL     OW30760   1.101   2.798  12.074  0.2496  0.2757 -0.2563
 6376SOL    HW130761   1.104   2.704  12.055 -2.4930 -0.0142  0.6916
 6376SOL    HW230762   1.050   2.828  11.999 -2.0214 -1.8485  0.4185
 6377SOL     OW30763   2.404   3.915   5.635 -0.0512 -0.1430  0.2436
 6377SOL    HW130764   2.460   3.840   5.656 -1.2930 -0.7188  1.5080
 6377SOL    HW230765   2.384   3.886   5.545 -1.8238 -0.5986  0.7709
 6378SOL     OW30766   4.071   3.604   3.928  0.3400  0.4100  0.2087
 6378SOL    HW130767   4.123   3.676   3.893 -0.2891  0.2260 -1.0781
 6378SOL    HW230768   4.140   3.538   3.924 -2.0839 -2.4712  5.1757
 6379SOL     OW30769   4.501   0.126  12.651  0.1409 -0.0162 -0.1330
 6379SOL    HW130770   4.425   0.087  12.608 -0.7599  1.2664  0.2899
 6379SOL    HW230771   4.446   0.192  12.693 -0.4060  0.8593 -2.1945
 6380SOL     OW30772   2.878   0.567  17.293  0.1266  0.5807  0.4161
 6380SOL    HW130773   2.792   0.550  17.333 -0.6742 -0.1340 -1.5661
 6380SOL    HW230774   2.874   0.660  17.273 -2.3855  0.4469  0.1803
 6381SOL     OW30775   1.985   1.333   0.730 -0.5108  0.4008  0.0359
 6381SOL    HW130776   1.996   1.427   0.744  0.3872  0.4324 -0.8821
 6381SOL    HW230777   2.037   1.323   0.651 -0.7654  3.0440 -0.4563
 6382SOL     OW30778   1.257   4.041  17.295 -0.1225 -0.3461 -0.5181
 6382SOL    HW130779   1.259   4.107  17.364  2.9728  0.5669 -1.4736
 6382SOL    HW230780   1.304   4.086  17.225 -0.0370  2.7834  1.5782
 6383SOL     OW30781   0.457   2.455  12.526  0.1669 -0.3562  0.2706
 6383SOL    HW130782   0.550   2.439  12.534  0.2487  0.6640  1.4924
 6383SOL    HW230783   0.432   2.470  12.618  2.1641 -1.0344  0.9247
 6384SOL     OW30784   2.730   4.116   8.424  0.4880 -0.4021 -0.4452
 6384SOL    HW130785   2.676   4.048   8.463 -2.9786  3.5585  1.6862
 6384SOL    HW230786   2.741   4.087   8.333 -0.9701  0.2795 -0.8448
 6385SOL     OW30787   3.840   0.644   5.953 -0.4419 -0.4117 -0.0558
 6385SOL    HW130788   3.770   0.705   5.933  0.3707  0.7138  0.4976
 6385SOL    HW230789   3.828   0.629   6.047  0.9303  0.6537  0.2984
 6386SOL     OW30790   0.473   4.025   8.588 -1.0808 -0.1215  0.4222
 6386SOL    HW130791   0.386   4.001   8.558 -0.9256 -0.1308 -0.0247
 6386SOL    HW230792   0.465   3.981   8.672 -1.0505  0.4238  0.7078
 6387SOL     OW30793   0.228   4.386   9.841  0.1678  0.0550 -0.0795
 6387SOL    HW130794   0.188   4.370   9.927  2.2442 -0.8241  0.7313
 6387SOL    HW230795   0.308   4.336   9.859  1.2652  2.2444  1.1280
 6388SOL     OW30796   0.561   0.152   3.387  0.1942  0.2938  0.0600
 6388SOL    HW130797   0.550   0.178   3.479  1.4723 -0.8270  0.5346
 6388SOL    HW230798   0.500   0.078   3.377 -0.8526  1.2977 -1.0107
 6389SOL     OW30799   2.795   2.541   1.802 -0.3826  0.0941  0.3405
 6389SOL    HW130800   2.865   2.491   1.761  0.4654  1.9052 -0.4317
 6389SOL    HW230801   2.781   2.606   1.734  0.0308  1.4094  1.5093
 6390SOL     OW30802   2.137   0.817   2.849 -0.2304 -0.1307 -0.3916
 6390SOL    HW130803   2.226   0.825   2.815  0.6182 -2.5230  1.3377
 6390SOL    HW230804   2.154   0.860   2.933  0.3889 -1.4934  0.1739
 6391SOL     OW30805   1.708   1.542   7.646  0.3880  0.2336 -0.9207
 6391SOL    HW130806   1.724   1.624   7.692  2.8153 -0.5036 -0.4632
 6391SOL    HW230807   1.649   1.494   7.705  1.0819  4.4765  3.1555
 6392SOL     OW30808   3.416   3.222   5.236 -0.1182  0.0660 -0.0524
 6392SOL    HW130809   3.442   3.156   5.301  1.1948 -0.0405 -0.6873
 6392SOL    HW230810   3.480   3.284   5.271 -2.1772  0.8666  2.3258
 6393SOL     OW30811   0.995   0.487   8.273 -0.3071  0.0067 -0.2204
 6393SOL    HW130812   0.992   0.393   8.289  0.5993  0.0926  0.4755
 6393SOL    HW230813   1.066   0.493   8.209  0.4373 -2.4549  0.3697
 6394SOL     OW30814   2.473   3.529   4.228 -0.2663  0.1081  0.4804
 6394SOL    HW130815   2.455   3.480   4.147  1.6246  1.1384 -0.5551
 6394SOL    HW230816   2.413   3.602   4.213  0.3427 -0.2968 -3.9937
 6395SOL     OW30817   1.898   3.331  10.112  0.0353  0.1697 -0.1440
 6395SOL    HW130818   1.987   3.304  10.137 -0.5275 -1.3772  0.2017
 6395SOL    HW230819   1.909   3.426  10.109 -1.8694  0.4051  0.8151
 6396SOL     OW30820   4.502   2.632   8.001  0.2735  0.4616 -0.0424
 6396SOL    HW130821   4.445   2.700   8.036 -0.5241 -0.9685  1.4269
 6396SOL    HW230822   4.492   2.556   8.058  1.1109  0.8835  0.6726
 6397SOL     OW30823   3.192   2.204   7.106 -0.1098  0.0851  0.1448
 6397SOL    HW130824   3.221   2.133   7.163  0.6913 -0.2656 -0.6989
 6397SOL    HW230825   3.227   2.282   7.149 -1.0177  1.2188 -1.1617
 6398SOL     OW30826   0.220   2.994   4.407 -0.0804  0.3220  0.3791
 6398SOL    HW130827   0.271   2.987   4.327  0.6832 -0.4274  0.9357
 6398SOL    HW230828   0.135   2.955   4.387  0.8961 -0.9905 -1.2162
 6399SOL     OW30829   2.403   4.426   2.450  0.1796 -0.6205 -0.2151
 6399SOL    HW130830   2.436   4.360   2.511  0.3693 -0.2743  0.0612
 6399SOL    HW230831   2.344   4.482   2.501  0.5339  0.8833 -1.4549
 6400SOL     OW30832   0.167   4.465  11.885 -0.5747  0.4008  0.1888
 6400SOL    HW130833   0.258   4.467  11.915 -0.9744 -0.0091  1.4051
 6400SOL    HW230834   0.118   4.494  11.962 -2.6903 -1.3359 -0.5033
 6401SOL     OW30835   3.171   2.690   1.298 -0.1565 -0.7079 -0.5285
 6401SOL    HW130836   3.124   2.671   1.379  0.2922 -0.8345 -0.2991
 6401SOL    HW230837   3.101   2.720   1.240  1.3329  1.3649 -1.2679
 6402SOL     OW30838   0.158   4.512   3.778 -0.1916  0.3706 -0.2734
 6402SOL    HW130839   0.066   4.486   3.770 -0.4409  1.2799 -0.2954
 6402SOL    HW230840   0.199   4.435   3.819 -2.2914 -1.5382 -1.7390
 6403SOL     OW30841   3.238   2.570   9.415  0.2234 -0.1361 -0.2766
 6403SOL    HW130842   3.243   2.500   9.350 -1.0346 -1.5236  1.1314
 6403SOL    HW230843   3.145   2.570   9.437  0.4818 -1.5712  0.8590
 6404SOL     OW30844   4.010   3.186   9.388  0.2532 -0.3090 -0.4582
 6404SOL    HW130845   3.941   3.173   9.453 -1.4049  0.3354 -2.0895
 6404SOL    HW230846   3.999   3.114   9.326  0.7597 -1.1838  0.4669
 6405SOL     OW30847   2.486   2.820   4.198 -0.0925 -0.3247 -0.3809
 6405SOL    HW130848   2.506   2.734   4.235 -0.6953  0.3622  1.5694
 6405SOL    HW230849   2.552   2.817   4.129  1.0152 -1.2979  0.7143
 6406SOL     OW30850   0.388   1.310   7.313 -0.1111  0.3218  0.2303
 6406SOL    HW130851   0.296   1.325   7.295 -0.0822 -0.6877 -0.7140
 6406SOL    HW230852   0.416   1.386   7.364 -1.3664  1.2865 -0.5260
 6407SOL     OW30853   4.020   1.909   2.799  0.3210 -0.3486  0.0414
 6407SOL    HW130854   4.073   1.952   2.865 -0.7703  1.6827 -0.4292
 6407SOL    HW230855   4.088   1.843   2.781 -0.9998 -2.0954  1.4763
 6408SOL     OW30856   1.148   0.775   7.463  0.4339  0.0194 -0.1765
 6408SOL    HW130857   1.178   0.685   7.447 -0.4129 -0.3645  0.3301
 6408SOL    HW230858   1.151   0.804   7.372 -0.7316 -1.4142 -0.6720
 6409SOL     OW30859   2.022   3.426   6.273  0.3084 -0.8222  0.4598
 6409SOL    HW130860   2.074   3.356   6.232  2.5148  0.8041  0.4850
 6409SOL    HW230861   2.015   3.400   6.365 -1.2542 -1.5548  0.1284
 6410SOL     OW30862   2.118   2.192   5.345  0.1069  0.8066 -0.1243
 6410SOL    HW130863   2.202   2.236   5.361 -1.8480  4.1051  1.0877
 6410SOL    HW230864   2.070   2.253   5.290  0.3083 -0.0769 -1.2789
 6411SOL     OW30865   2.241   1.769   1.958 -0.8768  0.8347  0.2834
 6411SOL    HW130866   2.237   1.863   1.938 -2.0700  1.1537  1.9790
 6411SOL    HW230867   2.279   1.769   2.046 -2.3092 -1.1280  0.8821
 6412SOL     OW30868   2.742   3.487   9.557  0.3858 -0.3386  0.1880
 6412SOL    HW130869   2.832   3.490   9.590  1.6741 -0.7530 -3.3155
 6412SOL    HW230870   2.703   3.428   9.622  0.8965  0.9833  1.7141
 6413SOL     OW30871   0.856   3.865   3.914  0.6805 -0.4928  0.0343
 6413SOL    HW130872   0.813   3.786   3.948 -0.5732  0.1680 -0.0053
 6413SOL    HW230873   0.792   3.932   3.938  2.2623 -0.1579  3.3815
 6414SOL     OW30874   3.598   1.317   5.537 -0.3226 -0.7143 -0.2474
 6414SOL    HW130875   3.620   1.304   5.444 -2.0061  0.3396 -0.8044
 6414SOL    HW230876   3.668   1.272   5.585  0.1273 -1.5893 -1.6971
 6415SOL     OW30877   3.165   4.007  11.483 -0.0973 -0.2835 -0.0251
 6415SOL    HW130878   3.110   3.955  11.425 -1.2087  2.9763 -1.8887
 6415SOL    HW230879   3.163   3.950  11.560  0.8220 -0.5337 -0.1885
 6416SOL     OW30880   2.834   3.358   3.474 -0.1768 -0.1492 -0.2423
 6416SOL    HW130881   2.772   3.306   3.525 -1.0672 -0.9299 -2.1340
 6416SOL    HW230882   2.892   3.381   3.547 -0.2713  1.2425 -0.6092
 6417SOL     OW30883   0.967   0.441  15.744  0.3614 -0.6611 -0.3238
 6417SOL    HW130884   0.941   0.524  15.704 -1.2252 -0.6655  0.7151
 6417SOL    HW230885   1.039   0.419  15.685  0.6238 -1.1035  0.1518
 6418SOL     OW30886   0.169   2.280   1.995  0.5012  0.0658  0.3923
 6418SOL    HW130887   0.102   2.329   2.043  0.4027 -1.9447  2.3138
 6418SOL    HW230888   0.109   2.233   1.936 -0.6352  1.7330  0.2212
 6419SOL     OW30889   1.891   1.481   3.540  0.5727  0.7310  0.3838
 6419SOL    HW130890   1.920   1.391   3.555  1.6516  0.9789 -0.2313
 6419SOL    HW230891   1.853   1.466   3.454 -1.0947  1.8800  0.9108
 6420SOL     OW30892   3.739   4.450  10.229  0.4747 -0.9686 -0.2596
 6420SOL    HW130893   3.774   4.400  10.302 -0.7679 -1.5475 -0.0785
 6420SOL    HW230894   3.823   4.479  10.191 -0.2573  2.0312  0.3776
 6421SOL     OW30895   1.393   1.234   7.343  0.5868  0.1371 -0.3469
 6421SOL    HW130896   1.480   1.195   7.332  0.3780 -0.4640  0.1117
 6421SOL    HW230897   1.405   1.303   7.278  0.4593  2.3017  1.9457
 6422SOL     OW30898   4.556   1.003   0.703 -0.0174 -0.8463  0.4083
 6422SOL    HW130899   4.622   1.070   0.716  0.2303 -1.3349  1.7005
 6422SOL    HW230900   4.545   0.992   0.609  0.0356  2.0056  0.0680
 6423SOL     OW30901   0.598   0.502   4.389  0.4716 -0.0435  0.2784
 6423SOL    HW130902   0.545   0.466   4.318  1.6658  3.6496 -2.4846
 6423SOL    HW230903   0.686   0.486   4.356 -0.1931  0.0806 -1.5234
 6424SOL     OW30904   3.254   0.600   8.269  0.5775 -0.1610  0.4918
 6424SOL    HW130905   3.203   0.587   8.348 -1.4565  3.7477 -0.1746
 6424SOL    HW230906   3.207   0.679   8.242 -1.0247 -0.0453  3.6614
 6425SOL     OW30907   2.175   2.219   1.655 -0.0007  0.1185  0.0319
 6425SOL    HW130908   2.266   2.189   1.658 -0.3523 -0.8939  0.3922
 6425SOL    HW230909   2.149   2.179   1.572  2.4294 -0.1480 -0.6320
 6426SOL     OW30910   4.532   4.671   9.388  0.1650 -0.0156 -0.6699
 6426SOL    HW130911   4.554   0.023   9.394 -0.0678  0.1371 -2.1137
 6426SOL    HW230912   4.507   4.645   9.477 -0.4026  0.8536 -0.5692
 6427SOL     OW30913   4.100   0.337   6.063 -0.0804 -0.7002  0.7196
 6427SOL    HW130914   4.057   0.421   6.049 -1.0601 -1.6668 -2.0426
 6427SOL    HW230915   4.078   0.311   6.153  1.0423  0.3970  1.3204
 6428SOL     OW30916   0.995   3.466   3.819  0.1201  0.6221 -0.4921
 6428SOL    HW130917   0.933   3.418   3.874  1.0143  1.5986  1.3764
 6428SOL    HW230918   0.963   3.465   3.729  0.4772 -0.8875 -0.6053
 6429SOL     OW30919   2.734   1.814  13.472  0.0805  0.1108  0.0795
 6429SOL    HW130920   2.717   1.907  13.488 -1.3150 -0.0228 -0.6675
 6429SOL    HW230921   2.650   1.777  13.499 -0.3730  1.0426 -0.0726
 6430SOL     OW30922   2.605   2.929   3.912 -0.2514 -0.4021  0.2389
 6430SOL    HW130923   2.604   2.876   3.832  3.9080  0.1108 -0.1394
 6430SOL    HW230924   2.697   2.911   3.933 -0.7686 -1.6845  1.4145
 6431SOL     OW30925   3.042   3.609  15.079 -0.0912  0.3183 -0.4405
 6431SOL    HW130926   3.062   3.526  15.035 -0.0773  1.1445 -2.0015
 6431SOL    HW230927   3.038   3.592  15.173  3.2234 -0.7586 -0.4927
 6432SOL     OW30928   1.481   3.397  15.176 -0.2341 -0.2647  0.1252
 6432SOL    HW130929   1.400   3.396  15.125  1.2156 -2.1252 -2.2068
 6432SOL    HW230930   1.547   3.417  15.110 -0.7450  0.9224 -0.0195
 6433SOL     OW30931   1.171   0.356  15.537  0.4704  0.5109  1.1019
 6433SOL    HW130932   1.236   0.415  15.499 -0.4351  1.5047  1.1179
 6433SOL    HW230933   1.225   0.277  15.548  1.0965  0.7173 -0.5542
 6434SOL     OW30934   1.211   2.270  10.368 -0.4368 -0.0029 -0.7243
 6434SOL    HW130935   1.265   2.241  10.442 -0.1895 -0.9587 -1.2834
 6434SOL    HW230936   1.198   2.360  10.398 -0.1151 -0.2973  0.3194
 6435SOL     OW30937   3.526   3.373   6.553  0.0251 -0.3896 -0.5698
 6435SOL    HW130938   3.566   3.295   6.514  1.2509 -0.1137  0.1742
 6435SOL    HW230939   3.505   3.336   6.639 -0.4189  0.2551 -0.3990
 6436SOL     OW30940   1.603   2.458   6.992 -0.1471 -0.2232 -0.0064
 6436SOL    HW130941   1.563   2.540   6.962 -0.4823 -0.2121  0.4699
 6436SOL    HW230942   1.525   2.406   7.012 -1.2660  1.1052 -0.8945
 6437SOL     OW30943   2.553   0.687   1.509 -0.0516  0.3275 -0.2721
 6437SOL    HW130944   2.585   0.653   1.593 -1.7441  0.9354  0.6341
 6437SOL    HW230945   2.575   0.611   1.456  0.0424  0.4701 -0.4364
 6438SOL     OW30946   1.914   0.580   3.532 -0.2847 -0.3301 -0.2100
 6438SOL    HW130947   1.998   0.567   3.487  1.0002  1.0959  1.8333
 6438SOL    HW230948   1.919   0.517   3.604  1.7193  1.5007  1.2459
 6439SOL     OW30949   2.944   4.607   3.100  0.3279  0.0618  0.9477
 6439SOL    HW130950   3.015   4.555   3.138 -0.1845 -1.2041  0.1844
 6439SOL    HW230951   2.992   4.643   3.025  0.0444 -0.7515  0.3763
 6440SOL     OW30952   2.107   4.298  16.370  0.0236 -0.5434 -0.0112
 6440SOL    HW130953   2.174   4.231  16.386  0.7526  0.1378 -0.1865
 6440SOL    HW230954   2.168   4.372  16.364  0.7215 -1.0438  0.8758
 6441SOL     OW30955   1.935   1.830  16.411  0.2866  0.4690 -0.1901
 6441SOL    HW130956   1.932   1.882  16.491 -1.0152 -2.4863  1.7109
 6441SOL    HW230957   1.855   1.852  16.362  1.0028  0.3066 -1.4477
 6442SOL     OW30958   0.272   3.798   6.469 -0.0764  0.5865 -0.0180
 6442SOL    HW130959   0.239   3.884   6.445 -1.5581  0.0157 -0.0113
 6442SOL    HW230960   0.246   3.741   6.396 -0.9478  1.4128 -0.3401
 6443SOL     OW30961   2.528   0.527   6.068 -0.1428  0.4015 -0.1918
 6443SOL    HW130962   2.537   0.585   5.993  1.2944  0.1197 -0.2335
 6443SOL    HW230963   2.504   0.584   6.141  2.5451 -1.0635  1.8486
 6444SOL     OW30964   0.520   0.071   9.889  0.4928 -0.1138 -0.0141
 6444SOL    HW130965   0.466   0.063   9.811 -1.2671  0.9614  1.0898
 6444SOL    HW230966   0.443   0.051   9.942  1.3299 -0.7335  0.9755
 6445SOL     OW30967   1.575   2.090  12.003 -0.1388 -0.1351  0.3728
 6445SOL    HW130968   1.669   2.103  12.011 -0.3476  0.8962  1.1738
 6445SOL    HW230969   1.568   2.172  11.953 -1.4008 -2.0092 -2.5363
 6446SOL     OW30970   0.267   1.202   4.253  0.2207 -0.4935 -0.8706
 6446SOL    HW130971   0.187   1.252   4.233  1.0204  2.4152  3.2498
 6446SOL    HW230972   0.270   1.214   4.348 -0.8360 -1.8736 -0.6548
 6447SOL     OW30973   0.241   2.773   2.158  0.1798 -0.7099 -0.0422
 6447SOL    HW130974   0.230   2.867   2.171 -0.6849 -0.7834 -0.2428
 6447SOL    HW230975   0.190   2.763   2.077  0.5243 -1.5736 -0.1607
 6448SOL     OW30976   1.082   2.543   5.829  0.4315 -0.0360 -0.3432
 6448SOL    HW130977   1.073   2.541   5.924  0.0701  1.1324 -0.3517
 6448SOL    HW230978   0.992   2.565   5.805  0.8038  1.1765 -0.6177
 6449SOL     OW30979   1.451   0.589   6.719 -0.4796  0.2778  0.3394
 6449SOL    HW130980   1.440   0.607   6.626  0.0631 -0.4281  0.1348
 6449SOL    HW230981   1.509   0.512   6.712 -0.2876  0.2079  2.8326
 6450SOL     OW30982   1.680   1.594   9.422 -0.3223 -0.0166  0.5553
 6450SOL    HW130983   1.611   1.607   9.487 -1.2696  0.9943 -0.6754
 6450SOL    HW230984   1.731   1.675   9.432  1.6940 -1.2746  0.5011
 6451SOL     OW30985   1.888   4.706   0.100  0.4098 -0.6365  0.1424
 6451SOL    HW130986   1.927   4.619   0.091 -1.8416 -1.6599  0.1389
 6451SOL    HW230987   1.890   0.005   0.013  3.1673  1.4119  1.1457
 6452SOL     OW30988   1.337   2.357   7.528 -0.3918 -0.6480 -0.0402
 6452SOL    HW130989   1.267   2.314   7.578 -0.2465  0.1854  0.8769
 6452SOL    HW230990   1.348   2.451   7.546 -2.0670 -0.2916 -0.7988
 6453SOL     OW30991   1.389   0.367   8.636 -0.5438  0.3056  0.5190
 6453SOL    HW130992   1.357   0.361   8.546  0.2531 -2.0043  0.3908
 6453SOL    HW230993   1.427   0.279   8.643  1.9144  1.4146  1.0075
 6454SOL     OW30994   1.838   0.607   2.965  0.1180  0.2402  0.4534
 6454SOL    HW130995   1.843   0.512   2.964  2.7692  0.3539  1.8396
 6454SOL    HW230996   1.837   0.626   3.059 -1.3284  0.9697  0.3034
 6455SOL     OW30997   4.135   2.755   2.442  0.3174 -0.0412 -0.1394
 6455SOL    HW130998   4.165   2.681   2.389 -3.5695 -0.6313 -1.4991
 6455SOL    HW230999   4.040   2.745   2.433  0.0633  2.4233 -0.1978
 6456SOL     OW31000   0.370   3.285   5.494  0.3312  0.2883 -0.3438
 6456SOL    HW131001   0.310   3.244   5.557 -1.2978  1.9431 -0.8312
 6456SOL    HW231002   0.447   3.229   5.502 -0.1346 -0.5973 -1.9706
 6457SOL     OW31003   0.212   0.761   6.152  0.6436 -0.0834 -0.1403
 6457SOL    HW131004   0.194   0.678   6.109  0.3561  0.1499 -0.4598
 6457SOL    HW231005   0.123   0.794   6.159  1.8969  3.3464 -0.3949
 6458SOL     OW31006   2.144   3.319   2.270  0.1159 -0.6226 -0.0632
 6458SOL    HW131007   2.144   3.234   2.225 -0.6535 -1.6703  1.9569
 6458SOL    HW231008   2.110   3.289   2.354  0.1510  0.2975  0.2801
 6459SOL     OW31009   3.394   2.085   7.550 -0.2305  0.5822 -0.1977
 6459SOL    HW131010   3.422   2.177   7.546  0.3415  0.5764  3.9336
 6459SOL    HW231011   3.452   2.046   7.616 -1.9179 -0.3815  0.7106
 6460SOL     OW31012   4.252   2.202   8.191 -0.7305  0.3337  0.5996
 6460SOL    HW131013   4.209   2.189   8.107  0.4664  0.6515 -0.0640
 6460SOL    HW231014   4.189   2.260   8.234 -0.2593  0.6377  0.8740
 6461SOL     OW31015   2.650   0.415   7.189  0.0396 -0.0822  0.4776
 6461SOL    HW131016   2.691   0.498   7.164 -0.5628  0.1375  0.2323
 6461SOL    HW231017   2.577   0.402   7.128 -0.6063 -1.2281  1.4919
 6462SOL     OW31018   0.886   1.057   7.784  0.0813 -0.6414  0.0952
 6462SOL    HW131019   0.952   1.113   7.745 -1.1507 -0.5506 -1.8758
 6462SOL    HW231020   0.894   0.975   7.735  1.4472  0.7437 -1.9988
 6463SOL     OW31021   0.405   1.078   3.936  0.2552 -0.4650 -0.2385
 6463SOL    HW131022   0.476   1.023   3.969  0.6071  1.2532  1.9112
 6463SOL    HW231023   0.383   1.139   4.007  0.6385 -1.4235  0.6929
 6464SOL     OW31024   1.176   4.488   5.667 -0.5733 -0.4822 -0.2592
 6464SOL    HW131025   1.154   4.460   5.756 -2.1027 -0.2820 -0.5753
 6464SOL    HW231026   1.201   4.580   5.674 -2.6111  0.2116 -1.9487
 6465SOL     OW31027   0.832   3.334   6.246  0.3445 -0.1759 -0.4838
 6465SOL    HW131028   0.820   3.240   6.231 -2.7111  0.0106  0.6936
 6465SOL    HW231029   0.774   3.340   6.322 -2.0162  1.7441 -2.4171
 6466SOL     OW31030   0.136   1.212   9.325  0.0943  0.3273  0.4042
 6466SOL    HW131031   0.209   1.261   9.363  1.0303  0.4472 -1.5234
 6466SOL    HW231032   0.164   1.123   9.347 -1.4612 -0.5692 -1.2682
 6467SOL     OW31033   1.157   3.742  10.389  0.0495 -0.4455  0.1073
 6467SOL    HW131034   1.077   3.693  10.402 -0.5985  0.3208 -0.9872
 6467SOL    HW231035   1.201   3.701  10.314 -0.5297 -0.3600 -0.2781
 6468SOL     OW31036   0.356   3.137  16.205 -0.3200  0.6800 -0.2288
 6468SOL    HW131037   0.449   3.153  16.218 -0.4947  0.5019  1.2529
 6468SOL    HW231038   0.357   3.123  16.110 -2.3262 -0.7207 -0.0457
 6469SOL     OW31039   3.384   2.262   8.006 -0.3292 -0.8197 -0.0624
 6469SOL    HW131040   3.470   2.251   8.046 -0.2941 -1.3562 -0.2879
 6469SOL    HW231041   3.330   2.257   8.085  1.3177 -3.1212  0.9058
 6470SOL     OW31042   2.243   0.707  10.354 -0.4506 -0.0289  0.2948
 6470SOL    HW131043   2.327   0.740  10.324 -0.5199 -0.6132 -0.5431
 6470SOL    HW231044   2.225   0.645  10.283 -0.5529 -0.1534  0.4303
 6471SOL     OW31045   3.995   2.642   0.289  0.6981  0.1690  0.4910
 6471SOL    HW131046   3.988   2.737   0.296  2.3113  0.4050 -1.1623
 6471SOL    HW231047   3.920   2.608   0.339 -0.5875  1.2142 -0.7270
 6472SOL     OW31048   4.730   0.253   6.160 -0.0610  0.3132  0.2009
 6472SOL    HW131049   0.026   0.301   6.234  0.4021  0.9681 -0.4532
 6472SOL    HW231050   4.661   0.316   6.138  0.1889 -0.0892 -1.7426
 6473SOL     OW31051   1.325   2.396   7.145  0.4811  0.0553  0.2030
 6473SOL    HW131052   1.272   2.395   7.065  0.4521  3.4112  0.2125
 6473SOL    HW231053   1.313   2.486   7.175  1.0769  0.8135 -1.8240
 6474SOL     OW31054   1.847   2.760  10.849 -0.0122  0.1071  0.4501
 6474SOL    HW131055   1.889   2.813  10.782 -0.7367 -2.1382 -1.7472
 6474SOL    HW231056   1.845   2.823  10.921 -0.3597  0.2797  0.2891
 6475SOL     OW31057   2.757   3.251   6.170  0.0913 -0.2486  0.2203
 6475SOL    HW131058   2.720   3.293   6.093 -1.3914  1.7252  2.0136
 6475SOL    HW231059   2.742   3.159   6.147 -1.7448  0.1600 -0.2091
 6476SOL     OW31060   1.339   3.623   9.126  0.0467  0.2193  0.1825
 6476SOL    HW131061   1.421   3.633   9.078 -0.2568  1.6380 -0.0421
 6476SOL    HW231062   1.373   3.606   9.214 -0.2724  0.0671  0.2762
 6477SOL     OW31063   3.617   2.498   7.099 -0.0845 -0.9468 -0.2014
 6477SOL    HW131064   3.704   2.532   7.077 -0.4097 -0.7658 -1.2314
 6477SOL    HW231065   3.580   2.568   7.153  2.1584 -0.3791  0.6309
 6478SOL     OW31066   3.869   1.230   4.585  0.4294 -0.4103  0.5113
 6478SOL    HW131067   3.880   1.311   4.536 -0.3191  0.5412  1.9327
 6478SOL    HW231068   3.916   1.153   4.553 -0.6046 -0.2463 -1.3946
 6479SOL     OW31069   3.523   1.886   8.787  0.0365 -0.0602  0.1137
 6479SOL    HW131070   3.615   1.883   8.760 -0.6566 -1.5434 -2.1281
 6479SOL    HW231071   3.511   1.976   8.817  1.8821 -0.2619  1.4606
 6480SOL     OW31072   0.237   3.244   2.501  0.5578  0.0630 -0.3396
 6480SOL    HW131073   0.272   3.188   2.570 -1.3084  0.6607  1.1116
 6480SOL    HW231074   0.158   3.199   2.471  2.3352 -1.4922 -2.6144
 6481SOL     OW31075   0.822   1.549   7.218 -0.5460  0.0924 -0.5165
 6481SOL    HW131076   0.752   1.564   7.154 -0.6165  0.8380 -0.2682
 6481SOL    HW231077   0.791   1.607   7.287 -1.6671 -2.1708  0.8994
 6482SOL     OW31078   4.129   3.112  17.376  0.3504  0.1413  0.1215
 6482SOL    HW131079   4.057   3.127  17.436 -1.0232 -1.2681 -1.1868
 6482SOL    HW231080   4.175   3.037  17.415  1.0275  0.2294 -0.4935
 6483SOL     OW31081   2.387   1.540  11.403  0.3829  0.4974  0.5439
 6483SOL    HW131082   2.368   1.616  11.347  0.1241 -0.3275 -0.4890
 6483SOL    HW231083   2.383   1.590  11.485 -0.4940  0.0191  0.7896
 6484SOL     OW31084   1.647   4.020   3.009  0.2346  0.2613 -0.3194
 6484SOL    HW131085   1.660   3.938   3.057 -0.2149  1.0531  1.1538
 6484SOL    HW231086   1.655   4.079   3.083  1.3328 -1.3598  0.8725
 6485SOL     OW31087   3.438   2.291   2.879  0.3647  0.3536 -0.1268
 6485SOL    HW131088   3.485   2.216   2.841 -0.4479 -0.5239  0.5909
 6485SOL    HW231089   3.395   2.326   2.801  1.5645  0.7948 -0.6016
 6486SOL     OW31090   0.957   3.398   4.189 -0.1511 -0.0204  0.0874
 6486SOL    HW131091   0.872   3.391   4.146  0.1111 -1.0240 -0.2525
 6486SOL    HW231092   0.928   3.402   4.280  0.4865  3.2194  0.1446
 6487SOL     OW31093   1.524   1.270  11.343 -0.0366 -0.4605  0.0346
 6487SOL    HW131094   1.528   1.308  11.431 -1.8474 -3.2389  1.3123
 6487SOL    HW231095   1.523   1.348  11.287 -1.4248 -2.5437 -2.8233
 6488SOL     OW31096   4.350   3.481   6.243  0.2212 -0.2095  0.5245
 6488SOL    HW131097   4.426   3.488   6.301  0.5217  0.7716  0.0131
 6488SOL    HW231098   4.369   3.396   6.205  1.1521 -0.5398  1.7209
 6489SOL     OW31099   0.781   4.168   7.181  0.2855  0.1329  0.0908
 6489SOL    HW131100   0.706   4.167   7.240 -0.7126  0.0896 -1.1708
 6489SOL    HW231101   0.784   4.251   7.134  1.3953 -0.7240 -1.3778
 6490SOL     OW31102   3.804   1.930   4.024  0.0559 -0.2917  0.0751
 6490SOL    HW131103   3.846   1.879   4.093  1.3306  0.5606 -0.0775
 6490SOL    HW231104   3.828   2.019   4.048  2.4690 -0.4390 -1.6917
 6491SOL     OW31105   0.330   0.095   8.860  0.1750 -0.4934  0.0653
 6491SOL    HW131106   0.260   0.108   8.924 -1.3526  0.1903 -1.7417
 6491SOL    HW231107   0.280   0.107   8.780 -0.5373  1.1586  0.7528
 6492SOL     OW31108   0.093   0.557   6.001  0.5688  0.0418 -0.3211
 6492SOL    HW131109   0.021   0.582   5.943  2.5472 -0.2859 -2.9207
 6492SOL    HW231110   0.114   0.475   5.956  0.6892 -0.1272  0.0444
 6493SOL     OW31111   1.265   0.821   7.741  0.9957 -0.1563 -0.6715
 6493SOL    HW131112   1.257   0.726   7.741 -0.1794 -0.0651 -0.9274
 6493SOL    HW231113   1.224   0.834   7.655 -0.3597 -1.1879 -0.1880
 6494SOL     OW31114   4.164   3.084   6.309 -0.1752  0.0616  0.0576
 6494SOL    HW131115   4.085   3.127   6.275 -0.0297  1.0846  1.0040
 6494SOL    HW231116   4.217   3.153   6.348 -0.8511  1.7630 -2.0292
 6495SOL     OW31117   0.923   1.208  12.101 -0.5293 -0.0877 -0.1890
 6495SOL    HW131118   0.877   1.266  12.040  1.4605  1.4308 -0.2618
 6495SOL    HW231119   0.853   1.172  12.155  0.2336 -1.0694  0.1535
 6496SOL     OW31120   0.236   4.738   8.572 -0.2842  0.0633  0.5578
 6496SOL    HW131121   0.154   4.714   8.614 -0.6053  0.0260 -0.1009
 6496SOL    HW231122   0.262   4.656   8.530  1.0942 -0.0886  1.7105
 6497SOL     OW31123   4.326   1.569   9.228  0.1083 -0.0824 -0.5285
 6497SOL    HW131124   4.418   1.555   9.205  0.6213  2.6105 -0.1752
 6497SOL    HW231125   4.338   1.557   9.322  1.5434 -0.4692 -0.7579
 6498SOL     OW31126   3.840   1.845  17.056 -0.6156 -0.4062  0.0893
 6498SOL    HW131127   3.841   1.916  17.121  3.1671  1.7857 -2.4177
 6498SOL    HW231128   3.817   1.766  17.105 -2.7896 -0.8530 -1.6467
 6499SOL     OW31129   4.374   1.070  15.668  0.3423 -0.2740  0.0371
 6499SOL    HW131130   4.282   1.095  15.674  0.3945 -0.1305  0.2359
 6499SOL    HW231131   4.429   1.145  15.689 -1.7213  1.8773 -2.2681
 6500SOL     OW31132   0.553   0.122   3.970 -0.3911  0.4110 -0.4159
 6500SOL    HW131133   0.550   0.105   4.064 -0.2792 -0.5665 -0.5857
 6500SOL    HW231134   0.537   0.031   3.945  0.4387 -0.0714  0.8118
 6501SOL     OW31135   2.614   3.112  13.966 -0.1650 -0.4673  0.2383
 6501SOL    HW131136   2.694   3.146  13.926  0.1875 -0.5787  0.8453
 6501SOL    HW231137   2.553   3.127  13.893  1.7298  0.2746 -1.1943
 6502SOL     OW31138   3.788   0.350   6.966 -0.0319  0.5918 -0.3924
 6502SOL    HW131139   3.839   0.356   7.047  0.6678 -0.8531 -0.7195
 6502SOL    HW231140   3.862   0.370   6.909  0.8137  0.2695  0.5920
 6503SOL     OW31141   0.952   0.133   8.047  0.6440 -0.0649  0.0575
 6503SOL    HW131142   1.026   0.074   8.054  0.6428  0.1421  1.8443
 6503SOL    HW231143   0.897   0.083   7.987  1.4432  1.4163 -1.9084
 6504SOL     OW31144   0.437   1.836   0.320  0.0911 -0.1434 -0.6933
 6504SOL    HW131145   0.358   1.782   0.325 -0.3468  0.7826  1.9294
 6504SOL    HW231146   0.493   1.772   0.275 -1.2612 -0.1445 -2.3924
 6505SOL     OW31147   3.036   4.417   6.635  0.0739 -0.1244 -0.2660
 6505SOL    HW131148   2.979   4.342   6.623  0.1442 -0.0805 -0.8718
 6505SOL    HW231149   3.089   4.403   6.556  0.8404  1.7072 -0.0869
 6506SOL     OW31150   2.442   1.824   1.437 -0.0904 -0.4036  0.7201
 6506SOL    HW131151   2.439   1.759   1.366 -0.6150  0.6173 -0.1872
 6506SOL    HW231152   2.537   1.830   1.452  0.0867 -1.4625  0.0845
 6507SOL     OW31153   0.758   2.008   5.344  0.5322 -0.0855  0.2228
 6507SOL    HW131154   0.666   1.985   5.344 -0.0617  2.2781  0.3001
 6507SOL    HW231155   0.776   2.007   5.250  3.0738 -0.1361  0.6993
 6508SOL     OW31156   0.406   3.710   0.404  0.3632  0.2198 -0.6810
 6508SOL    HW131157   0.335   3.749   0.456  0.8059  1.1469 -0.7733
 6508SOL    HW231158   0.371   3.722   0.316 -0.0296 -1.8373 -0.8104
 6509SOL     OW31159   1.697   1.352  14.657 -0.4024  0.1590 -0.1359
 6509SOL    HW131160   1.717   1.445  14.656 -0.0682  0.0947  0.5667
 6509SOL    HW231161   1.603   1.360  14.673 -0.4219  0.1170 -0.2303
 6510SOL     OW31162   3.185   2.484   8.341 -0.7461 -0.5664  0.2901
 6510SOL    HW131163   3.139   2.510   8.421  1.2333  1.5275  0.7368
 6510SOL    HW231164   3.131   2.541   8.286  2.3262  1.3262 -0.7767
 6511SOL     OW31165   0.081   0.682  12.295  0.0656 -0.4595  0.0552
 6511SOL    HW131166   0.105   0.590  12.284 -0.3930 -0.6414  0.5771
 6511SOL    HW231167   0.168   0.718  12.311  0.5369 -2.0248  1.0624
 6512SOL     OW31168   3.997   2.197   9.307 -0.5452  0.2695 -0.4216
 6512SOL    HW131169   3.909   2.231   9.323 -1.1963 -2.0687  0.9249
 6512SOL    HW231170   3.984   2.134   9.236  1.2750 -0.9213  0.3382
 6513SOL     OW31171   0.251   4.098   9.250 -0.0504 -0.0486  0.8698
 6513SOL    HW131172   0.171   4.142   9.221  0.3472  0.3625  0.3973
 6513SOL    HW231173   0.302   4.127   9.175  0.8449 -1.5872  0.8803
 6514SOL     OW31174   1.903   3.428   8.047  0.5984 -0.6211 -0.3778
 6514SOL    HW131175   1.959   3.502   8.026  1.3921 -0.9730  0.4576
 6514SOL    HW231176   1.843   3.475   8.105 -0.5376 -0.4799 -1.6907
 6515SOL     OW31177   2.627   4.168   3.863 -0.1030  0.1813 -0.0404
 6515SOL    HW131178   2.621   4.242   3.803  1.3337  0.7205  0.4753
 6515SOL    HW231179   2.609   4.211   3.946  1.7131  1.2616 -0.2014
 6516SOL     OW31180   3.215   2.595  10.401  0.7594  0.4451  0.5020
 6516SOL    HW131181   3.154   2.619  10.470  0.0653  0.2483 -0.0444
 6516SOL    HW231182   3.204   2.501  10.410 -1.4711  0.7380  0.7986
 6517SOL     OW31183   2.856   3.838   8.895 -0.3018  0.4622  0.0252
 6517SOL    HW131184   2.875   3.930   8.876  0.4671  0.0927 -1.0108
 6517SOL    HW231185   2.859   3.848   8.990  0.8868 -2.2224  0.2526
 6518SOL     OW31186   2.970   2.338   2.888 -0.4281  0.1581 -0.2462
 6518SOL    HW131187   2.992   2.313   2.978  0.1690 -1.1955 -0.7785
 6518SOL    HW231188   2.889   2.389   2.900  0.5251  2.1100 -2.2177
 6519SOL     OW31189   4.056   0.649   4.748 -0.0584  0.6754  0.2868
 6519SOL    HW131190   4.098   0.693   4.674 -1.3567  1.3073 -0.0818
 6519SOL    HW231191   4.094   0.563   4.765 -0.4036  0.3876 -0.3886
 6520SOL     OW31192   0.799   0.009   3.300  0.2024 -1.4555 -0.0359
 6520SOL    HW131193   0.790   4.701   3.382 -0.5965  0.4247  0.9868
 6520SOL    HW231194   0.735   0.075   3.326  3.3491  0.7316  2.0720
 6521SOL     OW31195   4.105   0.789   8.061 -0.4807  0.1877  0.3126
 6521SOL    HW131196   4.110   0.698   8.029  1.8057  0.1595  0.8168
 6521SOL    HW231197   4.020   0.816   8.025  0.3426  1.8257 -0.3488
 6522SOL     OW31198   2.143   3.845   4.930  0.6527  0.0734  0.6840
 6522SOL    HW131199   2.150   3.847   4.835  1.7928  2.1034  0.8279
 6522SOL    HW231200   2.116   3.935   4.946 -2.4316 -0.7531  0.3178
 6523SOL     OW31201   0.650   0.139   5.430 -0.2560  0.4541 -0.2486
 6523SOL    HW131202   0.576   0.080   5.447  1.0518 -1.2396 -0.4801
 6523SOL    HW231203   0.599   0.219   5.419  0.2561  0.9775  1.1884
 6524SOL     OW31204   2.885   3.317   7.984  0.6142  0.2568  0.3588
 6524SOL    HW131205   2.793   3.337   7.971  0.1341 -0.3515  2.8292
 6524SOL    HW231206   2.913   3.408   7.972  0.2972  0.2738 -0.2534
 6525SOL     OW31207   3.397   4.454   2.191 -0.4894 -0.2282 -0.0805
 6525SOL    HW131208   3.429   4.410   2.270 -2.3804 -0.5106  0.5266
 6525SOL    HW231209   3.388   4.543   2.225 -1.0058 -0.7414  1.1111
 6526SOL     OW31210   3.623   2.491   5.688 -0.0868  0.0495  0.2105
 6526SOL    HW131211   3.649   2.433   5.760  0.5497  0.9884  0.7301
 6526SOL    HW231212   3.528   2.485   5.704  0.0226 -0.5997  0.6320
 6527SOL     OW31213   3.961   2.785  16.786  0.7521  0.2913 -1.0969
 6527SOL    HW131214   4.038   2.733  16.763  2.0724  2.0458 -0.7331
 6527SOL    HW231215   3.994   2.835  16.861  0.5580  0.0450 -0.8470
 6528SOL     OW31216   0.952   0.055   2.158  0.2425 -0.0376 -0.4301
 6528SOL    HW131217   0.945   0.136   2.210 -0.5604  0.7125 -1.6986
 6528SOL    HW231218   0.894   0.070   2.084  2.8824  0.2424 -2.4572
 6529SOL     OW31219   0.775   3.565   9.756 -0.3460  0.5884 -0.4745
 6529SOL    HW131220   0.851   3.524   9.798 -0.2273  2.9796  1.6518
 6529SOL    HW231221   0.727   3.603   9.829 -0.0365  0.3984 -0.1672
 6530SOL     OW31222   3.099   1.926   4.417  0.5594 -0.1416  0.2024
 6530SOL    HW131223   3.175   1.883   4.378  0.5890 -0.3183  0.4561
 6530SOL    HW231224   3.082   1.881   4.500  1.8738 -0.0211  0.5349
 6531SOL     OW31225   1.144   4.449  17.293 -0.1745 -0.2290  0.2621
 6531SOL    HW131226   1.232   4.440  17.329  0.5766 -2.6742 -2.1633
 6531SOL    HW231227   1.144   4.529  17.240 -0.1232 -0.2057  0.2977
 6532SOL     OW31228   3.463   3.554   9.642  0.4177 -0.7187 -0.2318
 6532SOL    HW131229   3.495   3.618   9.578 -0.4636  0.6302  0.7026
 6532SOL    HW231230   3.515   3.585   9.716 -2.4504 -0.0835  1.5006
 6533SOL     OW31231   1.842   2.722   5.931 -0.1313 -0.4995 -0.3058
 6533SOL    HW131232   1.746   2.711   5.930 -0.0199 -1.4318 -2.5404
 6533SOL    HW231233   1.854   2.692   6.021 -0.8908 -2.1659 -0.7564
 6534SOL     OW31234   3.450   1.623   5.932 -0.5766 -0.0411  0.1669
 6534SOL    HW131235   3.483   1.622   5.842  0.5033 -1.1112  0.5687
 6534SOL    HW231236   3.464   1.529   5.946  0.6853 -0.0756 -1.3207
 6535SOL     OW31237   0.126   0.269   1.160  0.4841  0.3936 -0.1694
 6535SOL    HW131238   0.120   0.286   1.066  0.3275  0.0217 -0.2277
 6535SOL    HW231239   0.089   0.344   1.206 -3.3183  1.3234 -4.8452
 6536SOL     OW31240   4.560   0.952   7.587  0.0770  0.0995 -0.0127
 6536SOL    HW131241   4.549   0.962   7.492 -0.5611 -0.2188  0.0296
 6536SOL    HW231242   4.533   1.035   7.626 -0.7723 -0.3724  0.4005
 6537SOL     OW31243   0.440   4.037   9.446  0.0851 -0.0983  0.2903
 6537SOL    HW131244   0.427   4.132   9.438 -0.0029 -0.0634  0.8622
 6537SOL    HW231245   0.348   4.029   9.420  0.9284 -2.3975 -2.0292
 6538SOL     OW31246   3.984   0.892   2.278 -0.5044 -0.5896 -0.8549
 6538SOL    HW131247   3.992   0.822   2.342 -0.5978 -0.5130 -0.7586
 6538SOL    HW231248   4.005   0.847   2.196 -0.2185 -0.9620 -0.5754
 6539SOL     OW31249   4.291   4.336   8.761  0.2487  0.6591 -0.2722
 6539SOL    HW131250   4.301   4.301   8.850  0.2700  1.9516  0.2356
 6539SOL    HW231251   4.216   4.395   8.774 -1.0112 -1.5839  2.7337
 6540SOL     OW31252   2.439   3.992  15.432 -0.6955  0.1345  0.3012
 6540SOL    HW131253   2.475   4.080  15.422  1.2084 -0.6726  0.2375
 6540SOL    HW231254   2.514   3.934  15.424 -1.2977 -0.6268  0.2076
 6541SOL     OW31255   2.396   2.478   7.003  0.8337 -1.0627 -0.2736
 6541SOL    HW131256   2.455   2.492   7.077 -2.8914  0.4713  2.4540
 6541SOL    HW231257   2.326   2.524   7.050  2.2427 -0.4904  1.2551
 6542SOL     OW31258   3.067   0.726   2.766  0.1951  0.3013  0.2851
 6542SOL    HW131259   3.049   0.643   2.722 -0.2752  0.4906  0.1170
 6542SOL    HW231260   3.158   0.742   2.739 -0.3634 -0.0595 -1.8188
 6543SOL     OW31261   2.002   3.920   2.393  0.0706 -0.4623  0.0803
 6543SOL    HW131262   2.038   4.007   2.407  1.8071 -0.8639 -1.8557
 6543SOL    HW231263   1.914   3.950   2.369 -0.0042 -2.3031 -1.9457
 6544SOL     OW31264   1.084   3.782   9.416  0.1571  0.6579 -0.4871
 6544SOL    HW131265   1.095   3.796   9.321  0.5028 -0.0867 -0.5556
 6544SOL    HW231266   0.992   3.757   9.424  0.2706 -0.2973 -2.0880
 6545SOL     OW31267   1.922   4.247   7.868 -0.3915  0.0460  0.0726
 6545SOL    HW131268   2.004   4.270   7.911  0.2403 -1.1643 -0.4876
 6545SOL    HW231269   1.953   4.190   7.798  2.1790  2.1665 -0.5042
 6546SOL     OW31270   2.023   3.444   6.568 -0.1672 -0.2925  0.0478
 6546SOL    HW131271   2.041   3.529   6.526  0.8443 -0.1014  0.8680
 6546SOL    HW231272   2.101   3.438   6.623  0.4346  1.7927 -0.5642
 6547SOL     OW31273   4.037   0.612  14.926 -0.0531 -0.2999 -0.3161
 6547SOL    HW131274   4.004   0.701  14.933 -0.6539 -0.4252 -1.6062
 6547SOL    HW231275   4.060   0.588  15.016  2.4161 -0.9184 -1.0917
 6548SOL     OW31276   0.654   2.877  11.957  0.2710 -0.0051 -0.0997
 6548SOL    HW131277   0.649   2.883  12.052 -1.6806  1.2824 -0.2829
 6548SOL    HW231278   0.602   2.808  11.915  0.2229  0.2007 -0.3822
 6549SOL     OW31279   3.052   4.336  14.192  0.1029 -0.3130  0.3423
 6549SOL    HW131280   3.093   4.406  14.141  0.3712 -0.8148 -0.1236
 6549SOL    HW231281   3.022   4.277  14.124  0.4876 -1.7129  1.3807
 6550SOL     OW31282   1.508   4.313   9.286  0.0049 -0.2774  0.7284
 6550SOL    HW131283   1.538   4.398   9.317  0.9483 -1.1850  2.2880
 6550SOL    HW231284   1.432   4.335   9.232 -1.0819  0.4926  2.5788
 6551SOL     OW31285   4.652   3.865  16.119 -0.3787 -0.4889  0.0813
 6551SOL    HW131286   4.622   3.836  16.205  2.3578 -1.9392  0.5389
 6551SOL    HW231287   4.706   3.789  16.099  0.2431  0.0231 -0.2012
 6552SOL     OW31288   0.264   4.288   2.990 -0.0505 -0.4693  0.3321
 6552SOL    HW131289   0.316   4.287   3.071 -2.8617  0.7814  2.1582
 6552SOL    HW231290   0.326   4.253   2.927  0.0398  0.4520 -0.0899
 6553SOL     OW31291   4.570   1.454   1.844 -0.3147 -0.3674  0.4220
 6553SOL    HW131292   4.627   1.502   1.784  0.8873 -1.3664  0.7661
 6553SOL    HW231293   4.624   1.472   1.921 -0.6150 -1.0757  0.8014
 6554SOL     OW31294   2.791   1.313   9.102  0.0431 -0.2818 -0.4360
 6554SOL    HW131295   2.715   1.261   9.078 -0.3594 -0.1920  0.6216
 6554SOL    HW231296   2.756   1.402   9.097 -0.2778 -0.4100 -0.4804
 6555SOL     OW31297   2.178   2.417   1.838  0.6742  0.0361  0.2963
 6555SOL    HW131298   2.264   2.392   1.873  1.2469  0.2671 -0.9255
 6555SOL    HW231299   2.160   2.336   1.792  1.1458  0.3028 -0.3601
 6556SOL     OW31300   2.326   1.374   8.665 -0.6443  0.2422 -0.5469
 6556SOL    HW131301   2.395   1.423   8.619 -0.5104  1.7137  1.2102
 6556SOL    HW231302   2.244   1.414   8.637 -1.3915 -1.1969 -0.3676
 6557SOL     OW31303   2.697   4.388   7.797 -0.5071 -0.3862 -0.1079
 6557SOL    HW131304   2.711   4.475   7.760 -1.2566 -0.6377 -0.9622
 6557SOL    HW231305   2.720   4.343   7.716 -0.7482 -1.5642  0.4846
 6558SOL     OW31306   4.049   0.234  17.057  0.1982  0.5637 -0.4484
 6558SOL    HW131307   4.004   0.317  17.042 -1.2144  0.1681  1.5103
 6558SOL    HW231308   4.063   0.239  17.152 -0.1420  0.8468 -0.4132
 6559SOL     OW31309   1.606   1.676   2.136  0.4816 -0.2615  0.2849
 6559SOL    HW131310   1.679   1.720   2.092 -0.8474  0.3162 -1.3484
 6559SOL    HW231311   1.651   1.609   2.187  0.7797 -0.7089 -0.5821
 6560SOL     OW31312   0.706   0.087   1.690 -0.8329 -0.4140 -0.2530
 6560SOL    HW131313   0.693   0.176   1.657 -2.1117 -0.7459 -0.6449
 6560SOL    HW231314   0.616   0.062   1.708 -1.0891  0.2872 -0.5313
 6561SOL     OW31315   3.243   0.250   4.590  0.5444  0.3480 -0.3715
 6561SOL    HW131316   3.215   0.327   4.640 -2.0273 -0.6420 -0.2761
 6561SOL    HW231317   3.249   0.176   4.651  0.2355 -0.1561 -0.9453
 6562SOL     OW31318   1.691   4.533   4.614  0.8061 -0.0181  0.8664
 6562SOL    HW131319   1.774   4.557   4.573  0.6784 -0.3250  0.4230
 6562SOL    HW231320   1.640   4.613   4.603 -2.1913 -1.8380  1.5764
 6563SOL     OW31321   2.276   4.665  12.095 -0.5712  0.1778  0.4088
 6563SOL    HW131322   2.186   4.650  12.067 -0.3834  0.4598 -0.3420
 6563SOL    HW231323   2.273   0.019  12.095 -0.8995  0.1734 -1.4907
 6564SOL     OW31324   4.407   0.617   5.687  0.0952  0.1624 -0.3935
 6564SOL    HW131325   4.377   0.695   5.642 -1.1305  0.1079  0.3489
 6564SOL    HW231326   4.429   0.556   5.616 -0.3750 -1.3204  0.7339
 6565SOL     OW31327   1.338   2.001  10.942 -0.4233 -0.0237 -0.1880
 6565SOL    HW131328   1.375   2.087  10.961 -0.6434 -0.5203  2.4791
 6565SOL    HW231329   1.413   1.947  10.968  0.9403  0.9772 -2.0335
 6566SOL     OW31330   4.164   1.094  13.552 -0.0360  0.2783  0.3257
 6566SOL    HW131331   4.239   1.048  13.589 -0.6775 -3.0063 -2.4699
 6566SOL    HW231332   4.112   1.018  13.527 -1.1103  1.4821 -1.1132
 6567SOL     OW31333   3.858   3.974   6.070  0.5965 -0.2688  0.3217
 6567SOL    HW131334   3.915   3.907   6.032 -0.0944 -0.6156 -0.1043
 6567SOL    HW231335   3.901   3.976   6.156 -1.0271 -0.3239  1.1268
 6568SOL     OW31336   0.868   2.830   2.553 -0.0170 -0.0711  0.0704
 6568SOL    HW131337   0.912   2.853   2.471  0.0082 -3.6757 -0.9292
 6568SOL    HW231338   0.789   2.788   2.519 -0.5203  0.5586  0.4654
 6569SOL     OW31339   2.817   2.889   9.095  0.1420  0.2543 -0.1572
 6569SOL    HW131340   2.883   2.946   9.134 -0.6594 -0.4326  2.2225
 6569SOL    HW231341   2.741   2.929   9.138 -0.2666 -1.4466  0.7182
 6570SOL     OW31342   1.413   2.702   0.002 -0.0989  0.1239  0.0209
 6570SOL    HW131343   1.473   2.637  17.728  1.6150  1.0571  1.2047
 6570SOL    HW231344   1.363   2.659   0.072 -1.2469 -0.6923 -1.3122
 6571SOL     OW31345   2.862   0.829   2.895 -0.1785 -0.1577 -0.0572
 6571SOL    HW131346   2.878   0.815   2.988  0.9949 -2.2315 -0.5580
 6571SOL    HW231347   2.934   0.780   2.853 -0.6977 -0.0105 -1.1271
 6572SOL     OW31348   0.943   3.024  14.646  0.5495  0.0543  0.3479
 6572SOL    HW131349   0.983   3.084  14.708 -1.3492  1.8047 -0.1165
 6572SOL    HW231350   1.020   2.995  14.597  0.1775  0.1979 -0.3296
 6573SOL     OW31351   4.727   2.998   5.358  0.5643  0.2789  0.4973
 6573SOL    HW131352   4.703   3.065   5.422 -1.1118 -0.0907  0.2413
 6573SOL    HW231353   0.080   3.015   5.353  0.8882 -1.6953 -0.1060
 6574SOL     OW31354   1.072   2.526   0.503 -0.3621  0.1007 -0.2305
 6574SOL    HW131355   1.041   2.442   0.538 -0.2888  0.2760  0.2635
 6574SOL    HW231356   0.991   2.559   0.464  0.2755  2.0705  0.1186
 6575SOL     OW31357   1.581   0.221   9.673  0.1254  0.3194  0.6378
 6575SOL    HW131358   1.645   0.264   9.729  2.0135 -2.7246  0.8481
 6575SOL    HW231359   1.559   0.139   9.718 -0.5294 -0.4274 -1.0044
 6576SOL     OW31360   2.040   2.139   2.534  0.4445 -0.0997  0.5867
 6576SOL    HW131361   2.088   2.221   2.545 -0.9291  1.1735 -3.0271
 6576SOL    HW231362   2.046   2.092   2.617  1.4007 -2.7082 -0.9565
 6577SOL     OW31363   3.825   3.763  13.649  0.0843 -0.1050  0.0089
 6577SOL    HW131364   3.912   3.798  13.630  0.4092 -0.2201  1.3435
 6577SOL    HW231365   3.845   3.673  13.676  0.7967  0.1306  0.2585
 6578SOL     OW31366   0.131   4.347   2.178  0.0261  0.2056  0.0431
 6578SOL    HW131367   0.086   4.424   2.144 -0.5415 -0.3013 -0.3465
 6578SOL    HW231368   0.101   4.351   2.268  1.1941  1.0049  0.3894
 6579SOL     OW31369   1.349   1.151   1.222  0.4122  0.4200 -0.1052
 6579SOL    HW131370   1.297   1.228   1.245 -0.7622 -0.3273 -0.2742
 6579SOL    HW231371   1.284   1.082   1.228 -0.0801  0.7549 -1.7048
 6580SOL     OW31372   4.156   1.645   7.467 -0.3952 -0.2611  0.1727
 6580SOL    HW131373   4.194   1.678   7.386 -1.4080  0.5077  0.0115
 6580SOL    HW231374   4.064   1.634   7.444 -0.4386 -2.1785  1.3673
 6581SOL     OW31375   3.606   0.223   1.916 -0.4302 -0.4506 -0.5646
 6581SOL    HW131376   3.591   0.187   1.829 -1.9568  0.0569 -0.5168
 6581SOL    HW231377   3.515   0.220   1.946 -0.4372 -0.6299 -0.6004
 6582SOL     OW31378   3.867   1.721  16.813 -0.7097  0.1100  0.1095
 6582SOL    HW131379   3.882   1.746  16.905  2.2539 -3.3058  0.5702
 6582SOL    HW231380   3.938   1.767  16.768 -0.6661 -0.8995 -0.8476
 6583SOL     OW31381   3.493   3.375   0.570 -1.0550 -0.4020 -0.0845
 6583SOL    HW131382   3.427   3.328   0.621 -1.4041 -4.1595 -3.9921
 6583SOL    HW231383   3.435   3.409   0.502  0.2284  0.2583 -0.8490
 6584SOL     OW31384   4.352   4.131  10.888  0.1537  0.2918  0.2764
 6584SOL    HW131385   4.384   4.129  10.798  1.7153 -0.7657  0.8529
 6584SOL    HW231386   4.427   4.087  10.929 -0.6605 -2.0962 -0.7996
 6585SOL     OW31387   4.660   0.473   8.432  0.3495 -0.0010 -0.5855
 6585SOL    HW131388   4.638   0.528   8.356 -0.8171  0.1195 -0.1617
 6585SOL    HW231389   4.656   0.536   8.503 -1.2558 -0.9160  0.1404
 6586SOL     OW31390   3.771   2.809   6.514 -0.1404  0.1497 -0.9157
 6586SOL    HW131391   3.715   2.801   6.590  1.7588 -2.4690  0.2149
 6586SOL    HW231392   3.852   2.762   6.533  0.5850  1.3792 -0.9310
 6587SOL     OW31393   3.914   4.191   7.237 -0.5828 -0.4369 -0.5048
 6587SOL    HW131394   3.980   4.249   7.275 -0.5817  0.3544 -1.7114
 6587SOL    HW231395   3.958   4.107   7.252  2.0081  1.3070  1.8551
 6588SOL     OW31396   4.147   3.715   6.569  0.4856  0.0536  0.4017
 6588SOL    HW131397   4.127   3.627   6.536 -2.4383  0.1438  1.9610
 6588SOL    HW231398   4.066   3.763   6.551  0.7027  1.0673  2.1829
 6589SOL     OW31399   2.733   4.653   7.220  0.1810  0.3271 -0.1128
 6589SOL    HW131400   2.748   4.563   7.190 -3.2883  0.7916 -3.3437
 6589SOL    HW231401   2.824   4.675   7.239  0.0373  1.3156 -0.6003
 6590SOL     OW31402   1.956   2.085   7.520 -0.2223 -0.2540  0.8720
 6590SOL    HW131403   1.930   2.175   7.501  0.7184 -0.0134  0.6806
 6590SOL    HW231404   2.041   2.093   7.476 -0.7616  1.0218  0.0457
 6591SOL     OW31405   4.615   4.306  14.399 -0.1856  0.4627 -0.0318
 6591SOL    HW131406   4.534   4.357  14.398  1.0310  2.4071 -0.0407
 6591SOL    HW231407   4.603   4.233  14.460 -1.9240  1.5007  0.8661
 6592SOL     OW31408   4.234   4.149  11.866  0.7394  0.4666 -0.4167
 6592SOL    HW131409   4.154   4.142  11.814  0.6147  1.2518 -0.3340
 6592SOL    HW231410   4.217   4.239  11.894  0.1641  0.1930  0.1348
 6593SOL     OW31411   1.006   4.491   3.110 -0.5149 -0.4155 -0.4975
 6593SOL    HW131412   1.087   4.439   3.108  0.2083  0.6683  0.4823
 6593SOL    HW231413   1.021   4.537   3.193 -0.5144 -2.5917  0.7003
 6594SOL     OW31414   3.327   4.163  14.962 -0.5297 -0.9544 -0.2602
 6594SOL    HW131415   3.320   4.068  14.966  1.8200 -1.0698  1.0699
 6594SOL    HW231416   3.270   4.195  14.892 -0.5123  0.2728  0.2769
 6595SOL     OW31417   2.753   1.929   8.689 -0.2679 -0.0971  0.6070
 6595SOL    HW131418   2.784   1.874   8.617 -0.2915  0.4197  0.1996
 6595SOL    HW231419   2.707   1.995   8.637 -2.3171 -2.4825 -0.5972
 6596SOL     OW31420   0.405   3.775   2.541  0.6065  0.1025  0.0669
 6596SOL    HW131421   0.398   3.682   2.519  0.8867 -0.3661  1.9138
 6596SOL    HW231422   0.391   3.817   2.456  1.4337  1.0020  0.3823
 6597SOL     OW31423   0.740   2.048   5.636 -0.6143 -0.6754 -0.3790
 6597SOL    HW131424   0.665   2.096   5.602 -1.3733 -1.0628  0.7461
 6597SOL    HW231425   0.756   1.993   5.559  0.8635 -0.5579 -0.1509
 6598SOL     OW31426   1.214   1.982   5.638 -0.3365 -0.1673  0.1187
 6598SOL    HW131427   1.221   2.059   5.582 -1.6441 -0.1091  0.0180
 6598SOL    HW231428   1.204   2.029   5.721 -2.2811 -0.9806  0.3434
 6599SOL     OW31429   1.612   3.297  15.851 -0.2380 -0.5392 -0.4478
 6599SOL    HW131430   1.584   3.254  15.770  0.9439 -2.4366  0.1516
 6599SOL    HW231431   1.707   3.293  15.853 -0.3775 -3.6052  0.5211
 6600SOL     OW31432   2.711   0.045   6.953  0.4982 -0.5442  0.9581
 6600SOL    HW131433   2.660   4.708   6.930  0.3264 -0.4960  1.1838
 6600SOL    HW231434   2.742   0.026   7.041 -0.2839 -4.0373  0.4670
 6601SOL     OW31435   4.676   2.142   3.747 -0.0235 -0.4585 -0.0335
 6601SOL    HW131436   0.012   2.142   3.690 -0.6867 -3.0781 -0.9212
 6601SOL    HW231437   4.640   2.070   3.695 -3.9328  2.0422 -0.8100
 6602SOL     OW31438   4.385   2.490   1.362 -0.2889 -0.2086 -0.3787
 6602SOL    HW131439   4.400   2.405   1.402 -0.7786 -0.5945 -1.0197
 6602SOL    HW231440   4.453   2.493   1.294 -1.1542  0.4788 -1.2161
 6603SOL     OW31441   0.287   4.488   9.593 -0.0389  0.7169 -0.6806
 6603SOL    HW131442   0.215   4.550   9.588 -0.8448 -0.1281  0.3212
 6603SOL    HW231443   0.277   4.458   9.684  0.4202  1.5803 -0.3437
 6604SOL     OW31444   0.247   1.903   9.257 -0.0799 -0.0244  0.9064
 6604SOL    HW131445   0.281   1.945   9.337 -2.0723  2.3051  0.5591
 6604SOL    HW231446   0.171   1.853   9.288 -0.0475 -0.4023  0.3728
 6605SOL     OW31447   4.095   1.521   5.392  0.0221 -0.0104 -0.1470
 6605SOL    HW131448   4.032   1.550   5.458 -0.0336  0.0529 -0.2290
 6605SOL    HW231449   4.061   1.566   5.315 -2.4274 -1.1320  0.2850
 6606SOL     OW31450   2.339   1.861  15.264  0.4108 -0.0025 -0.3899
 6606SOL    HW131451   2.276   1.811  15.212  0.7039  0.2803 -1.0263
 6606SOL    HW231452   2.357   1.922  15.193  3.2774  0.0764  0.3871
 6607SOL     OW31453   3.003   3.159   7.715  0.5556  0.3060  0.5402
 6607SOL    HW131454   2.993   3.150   7.810  0.5119  1.0892  0.6088
 6607SOL    HW231455   3.082   3.211   7.700 -1.1931  1.9092 -2.8929
 6608SOL     OW31456   0.374   1.948   6.573 -0.1899  0.1056 -0.7526
 6608SOL    HW131457   0.290   1.991   6.557 -0.3731  0.6819  1.7745
 6608SOL    HW231458   0.369   1.885   6.501  2.6099 -0.4506 -0.4673
 6609SOL     OW31459   2.018   3.590  16.350 -0.5508  0.8295 -0.3801
 6609SOL    HW131460   2.100   3.575  16.305 -1.2396 -1.4717 -0.8879
 6609SOL    HW231461   1.986   3.650  16.283 -1.8630  0.2181 -0.3175
 6610SOL     OW31462   4.169   3.360   2.902  0.0498  0.0818 -0.1327
 6610SOL    HW131463   4.186   3.349   2.995 -1.4364 -2.9217 -0.2390
 6610SOL    HW231464   4.250   3.331   2.860  1.1187  0.1534  1.8602
 6611SOL     OW31465   4.465   0.286   0.804 -0.5370  0.1344 -0.5229
 6611SOL    HW131466   4.417   0.367   0.818  0.3999  1.2063 -3.4893
 6611SOL    HW231467   4.529   0.293   0.875  0.7101 -2.1113 -1.4049
 6612SOL     OW31468   1.937   1.868   6.051 -0.2910  0.0481  0.3813
 6612SOL    HW131469   1.872   1.918   6.101  1.5764 -0.5658  3.4389
 6612SOL    HW231470   1.997   1.938   6.024 -0.3947  0.5612  1.4673
 6613SOL     OW31471   2.163   2.368   8.397 -0.0025  0.2683  0.3062
 6613SOL    HW131472   2.119   2.421   8.463  1.2483  0.8070  0.7037
 6613SOL    HW231473   2.218   2.426   8.344  0.4279 -1.1350 -0.7902
 6614SOL     OW31474   3.339   1.811   8.973  0.1755 -0.2047 -0.0914
 6614SOL    HW131475   3.393   1.747   9.019  0.3938 -1.4421 -2.0615
 6614SOL    HW231476   3.390   1.823   8.892  0.4033 -1.1534 -0.0931
 6615SOL     OW31477   4.054   1.983   3.417  0.1953 -0.2201 -0.2664
 6615SOL    HW131478   4.112   1.908   3.429  2.0467  0.7346 -3.2860
 6615SOL    HW231479   4.072   2.047   3.486  0.5167 -1.5529  0.8937
 6616SOL     OW31480   2.042   2.261   8.179  0.2618  0.3449 -0.4635
 6616SOL    HW131481   2.105   2.229   8.115  2.6245 -0.6370  2.3716
 6616SOL    HW231482   2.108   2.304   8.234  1.1188 -0.1819 -1.0751
 6617SOL     OW31483   3.889   2.679   4.373  0.0785  0.5573 -0.7765
 6617SOL    HW131484   3.906   2.760   4.421  0.8674  1.3103 -2.2986
 6617SOL    HW231485   3.830   2.624   4.424  2.1029  0.6717  1.6726
 6618SOL     OW31486   2.470   3.653   1.988  0.0675  0.2094 -0.6408
 6618SOL    HW131487   2.510   3.697   1.913 -1.2174  1.8560 -0.3752
 6618SOL    HW231488   2.377   3.671   1.972 -0.0700  0.3684  0.3676
 6619SOL     OW31489   1.219   2.007   5.310  0.6623 -0.9716  0.1605
 6619SOL    HW131490   1.312   1.988   5.324  1.2853 -0.3872 -3.1689
 6619SOL    HW231491   1.206   1.979   5.219  0.2571 -0.1126 -0.0522
 6620SOL     OW31492   2.567   0.977   2.951  0.0681 -0.2855 -0.5015
 6620SOL    HW131493   2.654   0.959   2.917 -0.2968  0.9159 -2.0560
 6620SOL    HW231494   2.515   0.902   2.922 -1.9517  1.0783 -0.4259
 6621SOL     OW31495   2.754   3.785   5.557  0.0765  0.1606  0.2610
 6621SOL    HW131496   2.698   3.817   5.486  0.7983 -1.6004 -1.1140
 6621SOL    HW231497   2.842   3.809   5.531  0.1316 -1.2787 -0.8886
 6622SOL     OW31498   3.804   1.966   8.737 -0.0422 -0.2078  0.4895
 6622SOL    HW131499   3.788   2.001   8.650  0.0726 -1.4957 -0.0451
 6622SOL    HW231500   3.866   2.028   8.776 -0.0456 -0.5638  1.0691
 6623SOL     OW31501   2.371   1.896   9.761 -0.7598  0.0753  0.1186
 6623SOL    HW131502   2.376   1.807   9.727 -0.9101  0.4126 -0.7883
 6623SOL    HW231503   2.303   1.900   9.828  0.7036 -0.0912  1.6410
 6624SOL     OW31504   3.348   3.441   3.143  0.3316 -0.5127  0.6200
 6624SOL    HW131505   3.300   3.418   3.223  0.9639  0.2915  1.2274
 6624SOL    HW231506   3.383   3.352   3.132 -1.5804 -1.3804  1.5834
 6625SOL     OW31507   2.064   0.879   8.672  0.2743 -0.5695  0.0392
 6625SOL    HW131508   2.133   0.939   8.643 -0.5579  0.1506 -0.4826
 6625SOL    HW231509   2.107   0.844   8.750  2.0995 -1.3228 -1.3166
 6626SOL     OW31510   1.007   3.560   6.786 -0.3373  0.0230  0.0770
 6626SOL    HW131511   0.978   3.507   6.860 -0.5988  1.8294  1.2636
 6626SOL    HW231512   0.976   3.643   6.822 -0.8079  0.2974 -0.9433
 6627SOL     OW31513   3.523   3.114  14.639 -0.2225  0.0310  0.3410
 6627SOL    HW131514   3.589   3.171  14.677 -2.3924  2.0710  1.0220
 6627SOL    HW231515   3.494   3.067  14.717 -0.5511  1.5805  1.1453
 6628SOL     OW31516   0.849   0.002   5.100 -0.2507 -0.4098  0.0671
 6628SOL    HW131517   0.938   4.713   5.122  0.9129  2.1494 -1.1938
 6628SOL    HW231518   0.810   4.696   5.174  0.9228 -2.6559 -0.7160
 6629SOL     OW31519   4.702   0.015   7.301  0.1201 -0.2857 -0.3570
 6629SOL    HW131520   0.012   0.044   7.226  0.4278  1.1108  0.3786
 6629SOL    HW231521   4.686   4.666   7.273  2.2877  0.0436 -2.6350
 6630SOL     OW31522   0.134   1.122   3.624 -0.2085  0.5982  0.1158
 6630SOL    HW131523   0.218   1.148   3.662 -0.1350  0.8643 -0.2340
 6630SOL    HW231524   0.076   1.189   3.659  1.0141  0.6776  2.0582
 6631SOL     OW31525   1.027   2.954   4.992 -0.0537  0.1480 -0.0201
 6631SOL    HW131526   0.947   2.904   5.013  1.2366 -1.9176  0.0104
 6631SOL    HW231527   0.995   3.016   4.927  1.1668  0.4830 -0.2958
 6632SOL     OW31528   1.363   1.742   5.216 -0.2848  0.3167 -0.1061
 6632SOL    HW131529   1.336   1.675   5.279 -0.2590 -0.9713 -1.4632
 6632SOL    HW231530   1.423   1.800   5.264  0.7021  0.2826 -1.3144
 6633SOL     OW31531   0.449   1.379  12.805 -0.7800 -0.3545  0.1149
 6633SOL    HW131532   0.535   1.405  12.773  0.2010 -2.9608  0.5855
 6633SOL    HW231533   0.388   1.427  12.749 -0.0032  0.3298 -0.1402
 6634SOL     OW31534   4.297   0.811   6.507  0.7855  0.3872  0.7595
 6634SOL    HW131535   4.227   0.822   6.572 -0.9973 -1.7451 -0.7917
 6634SOL    HW231536   4.284   0.894   6.461 -1.0045  0.2388  1.0107
 6635SOL     OW31537   3.840   4.256   8.292  0.8960 -0.5936  0.2846
 6635SOL    HW131538   3.886   4.259   8.208 -2.2745 -2.1514 -1.4881
 6635SOL    HW231539   3.771   4.321   8.281  1.9335  0.5298  0.4242
 6636SOL     OW31540   4.241   4.150   7.510 -0.4901  0.5098 -0.3407
 6636SOL    HW131541   4.335   4.153   7.524 -0.0904  2.4426 -3.2351
 6636SOL    HW231542   4.246   4.101   7.428 -1.2192  0.2849 -0.2510
 6637SOL     OW31543   1.986   3.202   1.938  0.4160  0.0138 -0.1717
 6637SOL    HW131544   1.896   3.233   1.936  0.3522 -0.0561  1.9018
 6637SOL    HW231545   2.001   3.191   2.032 -0.7524  1.1910  0.1594
 6638SOL     OW31546   4.341   4.693  15.315  0.2591  0.1384  0.3694
 6638SOL    HW131547   4.312   0.042  15.323 -1.8844 -0.5401  0.2907
 6638SOL    HW231548   4.365   4.682  15.223  1.6815  2.3912  0.4822
 6639SOL     OW31549   3.715   0.241   7.355  0.0264 -0.0153 -0.1875
 6639SOL    HW131550   3.786   0.226   7.418 -0.9175  0.0549  0.8882
 6639SOL    HW231551   3.740   0.333   7.343  2.2332 -0.4829  0.8073
 6640SOL     OW31552   4.025   2.968   4.280 -0.6177  0.4273  1.3044
 6640SOL    HW131553   4.093   2.959   4.346 -0.1187 -1.1572  0.5795
 6640SOL    HW231554   4.022   2.877   4.248  0.0681  1.0403 -0.4924
 6641SOL     OW31555   2.916   0.172   9.372 -0.1637  0.1914  0.0069
 6641SOL    HW131556   2.829   0.212   9.367 -0.4092 -0.4794 -1.0550
 6641SOL    HW231557   2.915   0.112   9.297 -1.2005  2.8120 -2.1011
 6642SOL     OW31558   2.319   4.616   3.148  0.4462 -0.0120  0.4702
 6642SOL    HW131559   2.367   4.625   3.230  1.3692  1.9059 -0.2891
 6642SOL    HW231560   2.240   4.662   3.176  0.1955  3.5256 -6.0755
 6643SOL     OW31561   2.164   4.037   3.808  0.2725  0.0521 -0.2020
 6643SOL    HW131562   2.187   3.957   3.856 -1.4012 -0.5720 -0.4412
 6643SOL    HW231563   2.224   4.102   3.843 -0.7906  1.8578 -1.7623
 6644SOL     OW31564   2.170   4.248   3.539 -0.2642 -0.1279 -0.0282
 6644SOL    HW131565   2.116   4.171   3.518 -0.8260  0.3256 -0.2307
 6644SOL    HW231566   2.198   4.219   3.626  2.7623  1.7264 -0.3856
 6645SOL     OW31567   3.779   2.118   6.902  0.2292 -0.1158  0.1502
 6645SOL    HW131568   3.828   2.036   6.891  0.1612 -0.0010 -1.0654
 6645SOL    HW231569   3.777   2.124   6.997 -0.9887  0.7507  0.0821
 6646SOL     OW31570   2.925   3.477   5.799 -0.0761 -0.2901 -0.1222
 6646SOL    HW131571   2.996   3.437   5.850  0.0008  0.5084  0.3898
 6646SOL    HW231572   2.965   3.465   5.712 -1.5882  0.1355 -0.8684
 6647SOL     OW31573   2.639   3.301  11.841  0.6959  0.2943 -0.0596
 6647SOL    HW131574   2.613   3.209  11.843  0.6013  0.3223 -0.0089
 6647SOL    HW231575   2.674   3.313  11.929 -2.2416 -0.2389  1.1810
 6648SOL     OW31576   3.316   3.990  12.054 -0.1433 -0.1013  0.0622
 6648SOL    HW131577   3.327   4.056  12.123  1.6990 -1.0342  0.6532
 6648SOL    HW231578   3.333   4.039  11.974 -0.7950 -0.6698 -0.4204
 6649SOL     OW31579   4.564   0.335   0.556  0.1662 -0.0587 -0.2279
 6649SOL    HW131580   4.524   0.309   0.638 -0.8458 -0.8319 -0.9753
 6649SOL    HW231581   4.640   0.278   0.547 -0.3337 -1.1148  2.4150
 6650SOL     OW31582   3.936   2.441  11.734  0.2740 -0.2550  0.7856
 6650SOL    HW131583   3.956   2.347  11.737  0.6491 -0.2305 -0.8008
 6650SOL    HW231584   3.840   2.441  11.731  0.2976 -1.5551 -0.0823
 6651SOL     OW31585   0.356   0.700   2.266 -0.0404 -0.0896  0.4228
 6651SOL    HW131586   0.343   0.794   2.276 -0.3625 -0.0265 -0.5305
 6651SOL    HW231587   0.354   0.679   2.359  1.4737  0.2241  0.5159
 6652SOL     OW31588   3.218   0.220  14.740 -0.1726  0.8052  0.2068
 6652SOL    HW131589   3.206   0.149  14.802  1.7017  0.0234 -0.3483
 6652SOL    HW231590   3.280   0.271  14.791 -0.1853  0.9278  0.0990
 6653SOL     OW31591   1.076   1.980   0.757  0.3043 -0.5207  0.2256
 6653SOL    HW131592   1.093   2.074   0.749 -1.6830 -0.0933  1.0768
 6653SOL    HW231593   1.143   1.953   0.820  1.7647 -1.0857 -1.5641
 6654SOL     OW31594   4.285   2.391  13.710 -0.2692 -0.1102 -1.0289
 6654SOL    HW131595   4.210   2.342  13.743  0.5577 -0.5000  0.2895
 6654SOL    HW231596   4.355   2.328  13.724  0.6359  1.0433 -0.3443
 6655SOL     OW31597   0.591   4.232   2.630 -0.1704 -0.5218 -0.0902
 6655SOL    HW131598   0.558   4.287   2.558  1.1868  1.5486  0.8730
 6655SOL    HW231599   0.684   4.243   2.609 -0.2050 -0.5517 -0.2657
 6656SOL     OW31600   4.488   3.664   8.425 -0.0303  0.5561  0.2285
 6656SOL    HW131601   4.403   3.643   8.462  0.5848  0.7544  1.7511
 6656SOL    HW231602   4.467   3.627   8.339  2.5531  3.1839 -1.5217
 6657SOL     OW31603   3.826   1.274   6.338  0.0849  0.4361 -0.5867
 6657SOL    HW131604   3.731   1.278   6.323 -0.5138 -1.4393  2.7771
 6657SOL    HW231605   3.826   1.308   6.428  2.1463  1.0687 -0.8192
 6658SOL     OW31606   3.825   2.065   0.751 -0.0939  0.0704  0.0646
 6658SOL    HW131607   3.781   2.067   0.836 -0.4933  0.1912 -0.1418
 6658SOL    HW231608   3.803   1.981   0.713 -1.7216  0.1496  0.8201
 6659SOL     OW31609   4.485   0.142   7.525  0.0457 -0.6878 -0.4686
 6659SOL    HW131610   4.489   0.117   7.433  0.2713  0.7386 -0.8475
 6659SOL    HW231611   4.419   0.211   7.519 -0.0414 -0.8572 -1.4256
 6660SOL     OW31612   0.285   0.135   2.151  0.1775 -0.1450  0.0849
 6660SOL    HW131613   0.256   0.202   2.089  0.4773 -2.6357 -2.7499
 6660SOL    HW231614   0.280   0.062   2.090  1.6237 -0.9359  0.9152
 6661SOL     OW31615   0.177   2.295   3.991  0.1873 -0.5346 -0.3743
 6661SOL    HW131616   0.208   2.258   3.908  0.5473 -1.4791  0.1787
 6661SOL    HW231617   0.098   2.244   4.011 -0.2238 -0.4020 -1.6458
 6662SOL     OW31618   2.804   4.569   5.194  0.7808 -0.1455 -0.7220
 6662SOL    HW131619   2.810   4.535   5.283  0.8374  0.1902 -0.5994
 6662SOL    HW231620   2.758   4.651   5.211  1.4400 -0.0906  0.7885
 6663SOL     OW31621   1.478   1.051  11.731  0.0942  0.1664  0.0026
 6663SOL    HW131622   1.427   0.999  11.669  2.2745 -0.3792 -1.3392
 6663SOL    HW231623   1.569   1.041  11.704  0.2639 -0.4865  0.8131
 6664SOL     OW31624   0.476   4.387   3.799 -0.0681  0.0387  0.2177
 6664SOL    HW131625   0.403   4.324   3.794  1.2034 -1.1687 -2.9379
 6664SOL    HW231626   0.551   4.334   3.774  1.5600  2.4864 -0.0513
 6665SOL     OW31627   2.585   2.121   8.494  0.2064  0.5905 -0.6680
 6665SOL    HW131628   2.495   2.121   8.525  0.4635  0.2999  0.0613
 6665SOL    HW231629   2.568   2.179   8.420 -0.3794  2.2620  0.7914
 6666SOL     OW31630   0.042   1.025  11.970  0.0259  0.3056 -0.5448
 6666SOL    HW131631   4.736   0.970  12.032  0.4274  0.7137  0.1160
 6666SOL    HW231632   0.130   1.024  12.007  0.2325 -0.6869 -1.0429
 6667SOL     OW31633   2.276   1.947   4.010  0.1284  0.2785  0.5367
 6667SOL    HW131634   2.268   1.896   3.929  1.6215  1.0788 -0.1225
 6667SOL    HW231635   2.187   1.959   4.042 -0.1711 -2.5232  0.7429
 6668SOL     OW31636   1.404   0.572  14.589 -0.3970 -0.1703  0.2435
 6668SOL    HW131637   1.360   0.487  14.583  1.6463 -1.1433 -0.8509
 6668SOL    HW231638   1.447   0.579  14.503 -1.6388  1.3015 -0.2626
 6669SOL     OW31639   0.508   0.233  17.395 -0.1377 -0.4041 -0.4160
 6669SOL    HW131640   0.414   0.218  17.385  0.1207 -3.1936  1.4018
 6669SOL    HW231641   0.495   0.287  17.474  1.9709 -1.7592  0.8440
 6670SOL     OW31642   4.262   0.332  10.629 -0.1154  0.4054  0.7139
 6670SOL    HW131643   4.325   0.265  10.603 -1.6151  0.3877 -2.8700
 6670SOL    HW231644   4.195   0.334  10.560  0.3451  1.1871  0.2824
 6671SOL     OW31645   1.323   1.605   3.503  0.5456  0.0818  0.8151
 6671SOL    HW131646   1.305   1.680   3.447 -1.5533 -2.0882 -1.4688
 6671SOL    HW231647   1.361   1.542   3.441  0.2055  1.0629 -0.3874
 6672SOL     OW31648   1.560   0.199   0.983  0.1085  0.1810  0.5635
 6672SOL    HW131649   1.626   0.265   0.964  1.0326 -1.1153 -0.7518
 6672SOL    HW231650   1.568   0.139   0.909 -1.8995 -0.0997  0.5646
 6673SOL     OW31651   4.238   1.289  15.715  0.2393  0.3487 -0.1642
 6673SOL    HW131652   4.221   1.368  15.662 -0.2999  0.3714  0.0377
 6673SOL    HW231653   4.330   1.297  15.739  0.8248 -1.3688 -1.8309
 6674SOL     OW31654   4.251   1.310   6.869 -0.0280  0.1797  0.7010
 6674SOL    HW131655   4.218   1.296   6.781  0.7414 -1.4885  0.6844
 6674SOL    HW231656   4.321   1.371   6.844 -0.1875 -0.2448 -0.7506
 6675SOL     OW31657   1.838   1.716   3.023 -0.4166  0.1625 -0.1847
 6675SOL    HW131658   1.796   1.651   2.967  1.4495 -1.3033  0.1208
 6675SOL    HW231659   1.932   1.709   3.008 -0.1499  2.3933  0.3134
 6676SOL     OW31660   3.005   2.015   8.431  0.6453 -0.1235  0.3629
 6676SOL    HW131661   2.938   1.951   8.457  0.1149 -1.0511 -3.2576
 6676SOL    HW231662   3.002   2.005   8.336  2.0599  1.4747  0.1476
 6677SOL     OW31663   1.962   4.653   7.675  0.3055 -0.5916  0.0647
 6677SOL    HW131664   1.889   4.596   7.651 -1.2860  0.8842  1.4252
 6677SOL    HW231665   2.031   4.589   7.693 -0.3818 -1.2175  0.4447
 6678SOL     OW31666   1.109   4.628   8.101 -0.2153  0.3207  0.0500
 6678SOL    HW131667   1.187   4.607   8.153  0.2279  0.0659 -0.7093
 6678SOL    HW231668   1.150   4.608   8.017 -2.2990  0.9474 -1.1186
 6679SOL     OW31669   0.246   1.186  17.746  0.5579  0.2028  0.3525
 6679SOL    HW131670   0.262   1.233  17.665 -0.1265 -0.8027 -0.3754
 6679SOL    HW231671   0.332   1.145  17.760  1.0025  1.4662  1.3360
 6680SOL     OW31672   0.714   1.883   1.442  0.1825  0.0119 -0.5721
 6680SOL    HW131673   0.635   1.938   1.434 -1.2667 -1.9031  0.4981
 6680SOL    HW231674   0.701   1.843   1.527 -0.0712 -0.3711 -0.7888
 6681SOL     OW31675   4.708   4.724   2.434  0.2121 -0.7148 -0.1101
 6681SOL    HW131676   4.635   4.664   2.443  0.5397 -1.7004 -4.2971
 6681SOL    HW231677   4.664   0.049   2.381  0.1805  1.2033  2.3201
 6682SOL     OW31678   2.111   3.781   7.748 -0.2017  0.0498 -0.7070
 6682SOL    HW131679   2.094   3.726   7.672 -2.5193 -1.6157  1.0212
 6682SOL    HW231680   2.057   3.734   7.812  1.7368 -1.2043 -0.0160
 6683SOL     OW31681   1.310   3.367   7.381 -0.0249 -0.2711  0.4136
 6683SOL    HW131682   1.337   3.304   7.314 -1.8675  0.1982 -0.7652
 6683SOL    HW231683   1.377   3.433   7.364 -1.3780  0.6080 -1.5003
 6684SOL     OW31684   1.974   0.047   5.536 -0.2623 -0.2590 -0.3489
 6684SOL    HW131685   1.943   0.136   5.518 -0.0543  0.1764  1.4740
 6684SOL    HW231686   1.892   0.011   5.569  0.3340  0.0795  1.5013
 6685SOL     OW31687   2.918   1.092   3.903 -0.7619 -0.2448 -0.3137
 6685SOL    HW131688   2.950   1.182   3.902  0.6204 -0.7297 -0.2751
 6685SOL    HW231689   2.925   1.065   3.811  0.3734  0.8697 -0.5571
 6686SOL     OW31690   3.969   3.127   0.819  0.3914 -0.1655 -0.3664
 6686SOL    HW131691   4.035   3.117   0.887 -0.9276  0.1555  0.9796
 6686SOL    HW231692   4.014   3.088   0.744 -2.6068 -3.1432 -0.6527
 6687SOL     OW31693   2.399   1.171  14.892 -0.4065  0.2120 -0.3643
 6687SOL    HW131694   2.412   1.107  14.821 -0.0514  1.0319 -1.0396
 6687SOL    HW231695   2.333   1.226  14.851  0.8260  0.0744 -2.5361
 6688SOL     OW31696   3.213   2.679  13.670 -0.4333  0.0933 -0.4185
 6688SOL    HW131697   3.305   2.701  13.681 -0.4375  0.0723 -0.3354
 6688SOL    HW231698   3.187   2.769  13.691 -0.9848  0.0611 -0.9775
 6689SOL     OW31699   2.084   1.536  11.197  0.0899 -0.2469  0.1337
 6689SOL    HW131700   2.106   1.504  11.285  0.3008  1.1264  0.5843
 6689SOL    HW231701   2.070   1.627  11.223 -1.7541 -0.2258 -0.9431
 6690SOL     OW31702   0.367   0.667   8.337 -0.8200 -0.0983  0.7504
 6690SOL    HW131703   0.298   0.689   8.401  0.6646  0.2169  2.2321
 6690SOL    HW231704   0.438   0.619   8.379 -0.4980  0.8941  1.3332
 6691SOL     OW31705   1.858   4.635   7.117 -0.1812 -0.2803 -0.1779
 6691SOL    HW131706   1.887   4.653   7.206 -3.0843  2.3676  0.2757
 6691SOL    HW231707   1.931   4.669   7.065 -0.7500 -1.0029 -1.4392
 6692SOL     OW31708   0.966   0.048   9.585 -0.3277 -0.2355 -0.3232
 6692SOL    HW131709   0.934   4.699   9.583 -0.1380 -0.2815 -1.2314
 6692SOL    HW231710   0.890   0.093   9.623 -1.8744 -3.2658  0.2053
 6693SOL     OW31711   2.796   2.766   7.663  0.0418 -0.0763  0.2122
 6693SOL    HW131712   2.748   2.736   7.741 -3.8689  1.9829 -1.4097
 6693SOL    HW231713   2.866   2.811   7.711  0.0457 -1.1550  1.2195
 6694SOL     OW31714   2.733   2.561   6.686 -0.0217 -0.0260  0.4752
 6694SOL    HW131715   2.733   2.555   6.591 -0.2456  1.4716  0.3682
 6694SOL    HW231716   2.741   2.657   6.692  1.8714  0.0016 -2.5724
 6695SOL     OW31717   1.571   3.907   1.940  0.8916  0.1819  0.2644
 6695SOL    HW131718   1.518   3.829   1.962  0.9597 -0.7800 -3.0122
 6695SOL    HW231719   1.647   3.868   1.897  0.5398  0.5882 -0.7140
 6696SOL     OW31720   4.273   1.249  12.023  0.5169  0.1491  0.1086
 6696SOL    HW131721   4.255   1.271  11.932  2.1277 -0.2098 -0.2925
 6696SOL    HW231722   4.367   1.264  12.034  0.5350  0.4764 -0.5064
 6697SOL     OW31723   3.153   2.828   5.088  0.0216 -0.4992  0.4989
 6697SOL    HW131724   3.103   2.758   5.129 -0.1209 -0.4601  0.3928
 6697SOL    HW231725   3.079   2.878   5.053  1.0146  1.9205  1.9000
 6698SOL     OW31726   2.649   2.112  14.431 -0.3185  0.6783 -0.3625
 6698SOL    HW131727   2.579   2.095  14.369  0.2942  0.5386 -1.0170
 6698SOL    HW231728   2.627   2.198  14.467  0.5027  0.4826  0.6367
 6699SOL     OW31729   4.190   4.055   6.462 -0.4872 -0.6935 -0.0874
 6699SOL    HW131730   4.244   4.086   6.390 -0.7465 -2.0849 -0.8727
 6699SOL    HW231731   4.248   4.057   6.538 -0.9205  1.8019  0.1818
 6700SOL     OW31732   0.895   3.970   8.960  0.6507  0.3860 -0.4744
 6700SOL    HW131733   0.980   3.931   8.939  0.1041 -0.5794 -0.9037
 6700SOL    HW231734   0.833   3.913   8.914  1.8472 -0.8115 -0.5947
 6701SOL     OW31735   2.610   4.020   4.358 -0.9337 -0.2588  0.7450
 6701SOL    HW131736   2.550   3.985   4.424  1.6472 -3.7441  1.2731
 6701SOL    HW231737   2.618   3.940   4.305  2.6049  1.7869 -1.7939
 6702SOL     OW31738   2.884   2.961   1.324  0.0517  0.1594 -0.2770
 6702SOL    HW131739   2.829   3.035   1.346 -1.0051 -0.8964  0.6180
 6702SOL    HW231740   2.828   2.883   1.318 -1.2905  1.0695  0.5745
 6703SOL     OW31741   3.313   3.869   3.548 -0.2786 -0.2025  0.6261
 6703SOL    HW131742   3.290   3.851   3.457 -0.6364 -0.2859  0.7346
 6703SOL    HW231743   3.390   3.814   3.561 -0.7407 -0.4108  2.5888
 6704SOL     OW31744   4.732   2.154   1.847  0.1999  0.1263  0.3764
 6704SOL    HW131745   0.016   2.064   1.827 -0.9956 -0.4980  1.6165
 6704SOL    HW231746   4.642   2.158   1.813  0.9762  1.0878 -1.5451
 6705SOL     OW31747   2.350   3.462   8.520  0.5841  0.0374  0.5858
 6705SOL    HW131748   2.349   3.410   8.600  1.7445 -0.1583  0.4770
 6705SOL    HW231749   2.272   3.518   8.519 -1.2760 -2.5787 -0.3246
 6706SOL     OW31750   2.173   0.299   2.245 -0.4064  0.6246 -0.2025
 6706SOL    HW131751   2.164   0.246   2.165 -0.9462  0.9350 -0.3434
 6706SOL    HW231752   2.085   0.335   2.241 -1.0164 -0.7034  1.3541
 6707SOL     OW31753   2.266   1.106   8.650  0.2246  0.5042  0.0581
 6707SOL    HW131754   2.287   1.200   8.651  2.6844 -0.0436  0.0232
 6707SOL    HW231755   2.299   1.091   8.739  0.1213  1.4599  0.2615
 6708SOL     OW31756   1.713   0.083   2.394  0.7741 -0.5197  0.5684
 6708SOL    HW131757   1.723   4.732   2.368  2.2963 -0.5044  1.1349
 6708SOL    HW231758   1.638   0.093   2.335  0.2839 -0.4942  1.2011
 6709SOL     OW31759   4.635   2.686   6.021  0.6350  0.1618  0.3636
 6709SOL    HW131760   4.558   2.645   5.981  1.0225 -0.7481  0.5557
 6709SOL    HW231761   4.685   2.706   5.941  1.6041 -0.7931  0.7318
 6710SOL     OW31762   2.795   2.143   4.461 -0.1576  1.1818 -0.4315
 6710SOL    HW131763   2.703   2.125   4.480  0.2972 -1.0030 -0.3075
 6710SOL    HW231764   2.786   2.208   4.391 -1.4727  0.7189 -0.6984
 6711SOL     OW31765   1.240   0.558  14.196 -0.6788  0.4710  0.1195
 6711SOL    HW131766   1.206   0.470  14.213  1.6541 -0.3531  0.5626
 6711SOL    HW231767   1.255   0.545  14.103  0.1964  1.7796  0.0792
 6712SOL     OW31768   1.240   0.419   9.234 -0.1605 -0.7534  0.4242
 6712SOL    HW131769   1.308   0.361   9.201 -1.5314 -2.0686 -0.0955
 6712SOL    HW231770   1.160   0.366   9.239 -1.5547  1.3295  0.4218
 6713SOL     OW31771   0.714   0.503   4.082  0.0219 -0.4826  0.3161
 6713SOL    HW131772   0.768   0.582   4.078  1.1272 -1.2079  1.0583
 6713SOL    HW231773   0.766   0.443   4.136  0.0186 -1.2370 -0.5237
 6714SOL     OW31774   2.785   4.250  12.343 -0.0371  0.2711  0.5701
 6714SOL    HW131775   2.852   4.316  12.357  0.8768 -0.2864 -1.1579
 6714SOL    HW231776   2.733   4.266  12.422  1.7316  1.8651  1.4270
 6715SOL     OW31777   2.662   0.174  15.168  0.3261 -0.2368  0.4601
 6715SOL    HW131778   2.579   0.217  15.188  1.6110  2.2075  0.5676
 6715SOL    HW231779   2.732   0.235  15.189 -0.1649  1.0629 -1.7056
 6716SOL     OW31780   1.196   0.447   5.950 -0.3794 -0.2891 -0.2378
 6716SOL    HW131781   1.105   0.466   5.927 -0.5298 -0.2944  0.3777
 6716SOL    HW231782   1.224   0.433   5.859 -0.5154 -2.7400  0.0866
 6717SOL     OW31783   0.818   2.259   3.749 -0.5306 -0.1906  0.6539
 6717SOL    HW131784   0.858   2.344   3.730  0.0468 -0.6340 -0.1226
 6717SOL    HW231785   0.872   2.210   3.811 -1.1286 -0.3475  1.0498
 6718SOL     OW31786   1.559   4.472   7.964 -0.6425 -0.3516  0.0190
 6718SOL    HW131787   1.591   4.397   7.915 -1.8814 -1.6607  1.1849
 6718SOL    HW231788   1.643   4.515   7.978  1.1931 -3.7707 -0.5223
 6719SOL     OW31789   0.574   2.582   4.035 -0.0609 -0.1610  0.1915
 6719SOL    HW131790   0.605   2.667   4.068  0.3038 -0.6997  1.2294
 6719SOL    HW231791   0.479   2.580   4.049  0.0911 -1.8605  0.9796
 6720SOL     OW31792   2.468   0.423  15.736 -0.0534 -0.7353  0.2107
 6720SOL    HW131793   2.563   0.433  15.735 -0.1977  0.6378 -0.2863
 6720SOL    HW231794   2.450   0.460  15.822 -1.3516  0.0217 -0.3837
 6721SOL     OW31795   0.299   3.646   8.099 -0.2712 -0.3563  0.2036
 6721SOL    HW131796   0.288   3.575   8.035  0.5409  0.1757 -0.5199
 6721SOL    HW231797   0.310   3.602   8.184  0.6318 -0.9032 -0.1957
 6722SOL     OW31798   3.169   1.649   5.528 -0.6373 -0.4011  0.1230
 6722SOL    HW131799   3.195   1.567   5.571  0.8245 -0.6183 -1.1871
 6722SOL    HW231800   3.247   1.669   5.478 -0.5069  0.2478  0.5784
 6723SOL     OW31801   0.930   2.218   5.420  0.0775  0.0815  0.4414
 6723SOL    HW131802   0.867   2.289   5.421  0.9607  0.8540  1.3133
 6723SOL    HW231803   0.887   2.139   5.386 -0.6617  1.0766 -0.9240
 6724SOL     OW31804   2.075   4.302   2.645  0.4849  0.3866  0.1685
 6724SOL    HW131805   2.108   4.391   2.654 -2.1503  1.3547  0.4003
 6724SOL    HW231806   2.047   4.280   2.734 -0.0893 -0.1454 -0.1409
 6725SOL     OW31807   2.678   2.516   4.469 -0.4612  0.1134  0.8849
 6725SOL    HW131808   2.635   2.504   4.384 -0.2820 -1.2252  0.9905
 6725SOL    HW231809   2.642   2.602   4.492  0.4830  1.1125 -1.3437
 6726SOL     OW31810   1.125   3.343  17.457  1.0516  0.0209 -0.6957
 6726SOL    HW131811   1.182   3.300  17.521 -0.0461  0.1374  0.3781
 6726SOL    HW231812   1.122   3.435  17.485 -1.1241 -0.6511  1.2646
 6727SOL     OW31813   2.141   3.532   4.405  0.6855  0.7718  0.0571
 6727SOL    HW131814   2.098   3.474   4.343 -2.7948  1.9628  1.3926
 6727SOL    HW231815   2.217   3.476   4.422 -0.8564 -1.1006  0.7450
 6728SOL     OW31816   4.071   4.674  10.028 -0.0646  0.4985 -0.5306
 6728SOL    HW131817   4.166   4.676  10.013  0.0604  1.8160  0.4585
 6728SOL    HW231818   4.067   4.641  10.118 -1.6340 -0.3218 -0.9084
 6729SOL     OW31819   3.466   1.339   6.758 -0.0217 -0.1479 -0.0769
 6729SOL    HW131820   3.411   1.264   6.778 -1.9894  1.6478  1.2606
 6729SOL    HW231821   3.529   1.331   6.830 -1.0077 -0.6627  0.7326
 6730SOL     OW31822   0.037   3.616   8.098 -0.2837  0.3229  0.5154
 6730SOL    HW131823   0.051   3.526   8.129 -0.3336 -0.0682 -0.5866
 6730SOL    HW231824   0.125   3.652   8.111 -0.6137  1.5601 -0.7002
 6731SOL     OW31825   1.043   1.354  12.310 -1.1581  0.2822 -0.3822
 6731SOL    HW131826   1.016   1.302  12.234 -0.4780  1.1313 -1.1907
 6731SOL    HW231827   1.124   1.399  12.285  1.1578 -3.7122 -0.1086
 6732SOL     OW31828   1.499   2.697   4.874 -0.0118 -0.0396 -0.1847
 6732SOL    HW131829   1.428   2.735   4.822 -0.1621 -1.6387 -1.1421
 6732SOL    HW231830   1.449   2.662   4.948 -0.3536  1.1725  0.1609
 6733SOL     OW31831   0.496   0.861   3.117 -0.7003  0.2967 -0.4184
 6733SOL    HW131832   0.495   0.792   3.184  2.9615 -0.0839 -0.7336
 6733SOL    HW231833   0.451   0.808   3.051  2.8005 -0.6542 -2.0671
 6734SOL     OW31834   2.441   0.234   2.285  0.3784 -0.5888  0.3533
 6734SOL    HW131835   2.437   0.138   2.278 -0.4934 -0.4893 -0.5121
 6734SOL    HW231836   2.349   0.258   2.281  0.0255 -1.7219  1.4312
 6735SOL     OW31837   3.529   3.795   6.116  0.8133  0.1167 -0.4039
 6735SOL    HW131838   3.609   3.749   6.142  1.3889  0.3385 -1.7719
 6735SOL    HW231839   3.538   3.791   6.021 -0.0624  1.0713 -0.5270
 6736SOL     OW31840   2.363   3.353   3.078  0.2132 -0.1604 -0.5235
 6736SOL    HW131841   2.381   3.284   3.015  0.0695 -1.0603  0.4225
 6736SOL    HW231842   2.441   3.407   3.070 -0.4039  1.0094  1.2787
 6737SOL     OW31843   0.651   1.740   2.414 -0.3364 -0.5801 -0.2952
 6737SOL    HW131844   0.641   1.666   2.474 -1.1447 -0.3468 -0.1484
 6737SOL    HW231845   0.733   1.776   2.450 -1.0978  0.5454  0.3114
 6738SOL     OW31846   4.678   1.467   7.389 -0.0990 -0.5355 -0.2107
 6738SOL    HW131847   4.630   1.510   7.460  0.5480  1.2217 -0.8433
 6738SOL    HW231848   4.727   1.535   7.343 -0.8244  0.6839  0.8154
 6739SOL     OW31849   1.396   2.941  12.178  0.0107 -0.1260  0.3075
 6739SOL    HW131850   1.379   2.883  12.103  2.3693 -1.1329  0.5627
 6739SOL    HW231851   1.353   2.901  12.254 -1.2100  0.9329  0.1782
 6740SOL     OW31852   4.535   2.803   0.511  0.0531  0.2238 -0.5602
 6740SOL    HW131853   4.619   2.839   0.539 -0.3182  1.0629 -0.5132
 6740SOL    HW231854   4.562   2.712   0.525 -1.2488  0.1006  1.0881
 6741SOL     OW31855   0.953   4.259   7.751  0.0182 -1.0571 -0.1655
 6741SOL    HW131856   0.954   4.345   7.793 -0.2277 -0.6799 -0.9391
 6741SOL    HW231857   0.930   4.287   7.663  1.1238 -0.3275 -0.2254
 6742SOL     OW31858   2.547   0.345   1.746 -0.4055  0.1082  0.3521
 6742SOL    HW131859   2.492   0.321   1.671  0.5134 -0.8819 -0.0103
 6742SOL    HW231860   2.500   0.319   1.825  0.6542 -1.7186  0.3792
 6743SOL     OW31861   0.169   1.341   1.596  0.3219  0.0689 -0.4853
 6743SOL    HW131862   0.239   1.336   1.531  1.7940  2.2881  0.9318
 6743SOL    HW231863   0.208   1.312   1.678 -1.1913 -0.3324  0.1049
 6744SOL     OW31864   2.725   2.508   1.210 -0.0675 -0.6920 -0.2671
 6744SOL    HW131865   2.759   2.419   1.221  0.1931 -0.6834 -1.0349
 6744SOL    HW231866   2.683   2.497   1.125 -0.1656 -1.1630 -0.1604
 6745SOL     OW31867   1.012   3.586   2.988  0.0002  0.7413  0.4705
 6745SOL    HW131868   1.043   3.656   2.931  0.7454  0.2069  0.2245
 6745SOL    HW231869   0.930   3.620   3.026 -0.0613 -0.5082  1.4593
 6746SOL     OW31870   3.186   1.725   7.646  0.0264 -0.0848  0.4092
 6746SOL    HW131871   3.095   1.745   7.669  0.0019  2.1382 -1.5981
 6746SOL    HW231872   3.173   1.658   7.578  2.8970 -1.3716  1.1537
 6747SOL     OW31873   3.022   4.510  13.702 -0.4603  1.0822  0.5058
 6747SOL    HW131874   2.970   4.436  13.733  0.1051  0.6494  0.4123
 6747SOL    HW231875   3.073   4.470  13.631  0.3860 -0.2544  1.8638
 6748SOL     OW31876   1.277   3.106   7.526 -0.1757  0.2001 -0.3857
 6748SOL    HW131877   1.187   3.086   7.500  0.3032 -1.4755 -0.7553
 6748SOL    HW231878   1.290   3.190   7.480  1.4167 -0.2178 -0.7104
 6749SOL     OW31879   0.911   4.641   7.396  0.0649 -0.0912  1.0303
 6749SOL    HW131880   0.859   4.716   7.426  1.5983  0.0942  3.2629
 6749SOL    HW231881   0.998   4.673   7.422  0.8617 -1.5897  0.1697
 6750SOL     OW31882   3.114   1.571   9.957  0.6078  0.2243 -0.4986
 6750SOL    HW131883   3.134   1.577   9.864 -0.8451 -0.8145 -0.8766
 6750SOL    HW231884   3.019   1.580   9.962  0.6199 -0.3897  0.7621
 6751SOL     OW31885   1.989   3.336  16.834 -0.8590 -0.3255 -0.5273
 6751SOL    HW131886   1.949   3.375  16.756  1.7251  0.3925 -1.5032
 6751SOL    HW231887   2.083   3.337  16.813 -0.7671 -0.2351 -0.1070
 6752SOL     OW31888   2.443   1.799   2.157 -0.4392  0.2181 -0.2852
 6752SOL    HW131889   2.504   1.829   2.224 -0.5521  2.2235 -1.1037
 6752SOL    HW231890   2.508   1.751   2.106  0.4568 -1.7100  2.6219
 6753SOL     OW31891   2.228   1.929   6.000 -0.2755  0.6013  0.0526
 6753SOL    HW131892   2.282   2.008   5.997 -0.2141  0.5034 -1.3843
 6753SOL    HW231893   2.220   1.899   5.909 -0.3331 -0.2087  0.3224
 6754SOL     OW31894   3.121   2.362  12.168  0.0885  0.2395  0.1167
 6754SOL    HW131895   3.141   2.439  12.222 -0.7474 -0.2027  1.0401
 6754SOL    HW231896   3.071   2.311  12.231 -1.7878  1.6941 -0.2013
 6755SOL     OW31897   1.757   2.940  17.253  0.2449  0.0425  0.1023
 6755SOL    HW131898   1.695   2.976  17.189  0.2226 -0.2759 -0.0526
 6755SOL    HW231899   1.829   2.908  17.198  0.7032 -0.1576  0.8232
 6756SOL     OW31900   4.360   2.771   4.468 -0.8839 -0.0363  0.5600
 6756SOL    HW131901   4.390   2.861   4.460 -1.7763  0.0493 -1.6821
 6756SOL    HW231902   4.292   2.768   4.402 -0.6065  0.9545  0.2265
 6757SOL     OW31903   2.925   0.273  17.290 -0.2150 -0.1131 -0.0901
 6757SOL    HW131904   2.831   0.280  17.278 -0.2706  0.6982  0.8183
 6757SOL    HW231905   2.925   0.262  17.385 -0.0390  1.2633  0.0815
 6758SOL     OW31906   4.525   3.615   8.710  0.0387  0.0945 -0.0723
 6758SOL    HW131907   4.611   3.594   8.674 -0.4756  0.8660 -1.7443
 6758SOL    HW231908   4.492   3.528   8.732 -0.7420  0.4300  0.0809
 6759SOL     OW31909   4.394   2.073   8.407 -0.1426 -0.3029  0.4770
 6759SOL    HW131910   4.348   2.102   8.328  0.5802 -2.6499 -0.8167
 6759SOL    HW231911   4.488   2.081   8.394 -0.3373 -0.0650 -0.7918
 6760SOL     OW31912   0.409   2.321   3.233 -0.0871  0.2650 -0.9428
 6760SOL    HW131913   0.454   2.259   3.176  0.3396  0.1114 -0.4427
 6760SOL    HW231914   0.437   2.395   3.179 -0.9399  2.2042  1.2595
 6761SOL     OW31915   3.073   2.338  12.428  0.4735  0.1776  0.3283
 6761SOL    HW131916   2.985   2.372  12.445  0.1948 -0.8253  0.8458
 6761SOL    HW231917   3.116   2.372  12.507 -1.0390  0.9793  0.8127
 6762SOL     OW31918   3.748   4.074   7.756 -0.2640 -0.1610 -0.5990
 6762SOL    HW131919   3.674   4.023   7.789  1.0177 -0.9889  1.0246
 6762SOL    HW231920   3.811   4.009   7.725 -1.8614 -2.1640  0.4077
 6763SOL     OW31921   3.678   4.072   1.480 -0.0049 -0.8413  0.1557
 6763SOL    HW131922   3.760   4.091   1.434 -0.7929 -1.4718 -1.4713
 6763SOL    HW231923   3.635   4.143   1.432 -1.2489 -0.8542  1.2455
 6764SOL     OW31924   1.056   4.163   3.800  0.6645  0.2582 -0.4149
 6764SOL    HW131925   1.098   4.077   3.797 -1.2166 -0.6803  0.5263
 6764SOL    HW231926   0.963   4.141   3.806  1.2358 -2.1617 -0.7441
 6765SOL     OW31927   2.504   4.268   1.148 -0.5477 -0.4854 -0.4746
 6765SOL    HW131928   2.480   4.186   1.193  0.6349 -0.7270 -0.2779
 6765SOL    HW231929   2.506   4.324   1.225  0.9748  0.0699 -0.9307
 6766SOL     OW31930   1.689   3.653   7.123 -0.3587  0.1036 -0.7524
 6766SOL    HW131931   1.626   3.668   7.052 -1.7476  1.1843  0.7252
 6766SOL    HW231932   1.737   3.580   7.083  1.1971  0.0982  1.1416
 6767SOL     OW31933   2.364   3.940   6.590  0.8449 -0.3322 -0.0567
 6767SOL    HW131934   2.273   3.967   6.577  0.9291  1.2040  2.6828
 6767SOL    HW231935   2.401   4.010   6.644  0.0327 -1.0472  1.4257
 6768SOL     OW31936   0.531   2.238  10.410 -0.1956 -0.2474 -0.3218
 6768SOL    HW131937   0.626   2.226  10.413  0.0895  2.2811  0.2189
 6768SOL    HW231938   0.514   2.281  10.327 -0.7017  1.2673  0.5686
 6769SOL     OW31939   4.638   0.058   8.490 -0.3703  0.4669  0.2934
 6769SOL    HW131940   4.707   0.124   8.496 -0.9682  1.2647 -1.9654
 6769SOL    HW231941   4.618   0.071   8.398 -3.3515 -0.2452  0.8659
 6770SOL     OW31942   3.715   0.980   8.255 -0.0471 -0.5931  0.0830
 6770SOL    HW131943   3.656   1.015   8.321  0.6856  0.4231  0.1938
 6770SOL    HW231944   3.781   1.047   8.237  0.3782 -1.7330 -2.5839
 6771SOL     OW31945   4.245   1.383   2.224 -0.3741 -0.5240  0.3106
 6771SOL    HW131946   4.184   1.311   2.238  0.4281 -0.8363  2.0776
 6771SOL    HW231947   4.315   1.353   2.281  0.5491  0.0900 -0.4986
 6772SOL     OW31948   3.052   2.062  11.377  0.1410  0.5015 -0.2786
 6772SOL    HW131949   2.994   2.055  11.453  1.1574 -0.8867  0.3631
 6772SOL    HW231950   3.124   2.109  11.419  0.9637 -1.2648  0.2785
 6773SOL     OW31951   1.199   0.142  15.347  0.1409  0.1033 -0.5540
 6773SOL    HW131952   1.256   0.124  15.422 -0.2914  1.9778  0.2282
 6773SOL    HW231953   1.111   0.120  15.377 -0.5356  1.7134 -1.3346
 6774SOL     OW31954   3.372   1.554   4.796  0.4145  0.0241 -0.9890
 6774SOL    HW131955   3.442   1.555   4.861  0.6977 -3.3522 -1.2186
 6774SOL    HW231956   3.310   1.490   4.832  0.9717 -0.4943 -0.9445
 6775SOL     OW31957   2.242   4.242   0.676  0.7542  0.1127 -1.0147
 6775SOL    HW131958   2.329   4.252   0.716  0.8589 -0.7019 -1.0269
 6775SOL    HW231959   2.189   4.225   0.754  0.0897  0.0560 -1.4828
 6776SOL     OW31960   2.542   3.561  15.437 -0.0135  0.1994 -0.6163
 6776SOL    HW131961   2.608   3.526  15.377 -0.7006  0.7423 -1.6729
 6776SOL    HW231962   2.583   3.647  15.436 -2.5262  1.3920  0.3706
 6777SOL     OW31963   3.552   2.473   4.817 -0.1638  0.3401  0.0078
 6777SOL    HW131964   3.497   2.550   4.803 -0.6923 -0.1310 -0.4718
 6777SOL    HW231965   3.625   2.510   4.866 -0.5011 -0.4648  1.1062
 6778SOL     OW31966   1.427   2.603   6.424 -0.1332 -0.3967 -0.0770
 6778SOL    HW131967   1.428   2.555   6.507 -0.1467  0.2563  0.2998
 6778SOL    HW231968   1.517   2.597   6.393 -0.4321 -2.2353 -0.6234
 6779SOL     OW31969   0.743   3.937   6.380 -0.1449 -1.0199  0.1490
 6779SOL    HW131970   0.772   3.881   6.308  3.7047 -1.3217  1.8870
 6779SOL    HW231971   0.695   4.010   6.341  1.1158 -1.3414 -2.0308
 6780SOL     OW31972   3.072   1.330   7.708  0.1537 -0.0248 -0.4363
 6780SOL    HW131973   2.987   1.371   7.725  0.4520  0.5333 -0.2829
 6780SOL    HW231974   3.052   1.240   7.732  2.0697 -0.4473 -0.4551
 6781SOL     OW31975   1.851   3.173   2.272 -0.4489  0.1651  0.4565
 6781SOL    HW131976   1.898   3.131   2.345  2.3098 -0.4555 -1.6871
 6781SOL    HW231977   1.789   3.108   2.240  1.5290 -1.3985 -0.2176
 6782SOL     OW31978   2.869   3.586   5.006  0.5982 -0.5692  0.7519
 6782SOL    HW131979   2.926   3.632   5.068 -2.3257  3.1397  0.7015
 6782SOL    HW231980   2.804   3.655   4.993  1.4278  0.2158  0.6944
 6783SOL     OW31981   3.578   1.206  14.844  0.4368  0.0777 -0.3332
 6783SOL    HW131982   3.499   1.259  14.857  0.0426 -0.8577  1.0542
 6783SOL    HW231983   3.615   1.257  14.771  1.3017  0.2115  0.1918
 6784SOL     OW31984   2.376   3.742   5.903  0.1047 -0.5168 -0.5978
 6784SOL    HW131985   2.449   3.731   5.843  0.9643 -0.2833  0.4023
 6784SOL    HW231986   2.349   3.652   5.919  1.3152 -0.7828 -0.0768
 6785SOL     OW31987   1.056   1.222   7.671  0.3579  0.5368  0.1695
 6785SOL    HW131988   1.064   1.313   7.701  1.5377  0.8374 -1.0696
 6785SOL    HW231989   1.051   1.238   7.577 -1.5668 -2.3885 -0.2222
 6786SOL     OW31990   0.539   3.453   0.473 -0.3129 -0.1968 -0.2925
 6786SOL    HW131991   0.498   3.538   0.456  1.0634  0.4774 -0.2513
 6786SOL    HW231992   0.612   3.477   0.529 -1.3166  1.8071  0.1785
 6787SOL     OW31993   1.241   3.610  11.086  0.3543  0.0705  0.3253
 6787SOL    HW131994   1.160   3.562  11.068 -0.6945  0.8554  3.0161
 6787SOL    HW231995   1.212   3.685  11.137 -1.2565  0.4404 -1.1056
 6788SOL     OW31996   4.410   2.846   6.871  0.0219 -0.5823  0.3626
 6788SOL    HW131997   4.497   2.885   6.863 -0.3517 -0.2349 -2.2104
 6788SOL    HW231998   4.394   2.822   6.779  0.1424 -2.9595  0.9741
 6789SOL     OW31999   0.560   2.129   6.455  0.2317 -0.5392 -0.5789
 6789SOL    HW132000   0.623   2.062   6.430 -0.6710 -2.1478  1.4161
 6789SOL    HW232001   0.504   2.071   6.508 -0.8323 -1.1249 -2.3314
 6790SOL     OW32002   2.380   4.573   9.382 -0.1534  0.5608 -0.2426
 6790SOL    HW132003   2.476   4.567   9.380 -0.1746 -0.2594  1.7096
 6790SOL    HW232004   2.373   4.645   9.444  0.9877  1.4325 -1.1250
 6791SOL     OW32005   1.003   1.671   5.693 -0.1732 -0.2277 -0.2033
 6791SOL    HW132006   1.031   1.579   5.697  0.2783  0.0368  2.7275
 6791SOL    HW232007   1.061   1.695   5.765  1.1485  0.6364 -1.5700
 6792SOL     OW32008   4.058   4.692   8.988  0.1667 -0.3065  0.7091
 6792SOL    HW132009   4.083   4.647   9.069  3.1660  1.1099  0.5883
 6792SOL    HW232010   3.976   4.646   8.976  0.3970 -0.3267 -0.7880
 6793SOL     OW32011   0.087   3.095   4.119  0.2959 -0.4493 -0.1214
 6793SOL    HW132012   0.158   3.070   4.060 -0.3081  2.6279 -2.1921
 6793SOL    HW232013   0.011   3.109   4.062  0.5716  0.8275 -0.1717
 6794SOL     OW32014   4.037   1.948   5.462  0.1999 -0.2072  0.2115
 6794SOL    HW132015   3.962   1.932   5.520 -1.6771 -3.2433 -3.0172
 6794SOL    HW232016   4.002   2.024   5.414 -2.2343 -1.3350  0.1686
 6795SOL     OW32017   1.363   1.489   2.898  0.3344 -0.4507  0.8154
 6795SOL    HW132018   1.383   1.413   2.844 -1.8044  0.4332 -1.1939
 6795SOL    HW232019   1.310   1.541   2.838 -0.2129  0.9058  2.4543
 6796SOL     OW32020   2.994   0.759   3.140  0.4435 -0.2229  0.3998
 6796SOL    HW132021   3.011   0.846   3.176 -0.4462  0.9271 -1.9582
 6796SOL    HW232022   3.002   0.714   3.223 -1.5880  0.0885  0.7801
 6797SOL     OW32023   0.205   0.469   3.554 -0.1019  0.1081 -0.1571
 6797SOL    HW132024   0.282   0.502   3.508  0.4834 -0.1768  0.6332
 6797SOL    HW232025   0.259   0.397   3.586 -0.9903 -0.7375 -0.5827
 6798SOL     OW32026   1.885   2.637  13.068  0.0698 -0.3603 -0.0000
 6798SOL    HW132027   1.959   2.664  13.014  1.7335 -2.1166  1.4158
 6798SOL    HW232028   1.924   2.601  13.147 -2.2153 -1.9664  0.4044
 6799SOL     OW32029   4.499   1.019   9.384 -0.0696 -0.1197 -0.3274
 6799SOL    HW132030   4.549   1.010   9.303  0.9175  2.6992 -0.0208
 6799SOL    HW232031   4.528   0.942   9.433 -3.8939 -0.4635  1.3801
 6800SOL     OW32032   3.910   3.130   3.402 -0.3281 -0.2753  0.2332
 6800SOL    HW132033   3.815   3.132   3.414 -0.4254 -0.3114 -0.5657
 6800SOL    HW232034   3.937   3.175   3.482 -0.9086  0.1409  0.1922
 6801SOL     OW32035   3.363   3.405   2.056 -0.1391 -0.9179 -0.3685
 6801SOL    HW132036   3.302   3.388   1.984 -0.6482  0.3333 -0.2226
 6801SOL    HW232037   3.368   3.501   2.056  1.1662 -0.9872  0.3283
 6802SOL     OW32038   4.040   1.654  15.106  0.9115  0.1024  0.2766
 6802SOL    HW132039   4.108   1.589  15.090  0.8216 -0.1186  0.7985
 6802SOL    HW232040   4.088   1.732  15.077 -0.5174  0.9286  0.1499
 6803SOL     OW32041   0.589   2.781   0.677  0.4093 -0.1033  0.2802
 6803SOL    HW132042   0.566   2.714   0.613  0.5860 -1.3113  1.4839
 6803SOL    HW232043   0.533   2.856   0.660  0.8510  0.3097  0.6407
 6804SOL     OW32044   1.672   2.636   5.226 -0.3234  0.7385  1.0399
 6804SOL    HW132045   1.597   2.695   5.229 -0.7411  0.2160  0.9122
 6804SOL    HW232046   1.623   2.554   5.219 -0.0136  0.4977  1.6439
 6805SOL     OW32047   0.400   2.618   8.326  0.5200  0.3485  0.0195
 6805SOL    HW132048   0.457   2.688   8.358  1.3398  0.4210 -1.6119
 6805SOL    HW232049   0.348   2.579   8.397  0.2658  0.5826 -0.0433
 6806SOL     OW32050   3.546   3.242  13.880  0.3401  0.2553  0.0922
 6806SOL    HW132051   3.509   3.321  13.840 -1.1133 -0.4678  0.0297
 6806SOL    HW232052   3.573   3.277  13.966 -1.4116 -0.4179  0.9182
 6807SOL     OW32053   2.761   3.498   2.671 -0.5743 -0.2474 -0.0700
 6807SOL    HW132054   2.680   3.506   2.720 -0.0669 -0.0595  0.7423
 6807SOL    HW232055   2.718   3.499   2.586 -0.5068  1.3370 -0.0856
 6808SOL     OW32056   3.027   1.944   6.290 -0.1879  0.1396  0.6257
 6808SOL    HW132057   3.111   1.986   6.267 -0.4443  0.5558  0.4441
 6808SOL    HW232058   3.062   1.863   6.326 -2.7646 -1.1291  0.2533
 6809SOL     OW32059   1.638   0.161   8.037 -0.0786  0.5309  0.0525
 6809SOL    HW132060   1.727   0.193   8.046 -0.6977  1.6196  2.2799
 6809SOL    HW232061   1.649   0.075   7.996 -1.7699 -0.1648  1.0363
 6810SOL     OW32062   4.152   2.396   7.980 -0.2199  0.1804  0.6720
 6810SOL    HW132063   4.098   2.372   7.904 -1.7577  2.2681  1.0975
 6810SOL    HW232064   4.094   2.463   8.015 -1.1291 -0.1425 -0.2079
 6811SOL     OW32065   1.426   3.346   1.493  0.7429  0.3314 -0.2560
 6811SOL    HW132066   1.479   3.425   1.486  2.4523 -0.6596  1.7130
 6811SOL    HW232067   1.346   3.376   1.537  0.5189  1.2012 -1.2465
 6812SOL     OW32068   2.389   0.560   5.348 -0.1558 -0.0156  0.3484
 6812SOL    HW132069   2.309   0.585   5.302 -0.0505  0.6821  0.5393
 6812SOL    HW232070   2.438   0.503   5.289  1.1807  0.5589  0.9141
 6813SOL     OW32071   0.350   1.515  16.243 -0.3681 -0.3963  0.1715
 6813SOL    HW132072   0.315   1.450  16.304 -0.6497 -0.6297 -0.2475
 6813SOL    HW232073   0.282   1.581  16.251  1.2686  1.1220  1.7292
 6814SOL     OW32074   3.453   4.642  10.843 -0.3493 -0.3037 -0.0045
 6814SOL    HW132075   3.440   4.658  10.749 -0.6969  1.1776  0.3002
 6814SOL    HW232076   3.524   4.704  10.861 -1.2689  1.8419 -3.7103
 6815SOL     OW32077   1.483   4.002   2.207  0.7637  0.4671  0.1344
 6815SOL    HW132078   1.494   3.992   2.113 -0.2453 -0.6150  0.1312
 6815SOL    HW232079   1.398   4.045   2.209 -0.4193 -1.9172  2.3925
 6816SOL     OW32080   1.797   2.289   8.768  0.4748 -0.2045 -0.7851
 6816SOL    HW132081   1.823   2.200   8.747 -2.4621 -1.2993  0.1928
 6816SOL    HW232082   1.785   2.325   8.680 -1.8689  0.8605 -0.0243
 6817SOL     OW32083   3.875   0.021  15.730  0.3093  0.0509 -0.4179
 6817SOL    HW132084   3.969   0.011  15.744  0.2561  0.9389  0.5432
 6817SOL    HW232085   3.878   0.085  15.659 -1.6408  1.5486  0.8620
 6818SOL     OW32086   2.175   3.231   6.160  0.1814 -0.5783 -0.4881
 6818SOL    HW132087   2.171   3.166   6.090  0.5176 -2.0569  0.8548
 6818SOL    HW232088   2.268   3.253   6.164  0.5363 -1.8284 -1.8968
 6819SOL     OW32089   4.492   2.064   7.536  0.4879  0.6191  0.0664
 6819SOL    HW132090   4.518   2.036   7.449  1.1350 -3.2376  1.5343
 6819SOL    HW232091   4.571   2.108   7.566  0.6896 -0.4409  1.0789
 6820SOL     OW32092   4.179   0.396  13.344  0.2590 -0.2643  0.1461
 6820SOL    HW132093   4.160   0.436  13.429 -1.9427  0.2555 -0.5921
 6820SOL    HW232094   4.270   0.363  13.348  0.4109  0.0463 -0.8924
 6821SOL     OW32095   2.758   1.921   3.371 -0.2943  0.4022 -0.1068
 6821SOL    HW132096   2.827   1.856   3.381  0.1886  0.2611 -4.4037
 6821SOL    HW232097   2.737   1.928   3.465  0.1214  0.0228  0.0165
 6822SOL     OW32098   2.724   4.047  17.086 -0.3116 -0.7255  0.1557
 6822SOL    HW132099   2.798   4.021  17.032 -0.5225 -0.7201 -0.1323
 6822SOL    HW232100   2.752   4.132  17.122  0.1396 -0.6726 -0.3165
 6823SOL     OW32101   0.602   2.878   2.301  0.6457  0.4293  0.7649
 6823SOL    HW132102   0.581   2.938   2.230  0.2111 -0.1495  0.4093
 6823SOL    HW232103   0.577   2.793   2.265 -0.7529  1.1255  0.1146
 6824SOL     OW32104   0.323   3.668  15.971 -0.6749 -0.1117  0.1240
 6824SOL    HW132105   0.244   3.652  16.023 -1.4432  0.7616 -0.7880
 6824SOL    HW232106   0.286   3.735  15.914 -1.2249 -0.1838  0.3894
 6825SOL     OW32107   0.354   3.063   8.079  0.9399 -0.7264 -0.3816
 6825SOL    HW132108   0.431   3.024   8.037  2.3018  0.5320  0.9432
 6825SOL    HW232109   0.319   2.983   8.118 -3.0847  0.0528 -2.4451
 6826SOL     OW32110   0.590   0.719   3.595  0.3043  0.0072  0.0405
 6826SOL    HW132111   0.567   0.676   3.677  0.8439  0.0769  0.2302
 6826SOL    HW232112   0.523   0.788   3.595  1.8786  1.5346  1.5403
 6827SOL     OW32113   2.486   1.163   2.426  0.0067 -0.7443  0.4272
 6827SOL    HW132114   2.477   1.104   2.350 -1.9062  0.2299 -0.0993
 6827SOL    HW232115   2.422   1.227   2.395  1.0592  0.5996  1.0496
 6828SOL     OW32116   4.377   2.432   4.875  0.2229 -0.0587  0.8879
 6828SOL    HW132117   4.349   2.435   4.783  1.2973 -2.5359  0.4677
 6828SOL    HW232118   4.391   2.337   4.877  0.6484 -0.0789 -2.5637
 6829SOL     OW32119   0.820   1.089   2.973 -0.2006  1.0107 -0.0146
 6829SOL    HW132120   0.821   1.008   3.024  0.0512  0.6482 -0.5846
 6829SOL    HW232121   0.883   1.074   2.902  0.5216  0.8097  0.6749
 6830SOL     OW32122   1.714   1.956   6.254 -0.0847 -0.0429 -0.3306
 6830SOL    HW132123   1.678   1.885   6.307 -2.0172  1.3382  0.1889
 6830SOL    HW232124   1.725   2.014   6.329 -2.5529  0.3415 -0.2765
 6831SOL     OW32125   4.492   0.811   0.861  0.1130  0.0126  0.2077
 6831SOL    HW132126   4.403   0.801   0.827  0.3644 -1.3526 -0.0256
 6831SOL    HW232127   4.526   0.882   0.807 -0.6346  0.5334  0.4213
 6832SOL     OW32128   0.420   3.526   5.362  0.1371 -0.2163 -0.4377
 6832SOL    HW132129   0.377   3.506   5.279 -1.0747 -0.2404  0.2064
 6832SOL    HW232130   0.438   3.438   5.395  2.9942  0.2988 -0.5485
 6833SOL     OW32131   1.167   0.452   1.112 -0.1710  0.0296  0.2588
 6833SOL    HW132132   1.215   0.437   1.193  2.2542 -0.2339 -1.2479
 6833SOL    HW232133   1.233   0.436   1.045 -2.0457 -1.9960 -1.0893
 6834SOL     OW32134   2.292   2.517  16.890 -0.4481 -0.8916  0.7803
 6834SOL    HW132135   2.364   2.455  16.903 -0.6232 -0.9811  1.3434
 6834SOL    HW232136   2.233   2.449  16.856  2.0250 -1.1343 -2.9894
 6835SOL     OW32137   2.288   3.748   8.001  0.6311  0.4109 -0.0640
 6835SOL    HW132138   2.251   3.771   7.916  0.4460  0.7685  0.1166
 6835SOL    HW232139   2.257   3.810   8.067 -0.4602  1.5449 -1.6543
 6836SOL     OW32140   3.957   4.687   6.363  0.3032  0.2339  0.2859
 6836SOL    HW132141   3.883   0.007   6.367 -0.4115 -0.6374  0.3190
 6836SOL    HW232142   3.999   4.688   6.449  1.5798 -1.2064 -0.3152
 6837SOL     OW32143   0.188   3.438  15.575 -0.0936  0.2222 -0.3758
 6837SOL    HW132144   0.264   3.475  15.531  0.8148 -0.7900  0.3500
 6837SOL    HW232145   0.220   3.438  15.665 -0.8796 -0.5052 -0.0922
 6838SOL     OW32146   0.495   3.250   3.012  0.8938 -0.1968 -0.0103
 6838SOL    HW132147   0.423   3.265   3.073  0.3208  1.2487 -1.0440
 6838SOL    HW232148   0.476   3.166   2.972  1.2904 -0.3791  0.1817
 6839SOL     OW32149   0.498   0.399  10.397 -0.2682  0.1859  0.1055
 6839SOL    HW132150   0.532   0.431  10.481  1.1381  0.0473 -0.4161
 6839SOL    HW232151   0.406   0.426  10.398 -0.2096  0.3824  0.4664
 6840SOL     OW32152   1.061   4.179   9.357  0.3298 -0.4651  0.0068
 6840SOL    HW132153   1.084   4.097   9.315  0.7374 -0.3812  0.0659
 6840SOL    HW232154   1.098   4.160   9.443 -2.5208 -2.2292  0.8366
 6841SOL     OW32155   4.322   3.895   2.058 -0.0716  0.2272  0.0342
 6841SOL    HW132156   4.259   3.918   1.989  0.1793  1.2538  0.1482
 6841SOL    HW232157   4.277   3.835   2.118  1.5612 -1.5867 -0.5624
 6842SOL     OW32158   1.680   4.576   2.344  0.3478 -0.4406 -0.2755
 6842SOL    HW132159   1.736   4.507   2.381 -0.9746 -1.8620 -0.9299
 6842SOL    HW232160   1.603   4.520   2.337 -0.6270  0.9008 -0.3715
 6843SOL     OW32161   1.397   0.242   2.569 -0.2741  0.2412 -0.1678
 6843SOL    HW132162   1.435   0.271   2.651  1.1818 -0.0742 -0.7360
 6843SOL    HW232163   1.328   0.184   2.601  1.1504 -0.6252  1.3150
 6844SOL     OW32164   1.323   2.637   7.568 -0.1767  0.4768  0.1371
 6844SOL    HW132165   1.378   2.675   7.637 -0.3392 -0.8885  1.0356
 6844SOL    HW232166   1.232   2.632   7.599  0.1573 -0.2194  1.0136
 6845SOL     OW32167   1.637   3.213   6.309  0.9818  0.1518 -0.3246
 6845SOL    HW132168   1.589   3.169   6.238  1.0120  1.0759 -0.9198
 6845SOL    HW232169   1.712   3.247   6.260  1.4400  0.5994  0.7040
 6846SOL     OW32170   2.437   2.693   4.880 -0.0639  0.4689 -0.0426
 6846SOL    HW132171   2.390   2.776   4.890  0.7734  0.9900 -0.4048
 6846SOL    HW232172   2.513   2.725   4.831  0.3007  1.1683  0.9695
 6847SOL     OW32173   0.367   3.579  10.045 -0.3270  0.3668 -0.3529
 6847SOL    HW132174   0.393   3.656   9.995  0.1105 -0.1676 -0.9691
 6847SOL    HW232175   0.356   3.509   9.980 -1.8381  0.4084 -0.1247
 6848SOL     OW32176   2.130   3.064  13.531  0.4598  0.0122 -0.3094
 6848SOL    HW132177   2.175   2.994  13.483 -0.3924 -0.0732 -0.9954
 6848SOL    HW232178   2.040   3.065  13.499  1.0370 -0.3308 -1.9742
 6849SOL     OW32179   2.547   2.826  16.298  0.5441  0.0780 -0.3756
 6849SOL    HW132180   2.620   2.790  16.248  0.9438  0.7178 -0.2561
 6849SOL    HW232181   2.484   2.854  16.232  1.1811  0.2771 -0.8982
 6850SOL     OW32182   4.387   3.558  12.878  0.2974 -0.5341 -0.0184
 6850SOL    HW132183   4.349   3.645  12.893  2.2803  0.8491 -3.0254
 6850SOL    HW232184   4.305   3.512  12.858 -0.7745  1.8694 -1.1693
 6851SOL     OW32185   1.594   1.454   5.866 -0.1949 -0.4321  0.3000
 6851SOL    HW132186   1.535   1.428   5.795  0.8971 -1.5504 -0.2012
 6851SOL    HW232187   1.548   1.533   5.893 -1.5008 -0.9213 -0.5182
 6852SOL     OW32188   2.075   1.286   6.798  0.0340  0.5605  0.3230
 6852SOL    HW132189   2.131   1.230   6.745 -1.8119 -2.2000  1.3154
 6852SOL    HW232190   2.087   1.368   6.749 -0.9194 -0.2576 -1.2718
 6853SOL     OW32191   0.875   0.228   8.288 -0.2460  0.2745  0.0896
 6853SOL    HW132192   0.940   0.173   8.332 -0.3774 -0.5979 -0.8014
 6853SOL    HW232193   0.898   0.208   8.197  0.9158  1.3223  0.1405
 6854SOL     OW32194   3.158   0.188   6.877 -0.5234 -0.0816 -0.1573
 6854SOL    HW132195   3.109   0.238   6.811  0.1494  0.4263 -0.2721
 6854SOL    HW232196   3.201   0.127   6.816 -0.7814  0.4461 -0.8687
 6855SOL     OW32197   1.077   0.189  15.090  0.3542  0.1152 -0.0760
 6855SOL    HW132198   1.125   0.165  15.169 -0.5148 -1.1170  0.0843
 6855SOL    HW232199   1.055   0.280  15.112 -1.4727  0.4254 -3.2576
 6856SOL     OW32200   3.494   2.808   5.147 -0.1117  0.0417 -0.4380
 6856SOL    HW132201   3.401   2.786   5.143 -0.0330 -0.5879  1.0789
 6856SOL    HW232202   3.500   2.855   5.064  0.7228 -2.5546 -1.8339
 6857SOL     OW32203   3.833   1.975   5.926  0.2691  0.3562 -0.3684
 6857SOL    HW132204   3.852   1.903   5.986 -0.7775  0.4449  0.0677
 6857SOL    HW232205   3.740   1.951   5.921  0.1903  0.6434 -0.2675
 6858SOL     OW32206   0.837   0.316   6.542  0.0475  0.5886  0.0549
 6858SOL    HW132207   0.913   0.361   6.580 -0.1000  0.0959  0.9311
 6858SOL    HW232208   0.797   0.389   6.496 -1.4996 -0.2180  0.1295
 6859SOL     OW32209   3.256   3.017  11.046  0.3376 -0.1500 -0.1196
 6859SOL    HW132210   3.342   3.057  11.054  0.4053 -0.0401 -1.3752
 6859SOL    HW232211   3.248   2.946  11.109 -0.6609  0.1688  0.1197
 6860SOL     OW32212   0.974   4.366   1.502 -0.2088  0.6769 -0.3463
 6860SOL    HW132213   0.939   4.444   1.545 -0.5511  1.3007 -1.7388
 6860SOL    HW232214   0.912   4.379   1.430  0.1124  0.7934 -0.6018
 6861SOL     OW32215   2.480   3.118   2.905  0.2832  0.0367  0.3375
 6861SOL    HW132216   2.509   3.027   2.913 -1.1492 -0.6084 -1.7020
 6861SOL    HW232217   2.558   3.157   2.865 -0.1602 -2.0208 -2.5377
 6862SOL     OW32218   2.626   4.513   5.788  0.4166 -0.3291  1.1537
 6862SOL    HW132219   2.639   4.440   5.728 -1.9226 -0.9060  1.3550
 6862SOL    HW232220   2.536   4.534   5.765  0.3481 -1.3024  0.5566
 6863SOL     OW32221   1.225   0.359  16.863  0.1808 -0.3083  0.1276
 6863SOL    HW132222   1.278   0.321  16.793  0.1795 -2.5720  1.3641
 6863SOL    HW232223   1.272   0.438  16.890 -0.4618 -0.1993  0.9273
 6864SOL     OW32224   2.345   1.192   5.731 -0.4288  0.2101  0.3579
 6864SOL    HW132225   2.295   1.207   5.811  1.4962  1.5192  1.3120
 6864SOL    HW232226   2.392   1.113   5.758 -1.0806 -0.8845 -1.6875
 6865SOL     OW32227   2.784   1.197   7.636 -0.0855  0.5081 -0.0938
 6865SOL    HW132228   2.795   1.150   7.553 -0.5932  0.1336  0.0495
 6865SOL    HW232229   2.793   1.130   7.704  1.9494  1.2397  0.3735
 6866SOL     OW32230   3.591   4.453   5.390  0.2795  0.0041 -0.4885
 6866SOL    HW132231   3.677   4.455   5.430 -1.3022 -2.0275  3.0159
 6866SOL    HW232232   3.613   4.437   5.298  0.7624 -2.4996  0.0775
 6867SOL     OW32233   3.012   0.791   1.034 -0.0424 -0.3309  0.5333
 6867SOL    HW132234   2.940   0.768   0.976 -1.0846 -0.8083  2.0082
 6867SOL    HW232235   2.963   0.769   1.113  0.7602 -3.1597  0.2403
 6868SOL     OW32236   2.089   4.201   5.284  0.4635  0.9722 -0.2876
 6868SOL    HW132237   2.063   4.293   5.277  1.6308  1.3364  0.2044
 6868SOL    HW232238   2.047   4.176   5.366 -1.9231  1.7934 -1.2708
 6869SOL     OW32239   3.053   0.507   7.547 -0.3339 -0.3534  0.3566
 6869SOL    HW132240   3.051   0.596   7.511 -1.6478  0.2814  1.9811
 6869SOL    HW232241   3.124   0.468   7.497  0.7213 -1.5561  2.8154
 6870SOL     OW32242   0.595   4.017   6.867  0.4979  0.6558 -0.2408
 6870SOL    HW132243   0.547   3.952   6.817 -0.2299  1.2994 -0.3803
 6870SOL    HW232244   0.629   4.048   6.783  1.2761  2.0770  0.5886
 6871SOL     OW32245   3.518   1.453  13.747  0.0544  0.2137  0.4032
 6871SOL    HW132246   3.545   1.537  13.783  1.8672 -0.0848 -0.2482
 6871SOL    HW232247   3.425   1.470  13.754  0.1721  1.5113 -1.5244
 6872SOL     OW32248   2.824   1.762   8.466  0.2372  0.6445 -0.2886
 6872SOL    HW132249   2.895   1.698   8.458 -1.1988 -1.4482  3.4973
 6872SOL    HW232250   2.764   1.734   8.397  0.6192 -1.2612  0.1464
 6873SOL     OW32251   3.568   4.105   3.287 -0.0115  0.6874 -1.0172
 6873SOL    HW132252   3.559   4.175   3.222  1.1991  2.7653  1.0382
 6873SOL    HW232253   3.555   4.027   3.233 -3.0145  0.0880  0.5932
 6874SOL     OW32254   1.307   0.628  11.075  0.1758 -0.0628 -0.0204
 6874SOL    HW132255   1.329   0.718  11.096  0.1926  0.1237 -0.8317
 6874SOL    HW232256   1.322   0.592  11.162  1.7753 -1.0936 -0.7129
 6875SOL     OW32257   0.518   4.334  16.432 -0.3436 -0.1918 -0.7123
 6875SOL    HW132258   0.499   4.281  16.355  1.2702  0.7879 -1.7806
 6875SOL    HW232259   0.554   4.266  16.489  0.3611  0.5460 -0.2712
 6876SOL     OW32260   2.200   1.432   2.761  0.7933  0.0270  0.5084
 6876SOL    HW132261   2.292   1.408   2.764  1.1679  1.3669 -0.5014
 6876SOL    HW232262   2.197   1.512   2.814  0.6432  0.7479 -0.5966
 6877SOL     OW32263   2.513   3.433   6.380  0.0765  0.3841  0.3214
 6877SOL    HW132264   2.580   3.475   6.326 -0.8624  0.7450 -0.5670
 6877SOL    HW232265   2.468   3.514   6.402 -0.2461  0.3122 -0.0635
 6878SOL     OW32266   0.741   2.315  16.599 -0.1666  0.5987  0.3352
 6878SOL    HW132267   0.687   2.321  16.520  0.2469 -1.9661 -0.1442
 6878SOL    HW232268   0.772   2.225  16.604 -1.1341  0.2618  0.2970
 6879SOL     OW32269   2.123   3.750   8.506 -0.1827  0.3017 -0.0216
 6879SOL    HW132270   2.077   3.688   8.563 -0.2880 -0.4109 -0.8687
 6879SOL    HW232271   2.100   3.832   8.550  3.1216  2.0066 -1.4773
 6880SOL     OW32272   0.335   2.122   1.751  0.6203  0.1965 -0.1796
 6880SOL    HW132273   0.270   2.053   1.766  1.4265 -0.8079 -1.3253
 6880SOL    HW232274   0.412   2.069   1.770  0.4798  1.1670  3.0346
 6881SOL     OW32275   2.618   2.681   8.781 -0.5389  0.1183 -0.4825
 6881SOL    HW132276   2.563   2.760   8.782  0.1247  0.5815 -0.7126
 6881SOL    HW232277   2.562   2.620   8.830 -0.4322 -0.5679 -1.2302
 6882SOL     OW32278   4.076   1.240   5.464  0.0282  0.1423 -0.1917
 6882SOL    HW132279   4.093   1.233   5.558  0.4280 -1.1203 -0.3582
 6882SOL    HW232280   4.071   1.334   5.445  1.6500  0.7007  2.1159
 6883SOL     OW32281   2.136   0.948  10.100  0.2226 -0.6869 -1.1473
 6883SOL    HW132282   2.156   0.857  10.122  0.4609 -0.3255  0.1026
 6883SOL    HW232283   2.187   0.946  10.019  3.2853 -0.4725  0.7572
 6884SOL     OW32284   2.059   0.971   7.404 -0.0409 -0.2800 -0.1096
 6884SOL    HW132285   1.999   0.999   7.335  2.9110 -3.7533 -4.1839
 6884SOL    HW232286   2.001   0.954   7.478  2.0768 -0.8201  1.4190
 6885SOL     OW32287   4.675   3.649   3.965 -0.8014 -0.3665 -0.2832
 6885SOL    HW132288   4.592   3.690   3.987 -0.6902  0.0749 -0.6995
 6885SOL    HW232289   4.719   3.733   3.969 -0.2441 -0.7164  0.9788
 6886SOL     OW32290   2.919   3.925   9.420 -0.0369  0.4902 -0.1653
 6886SOL    HW132291   2.986   3.874   9.466 -0.1567 -0.0456 -0.5994
 6886SOL    HW232292   2.841   3.889   9.462 -0.3153  1.9013  0.5196
 6887SOL     OW32293   2.824   2.887   8.094  0.4184  0.5302  0.1123
 6887SOL    HW132294   2.874   2.963   8.124  1.9095 -1.2172  2.0867
 6887SOL    HW232295   2.739   2.927   8.110  0.5816  1.1705 -0.6275
 6888SOL     OW32296   1.255   3.446   6.095  0.7643 -0.2363 -0.0690
 6888SOL    HW132297   1.171   3.452   6.140 -0.5741  0.1808 -2.6112
 6888SOL    HW232298   1.315   3.441   6.170 -0.3785  1.1655  0.9198
 6889SOL     OW32299   0.711   4.579   9.945 -0.2013 -0.0780 -0.2557
 6889SOL    HW132300   0.684   4.635   9.872  1.5059  1.4380  0.2902
 6889SOL    HW232301   0.771   4.516   9.902  0.3535 -1.6204  2.7952
 6890SOL     OW32302   3.863   0.682   6.746 -0.1547  0.0245 -0.1244
 6890SOL    HW132303   3.787   0.647   6.698  0.2710  1.2443 -1.7187
 6890SOL    HW232304   3.883   0.613   6.809 -0.1179 -0.6627 -0.8921
 6891SOL     OW32305   4.632   3.107   0.217 -0.0525  0.0812 -0.1534
 6891SOL    HW132306   4.672   3.100   0.131  1.4938 -2.1870  0.7524
 6891SOL    HW232307   4.688   3.042   0.258 -0.2535 -0.7365 -1.1676
 6892SOL     OW32308   1.353   3.653   2.948  0.2584  0.2015  0.3978
 6892SOL    HW132309   1.400   3.609   2.878 -1.1071  0.5166 -0.7204
 6892SOL    HW232310   1.301   3.581   2.984  3.0837 -2.0635 -0.1191
 6893SOL     OW32311   3.584   1.313   5.274  0.5480 -0.3864  0.6964
 6893SOL    HW132312   3.635   1.389   5.301 -0.9566  0.2725  1.7336
 6893SOL    HW232313   3.615   1.310   5.184  1.4287  2.0922  0.9073
 6894SOL     OW32314   1.652   2.036   2.708 -0.0847  0.5154  0.3081
 6894SOL    HW132315   1.706   1.985   2.647  0.2163  0.3685  0.6978
 6894SOL    HW232316   1.687   2.123   2.692 -1.3109  0.8223 -0.6599
 6895SOL     OW32317   4.403   0.430   9.206 -0.4918 -0.7460  0.5368
 6895SOL    HW132318   4.411   0.514   9.160 -1.6276  0.8550  3.2873
 6895SOL    HW232319   4.347   0.377   9.149 -1.9820  1.7603 -0.3107
 6896SOL     OW32320   1.108   4.608   1.276 -0.0304  0.1961 -0.3032
 6896SOL    HW132321   1.176   4.676   1.273  0.4284 -0.3076 -1.4841
 6896SOL    HW232322   1.092   4.612   1.371  1.0111 -1.4730 -0.0643
 6897SOL     OW32323   1.314   2.086   8.152 -0.2384  0.1113 -0.0784
 6897SOL    HW132324   1.236   2.030   8.153  0.6501 -1.0891  1.9345
 6897SOL    HW232325   1.386   2.029   8.126  0.1165  0.6764 -0.3304
 6898SOL     OW32326   1.518   0.608  13.974  0.1395  0.0930  0.4590
 6898SOL    HW132327   1.564   0.542  14.025  1.5831  2.2589  1.9321
 6898SOL    HW232328   1.437   0.561  13.957 -0.2011  1.3032 -1.2404
 6899SOL     OW32329   3.612   0.635  11.276  0.5533 -0.3676  0.1687
 6899SOL    HW132330   3.546   0.569  11.256  0.8378 -1.0343  1.4201
 6899SOL    HW232331   3.597   0.703  11.210  0.2182 -2.6737 -2.1188
 6900SOL     OW32332   4.290   0.770   9.304  0.3628 -0.1936  0.0519
 6900SOL    HW132333   4.369   0.754   9.355  0.1059  1.0635  0.8510
 6900SOL    HW232334   4.226   0.784   9.374  2.1638  2.3184  1.1487
 6901SOL     OW32335   3.513   2.945   6.184 -0.4608  0.0779  0.0728
 6901SOL    HW132336   3.468   2.949   6.100 -1.5933 -3.5398  0.5061
 6901SOL    HW232337   3.443   2.967   6.245  0.3430 -0.3890  1.1872
 6902SOL     OW32338   3.240   1.503   1.746 -0.4447  0.3614  0.1264
 6902SOL    HW132339   3.168   1.521   1.806  0.0917 -0.1611  0.9409
 6902SOL    HW232340   3.250   1.583   1.695 -0.2258 -0.2104 -0.7155
 6903SOL     OW32341   0.443   0.049   1.780  0.4086  0.4919 -0.3777
 6903SOL    HW132342   0.485   4.739   1.849 -0.0720 -0.2031 -0.6073
 6903SOL    HW232343   0.354   0.040   1.815  0.3569 -0.5868 -0.7951
 6904SOL     OW32344   0.052   4.532  12.127  0.4110 -0.6705  0.3544
 6904SOL    HW132345   0.041   4.451  12.177 -2.9877  0.2390  1.0854
 6904SOL    HW232346   0.092   4.581  12.199  1.1164 -2.6413  1.2889
 6905SOL     OW32347   2.162   1.861   7.739  0.1893  0.2759 -0.5712
 6905SOL    HW132348   2.075   1.854   7.700 -0.8902 -0.3506  1.9823
 6905SOL    HW232349   2.207   1.799   7.681 -1.0252  0.9767 -2.2633
 6906SOL     OW32350   4.219   1.839   4.575 -0.7563 -0.4216  0.0844
 6906SOL    HW132351   4.260   1.920   4.605 -1.8239 -0.3716  1.4151
 6906SOL    HW232352   4.291   1.806   4.520 -0.4203  1.2872 -0.5205
 6907SOL     OW32353   2.221   1.787   3.778  0.3918  0.0523  0.0663
 6907SOL    HW132354   2.140   1.787   3.728  0.8729  1.0001 -0.7241
 6907SOL    HW232355   2.277   1.808   3.702  1.9330  0.9601  1.4548
 6908SOL     OW32356   1.582   0.496   9.211  0.2191 -0.5126  0.4919
 6908SOL    HW132357   1.581   0.547   9.130 -1.1602  1.4609  1.7627
 6908SOL    HW232358   1.523   0.424   9.190 -0.2577  0.0862 -0.2076
 6909SOL     OW32359   3.613   3.596   4.902  0.0457  0.0543  0.1485
 6909SOL    HW132360   3.568   3.679   4.915  1.4776  0.8446  0.0583
 6909SOL    HW232361   3.648   3.575   4.989 -0.1236  1.3931  0.5291
 6910SOL     OW32362   0.189   2.612   8.610 -0.4034 -0.0778  0.3072
 6910SOL    HW132363   0.147   2.611   8.696 -0.7143  1.3537  0.1702
 6910SOL    HW232364   0.124   2.647   8.549  0.0397  0.7869  0.3186
 6911SOL     OW32365   0.629   3.669   7.148  0.0252 -0.2330 -0.3036
 6911SOL    HW132366   0.547   3.702   7.111  0.3151  2.4604  1.4640
 6911SOL    HW232367   0.676   3.751   7.161 -2.5599  1.6225 -2.5107
 6912SOL     OW32368   0.831   2.893   7.897 -0.3591 -0.2393  0.9703
 6912SOL    HW132369   0.866   2.817   7.943 -0.8637 -0.3375  1.1900
 6912SOL    HW232370   0.838   2.967   7.958  1.7610 -2.7340  3.7314
 6913SOL     OW32371   2.527   3.589   3.739  0.4430 -0.5496  0.2159
 6913SOL    HW132372   2.587   3.661   3.718  0.7186 -1.1046 -0.8675
 6913SOL    HW232373   2.553   3.523   3.675 -0.3648  1.1386 -1.8638
 6914SOL     OW32374   3.133   1.475   7.985 -0.8010 -0.1255  0.4567
 6914SOL    HW132375   3.042   1.496   7.963 -0.3452  0.8335 -0.5121
 6914SOL    HW232376   3.169   1.561   7.965 -0.0109 -0.6014 -0.1446
 6915SOL     OW32377   1.832   2.026   4.984 -0.0485  0.3951  0.8365
 6915SOL    HW132378   1.834   2.119   5.006 -0.9592  0.4422  0.7248
 6915SOL    HW232379   1.854   1.977   5.063  0.9033  1.3703  1.1824
 6916SOL     OW32380   4.657   0.805  17.063  0.4187  0.0378 -0.1218
 6916SOL    HW132381   4.734   0.817  17.008 -1.0965 -0.3729 -2.3420
 6916SOL    HW232382   4.635   0.897  17.080 -0.4264  0.1244 -1.6977
 6917SOL     OW32383   2.917   1.625   5.746  0.1238 -0.3808 -0.1083
 6917SOL    HW132384   2.921   1.590   5.657  1.4327 -1.4865  0.3913
 6917SOL    HW232385   2.851   1.695   5.743  1.4014  0.7744 -1.9987
 6918SOL     OW32386   3.059   0.078  11.670 -0.3397 -0.4145  0.0644
 6918SOL    HW132387   3.048   4.730  11.635 -0.4753 -0.0432 -0.8381
 6918SOL    HW232388   3.152   0.081  11.690 -0.0710 -2.7102 -0.8312
 6919SOL     OW32389   0.140   0.224   2.639  0.4202  0.1345  0.0187
 6919SOL    HW132390   0.215   0.203   2.582  1.0929 -3.1556  2.1146
 6919SOL    HW232391   0.181   0.237   2.725  1.5939  0.3038 -0.5518
 6920SOL     OW32392   2.302   4.469  16.337  0.4717  0.6978 -0.5032
 6920SOL    HW132393   2.354   4.546  16.360  0.0474  0.8037  0.1143
 6920SOL    HW232394   2.321   4.459  16.244 -2.8713  2.8956 -1.4073
 6921SOL     OW32395   2.469   2.650   7.475  0.0869  0.2702 -0.0477
 6921SOL    HW132396   2.489   2.644   7.568  1.3517 -0.6887 -0.3825
 6921SOL    HW232397   2.558   2.657   7.440  0.9636 -0.9458  1.9633
 6922SOL     OW32398   2.022   4.655   7.986  0.2023 -0.2691  0.1642
 6922SOL    HW132399   2.072   4.713   7.929  1.8489  0.2554  2.1291
 6922SOL    HW232400   2.045   4.564   7.970 -1.7575 -0.6258 -0.6067
 6923SOL     OW32401   0.550   1.276   9.283  0.3838  0.4631  0.7144
 6923SOL    HW132402   0.585   1.223   9.211 -1.5892  0.4413 -0.2287
 6923SOL    HW232403   0.520   1.357   9.240  1.2336  1.4745  2.0364
 6924SOL     OW32404   4.731   4.035   8.594 -0.4677  0.0222 -0.1056
 6924SOL    HW132405   4.695   4.099   8.655  0.9323 -1.0087  1.8117
 6924SOL    HW232406   4.715   4.086   8.515 -0.6392 -0.4359 -0.3637
 6925SOL     OW32407   2.639   2.872  13.626  0.1425  0.2974  0.3416
 6925SOL    HW132408   2.651   2.922  13.545 -3.1120  0.2112 -0.2037
 6925SOL    HW232409   2.730   2.857  13.650  0.5589  1.2514 -0.6539
 6926SOL     OW32410   2.749   2.094   9.822  0.4085  0.6407  0.8745
 6926SOL    HW132411   2.771   2.175   9.777 -0.7285 -0.4145 -1.5803
 6926SOL    HW232412   2.833   2.089   9.869  1.6559  0.2361 -1.4137
 6927SOL     OW32413   1.850   3.614   6.133  0.1038 -0.1919 -0.5775
 6927SOL    HW132414   1.902   3.556   6.189  1.5205 -0.8811 -2.5782
 6927SOL    HW232415   1.901   3.695   6.141 -1.3140  0.9169 -2.8416
 6928SOL     OW32416   1.230   0.147   6.379 -0.7230 -0.4226  0.2516
 6928SOL    HW132417   1.246   0.079   6.313 -1.0529  0.4630 -0.7334
 6928SOL    HW232418   1.245   0.230   6.334  1.3545 -0.4949  0.8267
 6929SOL     OW32419   0.001   0.897   8.492 -0.3594 -0.1593  0.3274
 6929SOL    HW132420   4.735   0.811   8.451  0.5333 -1.1917  2.3402
 6929SOL    HW232421   4.737   0.881   8.586  1.0721 -2.8264 -0.0635
 6930SOL     OW32422   0.375   0.276   6.952 -0.2211  0.0386 -0.2443
 6930SOL    HW132423   0.439   0.346   6.964  2.6849 -3.0973  2.5179
 6930SOL    HW232424   0.332   0.265   7.037 -1.7234 -1.5648 -1.2195
 6931SOL     OW32425   0.621   4.020   9.165  0.3450 -0.0294 -0.0355
 6931SOL    HW132426   0.598   4.005   9.257 -1.3598 -3.3892 -1.0222
 6931SOL    HW232427   0.633   3.930   9.136  0.7934  0.6145 -1.8394
 6932SOL     OW32428   4.450   3.718   4.093 -0.2373  0.0170 -0.1593
 6932SOL    HW132429   4.376   3.724   4.153 -0.5191  1.1200 -0.6290
 6932SOL    HW232430   4.521   3.736   4.155 -0.6223 -0.8796  0.5405
 6933SOL     OW32431   0.257   4.001   3.130  0.0562  0.3073  0.5225
 6933SOL    HW132432   0.349   4.013   3.106  0.5571 -1.6098  1.4563
 6933SOL    HW232433   0.221   4.022   3.044 -1.1262 -1.5792  0.5453
 6934SOL     OW32434   2.638   2.915  14.438 -0.2024 -0.6688 -0.3752
 6934SOL    HW132435   2.591   2.943  14.359  2.6979 -2.9827 -2.9402
 6934SOL    HW232436   2.710   2.978  14.442  1.0254 -2.2253  1.7961
 6935SOL     OW32437   0.873   2.006  10.471 -0.2050  0.5820 -0.1768
 6935SOL    HW132438   0.954   2.003  10.420 -0.0717 -1.2471  0.1444
 6935SOL    HW232439   0.844   2.095  10.451  0.6273  0.8689 -0.1019
 6936SOL     OW32440   2.939   2.285  16.307 -0.0518  0.1973 -0.0728
 6936SOL    HW132441   2.906   2.219  16.367  3.4367 -2.3184 -0.9613
 6936SOL    HW232442   3.034   2.286  16.309 -0.1104  2.6952  1.1436
 6937SOL     OW32443   4.282   1.775   3.456 -0.7006  0.6295 -0.0180
 6937SOL    HW132444   4.344   1.707   3.431 -0.4159  0.2898  1.6363
 6937SOL    HW232445   4.227   1.733   3.522 -1.6895 -0.3904 -1.5012
 6938SOL     OW32446   1.587   1.861  10.904  0.0450 -0.2005  0.2296
 6938SOL    HW132447   1.624   1.913  10.833  2.4729  0.1595  1.7771
 6938SOL    HW232448   1.635   1.779  10.895 -1.0141 -0.8664  0.5676
 6939SOL     OW32449   2.106   2.441   3.786 -0.0790  0.2167 -0.1616
 6939SOL    HW132450   2.161   2.386   3.841 -0.6269 -1.2447 -1.0644
 6939SOL    HW232451   2.142   2.523   3.821 -0.7695  0.7091 -0.5932
 6940SOL     OW32452   1.085   3.952  11.115 -0.0168  0.0519 -0.2397
 6940SOL    HW132453   1.128   3.914  11.038  0.5130 -0.5358  0.3475
 6940SOL    HW232454   1.057   4.039  11.086 -2.0028 -1.1817 -1.9890
 6941SOL     OW32455   0.826   1.317  13.321 -0.6361 -0.1023  0.5166
 6941SOL    HW132456   0.825   1.268  13.239  1.3176  1.6412 -0.5485
 6941SOL    HW232457   0.900   1.373  13.298 -0.2288 -1.0217 -0.3899
 6942SOL     OW32458   0.242   2.364  15.096  0.1124  0.8216 -0.0682
 6942SOL    HW132459   0.274   2.415  15.170  0.1398  1.0315 -0.2246
 6942SOL    HW232460   0.251   2.428  15.026  1.2929  0.2616 -0.4297
 6943SOL     OW32461   4.441   2.940  15.620 -0.1883 -0.0738 -0.2324
 6943SOL    HW132462   4.408   2.861  15.663  1.4518 -0.0595  1.0450
 6943SOL    HW232463   4.358   2.988  15.622 -0.1160 -0.0380  3.1017
 6944SOL     OW32464   2.492   0.853   9.752  0.1557 -0.2300 -0.0513
 6944SOL    HW132465   2.485   0.926   9.691 -3.6523 -0.1212  0.4992
 6944SOL    HW232466   2.419   0.862   9.814 -1.6444 -0.1286 -2.1674
 6945SOL     OW32467   0.223   4.625   4.274  0.0530  0.3702  0.3610
 6945SOL    HW132468   0.288   4.670   4.221  1.6753 -0.0928  1.9975
 6945SOL    HW232469   0.148   4.663   4.228 -0.3434 -0.7485  0.0642
 6946SOL     OW32470   1.731   4.606   5.531  0.7141 -0.1061 -0.4488
 6946SOL    HW132471   1.777   4.561   5.460  1.2949 -1.4954  0.8255
 6946SOL    HW232472   1.642   4.597   5.497  0.7967 -0.0247 -0.6848
 6947SOL     OW32473   1.057   1.254   6.652 -0.3250 -0.0536 -0.5225
 6947SOL    HW132474   1.003   1.193   6.603 -1.3125  1.5057 -1.3616
 6947SOL    HW232475   1.124   1.195   6.689  0.3787  1.6644  0.9279
 6948SOL     OW32476   2.622   1.054  15.104 -0.1892  0.1400 -0.0155
 6948SOL    HW132477   2.577   1.059  15.188 -1.1964 -1.2782 -0.4756
 6948SOL    HW232478   2.563   1.111  15.056  0.0263  1.4882  1.2906
 6949SOL     OW32479   2.154   1.242   1.832 -0.0180 -0.2050 -0.5174
 6949SOL    HW132480   2.138   1.334   1.851  0.6094  0.1832 -1.8202
 6949SOL    HW232481   2.188   1.209   1.915  0.3044  1.1058 -0.1330
 6950SOL     OW32482   3.362   1.097   6.825 -0.1681  0.3730 -0.2346
 6950SOL    HW132483   3.269   1.119   6.830 -0.5670 -1.6523  1.5941
 6950SOL    HW232484   3.389   1.075   6.915  1.2828  0.3381 -0.6742
 6951SOL     OW32485   2.178   0.178   7.228 -0.1163 -0.3938  0.0702
 6951SOL    HW132486   2.254   0.216   7.271  0.8543 -1.1968 -0.9606
 6951SOL    HW232487   2.140   0.116   7.290 -0.6977 -1.1581 -1.0556
 6952SOL     OW32488   0.682   3.715   9.959 -0.2574 -0.0553  0.0795
 6952SOL    HW132489   0.604   3.753   9.917 -0.6736 -0.3320  0.6020
 6952SOL    HW232490   0.668   3.749  10.048  2.3052  0.0830  0.4172
 6953SOL     OW32491   0.436   2.296   0.977  0.0143  0.1661  0.2207
 6953SOL    HW132492   0.426   2.295   1.072 -0.6363  0.0848  0.1555
 6953SOL    HW232493   0.504   2.229   0.967 -0.5674 -0.2941 -0.7025
 6954SOL     OW32494   4.539   4.602  11.643  0.0250  0.3371  0.0141
 6954SOL    HW132495   4.631   4.576  11.640 -0.1052 -0.0974 -0.0994
 6954SOL    HW232496   4.545   4.696  11.625  1.6825  0.2338  0.0282
 6955SOL     OW32497   1.731   3.485   7.712  0.6200 -0.0549 -0.1013
 6955SOL    HW132498   1.808   3.447   7.671  0.8308  0.2078  0.0511
 6955SOL    HW232499   1.756   3.573   7.740 -2.2666  0.9380 -0.5786
 6956SOL     OW32500   4.290   4.341  10.158  0.1601 -0.5358 -0.0373
 6956SOL    HW132501   4.259   4.415  10.210 -1.7993 -0.6282 -1.1038
 6956SOL    HW232502   4.383   4.334  10.180  0.3496 -1.0334 -1.0190
 6957SOL     OW32503   1.090   2.434   3.029  0.1840 -0.7926  0.1727
 6957SOL    HW132504   1.173   2.397   3.058  0.9470 -0.4242 -1.5013
 6957SOL    HW232505   1.024   2.403   3.090  0.1537 -2.9287 -0.9511
 6958SOL     OW32506   4.181   0.298   8.048 -0.3487  0.6187  0.2729
 6958SOL    HW132507   4.086   0.305   8.039 -0.2135  1.0620 -0.7665
 6958SOL    HW232508   4.195   0.260   8.135 -1.3769 -0.2812  0.0508
 6959SOL     OW32509   4.000   2.742   0.579  0.1513 -0.0055 -0.3679
 6959SOL    HW132510   4.087   2.739   0.541 -0.5665 -0.3405 -1.9884
 6959SOL    HW232511   3.979   2.835   0.574 -0.3869 -0.2091 -1.9747
 6960SOL     OW32512   2.551   1.745   5.200  0.2938  0.3918  0.3661
 6960SOL    HW132513   2.459   1.762   5.177 -0.1161 -0.6133  1.2447
 6960SOL    HW232514   2.595   1.815   5.151  0.0809  0.7928  0.7481
 6961SOL     OW32515   3.970   1.066   6.558 -0.1553  0.0941  0.0382
 6961SOL    HW132516   4.020   0.994   6.597 -0.1304 -0.1236 -0.3967
 6961SOL    HW232517   3.946   1.038   6.470  1.4400 -2.6532  0.4602
 6962SOL     OW32518   1.183   3.024   5.701  0.4033 -0.0699  0.3932
 6962SOL    HW132519   1.154   3.059   5.617  0.7108 -0.6425  0.0521
 6962SOL    HW232520   1.183   2.934   5.670  0.0235  0.3114 -0.7315
 6963SOL     OW32521   1.884   4.425   2.471  0.2247  0.1077  0.5493
 6963SOL    HW132522   1.885   4.509   2.518  0.6910  1.1803 -1.3636
 6963SOL    HW232523   1.971   4.393   2.493  0.5353  0.8436  0.3895
 6964SOL     OW32524   3.207   0.708   5.354  0.1626  0.3940 -0.6086
 6964SOL    HW132525   3.187   0.727   5.446 -0.8072 -0.7757 -0.5629
 6964SOL    HW232526   3.299   0.733   5.344  0.1469  1.2070  1.2263
 6965SOL     OW32527   4.101   2.738  13.229 -0.0062 -0.2575 -0.4292
 6965SOL    HW132528   4.093   2.644  13.210  0.4680 -0.7538  1.7743
 6965SOL    HW232529   4.043   2.778  13.164 -0.9902  0.3727  0.8404
 6966SOL     OW32530   1.724   2.161   9.397  0.1743 -0.4324  0.0602
 6966SOL    HW132531   1.731   2.089   9.459  0.2423  0.5435  1.1727
 6966SOL    HW232532   1.813   2.195   9.386 -0.2664 -0.0206 -2.2415
 6967SOL     OW32533   4.613   2.497   7.567 -0.0889  0.5305 -0.0831
 6967SOL    HW132534   4.654   2.518   7.650 -2.4140  0.8794  0.9795
 6967SOL    HW232535   4.531   2.452   7.591 -1.8966  2.6557 -2.2537
 6968SOL     OW32536   2.074   1.427   5.885 -0.1890 -0.0493  0.5184
 6968SOL    HW132537   2.003   1.404   5.824  1.4760 -1.2338 -0.9571
 6968SOL    HW232538   2.021   1.476   5.948  0.1727 -0.4408  1.1257
 6969SOL     OW32539   1.425   4.265   0.862 -0.1072 -0.0665  0.3501
 6969SOL    HW132540   1.502   4.317   0.840  0.0903 -1.1502 -1.5864
 6969SOL    HW232541   1.462   4.209   0.929 -0.7055  1.4527  1.9421
 6970SOL     OW32542   2.489   4.422   2.085  0.1990  0.2468  0.3507
 6970SOL    HW132543   2.408   4.400   2.132 -1.9365  1.2566 -2.8637
 6970SOL    HW232544   2.560   4.396   2.144 -1.1925  0.8230  2.2975
 6971SOL     OW32545   4.692   0.852   1.053  0.0700 -0.2189 -0.0793
 6971SOL    HW132546   4.649   0.823   1.133  0.6513  2.7655  1.3107
 6971SOL    HW232547   4.625   0.836   0.986  0.4662 -0.0234 -0.5282
 6972SOL     OW32548   0.364   1.259   3.716  0.4063  0.8878 -0.2036
 6972SOL    HW132549   0.449   1.249   3.673 -1.0813 -0.0487 -2.9164
 6972SOL    HW232550   0.381   1.197   3.787  0.7425 -0.3053 -1.3261
 6973SOL     OW32551   3.334   1.021   4.659  0.0266  0.8438 -0.1772
 6973SOL    HW132552   3.403   1.072   4.617 -0.4461  1.9939  0.4181
 6973SOL    HW232553   3.377   0.936   4.666 -2.0779 -0.0700  1.7140
 6974SOL     OW32554   3.850   0.604   8.926 -0.3011 -0.5004  0.9042
 6974SOL    HW132555   3.784   0.609   8.857  0.7410 -1.9492 -0.2042
 6974SOL    HW232556   3.933   0.582   8.884  0.7957  1.8303  1.8402
 6975SOL     OW32557   1.490   3.239  13.949  0.0821  0.4242  0.0806
 6975SOL    HW132558   1.555   3.309  13.950 -1.1305  1.5235  1.0088
 6975SOL    HW232559   1.541   3.174  13.998 -1.3931 -0.2073  0.7870
 6976SOL     OW32560   2.989   1.327   6.029  0.1543 -0.2551 -0.2324
 6976SOL    HW132561   3.044   1.395   5.990  0.2472 -0.6514 -0.8038
 6976SOL    HW232562   2.904   1.364   6.004  0.4112  0.9919  0.7911
 6977SOL     OW32563   4.523   1.268  13.239  0.1901  0.1797 -0.0826
 6977SOL    HW132564   4.474   1.186  13.248  1.6591 -0.5057  1.6472
 6977SOL    HW232565   4.544   1.289  13.330 -0.2727  0.7673 -0.1111
 6978SOL     OW32566   2.045   1.021   4.099 -0.3501  0.1032 -0.1055
 6978SOL    HW132567   2.061   1.111   4.126 -1.4067  0.6250 -1.2429
 6978SOL    HW232568   2.029   1.036   4.006  1.6163 -0.5946 -0.5588
 6979SOL     OW32569   1.068   0.927   1.417 -0.0825  0.3992 -0.5266
 6979SOL    HW132570   0.974   0.908   1.414 -0.2101  0.7148  1.6480
 6979SOL    HW232571   1.096   0.933   1.325  0.5355  0.3242 -0.3456
 6980SOL     OW32572   0.727   1.761   5.703 -0.9314  0.1757  0.3826
 6980SOL    HW132573   0.752   1.851   5.725 -0.0567 -0.1590  0.7688
 6980SOL    HW232574   0.814   1.721   5.692 -0.6556  1.4644 -2.1473
 6981SOL     OW32575   0.759   0.872   2.061 -0.0680  0.4633 -0.0142
 6981SOL    HW132576   0.735   0.877   1.969 -0.7890  0.7235  0.1881
 6981SOL    HW232577   0.761   0.777   2.067  0.2985  0.3870 -1.3777
 6982SOL     OW32578   1.230   0.553   7.732  0.5440  0.4165 -0.3596
 6982SOL    HW132579   1.163   0.529   7.796  0.6343  0.0753 -0.3944
 6982SOL    HW232580   1.231   0.476   7.675 -2.1826 -1.1077  1.6519
 6983SOL     OW32581   0.368   2.148   4.977 -0.0575  0.2388  0.3263
 6983SOL    HW132582   0.432   2.082   4.951 -0.7381 -0.6376  0.8737
 6983SOL    HW232583   0.422   2.220   5.008  0.8531  0.3897 -1.6406
 6984SOL     OW32584   4.018   4.299   5.363 -0.1383 -0.6476 -0.3344
 6984SOL    HW132585   4.085   4.367   5.370  0.4969 -1.3457  0.2828
 6984SOL    HW232586   3.952   4.344   5.415  0.3242  0.2750 -0.5454
 6985SOL     OW32587   1.922   1.135  10.090  0.2562  0.1682 -0.0374
 6985SOL    HW132588   1.979   1.070  10.131 -0.3315 -0.0032  0.5086
 6985SOL    HW232589   1.953   1.143   9.999 -0.6892 -0.8908 -0.4690
 6986SOL     OW32590   1.481   1.875   8.798  0.3675  0.5435 -0.2626
 6986SOL    HW132591   1.458   1.936   8.868 -1.4835 -0.4543 -0.0190
 6986SOL    HW232592   1.480   1.793   8.848  2.5463  0.4986 -0.2819
 6987SOL     OW32593   1.155   2.210   7.680  0.4679 -0.0509 -0.0691
 6987SOL    HW132594   1.111   2.127   7.658  0.9814  0.1316 -1.7809
 6987SOL    HW232595   1.149   2.194   7.774 -1.9438  1.7569  0.0855
 6988SOL     OW32596   3.899   3.576   9.693 -0.3549  0.1279  0.1854
 6988SOL    HW132597   3.849   3.612   9.619  2.6221  0.6109 -1.5845
 6988SOL    HW232598   3.902   3.656   9.745  1.1983  0.7190 -0.8023
 6989SOL     OW32599   3.605   1.192   4.147  0.0709  0.7585  0.7455
 6989SOL    HW132600   3.522   1.200   4.193 -1.2752  1.7535 -1.8254
 6989SOL    HW232601   3.573   1.126   4.086  2.6544  0.0236  0.1792
 6990SOL     OW32602   2.714   1.481   7.198  0.2268  0.3770  0.5148
 6990SOL    HW132603   2.714   1.487   7.294 -0.4861  2.2219  0.3928
 6990SOL    HW232604   2.630   1.436   7.193  0.9443 -0.7402 -1.3532
 6991SOL     OW32605   0.916   3.271   5.957 -0.0856  0.1941 -0.5060
 6991SOL    HW132606   0.944   3.289   6.047 -1.3717  2.0234 -0.4561
 6991SOL    HW232607   0.939   3.180   5.942  0.4726  0.0319  1.3384
 6992SOL     OW32608   3.308   1.788   4.651 -0.3715  0.2914 -0.4298
 6992SOL    HW132609   3.350   1.720   4.703  0.4950  2.0875  1.1960
 6992SOL    HW232610   3.387   1.815   4.603 -0.2855  0.0030 -0.4525
 6993SOL     OW32611   1.090   1.387   1.465 -0.1625  0.1559  0.8117
 6993SOL    HW132612   1.053   1.304   1.493  2.9042 -1.6260 -0.5047
 6993SOL    HW232613   1.155   1.394   1.535  1.0819  2.9789 -0.6162
 6994SOL     OW32614   1.871   0.878   5.824 -0.0126 -0.1049 -0.0252
 6994SOL    HW132615   1.909   0.953   5.779 -0.4297  0.5946  0.7898
 6994SOL    HW232616   1.944   0.819   5.803 -0.1357 -0.3618  0.2672
 6995SOL     OW32617   3.832   1.419   3.567 -0.5840  0.5028 -0.0389
 6995SOL    HW132618   3.790   1.341   3.601 -0.3033  0.3330 -0.0804
 6995SOL    HW232619   3.917   1.384   3.540 -1.3323 -1.9652  0.8506
 6996SOL     OW32620   0.537   4.454   4.438  0.6008 -0.0402 -0.0433
 6996SOL    HW132621   0.588   4.502   4.372  1.0169 -2.0817 -1.1929
 6996SOL    HW232622   0.586   4.481   4.516 -1.1345  3.1533 -0.0694
 6997SOL     OW32623   3.990   4.546   7.506  0.0347 -0.4030  0.2108
 6997SOL    HW132624   3.950   4.492   7.574  0.7320 -0.6144  0.4522
 6997SOL    HW232625   3.919   4.610   7.494  0.7994  0.2167 -1.0166
 6998SOL     OW32626   0.114   0.251   1.693 -0.4789  0.0284  0.4992
 6998SOL    HW132627   0.163   0.303   1.757 -2.0023  1.0493  0.8258
 6998SOL    HW232628   0.027   0.292   1.690 -0.5370 -0.2501 -1.7892
 6999SOL     OW32629   3.192   1.416   4.038 -0.0326 -0.6587 -0.4809
 6999SOL    HW132630   3.108   1.413   4.085  1.0149  1.1090  1.4978
 6999SOL    HW232631   3.241   1.347   4.083  0.3954  0.4598  0.7631
 7000SOL     OW32632   3.467   3.016   7.891  0.2651 -0.0380  0.0529
 7000SOL    HW132633   3.515   2.942   7.853 -0.7200 -0.7229  0.1512
 7000SOL    HW232634   3.445   3.060   7.809 -0.4783  1.5932  1.1174
 7001SOL     OW32635   2.005   3.250   4.050  0.6874 -0.7518 -0.0385
 7001SOL    HW132636   1.963   3.197   3.982 -1.2763 -1.3745  1.6418
 7001SOL    HW232637   1.926   3.295   4.081  1.1585  0.2166 -0.2636
 7002SOL     OW32638   3.188   0.867  14.348  0.1382 -0.1367  0.1710
 7002SOL    HW132639   3.119   0.884  14.285  1.7030  0.9622 -1.2563
 7002SOL    HW232640   3.188   0.953  14.390 -0.4441  0.6706 -1.5020
 7003SOL     OW32641   2.115   2.290   6.120 -0.1128  0.2651  0.1849
 7003SOL    HW132642   2.208   2.306   6.137  0.7605 -1.4604 -2.9789
 7003SOL    HW232643   2.081   2.371   6.083  2.3912  0.3883 -1.8555
 7004SOL     OW32644   3.954   2.873  13.035 -0.1242 -0.8292 -0.3564
 7004SOL    HW132645   3.946   2.964  13.005  0.6540 -0.7751 -0.3994
 7004SOL    HW232646   3.930   2.825  12.956 -1.3477 -0.4103 -0.2487
 7005SOL     OW32647   0.147   0.428   9.316  0.5798  0.3767 -0.2375
 7005SOL    HW132648   0.068   0.402   9.365  0.9597 -2.8526 -1.3175
 7005SOL    HW232649   0.132   0.394   9.228 -1.2656 -0.4269  0.3846
 7006SOL     OW32650   2.256   0.070  15.635  0.0133 -0.0291 -0.4494
 7006SOL    HW132651   2.234   4.719  15.652  3.9836 -0.8153  0.4853
 7006SOL    HW232652   2.324   0.089  15.699  0.4179  0.2047 -0.9554
 7007SOL     OW32653   1.751   3.838  14.929 -0.0982  0.1436  0.0556
 7007SOL    HW132654   1.700   3.791  14.995  1.6203 -3.8061 -1.4167
 7007SOL    HW232655   1.827   3.784  14.910 -0.5047 -0.0196 -1.1289
 7008SOL     OW32656   2.065   0.161   6.447  0.0355  0.0184 -0.0196
 7008SOL    HW132657   1.991   0.106   6.422  0.8401 -0.4411 -1.3609
 7008SOL    HW232658   2.094   0.106   6.520  0.2487  0.6723  0.3934
 7009SOL     OW32659   0.652   3.123   9.496  0.0200 -0.1466  0.0867
 7009SOL    HW132660   0.619   3.065   9.564  1.7525  1.2269  2.1245
 7009SOL    HW232661   0.662   3.206   9.543  2.2392  0.0991 -0.8210
 7010SOL     OW32662   3.137   3.827   8.373  0.3168  0.5074  0.3474
 7010SOL    HW132663   3.093   3.906   8.404  0.0050 -0.1707  1.6521
 7010SOL    HW232664   3.095   3.810   8.288  0.1657 -0.4573  0.6063
 7011SOL     OW32665   0.437   4.236   5.871 -0.1411 -0.8247  0.6020
 7011SOL    HW132666   0.478   4.151   5.886  2.1996  0.0652 -0.8092
 7011SOL    HW232667   0.403   4.231   5.782  2.0309  0.1785 -0.2773
 7012SOL     OW32668   3.618   0.318  13.332  0.1743  0.0779  0.0459
 7012SOL    HW132669   3.608   0.413  13.328 -0.2242  0.1041  1.7658
 7012SOL    HW232670   3.712   0.313  13.349  0.3712 -0.0633 -1.0706
 7013SOL     OW32671   3.434   4.473   2.885  0.5888 -0.2898 -0.1143
 7013SOL    HW132672   3.525   4.481   2.858  0.1205  0.9074 -1.3095
 7013SOL    HW232673   3.408   4.564   2.868 -0.2690  0.0600  2.9636
 7014SOL     OW32674   2.571   3.690   2.225  0.2980 -0.4589 -0.7192
 7014SOL    HW132675   2.548   3.675   2.133 -1.1653  0.2923 -0.4747
 7014SOL    HW232676   2.581   3.785   2.230  0.9175 -0.6395  1.3772
 7015SOL     OW32677   1.574   2.665   5.993 -0.1622 -0.2342 -0.0108
 7015SOL    HW132678   1.529   2.584   6.015 -0.3920 -0.2691 -0.6195
 7015SOL    HW232679   1.545   2.726   6.061 -1.4543  0.3863 -1.1312
 7016SOL     OW32680   4.120   3.787   9.509  0.3509  0.0089 -0.2359
 7016SOL    HW132681   4.077   3.814   9.428 -0.1460 -1.3827 -0.4205
 7016SOL    HW232682   4.050   3.807   9.572 -0.1472 -0.8166 -0.5445
 7017SOL     OW32683   1.138   3.943   2.440  0.2539  0.5203  0.0475
 7017SOL    HW132684   1.043   3.942   2.425  0.0128  2.3721  1.5316
 7017SOL    HW232685   1.150   4.022   2.492 -0.6223 -1.4968  3.3870
 7018SOL     OW32686   0.714   3.483   0.678  0.4411  0.3252 -0.0397
 7018SOL    HW132687   0.781   3.438   0.731 -2.4210  0.3751  3.6310
 7018SOL    HW232688   0.756   3.569   0.680  0.7492  0.2229 -2.4781
 7019SOL     OW32689   0.793   0.981  13.476 -0.4243  0.1394  0.1239
 7019SOL    HW132690   0.702   0.995  13.453 -0.5928 -2.5478 -0.8980
 7019SOL    HW232691   0.789   0.955  13.568 -0.0520  2.2259  0.7289
 7020SOL     OW32692   2.297   3.025  13.991  0.5618  0.4326 -0.6865
 7020SOL    HW132693   2.290   3.001  13.899  0.6593  0.2707 -0.6534
 7020SOL    HW232694   2.317   3.116  13.973 -0.2484  0.3035 -2.1797
 7021SOL     OW32695   0.307   2.204   5.707  0.1494 -0.0693 -0.0821
 7021SOL    HW132696   0.367   2.189   5.781  1.5300 -2.6695 -1.7129
 7021SOL    HW232697   0.373   2.183   5.641 -0.2884  3.0542 -1.4785
 7022SOL     OW32698   4.724   1.524   1.641  0.5456  0.2082  0.3962
 7022SOL    HW132699   0.048   1.587   1.670 -0.5193  0.9794  1.1014
 7022SOL    HW232700   0.037   1.451   1.609  0.6368  1.0831 -1.4534
 7023SOL     OW32701   4.456   0.476   6.673  0.5873  0.3085 -0.0514
 7023SOL    HW132702   4.457   0.474   6.769  1.4351 -0.0305 -0.0675
 7023SOL    HW232703   4.487   0.564   6.656  1.8739 -0.1526 -0.0618
 7024SOL     OW32704   3.297   0.844   2.962  0.3429 -0.0312  0.2043
 7024SOL    HW132705   3.253   0.759   2.953 -0.1095  0.4215 -1.9293
 7024SOL    HW232706   3.378   0.809   2.998  0.2584 -0.9483 -0.4932
 7025SOL     OW32707   2.458   1.725   8.689 -0.2676 -0.7843 -0.3716
 7025SOL    HW132708   2.511   1.724   8.609 -1.2324  0.4085 -1.0200
 7025SOL    HW232709   2.529   1.673   8.728 -1.4676 -1.5459  0.7840
 7026SOL     OW32710   2.363   4.043   2.712  0.0984  0.1468 -0.1871
 7026SOL    HW132711   2.415   3.963   2.719  2.1230  1.6265  1.9452
 7026SOL    HW232712   2.283   4.008   2.750  2.0621 -2.0269  1.9848
 7027SOL     OW32713   0.372   1.088   8.790  0.2030  0.8220 -0.3230
 7027SOL    HW132714   0.415   1.160   8.743  2.4946  0.5999  1.4539
 7027SOL    HW232715   0.442   1.035   8.828  0.0431 -0.1439 -1.3802
 7028SOL     OW32716   0.095   4.674   5.826 -0.2652  0.2713  0.1342
 7028SOL    HW132717   0.011   4.705   5.860 -1.6231 -3.1446 -0.1413
 7028SOL    HW232718   0.145   0.014   5.814 -0.7747  0.8965  2.1346
 7029SOL     OW32719   3.135   4.607   5.486  0.1062  0.4677 -0.3039
 7029SOL    HW132720   3.201   4.599   5.418 -0.7262 -0.6397 -0.9902
 7029SOL    HW232721   3.101   4.518   5.482  1.7662 -0.1664 -0.2318
 7030SOL     OW32722   4.612   1.396   8.452 -0.2661 -0.6414  0.9467
 7030SOL    HW132723   4.605   1.311   8.409  1.3906  0.0392 -0.7196
 7030SOL    HW232724   4.647   1.376   8.539  0.7803  1.4488  1.0040
 7031SOL     OW32725   0.914   3.087   7.080  0.6722 -0.3629 -0.8133
 7031SOL    HW132726   0.830   3.100   7.036  0.8149  1.2720 -0.6178
 7031SOL    HW232727   0.893   3.013   7.136 -0.9742  1.3847  0.8999
 7032SOL     OW32728   0.161   3.781   6.750 -0.1779  0.0603  0.0430
 7032SOL    HW132729   0.066   3.770   6.753 -0.3453  1.6542  0.4330
 7032SOL    HW232730   0.176   3.759   6.658  3.3704  1.0614  0.3764
 7033SOL     OW32731   3.355   4.053   4.269  0.5561 -0.1803  0.1821
 7033SOL    HW132732   3.450   4.048   4.259  0.3596  0.0559 -1.8787
 7033SOL    HW232733   3.339   4.054   4.174  3.3832  0.9324 -0.2768
 7034SOL     OW32734   3.297   3.302   0.262  0.2494  0.0337  0.3803
 7034SOL    HW132735   3.276   3.344   0.178  0.0280  2.9976  1.8909
 7034SOL    HW232736   3.321   3.380   0.312 -0.7273  0.0289  0.8402
 7035SOL     OW32737   0.443   3.301  16.519  0.6340 -0.2542 -0.0883
 7035SOL    HW132738   0.438   3.262  16.606 -2.5085  0.2356 -0.0570
 7035SOL    HW232739   0.523   3.256  16.488  1.9430  1.5583  0.6768
 7036SOL     OW32740   3.511   3.629   9.224 -0.0286 -0.0615  0.1156
 7036SOL    HW132741   3.528   3.716   9.188  0.0301  1.1957  3.1786
 7036SOL    HW232742   3.594   3.630   9.272 -0.9077  2.1291  1.5599
 7037SOL     OW32743   2.753   1.570   6.731 -0.0752  0.3824 -0.3324
 7037SOL    HW132744   2.695   1.614   6.669 -0.8154  0.6568  0.5480
 7037SOL    HW232745   2.832   1.554   6.680 -0.0914 -0.9788  0.0803
 7038SOL     OW32746   1.857   2.301  14.669 -0.5817 -0.2038  0.1117
 7038SOL    HW132747   1.888   2.241  14.737 -1.5551 -0.7560  0.0686
 7038SOL    HW232748   1.808   2.368  14.716  0.1510  1.4810 -1.5314
 7039SOL     OW32749   0.843   0.902   1.112  0.3445 -0.0420 -0.0546
 7039SOL    HW132750   0.858   0.811   1.088 -1.9076 -0.8063  1.4701
 7039SOL    HW232751   0.933   0.933   1.115  0.8484 -1.4361 -1.1873
 7040SOL     OW32752   0.096   0.899   5.892 -0.3341  0.6294 -0.1711
 7040SOL    HW132753   0.185   0.914   5.926 -1.3437  3.0842  1.4140
 7040SOL    HW232754   0.114   0.839   5.820  2.3602 -1.4658  2.2204
 7041SOL     OW32755   4.577   2.855   8.751  0.6060  0.0297  0.3094
 7041SOL    HW132756   4.529   2.811   8.681 -0.4366 -0.1513  1.1404
 7041SOL    HW232757   4.498   2.863   8.805  0.5199  2.2237 -0.1512
 7042SOL     OW32758   2.266   4.598   1.082 -0.2549  1.3197 -0.5906
 7042SOL    HW132759   2.202   4.667   1.069 -0.4116  0.5446 -3.7767
 7042SOL    HW232760   2.259   4.561   0.994 -1.3353 -1.5895  0.7178
 7043SOL     OW32761   3.982   0.274  15.014  0.5197  0.3323  0.1187
 7043SOL    HW132762   3.909   0.279  15.076  0.7623 -1.5783  0.5323
 7043SOL    HW232763   3.974   0.362  14.977 -3.5821  0.9938  2.6386
 7044SOL     OW32764   0.004   4.556   2.079  0.4313 -0.0566 -0.2431
 7044SOL    HW132765   0.007   4.651   2.072  1.3540 -0.0740 -0.1687
 7044SOL    HW232766   4.651   4.548   2.095  0.1103  4.1263 -0.2006
 7045SOL     OW32767   3.611   0.373   5.224  0.3583 -0.0981 -0.7573
 7045SOL    HW132768   3.645   0.381   5.135  0.0371 -1.2003 -0.9907
 7045SOL    HW232769   3.606   0.466   5.244  0.9119 -0.3658  0.6011
 7046SOL     OW32770   1.018   3.692   7.504  0.1517 -0.3593 -0.2761
 7046SOL    HW132771   1.035   3.598   7.512  3.2740  0.3898  1.9259
 7046SOL    HW232772   0.922   3.692   7.496  0.2988 -0.4265 -1.8861
 7047SOL     OW32773   3.099   3.285   5.953 -0.3453 -0.2257 -0.4389
 7047SOL    HW132774   3.072   3.209   6.004 -0.5897 -0.4175 -0.8538
 7047SOL    HW232775   3.099   3.351   6.022  0.2672 -0.1985 -0.4671
 7048SOL     OW32776   1.914   4.253   1.518 -0.1502 -0.2311  0.6147
 7048SOL    HW132777   1.820   4.235   1.515 -0.0777 -0.5340  0.2217
 7048SOL    HW232778   1.936   4.196   1.592 -0.5367 -0.5773  0.4644
 7049SOL     OW32779   1.808   3.376   8.740  0.1507 -0.1051  0.0783
 7049SOL    HW132780   1.724   3.418   8.758 -0.2062 -1.0348  0.5848
 7049SOL    HW232781   1.786   3.285   8.722  2.1312 -0.5530 -0.0905
 7050SOL     OW32782   1.978   3.894   6.796  0.3685 -0.1499 -0.0837
 7050SOL    HW132783   2.010   3.931   6.878  0.3989  1.5897 -0.8819
 7050SOL    HW232784   2.019   3.808   6.786  0.9630  0.1602 -0.3162
 7051SOL     OW32785   4.116   1.195   8.990  0.7862  0.1809 -0.5889
 7051SOL    HW132786   4.097   1.287   9.008 -0.3468  0.1721 -1.7610
 7051SOL    HW232787   4.190   1.190   9.050  0.1006  1.7874  0.3968
 7052SOL     OW32788   0.125   2.213   3.177 -0.4072  0.1189  0.3337
 7052SOL    HW132789   0.220   2.207   3.186 -0.5739 -1.0896  1.2289
 7052SOL    HW232790   0.107   2.134   3.126 -3.3308  0.9686  0.0479
 7053SOL     OW32791   1.479   4.025   3.789 -0.0069  0.1405  0.7219
 7053SOL    HW132792   1.567   4.021   3.750  0.3052  0.0391  1.4432
 7053SOL    HW232793   1.475   3.957   3.856  1.8293 -1.0731 -0.3995
 7054SOL     OW32794   3.406   2.963  16.815  0.9181 -0.0839 -0.3819
 7054SOL    HW132795   3.495   2.932  16.800  1.2062  0.5242  0.0764
 7054SOL    HW232796   3.374   2.990  16.729 -3.0707 -1.7514  0.5707
 7055SOL     OW32797   3.538   2.953   7.186  0.0005  0.1557 -0.0635
 7055SOL    HW132798   3.484   3.003   7.125  0.0651  0.1061 -0.1622
 7055SOL    HW232799   3.567   3.019   7.249  0.2037 -1.1859  1.2547
 7056SOL     OW32800   1.393   0.277   3.281 -0.0910  0.2591 -0.4312
 7056SOL    HW132801   1.443   0.201   3.310  0.6271  0.2115 -1.8226
 7056SOL    HW232802   1.364   0.311   3.366 -1.1906  0.3846 -0.8583
 7057SOL     OW32803   3.947   1.904   4.415  0.5231 -0.0831 -0.5682
 7057SOL    HW132804   3.896   1.973   4.457  0.1519 -1.1422  0.7034
 7057SOL    HW232805   4.024   1.906   4.472  0.4680  2.5212 -0.5812
 7058SOL     OW32806   2.694   3.359   4.212 -0.7184  0.2256  0.1682
 7058SOL    HW132807   2.748   3.432   4.180 -0.7784  0.5171  0.7256
 7058SOL    HW232808   2.633   3.395   4.276 -0.5385  2.1414 -0.7255
 7059SOL     OW32809   3.641   1.587  10.635 -0.0564  0.0916 -0.0194
 7059SOL    HW132810   3.692   1.644  10.577  1.6490 -0.1790  1.2223
 7059SOL    HW232811   3.707   1.539  10.684 -1.1606 -0.0841  1.3237
 7060SOL     OW32812   1.182   4.698  12.048 -0.0553  0.3257  0.0219
 7060SOL    HW132813   1.173   4.689  12.143 -0.8483  1.5437  0.0541
 7060SOL    HW232814   1.234   0.036  12.034 -0.3565  1.0142  2.7807
 7061SOL     OW32815   0.318   0.715  11.854  0.0525  0.4382 -0.2711
 7061SOL    HW132816   0.297   0.696  11.945  1.8755 -0.6398 -0.0816
 7061SOL    HW232817   0.354   0.630  11.829  1.1241  1.0287 -0.7389
 7062SOL     OW32818   1.719   2.001   5.444  0.2373  0.3329 -0.4047
 7062SOL    HW132819   1.762   2.084   5.461 -0.0189  0.2960  0.4127
 7062SOL    HW232820   1.717   1.961   5.531 -1.6317  0.7797 -0.2465
 7063SOL     OW32821   2.116   3.856   7.070  0.3431 -0.5215  1.2235
 7063SOL    HW132822   2.071   3.772   7.066  0.5756 -0.6364  1.0003
 7063SOL    HW232823   2.051   3.885   7.134  0.1038  0.3478  0.5894
 7064SOL     OW32824   0.025   3.293   1.225 -0.6476  0.3590 -0.1042
 7064SOL    HW132825   4.721   3.332   1.300  0.5587  1.2224  0.1935
 7064SOL    HW232826   4.703   3.314   1.156 -0.4072 -2.2406 -1.1139
 7065SOL     OW32827   0.735   4.399   6.904 -0.1374 -0.0255  0.6839
 7065SOL    HW132828   0.651   4.353   6.911 -0.7869  1.1362  0.6415
 7065SOL    HW232829   0.747   4.419   6.997 -2.8312 -0.8389  1.2309
 7066SOL     OW32830   1.305   0.917   2.547 -0.7543 -0.3142 -0.0241
 7066SOL    HW132831   1.272   0.929   2.636 -1.2283  1.0687 -0.3754
 7066SOL    HW232832   1.348   0.833   2.559 -1.3316 -0.4592  1.0405
 7067SOL     OW32833   3.113   3.605   2.104  0.1109 -0.0391  0.7956
 7067SOL    HW132834   3.153   3.579   2.186  3.0779 -0.2775 -0.7428
 7067SOL    HW232835   3.030   3.648   2.124  0.4223  0.7982  0.2809
 7068SOL     OW32836   4.526   1.141   8.379  0.0514  0.1540  0.2296
 7068SOL    HW132837   4.468   1.106   8.310  0.8003 -0.0590 -0.2863
 7068SOL    HW232838   4.589   1.070   8.385  1.2972  1.4131  1.9852
 7069SOL     OW32839   4.671   2.821   6.778 -0.2862 -0.4550  0.0366
 7069SOL    HW132840   0.015   2.790   6.746  0.0572  0.5887 -0.0815
 7069SOL    HW232841   4.619   2.746   6.806 -1.6569  0.0146 -1.2545
 7070SOL     OW32842   4.093   0.436   9.672  1.0603  0.2711  0.1353
 7070SOL    HW132843   4.006   0.435   9.632  0.8586  2.1632  0.5006
 7070SOL    HW232844   4.142   0.453   9.591  0.4296 -0.1025 -0.3221
 7071SOL     OW32845   3.378   3.776   8.460  0.0903 -0.0430  0.3286
 7071SOL    HW132846   3.377   3.848   8.523 -0.1752 -0.4607  0.8117
 7071SOL    HW232847   3.300   3.798   8.409  0.3736  2.6516  1.0755
 7072SOL     OW32848   4.196   3.058  15.656  0.4730  0.1243  0.2822
 7072SOL    HW132849   4.182   3.086  15.746 -1.7547 -4.0013  1.2152
 7072SOL    HW232850   4.113   3.020  15.626  2.5836 -3.5774 -0.8499
 7073SOL     OW32851   4.016   0.805   3.666 -0.0012 -1.0049  0.1634
 7073SOL    HW132852   4.017   0.899   3.684  2.7226 -0.6346 -1.8794
 7073SOL    HW232853   4.045   0.802   3.574 -1.0622 -0.7554 -0.1816
 7074SOL     OW32854   2.784   4.024  12.131  0.3586  0.0281  0.0500
 7074SOL    HW132855   2.777   4.084  12.057 -1.3954 -0.3127 -0.0622
 7074SOL    HW232856   2.824   4.081  12.198 -1.2628  1.0779  0.1309
 7075SOL     OW32857   3.708   3.352   7.607  0.0208 -0.0385 -0.1870
 7075SOL    HW132858   3.694   3.397   7.690  0.7368  0.1279 -0.1578
 7075SOL    HW232859   3.801   3.375   7.601  0.4202 -1.3382  1.0076
 7076SOL     OW32860   2.923   2.265  11.014  0.0581 -0.3375 -0.3201
 7076SOL    HW132861   2.888   2.354  11.016  0.0952 -0.3131 -0.8040
 7076SOL    HW232862   2.846   2.224  11.054 -0.4389  1.3826  0.5030
 7077SOL     OW32863   2.635   0.754   8.359 -0.1026 -0.6896 -0.3488
 7077SOL    HW132864   2.616   0.666   8.390  2.0062 -0.7408  0.7551
 7077SOL    HW232865   2.695   0.747   8.285  1.3026 -0.5608  0.7650
 7078SOL     OW32866   1.355   1.206   3.673 -0.0146  0.2831 -0.5566
 7078SOL    HW132867   1.324   1.289   3.708  1.2721  0.6059 -0.1947
 7078SOL    HW232868   1.310   1.217   3.589 -1.9693  2.0356  0.7285
 7079SOL     OW32869   2.573   1.472   6.198  0.7297 -0.4025  0.7593
 7079SOL    HW132870   2.539   1.456   6.109  1.1482  2.7267  0.0337
 7079SOL    HW232871   2.665   1.486   6.175  0.5702 -0.4089  0.1161
 7080SOL     OW32872   2.357   2.054   1.284 -0.6864 -0.4408  0.2684
 7080SOL    HW132873   2.375   1.983   1.347  1.3333 -0.1180  0.0742
 7080SOL    HW232874   2.371   2.008   1.201  0.2224  0.3578 -0.0272
 7081SOL     OW32875   0.227   0.480   8.175  0.3958 -0.2072  0.2849
 7081SOL    HW132876   0.287   0.500   8.248  2.8241  0.2117 -1.8308
 7081SOL    HW232877   0.272   0.520   8.101 -0.0907  0.5749  0.4115
 7082SOL     OW32878   0.167   0.216  16.806 -0.5660  0.8225 -0.2212
 7082SOL    HW132879   0.096   0.169  16.849 -0.8483  2.0003  0.5998
 7082SOL    HW232880   0.122   0.284  16.755  1.1617  1.6622 -0.6183
 7083SOL     OW32881   1.455   3.631   3.852 -0.0198 -0.0608 -0.0141
 7083SOL    HW132882   1.457   3.712   3.903 -4.4149 -0.6956  1.1884
 7083SOL    HW232883   1.378   3.588   3.891  1.0182 -1.9254 -0.0350
 7084SOL     OW32884   0.012   4.655   8.709 -0.4951 -0.6287  0.0053
 7084SOL    HW132885   4.723   4.570   8.740 -2.7974  0.1764  0.0508
 7084SOL    HW232886   4.674   4.685   8.664 -0.3218  1.0557  0.7912
 7085SOL     OW32887   3.763   2.954   0.812 -0.1034 -0.1913 -0.3233
 7085SOL    HW132888   3.827   3.025   0.819  0.8167 -1.0341 -0.2127
 7085SOL    HW232889   3.685   3.007   0.831 -0.9562 -1.8621  0.8391
 7086SOL     OW32890   1.984   0.751   7.968 -0.2437 -0.2536 -0.6048
 7086SOL    HW132891   1.933   0.802   8.030  0.8434 -0.3916  0.4074
 7086SOL    HW232892   2.020   0.814   7.905  0.4875  0.4910  0.5611
 7087SOL     OW32893   0.137   2.620  14.509  0.0261  0.3159  0.4362
 7087SOL    HW132894   0.192   2.566  14.565 -1.8447 -0.6549  1.3026
 7087SOL    HW232895   0.180   2.705  14.516  0.4125  0.2664 -1.1639
 7088SOL     OW32896   2.194   4.004   7.358  0.1413 -0.5671 -0.2014
 7088SOL    HW132897   2.184   4.099   7.370  1.3556 -0.4349 -0.1826
 7088SOL    HW232898   2.114   3.975   7.401 -0.2235 -0.5351 -0.8615
 7089SOL     OW32899   4.715   0.653   7.545 -0.0108 -0.8681 -0.0060
 7089SOL    HW132900   4.703   0.645   7.450 -0.1826 -1.5433  0.0725
 7089SOL    HW232901   4.627   0.684   7.567 -0.6398 -1.7775 -1.2560
 7090SOL     OW32902   3.979   3.287   4.950  0.1299 -0.2074 -0.3868
 7090SOL    HW132903   3.952   3.199   4.975  1.4108 -0.4072  0.3127
 7090SOL    HW232904   4.054   3.302   5.007  2.6404 -0.5947 -3.5940
 7091SOL     OW32905   1.132   1.628  16.555  0.3094  0.1127 -0.4717
 7091SOL    HW132906   1.187   1.550  16.554  0.1389 -0.0115 -0.1789
 7091SOL    HW232907   1.130   1.663  16.466 -2.8880 -0.8869 -0.7979
 7092SOL     OW32908   4.326   1.103   0.810  0.0678  0.0541  0.0751
 7092SOL    HW132909   4.390   1.042   0.772 -0.9532 -1.0142  0.0632
 7092SOL    HW232910   4.291   1.060   0.888  0.3980 -0.1176  0.1289
 7093SOL     OW32911   0.083   2.739   4.024  0.0031 -0.1750 -0.0022
 7093SOL    HW132912   0.110   2.827   3.998 -0.3181 -0.6091 -1.8620
 7093SOL    HW232913   0.077   2.701   3.936 -1.2907 -0.0396  0.0267
 7094SOL     OW32914   1.470   2.135   7.001 -0.6455  0.1528 -0.0989
 7094SOL    HW132915   1.527   2.087   7.062 -1.2922  0.7421  0.9770
 7094SOL    HW232916   1.381   2.113   7.030  0.2606 -1.7581  1.2367
 7095SOL     OW32917   4.229   4.657   7.471  0.0481  0.2907 -0.5173
 7095SOL    HW132918   4.241   4.707   7.551 -2.1279  2.0694 -1.3203
 7095SOL    HW232919   4.145   4.615   7.489  0.5845 -0.2716  0.6759
 7096SOL     OW32920   4.547   0.692  11.312  0.4675  0.0205 -0.5122
 7096SOL    HW132921   4.552   0.788  11.318 -2.2048 -0.0766  3.3204
 7096SOL    HW232922   4.606   0.681  11.238 -0.2241 -2.0720 -0.7441
 7097SOL     OW32923   1.662   3.111   5.771 -0.1036 -0.4113  0.4542
 7097SOL    HW132924   1.577   3.069   5.756 -0.0623  0.6936 -2.8350
 7097SOL    HW232925   1.669   3.096   5.865  0.4918  2.2856  0.8193
 7098SOL     OW32926   2.194   1.623   0.496 -0.1772 -0.1572 -0.4110
 7098SOL    HW132927   2.119   1.586   0.449 -0.7359 -0.1870  0.5001
 7098SOL    HW232928   2.150   1.652   0.576 -1.0853  0.7897 -1.2584
 7099SOL     OW32929   3.340   2.319  16.197 -0.1338  0.3785  0.3546
 7099SOL    HW132930   3.286   2.250  16.237  1.0632 -0.3170  0.7916
 7099SOL    HW232931   3.306   2.399  16.237 -0.3927 -0.5718  2.0372
 7100SOL     OW32932   0.699   3.051   8.469  0.7332  0.1728  0.1956
 7100SOL    HW132933   0.634   3.078   8.534  0.2645 -2.0613  0.6628
 7100SOL    HW232934   0.737   3.136   8.447 -0.2529  0.5115 -0.2085
 7101SOL     OW32935   0.240   2.451   8.843  0.5249 -0.5240 -0.0352
 7101SOL    HW132936   0.145   2.439   8.839  0.6306 -1.1025 -0.8929
 7101SOL    HW232937   0.261   2.372   8.893  0.3147  0.1980  1.1932
 7102SOL     OW32938   1.025   3.716   4.323  0.4247  0.6680 -0.1206
 7102SOL    HW132939   0.969   3.744   4.395 -0.2196  2.0260 -1.1656
 7102SOL    HW232940   1.055   3.632   4.358  0.2867 -0.1780 -2.0179
 7103SOL     OW32941   0.672   1.134  11.263  0.4091  0.1105  0.0313
 7103SOL    HW132942   0.743   1.114  11.323  1.3195  4.0544  0.2002
 7103SOL    HW232943   0.704   1.216  11.226 -0.1306 -0.2966 -1.3595
 7104SOL     OW32944   3.820   4.560   9.125 -0.5895  0.4166 -0.4986
 7104SOL    HW132945   3.809   4.639   9.178 -2.5667 -0.6972  0.7518
 7104SOL    HW232946   3.882   4.515   9.182 -0.9768 -0.5193 -0.8101
 7105SOL     OW32947   3.735   2.753   5.234  0.2250  0.4217 -0.6470
 7105SOL    HW132948   3.734   2.661   5.259  1.1884  0.7371  0.5423
 7105SOL    HW232949   3.646   2.771   5.205 -0.4434 -2.1559 -0.1896
 7106SOL     OW32950   2.581   4.052   4.927 -0.7339  0.8021  0.7970
 7106SOL    HW132951   2.664   4.090   4.895  0.1396 -1.8755 -0.1629
 7106SOL    HW232952   2.531   4.119   4.881 -2.8861 -1.8401 -0.6686
 7107SOL     OW32953   3.162   1.973   9.444  0.5689 -0.2689 -0.5190
 7107SOL    HW132954   3.230   1.915   9.478  1.7950  1.9400  0.7785
 7107SOL    HW232955   3.179   1.958   9.351  0.4912  0.3470 -0.6292
 7108SOL     OW32956   4.594   0.502   4.085  0.4238  0.0774  0.5297
 7108SOL    HW132957   4.587   0.408   4.066  0.1207 -0.0279  1.1767
 7108SOL    HW232958   4.509   0.532   4.052  0.7831  2.6333  1.9699
 7109SOL     OW32959   4.580   1.372   0.098 -0.0798 -0.1432  0.1329
 7109SOL    HW132960   4.617   1.447   0.052  1.1987 -0.3569  0.8363
 7109SOL    HW232961   4.490   1.376   0.063 -0.4162  1.8481  1.2722
 7110SOL     OW32962   0.298   1.982   7.008  0.2787  0.2146  0.1363
 7110SOL    HW132963   0.212   1.952   6.979  0.1910 -0.1523  0.7573
 7110SOL    HW232964   0.357   1.945   6.942  0.0419 -1.6130  0.9511
 7111SOL     OW32965   3.456   1.829   6.174  0.2327 -0.1712  0.0315
 7111SOL    HW132966   3.533   1.811   6.120 -0.5788  1.1988 -1.5677
 7111SOL    HW232967   3.484   1.809   6.263  0.2856 -1.8446 -0.3552
 7112SOL     OW32968   2.001   2.370  12.189  0.2710  0.2762  0.2120
 7112SOL    HW132969   1.914   2.369  12.151  0.8066 -0.3436 -0.9852
 7112SOL    HW232970   2.034   2.288  12.153  0.8959 -0.2583  1.9545
 7113SOL     OW32971   3.042   4.331   5.516 -0.2801 -0.1307 -0.2096
 7113SOL    HW132972   2.968   4.302   5.569 -0.3681  0.3123 -0.0946
 7113SOL    HW232973   3.042   4.265   5.446  2.8390 -0.3667  0.0201
 7114SOL     OW32974   2.330   1.123   4.096  0.4932  0.6792 -0.0301
 7114SOL    HW132975   2.287   1.055   4.045 -0.4906  0.9516  0.4148
 7114SOL    HW232976   2.381   1.066   4.153  0.1188 -0.7324 -1.1081
 7115SOL     OW32977   1.864   4.128  10.523 -0.2032  0.0709 -0.2342
 7115SOL    HW132978   1.795   4.084  10.474  0.1030 -0.3688 -0.2728
 7115SOL    HW232979   1.922   4.052  10.533 -0.1038  0.3284  1.2089
 7116SOL     OW32980   3.684   2.531   4.536  0.5089  0.3807  0.2232
 7116SOL    HW132981   3.658   2.501   4.624  0.7923 -0.6464 -0.0373
 7116SOL    HW232982   3.602   2.512   4.491 -0.0354  2.6712  0.2469
 7117SOL     OW32983   4.538   2.999   3.924 -0.2177  0.0043 -0.0172
 7117SOL    HW132984   4.457   3.049   3.924 -0.3364 -0.1852 -0.3850
 7117SOL    HW232985   4.532   2.935   3.995  1.1959  1.1461  1.1265
 7118SOL     OW32986   1.300   2.715   3.490  0.2081  0.2310  0.3023
 7118SOL    HW132987   1.208   2.711   3.518 -0.2058  1.2148 -0.9292
 7118SOL    HW232988   1.281   2.731   3.397  1.1376 -1.4630 -0.1855
 7119SOL     OW32989   4.596   3.690  11.018 -0.7646 -0.0082  0.4054
 7119SOL    HW132990   4.530   3.640  11.067 -2.5114  2.8294  0.9352
 7119SOL    HW232991   4.670   3.632  11.035  0.8860  1.9271 -0.2055
 7120SOL     OW32992   3.517   3.356  15.355  0.1451 -0.4290  0.0321
 7120SOL    HW132993   3.577   3.298  15.403 -0.5339 -1.3800 -0.2652
 7120SOL    HW232994   3.447   3.293  15.369 -0.4596  0.8485  2.8977
 7121SOL     OW32995   3.499   0.654   2.959 -0.0834 -0.0111 -0.3950
 7121SOL    HW132996   3.560   0.584   2.983  0.1655  0.0784 -0.7770
 7121SOL    HW232997   3.535   0.703   2.886 -1.6292  1.5116 -0.1417
 7122SOL     OW32998   0.239   3.418   0.683 -0.1102  0.1773  0.1673
 7122SOL    HW132999   0.290   3.482   0.734  1.1084 -0.3638 -0.3591
 7122SOL    HW233000   0.167   3.470   0.647  0.4725  0.4659 -0.5862
 7123SOL     OW33001   3.331   3.019  16.511  0.9488  0.2391 -0.2435
 7123SOL    HW133002   3.333   3.103  16.556  0.6387  0.2069 -0.1691
 7123SOL    HW233003   3.396   3.034  16.442  2.5761 -1.9130  0.8438
 7124SOL     OW33004   3.476   0.526   0.309 -0.0379 -0.4463  0.2741
 7124SOL    HW133005   3.518   0.492   0.230  0.6531 -0.8137  0.8025
 7124SOL    HW233006   3.421   0.598   0.278 -2.6280 -2.8098 -0.5798
 7125SOL     OW33007   1.991   1.420   5.380  0.4078 -0.3113 -0.4064
 7125SOL    HW133008   1.951   1.424   5.293 -1.6325  1.4526  0.6223
 7125SOL    HW233009   1.949   1.348   5.428  1.8479 -2.2582 -2.0481
 7126SOL     OW33010   1.725   1.255   5.512 -0.1528  0.3080  0.2531
 7126SOL    HW133011   1.680   1.173   5.533 -1.6610  0.7168 -1.3426
 7126SOL    HW233012   1.783   1.215   5.447  1.6873  0.8549  1.5784
 7127SOL     OW33013   1.409   2.459   6.045  0.5808  0.2911  0.0172
 7127SOL    HW133014   1.316   2.475   6.031  1.4258  1.9696 -3.6138
 7127SOL    HW233015   1.423   2.417   6.130 -1.2810 -2.1905 -0.9162
 7128SOL     OW33016   1.352   1.230   7.637 -0.1767 -0.4350  0.4073
 7128SOL    HW133017   1.267   1.187   7.650 -0.1772 -0.5595  0.0245
 7128SOL    HW233018   1.342   1.246   7.543  0.9051  4.1966  1.0798
 7129SOL     OW33019   3.435   1.084   6.029  0.1464 -0.2767  0.1110
 7129SOL    HW133020   3.419   1.038   6.112  2.2636 -2.0435 -0.4525
 7129SOL    HW233021   3.363   1.060   5.972  0.5925 -1.7521  0.1754
 7130SOL     OW33022   3.213   1.827  14.415 -0.1764  0.2621  0.3167
 7130SOL    HW133023   3.205   1.899  14.352 -0.2989 -2.1363 -2.4537
 7130SOL    HW233024   3.211   1.748  14.360  1.2939  0.7342 -0.4301
 7131SOL     OW33025   2.117   3.102   7.535 -0.4105 -0.6026  0.1998
 7131SOL    HW133026   2.129   3.060   7.620 -3.3427  0.4619  1.1251
 7131SOL    HW233027   2.208   3.117   7.508 -1.4233  0.5444 -2.6436
 7132SOL     OW33028   1.341   3.506   4.271 -0.1107 -0.4801  0.0915
 7132SOL    HW133029   1.348   3.434   4.333  2.2702 -0.6835 -0.4055
 7132SOL    HW233030   1.355   3.580   4.330  2.2472  1.6701 -3.1155
 7133SOL     OW33031   1.662   3.614  15.134 -0.6511  0.1412 -0.4479
 7133SOL    HW133032   1.634   3.618  15.226 -2.3560 -2.6291 -0.8565
 7133SOL    HW233033   1.722   3.540  15.132 -1.7971 -0.7492 -1.2276
 7134SOL     OW33034   2.871   3.189   0.237  0.5823 -0.9047  0.2249
 7134SOL    HW133035   2.830   3.133   0.303  0.8613  0.3826  1.4968
 7134SOL    HW233036   2.847   3.272   0.278 -0.3952 -0.3879 -1.3847
 7135SOL     OW33037   1.491   0.547  14.325 -0.0369 -0.0105  0.2040
 7135SOL    HW133038   1.556   0.520  14.260  2.1713  3.1674  1.1051
 7135SOL    HW233039   1.407   0.556  14.279 -0.2510  1.3627  0.9025
 7136SOL     OW33040   0.209   0.327   4.464  0.5278  0.6947 -0.2103
 7136SOL    HW133041   0.223   0.408   4.414 -1.8102  1.1457 -0.1348
 7136SOL    HW233042   0.165   0.355   4.544 -0.8073  1.1979 -1.1285
 7137SOL     OW33043   4.650   3.849  11.412 -0.1283 -0.4940  0.4717
 7137SOL    HW133044   4.598   3.771  11.434 -1.7110  0.9403  1.8839
 7137SOL    HW233045   4.598   3.894  11.345  1.0612 -2.2660 -1.6563
 7138SOL     OW33046   3.209   2.297   1.495  0.2710 -0.3360 -0.1425
 7138SOL    HW133047   3.264   2.355   1.443  0.3488  0.0571  0.3749
 7138SOL    HW233048   3.140   2.283   1.430 -0.1075 -0.7281  0.3360
 7139SOL     OW33049   2.065   2.738   5.786 -0.8444  0.4358  0.0467
 7139SOL    HW133050   1.981   2.752   5.828 -1.1000 -0.9746  0.0174
 7139SOL    HW233051   2.054   2.777   5.699 -1.0340  1.2851  0.4570
 7140SOL     OW33052   2.542   4.097   6.775  0.4223  0.4459  0.4973
 7140SOL    HW133053   2.490   4.149   6.835 -0.1078 -0.0577  0.4808
 7140SOL    HW233054   2.600   4.165   6.741  0.1763 -0.0221 -0.8650
 7141SOL     OW33055   0.253   1.092   6.194  0.1876 -0.4589  0.0182
 7141SOL    HW133056   0.315   1.052   6.134 -0.3339  2.6799 -2.6660
 7141SOL    HW233057   0.199   1.144   6.134  1.2519  0.3078 -0.2741
 7142SOL     OW33058   0.074   3.625   7.259  0.1534 -0.3277 -0.3735
 7142SOL    HW133059   0.027   3.597   7.180 -0.6249 -0.1314  0.0185
 7142SOL    HW233060   0.045   3.716   7.272  0.4222  0.0261 -2.2156
 7143SOL     OW33061   2.962   0.357   7.224 -0.0523 -0.2972  0.5546
 7143SOL    HW133062   3.041   0.303   7.231 -0.0167 -0.7432 -2.9905
 7143SOL    HW233063   3.002   0.439   7.194 -0.2227 -0.2173  0.5478
 7144SOL     OW33064   3.035   0.660   1.494  0.0385 -0.0255  0.1416
 7144SOL    HW133065   2.999   0.710   1.567  1.0399  1.4421 -0.3716
 7144SOL    HW233066   3.103   0.719   1.462 -2.3856  1.5540 -2.0537
 7145SOL     OW33067   1.663   3.602   9.714  0.1976  0.3344  0.3313
 7145SOL    HW133068   1.748   3.605   9.671 -0.6644  0.4391 -1.3481
 7145SOL    HW233069   1.640   3.695   9.724  1.0560  0.5286  0.4653
 7146SOL     OW33070   3.787   2.285   7.146 -0.0098 -0.1373 -0.2401
 7146SOL    HW133071   3.746   2.209   7.187 -0.5823  0.6433  0.6402
 7146SOL    HW233072   3.714   2.328   7.101  0.1066 -0.2521 -0.5406
 7147SOL     OW33073   0.183   1.960   1.440  0.2910 -0.3266 -0.2050
 7147SOL    HW133074   0.238   1.886   1.416 -2.0995 -2.8539  2.1098
 7147SOL    HW233075   0.110   1.908   1.473  0.1775 -0.3738 -0.5308
 7148SOL     OW33076   0.777   0.624  13.628  0.3212  0.0495  0.3739
 7148SOL    HW133077   0.697   0.616  13.576  0.0576  1.0561  0.6319
 7148SOL    HW233078   0.791   0.715  13.652 -0.5268  0.2069  0.2822
 7149SOL     OW33079   1.482   2.082   6.066 -0.0697 -0.1978  0.4119
 7149SOL    HW133080   1.418   2.034   6.118 -1.0391 -1.5412 -2.0587
 7149SOL    HW233081   1.549   2.082   6.134  0.5562  1.7817 -0.2151
 7150SOL     OW33082   4.334   1.972   1.957 -0.0914  0.0736  0.6078
 7150SOL    HW133083   4.248   2.014   1.952  0.8077  1.7216 -0.7360
 7150SOL    HW233084   4.315   1.879   1.945  0.5824  0.2145 -1.4242
 7151SOL     OW33085   1.482   1.359   5.409 -0.1926  0.0158 -0.4321
 7151SOL    HW133086   1.573   1.330   5.418  0.0529  0.6537 -0.9004
 7151SOL    HW233087   1.458   1.336   5.320 -1.3528  1.8255 -0.5713
 7152SOL     OW33088   1.162   1.575   8.424  0.3207  0.2740  0.0764
 7152SOL    HW133089   1.200   1.648   8.376  0.4126 -0.6417 -1.2637
 7152SOL    HW233090   1.173   1.610   8.512  1.7840 -1.6362  0.6632
 7153SOL     OW33091   2.733   2.241   8.134 -0.0562  0.6925  0.0289
 7153SOL    HW133092   2.821   2.277   8.122  1.0763 -1.9872  0.1417
 7153SOL    HW233093   2.707   2.209   8.047 -0.7360  0.4147  0.3356
 7154SOL     OW33094   0.654   2.811   9.299  0.2370 -0.3788  0.4447
 7154SOL    HW133095   0.609   2.869   9.238 -0.1691 -1.5740 -0.3804
 7154SOL    HW233096   0.584   2.755   9.333 -0.4621 -0.0106 -0.3830
 7155SOL     OW33097   4.383   3.313  16.576  0.1219 -0.0357 -0.2084
 7155SOL    HW133098   4.398   3.406  16.561 -0.5323 -0.2588 -2.1661
 7155SOL    HW233099   4.431   3.302  16.658  1.6461  1.9942 -0.8452
 7156SOL     OW33100   3.001   2.182   0.988 -0.3654  0.5195 -0.2988
 7156SOL    HW133101   2.908   2.165   0.974 -0.2478 -1.3670  1.2869
 7156SOL    HW233102   2.993   2.239   1.065 -0.1546  0.2239 -0.0604
 7157SOL     OW33103   1.574   4.654  16.994 -0.0039  0.4419 -0.1616
 7157SOL    HW133104   1.528   4.713  16.935 -0.9781 -2.7095 -2.5294
 7157SOL    HW233105   1.661   4.694  17.000  0.4812 -0.5804 -0.4969
 7158SOL     OW33106   2.255   3.934   3.035 -0.0380  0.5774  0.8146
 7158SOL    HW133107   2.226   4.003   3.094 -0.7310 -1.7793  3.1927
 7158SOL    HW233108   2.196   3.945   2.960  2.5287  2.8566 -0.8572
 7159SOL     OW33109   1.347   3.968   9.351 -0.3924 -0.0108 -0.4512
 7159SOL    HW133110   1.281   3.991   9.285 -0.5552 -0.3531 -0.4091
 7159SOL    HW233111   1.424   3.948   9.298 -0.0816  0.6443 -0.2422
 7160SOL     OW33112   1.121   2.718  11.307 -0.0316  0.5221  0.3930
 7160SOL    HW133113   1.146   2.810  11.294 -0.9682  0.8992  1.2917
 7160SOL    HW233114   1.029   2.731  11.285 -0.8870 -1.5983  2.7127
 7161SOL     OW33115   0.070   0.529   1.218  0.3690  0.7322  0.0828
 7161SOL    HW133116   0.063   0.527   1.314 -0.4874 -0.3423  0.0059
 7161SOL    HW233117   4.727   0.573   1.203  1.1565  2.0702 -0.3981
 7162SOL     OW33118   2.634   1.688   4.040 -0.4057  0.0723 -0.0328
 7162SOL    HW133119   2.612   1.753   4.106 -0.8615  0.1049 -0.2151
 7162SOL    HW233120   2.728   1.687   4.056 -0.6202 -1.4353  1.1964
 7163SOL     OW33121   3.678   3.748  16.105  0.1001  0.3934  0.3253
 7163SOL    HW133122   3.743   3.751  16.034 -0.3544 -1.4815 -0.1736
 7163SOL    HW233123   3.743   3.752  16.175  1.2468  0.2829 -0.7247
 7164SOL     OW33124   1.355   1.576   7.829 -0.1886  0.1618  0.2624
 7164SOL    HW133125   1.330   1.656   7.876 -0.8338 -0.8324  1.6298
 7164SOL    HW233126   1.269   1.535   7.818  0.0766  0.4449 -2.8528
 7165SOL     OW33127   3.102   4.071   2.612  0.0813  0.0919  0.8100
 7165SOL    HW133128   3.082   4.011   2.539  0.1298 -0.5397  1.3129
 7165SOL    HW233129   3.125   4.152   2.567 -0.1928 -1.1902 -1.6342
 7166SOL     OW33130   0.760   3.769   0.710  0.3572  0.1128 -0.2237
 7166SOL    HW133131   0.782   3.847   0.659  0.6987  0.0235 -0.2133
 7166SOL    HW233132   0.675   3.808   0.729 -0.2348 -1.3262  0.0734
 7167SOL     OW33133   0.041   2.800   5.007  0.3637 -0.0912  0.6291
 7167SOL    HW133134   0.082   2.781   4.922 -0.1341 -1.6611  0.7589
 7167SOL    HW233135   0.110   2.771   5.066  0.5259 -1.2689 -0.1305
 7168SOL     OW33136   2.014   2.243   7.820  0.4480 -0.4925  0.2575
 7168SOL    HW133137   2.089   2.252   7.879 -0.2928  1.0882  0.9668
 7168SOL    HW233138   1.968   2.322   7.848 -1.8763 -1.9079  0.4350
 7169SOL     OW33139   3.317   4.588   6.422 -0.0241  0.0504  0.3936
 7169SOL    HW133140   3.248   4.612   6.360 -0.2082  0.2829  0.6925
 7169SOL    HW233141   3.362   4.524   6.366  0.8549  2.4055 -1.5862
 7170SOL     OW33142   1.954   0.651   1.766  0.0174  0.0422  0.2657
 7170SOL    HW133143   1.905   0.664   1.847 -0.0390 -0.3997  0.3021
 7170SOL    HW233144   2.035   0.620   1.805  1.2072  3.0777  0.1699
 7171SOL     OW33145   0.568   2.061   6.941  0.0491 -0.1686 -0.4533
 7171SOL    HW133146   0.600   2.020   7.021  1.4125  2.4761  0.3660
 7171SOL    HW233147   0.647   2.063   6.887  1.5393 -1.1775  1.6823
 7172SOL     OW33148   0.182   1.785   8.332  0.5216  0.3774  0.2153
 7172SOL    HW133149   0.116   1.740   8.384 -0.2050  1.2059  0.0008
 7172SOL    HW233150   0.216   1.714   8.277  0.7003  1.2352 -0.8016
 7173SOL     OW33151   0.733   4.145   3.087 -0.0311  0.3529 -0.1832
 7173SOL    HW133152   0.823   4.116   3.102  0.4908  1.7053 -0.6799
 7173SOL    HW233153   0.709   4.084   3.017  0.1052  2.2686 -1.9068
 7174SOL     OW33154   0.556   1.188   8.379 -0.1510  0.1879 -0.3161
 7174SOL    HW133155   0.628   1.142   8.422  1.0447  1.1600 -1.2559
 7174SOL    HW233156   0.485   1.141   8.423  1.1307 -2.0336 -0.6072
 7175SOL     OW33157   2.298   0.479   5.810  0.4259  0.7669  0.2430
 7175SOL    HW133158   2.247   0.398   5.817  0.7551  0.5963  0.6596
 7175SOL    HW233159   2.309   0.476   5.715  1.0972  0.6858  0.3259
 7176SOL     OW33160   3.257   2.754   0.183 -0.3586  0.0186 -0.1317
 7176SOL    HW133161   3.247   2.742   0.278  0.3058  0.8991  0.0472
 7176SOL    HW233162   3.173   2.795   0.163 -1.6937 -2.9503 -0.6540
 7177SOL     OW33163   1.571   3.539  15.995 -0.4499  0.0519  0.0777
 7177SOL    HW133164   1.596   3.531  16.087 -1.8544 -0.3312  0.4270
 7177SOL    HW233165   1.596   3.449  15.974 -1.2975  0.4179 -2.4057
 7178SOL     OW33166   0.187   2.706   7.633 -0.1369  0.4678  0.4405
 7178SOL    HW133167   0.094   2.711   7.655  0.2403 -1.8548  2.5737
 7178SOL    HW233168   0.208   2.793   7.599 -0.7762  0.1532 -0.7455
 7179SOL     OW33169   1.666   2.897  12.547  0.5951  0.2752  0.0237
 7179SOL    HW133170   1.761   2.908  12.558  0.6068 -0.0715  0.2730
 7179SOL    HW233171   1.669   2.874  12.454  0.4947  0.9311 -0.1383
 7180SOL     OW33172   0.880   1.058   8.175  0.6072 -0.0012 -0.1638
 7180SOL    HW133173   0.914   1.066   8.264  1.6407  1.1820 -0.6738
 7180SOL    HW233174   0.821   0.983   8.187  1.6626 -0.6745  0.7846
 7181SOL     OW33175   0.448   2.235   9.042 -0.2132  0.1229  0.2040
 7181SOL    HW133176   0.491   2.157   9.076  2.4175  1.0614 -1.0291
 7181SOL    HW233177   0.449   2.301   9.111  2.2822  1.4428 -1.1459
 7182SOL     OW33178   4.369   3.648  14.811 -0.5788 -0.2502  0.0700
 7182SOL    HW133179   4.360   3.589  14.737 -0.2307  1.6604 -1.4903
 7182SOL    HW233180   4.371   3.583  14.881  0.0806  1.7892  1.9753
 7183SOL     OW33181   1.918   3.696   2.877  0.0065  0.3880 -0.7245
 7183SOL    HW133182   1.826   3.674   2.867  0.0942 -0.1717 -0.3210
 7183SOL    HW233183   1.928   3.771   2.819  0.0501 -0.3805 -1.7098
 7184SOL     OW33184   3.914   0.273   8.012  0.3640  0.7459 -0.4997
 7184SOL    HW133185   3.846   0.336   8.038 -0.3882 -0.0944 -0.4109
 7184SOL    HW233186   3.864   0.241   7.936  1.2646  0.2093 -0.8641
 7185SOL     OW33187   0.419   4.142   4.323  0.0669  0.4393 -0.1302
 7185SOL    HW133188   0.477   4.217   4.328  1.2558 -0.4039 -1.1963
 7185SOL    HW233189   0.338   4.184   4.352 -0.0189  1.1143 -1.3484
 7186SOL     OW33190   3.351   1.788   9.469  0.0944 -0.0469 -0.7963
 7186SOL    HW133191   3.425   1.809   9.412  0.5389  2.2938  0.6716
 7186SOL    HW233192   3.326   1.703   9.431  1.7951 -0.4876 -0.9472
 7187SOL     OW33193   4.398   2.136   5.962  0.3307 -0.2768 -0.0276
 7187SOL    HW133194   4.421   2.085   5.884 -1.1396 -0.3202 -0.4302
 7187SOL    HW233195   4.309   2.105   5.981 -0.9376  3.5799  0.2374
 7188SOL     OW33196   4.566   3.544  10.289 -0.1440 -0.0733  0.0776
 7188SOL    HW133197   4.634   3.551  10.222 -0.7890  2.6268 -0.2772
 7188SOL    HW233198   4.485   3.529  10.240  0.5731  1.1613 -1.4794
 7189SOL     OW33199   2.132   3.179   5.819 -0.1381  0.6755  0.3869
 7189SOL    HW133200   2.120   3.274   5.824 -0.0646  0.6609  0.8935
 7189SOL    HW233201   2.070   3.162   5.748  1.8320  1.5415 -1.5173
 7190SOL     OW33202   4.725   3.549   2.275  0.2806  0.8273  0.2326
 7190SOL    HW133203   0.005   3.459   2.249  0.4700  0.7475  0.6689
 7190SOL    HW233204   4.718   3.534   2.369  0.0275 -0.8580 -0.0477
 7191SOL     OW33205   3.387   0.612   3.220 -0.2235 -0.4446 -0.4202
 7191SOL    HW133206   3.406   0.623   3.127  0.1018 -1.1254 -0.4393
 7191SOL    HW233207   3.340   0.529   3.215  0.1969 -0.6675 -0.6554
 7192SOL     OW33208   1.314   3.840   5.143  0.0548 -0.6987  0.0252
 7192SOL    HW133209   1.256   3.790   5.086 -2.6303  1.5858  0.7514
 7192SOL    HW233210   1.300   3.793   5.226  0.7310  2.0728  1.7037
 7193SOL     OW33211   3.595   2.421  12.888 -0.6040  0.0885 -0.2109
 7193SOL    HW133212   3.609   2.490  12.954  1.2456 -1.5355  1.0993
 7193SOL    HW233213   3.557   2.475  12.819  1.0114  1.3265 -0.1521
 7194SOL     OW33214   1.290   4.428   9.143  0.5799  0.0111 -0.2063
 7194SOL    HW133215   1.242   4.367   9.087  0.4480 -0.9051  0.9096
 7194SOL    HW233216   1.225   4.444   9.211 -0.4133 -2.5716 -0.5684
 7195SOL     OW33217   0.864   1.121   6.102  0.4617 -0.0411  0.1939
 7195SOL    HW133218   0.958   1.137   6.100  0.5429 -0.4223  0.8999
 7195SOL    HW233219   0.848   1.100   6.010 -0.8153 -2.7993  1.0656
 7196SOL     OW33220   3.197   2.235   8.223  0.2237 -0.4088  0.0039
 7196SOL    HW133221   3.202   2.182   8.302  1.2764 -1.0000 -0.4571
 7196SOL    HW233222   3.199   2.318   8.270  1.1763 -1.2291  1.4218
 7197SOL     OW33223   2.232   3.191   7.071 -0.5640 -0.2935  0.0075
 7197SOL    HW133224   2.273   3.119   7.024  1.1071 -0.2401  1.3850
 7197SOL    HW233225   2.288   3.201   7.148  2.2415 -1.8666 -1.8432
 7198SOL     OW33226   4.552   2.321  13.081 -0.0555 -0.0150 -0.8374
 7198SOL    HW133227   4.573   2.365  12.998 -1.3550 -1.7243 -2.0819
 7198SOL    HW233228   4.634   2.279  13.106 -0.1492  0.0315 -0.4565
 7199SOL     OW33229   2.004   1.987   7.926  0.2041 -0.7893  0.0604
 7199SOL    HW133230   2.071   1.950   7.869  0.2827  1.4400 -1.2880
 7199SOL    HW233231   2.032   2.078   7.919  2.3244 -1.2815  2.2194
 7200SOL     OW33232   3.803   2.036   4.628  0.3916 -0.4813  0.2590
 7200SOL    HW133233   3.749   2.079   4.562  2.2373 -0.4718 -1.2426
 7200SOL    HW233234   3.800   2.106   4.694  2.0011  0.8177 -1.0403
 7201SOL     OW33235   0.639   0.989   0.921 -0.1739 -0.0608  0.3973
 7201SOL    HW133236   0.603   0.908   0.954 -1.3001 -0.5546 -2.0129
 7201SOL    HW233237   0.726   0.982   0.959  0.5349  2.1686 -0.7753
 7202SOL     OW33238   2.987   3.425   6.170 -0.4724 -0.1592  0.2577
 7202SOL    HW133239   2.989   3.511   6.128 -1.4364 -0.2124  0.1115
 7202SOL    HW233240   2.901   3.397   6.142 -0.1380  0.5114 -1.4371
 7203SOL     OW33241   0.504   1.184   9.934 -0.7100 -0.0369  0.3891
 7203SOL    HW133242   0.589   1.141   9.945 -0.3380  0.2611 -1.3116
 7203SOL    HW233243   0.503   1.251  10.003  0.4630 -2.1498  2.4580
 7204SOL     OW33244   0.188   1.391   9.957 -0.1537  0.1808 -0.2721
 7204SOL    HW133245   0.123   1.351  10.015 -1.2915  0.4693 -1.3545
 7204SOL    HW233246   0.211   1.478   9.989  2.1184  0.6408 -3.1380
 7205SOL     OW33247   3.026   2.612   1.537 -0.3737  0.6016 -0.3492
 7205SOL    HW133248   2.941   2.644   1.566 -0.8156 -1.4104  0.6262
 7205SOL    HW233249   3.001   2.524   1.565  0.1906  0.7549  0.6715
 7206SOL     OW33250   3.539   2.452   9.437 -0.2540 -0.1910 -0.0542
 7206SOL    HW133251   3.487   2.372   9.428 -0.9704  0.3416 -0.5530
 7206SOL    HW233252   3.525   2.468   9.530  1.4674 -0.6444  0.2968
 7207SOL     OW33253   4.317   2.064   6.844  0.2365 -0.3787 -0.5344
 7207SOL    HW133254   4.229   2.051   6.810  0.1119 -0.1144 -0.3136
 7207SOL    HW233255   4.340   1.972   6.854  0.6468 -0.1203  0.8945
 7208SOL     OW33256   1.077   3.274   5.007 -0.4972 -0.4413 -0.4632
 7208SOL    HW133257   1.094   3.187   5.043 -2.7787 -0.4611  0.5834
 7208SOL    HW233258   0.989   3.298   5.037 -0.0138  2.1162 -1.0522
 7209SOL     OW33259   4.580   2.626   3.549  0.6328 -0.4336  0.4032
 7209SOL    HW133260   4.601   2.610   3.457  1.8294  1.5069  0.3281
 7209SOL    HW233261   4.667   2.620   3.589  0.2065 -1.6146  1.1581
 7210SOL     OW33262   4.019   1.617   0.426 -0.0558 -0.8495 -0.0792
 7210SOL    HW133263   4.111   1.631   0.404  0.1122 -0.7618  0.6569
 7210SOL    HW233264   4.010   1.681   0.497  3.0180  0.5102 -0.9067
 7211SOL     OW33265   0.585   0.013   7.987 -0.0977  0.0255  0.5220
 7211SOL    HW133266   0.551   0.085   8.041 -0.2883  0.2960  0.0494
 7211SOL    HW233267   0.512   4.712   7.942  0.2350  1.0314 -0.9448
 7212SOL     OW33268   3.940   1.485   7.418  0.7465 -0.6824  0.1332
 7212SOL    HW133269   3.965   1.394   7.399 -0.3076 -1.1446  1.0248
 7212SOL    HW233270   3.845   1.480   7.418  0.7354  0.0025  3.9171
 7213SOL     OW33271   4.389   3.057   1.683  0.0877  0.3003  0.1252
 7213SOL    HW133272   4.376   3.080   1.591 -0.8153 -3.4407 -0.6678
 7213SOL    HW233273   4.396   3.141   1.729  1.3845  0.1670  0.1771
 7214SOL     OW33274   3.997   3.320   2.657  0.0765  0.3269  0.2005
 7214SOL    HW133275   4.011   3.337   2.751  1.0802 -1.3358  0.3627
 7214SOL    HW233276   3.916   3.270   2.659  0.1332  0.1587 -2.0663
 7215SOL     OW33277   1.341   0.356   3.026  0.0224 -0.4037 -0.6444
 7215SOL    HW133278   1.259   0.338   3.072  0.6092 -1.8681 -0.1553
 7215SOL    HW233279   1.397   0.335   3.101  0.7231  2.3740 -0.3997
 7216SOL     OW33280   0.205   4.596  17.371 -0.2238 -0.1432  0.2269
 7216SOL    HW133281   0.175   4.678  17.331  0.6698  0.6417  1.1803
 7216SOL    HW233282   0.220   4.551  17.288  0.1814 -0.6229  0.5614
 7217SOL     OW33283   0.417   4.470   6.547 -0.0372 -0.1240 -0.0492
 7217SOL    HW133284   0.378   4.439   6.629 -1.8968  0.2937 -0.7807
 7217SOL    HW233285   0.371   4.553   6.535  0.4575 -0.0946 -1.7903
 7218SOL     OW33286   2.642   3.427  17.010 -0.3882 -0.1090 -0.2809
 7218SOL    HW133287   2.681   3.371  17.078  0.0303  1.1328  0.5016
 7218SOL    HW233288   2.578   3.368  16.970  1.9569 -2.6242 -0.3156
 7219SOL     OW33289   3.080   1.298   3.809 -0.4575 -0.0144  0.2545
 7219SOL    HW133290   3.113   1.334   3.892  2.4231 -1.8566 -0.1144
 7219SOL    HW233291   3.145   1.236   3.777 -0.7199  0.7175 -1.6630
 7220SOL     OW33292   1.020   2.042  16.659 -0.0471 -0.0419 -0.1051
 7220SOL    HW133293   0.926   2.044  16.639  0.2067  0.7441 -1.2498
 7220SOL    HW233294   1.045   2.121  16.708  0.2211 -1.2786  1.7342
 7221SOL     OW33295   1.105   3.412   0.019  1.1879  0.2344 -0.4005
 7221SOL    HW133296   1.100   3.481  17.714  1.0278  1.0566  0.4688
 7221SOL    HW233297   1.199   3.403   0.032  0.7167 -0.5908  2.4536
 7222SOL     OW33298   1.283   3.341  16.475 -0.3696  0.1155 -0.0796
 7222SOL    HW133299   1.314   3.392  16.550 -0.0042 -1.0041  0.5275
 7222SOL    HW233300   1.346   3.269  16.484 -3.0289 -2.2174 -0.2747
 7223SOL     OW33301   3.288   0.729   6.653  0.7402 -0.2914 -0.0407
 7223SOL    HW133302   3.233   0.672   6.708 -0.2867 -1.8191 -2.6473
 7223SOL    HW233303   3.232   0.766   6.585  0.3504  1.6096  1.3225
 7224SOL     OW33304   1.879   0.009   6.283  0.7438 -0.4445  0.0030
 7224SOL    HW133305   1.857   4.657   6.288  0.8412 -0.4333  0.6805
 7224SOL    HW233306   1.803   0.048   6.326  0.1460 -0.1127 -1.3613
 7225SOL     OW33307   1.373   4.033   6.232 -0.1253 -0.4431  0.1359
 7225SOL    HW133308   1.312   3.964   6.258 -1.7190  1.5425  1.6028
 7225SOL    HW233309   1.343   4.082   6.156 -1.1857 -0.3788  0.6037
 7226SOL     OW33310   3.831   0.083   5.164 -0.2258 -0.2211 -0.0045
 7226SOL    HW133311   3.796   0.055   5.249 -1.1096 -1.8321 -0.9082
 7226SOL    HW233312   3.923   0.100   5.188  0.3070 -0.8746 -1.5834
 7227SOL     OW33313   3.181   0.534   3.533 -0.4863  0.3307 -0.0650
 7227SOL    HW133314   3.121   0.551   3.461 -2.7859  0.0475  1.7670
 7227SOL    HW233315   3.124   0.551   3.608 -2.0717 -0.7341 -1.0420
 7228SOL     OW33316   0.573   3.905   4.919  0.1540  0.4700 -0.3983
 7228SOL    HW133317   0.523   3.830   4.952  1.0977  0.4213  0.9602
 7228SOL    HW233318   0.501   3.967   4.909  1.1600  1.5691 -0.7878
 7229SOL     OW33319   0.360   2.293   2.427 -0.3670  0.2310 -0.1881
 7229SOL    HW133320   0.402   2.217   2.469  0.0223 -0.3880 -1.6857
 7229SOL    HW233321   0.303   2.325   2.496 -2.1139  1.1549 -2.0579
 7230SOL     OW33322   3.263   1.115  16.920 -0.3728  0.3464  0.8298
 7230SOL    HW133323   3.255   1.103  16.825  1.0850  2.0010  0.4950
 7230SOL    HW233324   3.357   1.112  16.937 -0.1993  0.1514 -0.1687
 7231SOL     OW33325   0.698   2.512   3.446 -0.1250 -0.0517 -0.0302
 7231SOL    HW133326   0.672   2.527   3.355  1.3305 -1.9433 -0.7597
 7231SOL    HW233327   0.707   2.604   3.472 -1.4951  0.1422 -0.2305
 7232SOL     OW33328   1.028   3.347  11.561  0.7273  0.0090  0.3382
 7232SOL    HW133329   1.113   3.311  11.587  0.3076  0.8426  2.8396
 7232SOL    HW233330   0.975   3.275  11.595 -2.7791  2.6690  0.3870
 7233SOL     OW33331   0.503   2.511   6.032  0.0383  0.3197 -0.8563
 7233SOL    HW133332   0.482   2.516   6.125  3.7657 -1.0142  0.0469
 7233SOL    HW233333   0.498   2.603   6.007  0.1614  0.7802  0.8266
 7234SOL     OW33334   1.061   2.512  11.924  0.0986 -0.0230  0.4691
 7234SOL    HW133335   1.120   2.495  11.997 -0.5701 -0.9727  0.7885
 7234SOL    HW233336   1.044   2.425  11.889 -0.5571  0.2308  0.1459
 7235SOL     OW33337   3.852   1.446   7.064  0.5242  0.3752  0.3781
 7235SOL    HW133338   3.933   1.441   7.115  1.9350  0.8793 -1.8319
 7235SOL    HW233339   3.808   1.510   7.120 -0.8276 -0.6241  0.4385
 7236SOL     OW33340   3.314   3.197   3.444 -0.1932 -0.2793  0.0189
 7236SOL    HW133341   3.306   3.119   3.500  0.5079  0.2521  0.8672
 7236SOL    HW233342   3.244   3.250   3.481  0.3477  2.2030 -2.5033
 7237SOL     OW33343   2.053   4.547   8.375  0.7338  0.3247  0.0718
 7237SOL    HW133344   2.056   4.470   8.318  1.4428  0.8237 -0.5552
 7237SOL    HW233345   2.140   4.541   8.415  0.4622  0.5314  0.6970
 7238SOL     OW33346   2.362   2.208   5.726  0.1645  0.3124 -0.3430
 7238SOL    HW133347   2.276   2.177   5.698  0.4090 -1.1179  0.5174
 7238SOL    HW233348   2.427   2.143   5.698  0.5852 -0.1876  1.7809
 7239SOL     OW33349   4.328   2.267  13.188  0.0463  0.6148  0.2246
 7239SOL    HW133350   4.313   2.173  13.183  0.3044  0.7485 -3.2721
 7239SOL    HW233351   4.403   2.285  13.131 -0.4967 -0.0108 -0.6789
 7240SOL     OW33352   1.180   4.399   3.836 -0.4340  0.4563  0.2882
 7240SOL    HW133353   1.138   4.313   3.826  0.2868  0.2048 -0.5223
 7240SOL    HW233354   1.256   4.380   3.782  0.4183  2.8408  0.6374
 7241SOL     OW33355   0.513   0.428   1.746 -0.2875 -0.0190 -0.2479
 7241SOL    HW133356   0.560   0.363   1.695 -0.5980 -0.6570  0.2686
 7241SOL    HW233357   0.580   0.451   1.811 -0.9660  0.1583  0.3933
 7242SOL     OW33358   0.026   4.098  10.479  0.2227  0.0156  0.0369
 7242SOL    HW133359   4.680   4.130  10.504  0.9549  1.8712  0.1269
 7242SOL    HW233360   0.055   4.054  10.559 -0.2699 -0.1800  0.1095
 7243SOL     OW33361   1.118   2.527   6.163 -0.4619  0.4125 -0.1948
 7243SOL    HW133362   1.082   2.448   6.123 -0.8034  0.9339 -0.9208
 7243SOL    HW233363   1.042   2.567   6.204 -0.9527  0.6359 -1.3115
 7244SOL     OW33364   0.567   2.971  10.675 -0.0204  0.4051  0.8859
 7244SOL    HW133365   0.617   3.051  10.658  2.5193 -1.1551  0.8360
 7244SOL    HW233366   0.493   3.007  10.722 -1.2746 -0.9767 -0.0093
 7245SOL     OW33367   3.874   0.953   7.720  0.0360 -0.3048 -0.2607
 7245SOL    HW133368   3.923   1.023   7.764  2.7051 -0.7800 -2.4636
 7245SOL    HW233369   3.784   0.985   7.724  0.1939 -0.0021  0.9991
 7246SOL     OW33370   2.410   1.964   5.557 -0.5282  0.5790  0.3019
 7246SOL    HW133371   2.482   1.905   5.577 -0.6243  0.2623 -0.2731
 7246SOL    HW233372   2.453   2.025   5.496  0.4511  1.2131  1.6360
 7247SOL     OW33373   3.598   1.626   4.630  0.0077  0.2588 -0.5063
 7247SOL    HW133374   3.529   1.618   4.696  0.5234 -3.8590 -0.4548
 7247SOL    HW233375   3.674   1.661   4.676 -1.2370  1.9906  0.2371
 7248SOL     OW33376   1.010   3.497  10.998 -0.1653  0.2644  0.2125
 7248SOL    HW133377   0.991   3.510  10.906 -2.1499 -1.1649  0.4255
 7248SOL    HW233378   0.926   3.511  11.041  0.0635  1.1426  0.3862
 7249SOL     OW33379   2.330   4.075   5.339  0.4298  0.1281  0.4943
 7249SOL    HW133380   2.242   4.113   5.332  0.9623  1.3472  0.2981
 7249SOL    HW233381   2.324   3.987   5.301  3.7123  0.6804 -1.2693
 7250SOL     OW33382   2.428   3.289   6.146  0.4728 -0.2945 -1.1888
 7250SOL    HW133383   2.490   3.222   6.119  2.3695  1.6358 -1.6337
 7250SOL    HW233384   2.453   3.323   6.232 -2.1673 -2.6263  0.5005
 7251SOL     OW33385   1.762   1.606   6.830  0.2924 -0.4809  0.1570
 7251SOL    HW133386   1.779   1.696   6.803  0.7414 -0.5092  0.3400
 7251SOL    HW233387   1.796   1.560   6.753 -0.8287  0.8712 -1.1513
 7252SOL     OW33388   3.722   4.146   6.618  0.2445 -0.1079  0.0002
 7252SOL    HW133389   3.795   4.182   6.567  0.5120  0.1107  0.5433
 7252SOL    HW233390   3.670   4.226   6.607 -0.7646 -0.8497 -0.6603
 7253SOL     OW33391   3.756   4.011   2.965  0.5122 -0.4184 -0.6149
 7253SOL    HW133392   3.834   3.955   2.959 -0.9940 -2.5729 -0.0719
 7253SOL    HW233393   3.718   3.975   3.045  0.7309 -1.2151 -0.8646
 7254SOL     OW33394   1.577   0.871  10.012  0.0026  0.3884  0.2742
 7254SOL    HW133395   1.670   0.886   9.995  0.1732 -1.5470 -0.4997
 7254SOL    HW233396   1.575   0.848  10.105 -1.2921 -3.0577 -0.6101
 7255SOL     OW33397   3.795   3.070   4.158  0.1072  0.3421 -0.3014
 7255SOL    HW133398   3.776   2.978   4.137  2.2040  0.5193 -2.9106
 7255SOL    HW233399   3.887   3.053   4.176 -0.0070 -1.8459 -1.6884
 7256SOL     OW33400   0.450   1.111   1.902 -0.7845 -0.7898 -0.2535
 7256SOL    HW133401   0.495   1.094   1.985  0.1545  0.7773 -0.4450
 7256SOL    HW233402   0.515   1.163   1.855 -2.3704 -1.1230 -2.8489
 7257SOL     OW33403   2.720   2.023   1.960 -0.0941  0.2562 -0.4417
 7257SOL    HW133404   2.786   2.059   1.901  0.8789 -1.5674 -0.4705
 7257SOL    HW233405   2.671   1.974   1.894 -0.8162  1.4040 -0.7486
 7258SOL     OW33406   4.386   4.220   3.832 -0.1823 -0.0885  0.4160
 7258SOL    HW133407   4.370   4.313   3.817 -1.7299 -0.4372 -0.0794
 7258SOL    HW233408   4.323   4.188   3.896  1.3245 -1.2883  1.2970
 7259SOL     OW33409   4.223   2.570   2.229  0.1598 -0.3847  0.0412
 7259SOL    HW133410   4.221   2.480   2.198  1.5892  0.2466 -1.9049
 7259SOL    HW233411   4.155   2.609   2.174 -0.0821 -0.1796  0.4907
 7260SOL     OW33412   0.941   2.963  11.444 -0.0534  0.7517 -0.3042
 7260SOL    HW133413   0.893   2.980  11.363  1.7505  0.1743 -1.4864
 7260SOL    HW233414   0.897   3.022  11.504  1.2133 -0.9103  2.2540
 7261SOL     OW33415   2.296   1.308   2.318  0.2992  0.2125 -0.1289
 7261SOL    HW133416   2.285   1.396   2.282  1.5004 -0.4465 -2.1098
 7261SOL    HW233417   2.230   1.308   2.387  0.2179  0.8786 -0.2130
 7262SOL     OW33418   2.320   1.072   4.737  0.1164  0.5423 -0.5290
 7262SOL    HW133419   2.284   1.037   4.656  2.7877  1.0233 -1.8908
 7262SOL    HW233420   2.261   1.147   4.749  0.1644  0.7495 -1.6087
 7263SOL     OW33421   4.215   0.957   1.031  0.0346 -0.1950 -0.0789
 7263SOL    HW133422   4.217   0.981   1.123  1.6666 -0.2456 -0.0975
 7263SOL    HW233423   4.122   0.933   1.024  0.4327 -1.5548 -0.7502
 7264SOL     OW33424   0.314   3.697   5.560 -0.1334  0.0718  0.2627
 7264SOL    HW133425   0.382   3.661   5.617  1.6552  2.7620 -0.1775
 7264SOL    HW233426   0.335   3.650   5.479 -2.1012  0.5172 -0.4909
 7265SOL     OW33427   3.820   1.203  15.576 -0.1982 -0.2304  0.5869
 7265SOL    HW133428   3.755   1.234  15.513 -0.6222 -1.6514  0.3344
 7265SOL    HW233429   3.785   1.228  15.661 -2.1229  1.2427 -0.6593
 7266SOL     OW33430   0.947   0.041  15.526  0.3415  0.3807 -0.3186
 7266SOL    HW133431   0.855   0.021  15.508  0.0270  3.2608 -1.8634
 7266SOL    HW233432   0.952   0.030  15.621 -2.3167 -2.6207 -0.5243
 7267SOL     OW33433   3.330   4.664  10.573 -0.0726 -0.0041 -0.2800
 7267SOL    HW133434   3.360   4.591  10.519  0.3245  1.3765 -1.8971
 7267SOL    HW233435   3.242   4.670  10.535 -0.7012  0.5670  1.2684
 7268SOL     OW33436   2.848   4.119   6.968  0.7268 -0.6206  0.8198
 7268SOL    HW133437   2.903   4.045   6.942  2.0527 -0.2058  2.4876
 7268SOL    HW233438   2.768   4.079   7.003 -0.3997  1.9069  1.1582
 7269SOL     OW33439   4.026   4.073  10.512 -0.2355  0.5009  0.2166
 7269SOL    HW133440   3.962   4.018  10.557  1.4683 -2.1806 -0.6674
 7269SOL    HW233441   3.976   4.116  10.442 -1.6738  2.3117  2.3576
 7270SOL     OW33442   3.461   1.069   7.276  0.1042 -0.2297  0.0742
 7270SOL    HW133443   3.442   1.002   7.342  0.7974 -0.7326 -0.2414
 7270SOL    HW233444   3.384   1.126   7.282 -0.3267 -0.8284  0.2106
 7271SOL     OW33445   3.125   2.041   5.825 -0.5691 -0.0685 -0.1190
 7271SOL    HW133446   3.092   1.971   5.769  2.0159 -2.8678  1.9216
 7271SOL    HW233447   3.043   2.077   5.860  0.4048  1.3192  0.7469
 7272SOL     OW33448   3.045   4.253   4.012  0.6945  0.0098 -0.4901
 7272SOL    HW133449   2.975   4.314   3.988  1.1961  1.4465  1.7592
 7272SOL    HW233450   3.096   4.259   3.931  0.5529  0.1045 -0.5720
 7273SOL     OW33451   2.041   4.633  11.369  0.1158 -0.1651 -0.0335
 7273SOL    HW133452   2.081   4.570  11.309  0.7379 -2.0617  2.3788
 7273SOL    HW233453   2.019   4.582  11.447 -1.4998  0.7117  0.0783
 7274SOL     OW33454   1.560   2.297  11.414 -0.3922  0.0611 -0.3675
 7274SOL    HW133455   1.568   2.392  11.415 -1.5952  0.0597  5.3862
 7274SOL    HW233456   1.651   2.273  11.432 -0.4335  1.1425  1.2059
 7275SOL     OW33457   4.151   2.269  13.419  0.1071 -0.2198  0.4420
 7275SOL    HW133458   4.097   2.277  13.340 -2.2198  0.9986  2.1273
 7275SOL    HW233459   4.227   2.228  13.380 -0.2889  0.3320 -0.9119
 7276SOL     OW33460   1.682   1.353   4.353  0.3377  0.1244  0.1819
 7276SOL    HW133461   1.655   1.261   4.358  2.6148 -0.6168 -1.3360
 7276SOL    HW233462   1.682   1.367   4.258  0.6538  0.0920  0.1755
 7277SOL     OW33463   4.185   3.043   8.105  0.2424  0.4626  0.7173
 7277SOL    HW133464   4.152   3.061   8.017 -0.4309 -1.7204  0.5100
 7277SOL    HW233465   4.102   3.029   8.150  1.0274 -3.2207  1.0381
 7278SOL     OW33466   4.358   1.116   6.180 -0.5497 -0.7872  0.2299
 7278SOL    HW133467   4.334   1.040   6.126  3.9779 -1.0668 -1.3591
 7278SOL    HW233468   4.452   1.118   6.164 -0.7342  0.7325 -0.6748
 7279SOL     OW33469   2.341   2.664  17.314  0.1958 -0.3531 -0.1512
 7279SOL    HW133470   2.365   2.687  17.224  0.7273  0.3897  0.1782
 7279SOL    HW233471   2.401   2.594  17.337  1.2195  1.5295  2.8172
 7280SOL     OW33472   3.025   3.635   1.838  0.1023 -0.1555  0.2958
 7280SOL    HW133473   3.017   3.729   1.855  2.9207  0.7565 -3.5664
 7280SOL    HW233474   3.059   3.594   1.918 -0.4661 -0.1246  0.5535
 7281SOL     OW33475   1.430   0.055   7.402 -0.5853  0.1651 -0.4438
 7281SOL    HW133476   1.514   0.014   7.425 -1.4583  0.0025  2.4247
 7281SOL    HW233477   1.443   0.145   7.431 -0.3364 -0.1608  0.4386
 7282SOL     OW33478   1.004   0.543   6.884 -0.2172 -0.4979 -0.3805
 7282SOL    HW133479   1.080   0.585   6.924 -0.9189 -0.0415  0.4772
 7282SOL    HW233480   0.934   0.594   6.925  0.1945 -0.0936 -0.1860
 7283SOL     OW33481   4.625   1.198  17.400  0.3261 -0.0431 -0.3162
 7283SOL    HW133482   4.680   1.275  17.415 -1.4630  1.0485  0.6829
 7283SOL    HW233483   4.539   1.225  17.432  0.3218 -0.7855  0.2862
 7284SOL     OW33484   0.328   1.098   6.853 -0.4620 -0.0081  0.0148
 7284SOL    HW133485   0.263   1.147   6.903 -0.5993 -1.3249  1.1552
 7284SOL    HW233486   0.279   1.067   6.777  0.3083  0.1634 -0.5545
 7285SOL     OW33487   1.513   0.970   2.179 -0.7503 -0.2615 -0.1228
 7285SOL    HW133488   1.512   1.026   2.101  0.1162 -0.4146 -0.2424
 7285SOL    HW233489   1.518   1.033   2.250  2.9966 -0.1644 -0.4912
 7286SOL     OW33490   2.103   0.418   7.101 -0.4407  0.2921 -0.6325
 7286SOL    HW133491   2.101   0.334   7.148 -0.4210  1.2164  1.0177
 7286SOL    HW233492   2.195   0.410   7.076 -0.6810  0.1846 -1.4789
 7287SOL     OW33493   2.611   1.931   9.981 -0.4740 -0.3657 -0.2203
 7287SOL    HW133494   2.591   1.861   9.919  0.5311 -0.7169 -0.1479
 7287SOL    HW233495   2.662   1.988   9.924 -1.0770 -0.9585 -1.3637
 7288SOL     OW33496   2.300   1.872   6.868  0.3868 -0.3589 -0.3857
 7288SOL    HW133497   2.333   1.886   6.957 -1.0923  1.5953 -0.1372
 7288SOL    HW233498   2.332   1.951   6.824  3.0268 -1.4110 -0.3638
 7289SOL     OW33499   4.626   3.266   1.740  0.1501  0.3489 -0.1412
 7289SOL    HW133500   4.640   3.194   1.678 -0.7084  2.5232 -2.8589
 7289SOL    HW233501   4.535   3.292   1.725  0.1088  0.5714  0.5387
 7290SOL     OW33502   0.292   4.203   5.109  0.2517  0.6635 -0.6097
 7290SOL    HW133503   0.344   4.283   5.096 -1.6592  1.8851 -0.7617
 7290SOL    HW233504   0.311   4.156   5.028 -2.0058 -1.7359  0.2558
 7291SOL     OW33505   0.895   2.849  16.604 -0.2671  0.3544 -0.5845
 7291SOL    HW133506   0.957   2.869  16.535  0.0984  0.5790 -0.1905
 7291SOL    HW233507   0.820   2.813  16.557 -2.2008  0.8196  2.1006
 7292SOL     OW33508   2.364   3.515   4.747 -0.1613  0.0468  0.1147
 7292SOL    HW133509   2.310   3.502   4.825 -1.3872 -2.0510 -1.0975
 7292SOL    HW233510   2.377   3.428   4.709  1.8461 -0.6873  2.4434
 7293SOL     OW33511   1.021   3.728  16.621 -0.5539  0.2396  0.2334
 7293SOL    HW133512   0.970   3.730  16.702 -1.1079  2.5434 -0.1719
 7293SOL    HW233513   0.959   3.784  16.574  0.7820 -0.2439 -2.0877
 7294SOL     OW33514   1.600   2.005   7.418  0.3795  0.0986 -0.3451
 7294SOL    HW133515   1.669   1.997   7.353 -0.2422 -4.2014 -0.5031
 7294SOL    HW233516   1.536   2.051   7.364  0.0051  0.0023  0.0119
 7295SOL     OW33517   2.575   2.772   2.407 -0.0050 -0.0750  0.1718
 7295SOL    HW133518   2.487   2.808   2.407 -0.9899 -2.4311  0.7981
 7295SOL    HW233519   2.606   2.817   2.485  1.9677  0.0025 -0.6530
 7296SOL     OW33520   1.398   4.450  17.370 -0.2359 -0.0483  0.2068
 7296SOL    HW133521   1.432   4.539  17.370 -2.0599  0.6550 -0.5793
 7296SOL    HW233522   1.406   4.437  17.276  2.2875  1.2574  0.2510
 7297SOL     OW33523   2.432   4.547   3.394 -0.5950  0.4371  0.1824
 7297SOL    HW133524   2.517   4.569   3.357 -0.2813  0.0626  0.6995
 7297SOL    HW233525   2.436   4.453   3.406  0.1737  0.0805 -2.8486
 7298SOL     OW33526   0.980   4.230   2.297  0.4492 -1.0174 -0.2018
 7298SOL    HW133527   1.055   4.185   2.258  0.0311 -0.4823 -1.6351
 7298SOL    HW233528   0.911   4.174   2.262 -0.2894  0.0303 -0.3967
 7299SOL     OW33529   4.422   2.817   7.710  0.0986  0.5596  0.2755
 7299SOL    HW133530   4.370   2.897   7.713 -2.1547 -0.8895 -0.2812
 7299SOL    HW233531   4.360   2.747   7.728  1.7893 -0.7071  1.1195
 7300SOL     OW33532   1.022   1.427   3.956 -0.0184 -0.3799  0.3080
 7300SOL    HW133533   1.097   1.426   3.898 -2.9141 -0.4557 -3.4038
 7300SOL    HW233534   1.067   1.438   4.040 -0.2153  2.9061 -0.0334
 7301SOL     OW33535   1.388   1.345   6.374 -0.4646  0.2387  0.0446
 7301SOL    HW133536   1.450   1.372   6.306 -0.0554 -0.4674  0.1467
 7301SOL    HW233537   1.314   1.308   6.326 -0.4284  0.7621 -0.4113
 7302SOL     OW33538   3.369   3.975   6.225  0.1299  0.0759 -0.3734
 7302SOL    HW133539   3.325   4.014   6.150  0.6408 -3.6926 -2.6067
 7302SOL    HW233540   3.424   3.916   6.175 -1.5264 -0.3112 -1.7513
 7303SOL     OW33541   4.675   3.788   7.898 -0.7163 -0.3378 -0.0013
 7303SOL    HW133542   4.709   3.715   7.949 -0.1071 -2.1217 -2.9119
 7303SOL    HW233543   4.586   3.796   7.931 -1.1910  1.7979 -1.7921
 7304SOL     OW33544   0.769   1.105   3.758  0.2723 -0.0554 -0.1330
 7304SOL    HW133545   0.772   1.062   3.843  0.6591  0.0119 -0.1123
 7304SOL    HW233546   0.796   1.196   3.769  0.3154 -0.0624 -0.1795
 7305SOL     OW33547   2.188   0.514   3.461  0.1625  0.1959  0.3149
 7305SOL    HW133548   2.238   0.591   3.434  0.3557 -0.9848 -2.6167
 7305SOL    HW233549   2.255   0.476   3.519 -1.2409 -2.1607  0.3791
 7306SOL     OW33550   0.344   0.949   5.523  0.2477 -0.0843  0.2535
 7306SOL    HW133551   0.262   0.995   5.507 -0.1971  0.0791  3.1045
 7306SOL    HW233552   0.406   0.996   5.467  1.2089  1.0362  2.2554
 7307SOL     OW33553   0.709   0.282   2.391 -0.8434  0.2115  0.6406
 7307SOL    HW133554   0.785   0.290   2.333  0.2803  0.3500  2.1203
 7307SOL    HW233555   0.633   0.305   2.338 -0.2231  2.3633  0.6731
 7308SOL     OW33556   1.127   2.899   4.342 -0.5771 -0.0803  0.3098
 7308SOL    HW133557   1.088   2.941   4.266  3.0402  1.2940 -0.7983
 7308SOL    HW233558   1.080   2.934   4.418  0.4333 -0.4937  1.1302
 7309SOL     OW33559   1.846   0.895   0.276 -0.2521  0.1514  0.4946
 7309SOL    HW133560   1.808   0.887   0.189 -0.1066  2.4998  0.1987
 7309SOL    HW233561   1.818   0.984   0.299 -0.2867 -0.4690  2.9115
 7310SOL     OW33562   1.584   3.276   3.591  0.0405  0.2963  0.4360
 7310SOL    HW133563   1.612   3.193   3.629  0.6731  0.6483  0.7389
 7310SOL    HW233564   1.521   3.309   3.654 -0.0083 -0.4629  0.7757
 7311SOL     OW33565   3.220   4.055   3.272  0.5068  0.1293  0.0498
 7311SOL    HW133566   3.220   4.109   3.193  0.6412 -1.0213 -0.7340
 7311SOL    HW233567   3.264   3.972   3.257  0.7038  0.3808 -0.7730
 7312SOL     OW33568   0.433   0.052   9.589 -0.5085 -0.5665 -0.1777
 7312SOL    HW133569   0.357   0.017   9.544 -0.3751 -0.6301 -0.3520
 7312SOL    HW233570   0.460   0.121   9.528 -2.1316 -0.2337 -0.5329
 7313SOL     OW33571   1.121   1.697   7.519  0.4060 -0.1241  0.0239
 7313SOL    HW133572   1.176   1.620   7.530 -0.7961 -1.1205 -0.9711
 7313SOL    HW233573   1.033   1.665   7.537  1.3594 -2.3182  0.8084
 7314SOL     OW33574   1.753   4.689   4.306 -0.5940  0.1661 -0.2709
 7314SOL    HW133575   1.788   0.032   4.336  0.2828 -1.4944  3.2413
 7314SOL    HW233576   1.816   4.627   4.342  0.0516  2.6712  2.8439
 7315SOL     OW33577   4.681   1.810   1.954  0.4300  0.7909 -0.5518
 7315SOL    HW133578   4.712   1.869   2.022 -0.6198 -0.6131  1.1367
 7315SOL    HW233579   4.634   1.870   1.895 -1.7884  1.8324  2.2829
 7316SOL     OW33580   1.696   4.395   4.865  0.3457  0.1890 -0.7439
 7316SOL    HW133581   1.675   4.439   4.783 -1.4053 -0.1957 -0.5082
 7316SOL    HW233582   1.778   4.441   4.882  0.6487 -0.4181 -0.5540
 7317SOL     OW33583   4.183   4.713   3.945  0.0117 -0.3213 -0.2108
 7317SOL    HW133584   4.090   4.699   3.929 -0.3443 -1.4030  2.6974
 7317SOL    HW233585   4.174   0.010   4.033  0.5703  2.9516 -1.5989
 7318SOL     OW33586   1.181   3.868  11.683 -0.2515  0.4347  0.6271
 7318SOL    HW133587   1.101   3.913  11.656 -1.3926 -1.0553  1.5540
 7318SOL    HW233588   1.156   3.822  11.763  0.5659  1.1110  1.2743
 7319SOL     OW33589   3.220   0.998   8.882 -0.1176  0.6885  0.0361
 7319SOL    HW133590   3.224   1.025   8.974 -0.1309 -0.1430  0.2794
 7319SOL    HW233591   3.298   1.044   8.849  0.8070 -0.0630  1.1917
 7320SOL     OW33592   1.604   0.190  17.689  0.4585 -0.4010  0.0160
 7320SOL    HW133593   1.612   0.106  17.734  1.1154  0.0199  0.6834
 7320SOL    HW233594   1.524   0.184  17.636  0.0097 -0.1272  0.6616
 7321SOL     OW33595   2.538   2.293   8.297  0.8876 -0.3765 -0.3968
 7321SOL    HW133596   2.497   2.372   8.261 -0.7373 -1.2542 -0.4862
 7321SOL    HW233597   2.604   2.266   8.234 -0.2472 -0.9172 -1.3575
 7322SOL     OW33598   0.020   2.378   8.486  0.6560  0.0159  0.3189
 7322SOL    HW133599   0.008   2.468   8.456 -0.7336 -0.7057 -1.3067
 7322SOL    HW233600   0.018   2.328   8.404  0.6805  0.0167  0.3178
 7323SOL     OW33601   3.873   2.571  14.860  0.5438  0.8981 -0.0674
 7323SOL    HW133602   3.825   2.653  14.858  1.9921  1.7633  1.2791
 7323SOL    HW233603   3.961   2.594  14.891  0.6899 -0.6159  0.6839
 7324SOL     OW33604   3.938   0.272  13.274  0.1596 -0.3305 -0.8236
 7324SOL    HW133605   3.922   0.310  13.188  0.8689 -1.9013 -1.6393
 7324SOL    HW233606   4.024   0.309  13.293  0.9306 -1.4559 -2.1771
 7325SOL     OW33607   1.848   0.914   8.134  0.1367  0.1411 -0.6923
 7325SOL    HW133608   1.825   0.943   8.222  1.4201  0.9345 -0.6187
 7325SOL    HW233609   1.886   0.997   8.107 -2.0715  1.1050 -0.8328
 7326SOL     OW33610   4.354   3.565   3.618  0.2874 -0.6552 -0.4730
 7326SOL    HW133611   4.302   3.632   3.660  0.1187 -3.7903  4.3146
 7326SOL    HW233612   4.344   3.574   3.523  2.2237  0.6764 -0.5528
 7327SOL     OW33613   3.875   1.889   5.661  0.0757  0.9626 -0.1410
 7327SOL    HW133614   3.792   1.928   5.633 -1.0108  0.4791  2.4096
 7327SOL    HW233615   3.881   1.929   5.748 -2.6931 -1.8987  1.3403
 7328SOL     OW33616   2.343   3.552  13.990  0.1917  0.2421  0.0930
 7328SOL    HW133617   2.287   3.624  13.961 -0.3121 -0.0443  0.3669
 7328SOL    HW233618   2.295   3.507  14.059  1.3785 -1.3114 -0.1057
 7329SOL     OW33619   1.232   0.162  15.833  0.1289  0.3433  0.3521
 7329SOL    HW133620   1.307   0.195  15.784 -0.0956 -2.4338 -1.8770
 7329SOL    HW233621   1.203   0.242  15.875  2.1220 -0.1940  2.7372
 7330SOL     OW33622   0.777   1.246  10.032  0.0168 -0.1543 -0.2375
 7330SOL    HW133623   0.851   1.186  10.023  0.7402  0.4685  1.4565
 7330SOL    HW233624   0.764   1.288   9.947  1.8346 -1.4806 -1.1771
 7331SOL     OW33625   0.637   0.742   7.310 -0.1417  0.2750  0.1732
 7331SOL    HW133626   0.671   0.684   7.378 -0.2008  0.0123 -0.0176
 7331SOL    HW233627   0.677   0.822   7.344  1.1469  1.0141 -3.0732
 7332SOL     OW33628   0.689   4.370   7.680  0.4318  0.6312  0.3634
 7332SOL    HW133629   0.733   4.326   7.752  0.7480  0.2765 -0.0540
 7332SOL    HW233630   0.601   4.333   7.691  1.1098 -1.4936 -1.4264
 7333SOL     OW33631   0.414   1.760   6.852  0.2159  0.0097 -0.2598
 7333SOL    HW133632   0.337   1.721   6.811  0.0272 -0.4779  0.5488
 7333SOL    HW233633   0.455   1.813   6.784  0.2884 -1.5793 -1.4689
 7334SOL     OW33634   1.097   3.426  12.524  0.0878  0.3138  0.2420
 7334SOL    HW133635   1.130   3.455  12.609  1.8229  0.6613 -0.5580
 7334SOL    HW233636   1.143   3.345  12.499 -1.3632 -0.2185 -0.7226
 7335SOL     OW33637   2.972   1.846  10.340  0.2274  0.1548  0.6660
 7335SOL    HW133638   2.973   1.788  10.416  0.4998  0.4508  0.8901
 7335SOL    HW233639   2.911   1.913  10.369 -1.7022 -1.2638 -0.1361
 7336SOL     OW33640   1.605   4.398   8.294 -0.0489 -0.3161 -0.1691
 7336SOL    HW133641   1.650   4.481   8.314  0.9527 -0.3724 -2.2209
 7336SOL    HW233642   1.658   4.371   8.219 -0.2849 -1.2353  0.0070
 7337SOL     OW33643   3.006   4.241   4.310  0.0708 -0.6596  0.9236
 7337SOL    HW133644   3.021   4.238   4.216  1.5879  0.3553  1.1336
 7337SOL    HW233645   3.030   4.327   4.344 -1.7319 -1.0137  3.0671
 7338SOL     OW33646   0.881   3.403   4.449  0.0005  0.3465 -0.0641
 7338SOL    HW133647   0.879   3.324   4.503 -2.2841 -1.2204 -2.4757
 7338SOL    HW233648   0.861   3.466   4.518  4.1976  0.5922  0.8921
 7339SOL     OW33649   4.013   0.532  16.520  0.4888  0.2587 -0.3593
 7339SOL    HW133650   4.055   0.606  16.477 -0.8228  0.3671 -1.4408
 7339SOL    HW233651   4.091   0.477  16.529  0.9548  1.0564  0.4256
 7340SOL     OW33652   4.362   3.115  16.954 -0.3458  0.0191  0.0870
 7340SOL    HW133653   4.274   3.116  16.992 -1.0234 -2.7222 -1.3942
 7340SOL    HW233654   4.327   3.109  16.865  0.2926  1.3817 -0.2526
 7341SOL     OW33655   0.255   3.443   3.945  0.3687  0.0287 -0.4536
 7341SOL    HW133656   0.209   3.485   3.873  0.6280  1.1863  0.0589
 7341SOL    HW233657   0.186   3.407   4.001 -0.0877 -0.8090 -1.5693
 7342SOL     OW33658   4.286   3.973   4.762 -0.1362 -0.0357 -0.1348
 7342SOL    HW133659   4.297   4.052   4.815  2.6140  0.7976 -1.9245
 7342SOL    HW233660   4.374   3.935   4.769 -0.1034  0.0285 -0.1960
 7343SOL     OW33661   3.045   1.542   1.935 -0.3834 -0.7914 -0.1633
 7343SOL    HW133662   2.970   1.603   1.936 -0.1760 -0.5625  1.6455
 7343SOL    HW233663   3.043   1.503   2.023  0.7000  2.4361  1.2958
 7344SOL     OW33664   3.781   3.438   7.865  0.5664 -0.1314 -0.0101
 7344SOL    HW133665   3.867   3.398   7.873  0.3737 -0.4225  0.6262
 7344SOL    HW233666   3.778   3.483   7.950  0.3700  0.8887 -0.5552
 7345SOL     OW33667   2.629   4.485   0.269 -0.0925 -0.4397 -0.0708
 7345SOL    HW133668   2.569   4.436   0.212  0.3206 -2.4743  1.2148
 7345SOL    HW233669   2.695   4.520   0.210 -0.1896  0.5886  0.4267
 7346SOL     OW33670   4.263   3.271   9.405  0.3374  0.0597  0.4601
 7346SOL    HW133671   4.169   3.257   9.406  0.7623 -2.8069 -1.6113
 7346SOL    HW233672   4.272   3.343   9.468 -0.0192 -0.9011  1.6072
 7347SOL     OW33673   0.400   4.135   4.873 -0.3569  0.4201  0.0610
 7347SOL    HW133674   0.336   4.128   4.802 -1.8809  0.5025  1.4389
 7347SOL    HW233675   0.468   4.194   4.841  0.8976 -1.0186  0.0749
 7348SOL     OW33676   0.267   3.451   6.599  0.1000 -0.3091  0.2620
 7348SOL    HW133677   0.300   3.434   6.687 -2.0126 -1.0883  0.8955
 7348SOL    HW233678   0.335   3.510   6.567 -0.4247 -0.1806 -0.6348
 7349SOL     OW33679   1.839   1.276   4.600 -0.2607  0.2936 -0.0845
 7349SOL    HW133680   1.773   1.321   4.547  1.6994  1.0888 -1.8385
 7349SOL    HW233681   1.918   1.320   4.569  0.5889 -0.4737  0.9799
 7350SOL     OW33682   4.372   4.468  10.614 -0.1391 -0.2398  0.3071
 7350SOL    HW133683   4.335   4.489  10.699  0.8053 -1.3892  1.0155
 7350SOL    HW233684   4.458   4.511  10.611 -1.6861  2.7700 -0.1460
 7351SOL     OW33685   1.196   1.386   1.167  0.1594  0.0033  0.4700
 7351SOL    HW133686   1.150   1.392   1.251 -0.0011 -0.3428  0.4083
 7351SOL    HW233687   1.225   1.476   1.155  1.4671 -0.6470 -1.2667
 7352SOL     OW33688   3.290   3.088   7.477  0.5131 -0.1732 -0.0564
 7352SOL    HW133689   3.373   3.096   7.524 -0.1941  3.3718  0.5777
 7352SOL    HW233690   3.231   3.082   7.552  0.8810  0.6837  0.2994
 7353SOL     OW33691   0.387   4.647   7.809  0.0474  0.5376 -0.1683
 7353SOL    HW133692   0.305   4.696   7.822  0.0243  0.2010  0.9946
 7353SOL    HW233693   0.355   4.561   7.783  1.2395 -0.7989  2.7683
 7354SOL     OW33694   4.161   0.056  15.758 -0.0660 -0.5137 -0.2557
 7354SOL    HW133695   4.172   0.005  15.677  1.2211 -2.8251  1.3620
 7354SOL    HW233696   4.180   0.146  15.730 -1.1042 -0.1991  0.0329
 7355SOL     OW33697   1.678   3.075   0.499  0.1384  0.1063 -0.3088
 7355SOL    HW133698   1.636   2.989   0.509 -0.1247  0.4624  1.7431
 7355SOL    HW233699   1.729   3.068   0.419  1.4729 -0.4163  0.5951
 7356SOL     OW33700   2.526   3.830   7.749  0.0571  0.0094 -0.0442
 7356SOL    HW133701   2.512   3.850   7.657  4.7948 -0.0477 -0.7726
 7356SOL    HW233702   2.456   3.766   7.765  0.1255  0.0252  0.3297
 7357SOL     OW33703   0.843   0.311   2.950 -0.0592  0.5314 -0.2295
 7357SOL    HW133704   0.851   0.226   2.992 -0.9165  0.0197 -1.1161
 7357SOL    HW233705   0.803   0.293   2.865 -1.6571 -2.2579  1.1356
 7358SOL     OW33706   2.382   4.554   5.667  0.2515 -0.4258  0.7257
 7358SOL    HW133707   2.362   4.644   5.642  0.5143 -1.1464 -2.0637
 7358SOL    HW233708   2.320   4.500   5.620 -0.0614  0.2562  0.3583
 7359SOL     OW33709   3.686   3.723   9.544 -0.1992 -0.6813  0.5601
 7359SOL    HW133710   3.720   3.811   9.531  1.0505 -1.1996  0.3223
 7359SOL    HW233711   3.731   3.679   9.472 -0.9052 -0.0629 -0.2490
 7360SOL     OW33712   3.722   2.863   6.839 -0.5533 -0.3395 -0.1899
 7360SOL    HW133713   3.631   2.855   6.869  0.0839  0.9285  2.1225
 7360SOL    HW233714   3.751   2.946   6.877 -2.5805  1.0480 -1.6927
 7361SOL     OW33715   1.524   3.925  16.956  0.0742 -0.3173 -0.6765
 7361SOL    HW133716   1.529   3.955  16.866 -0.8370  2.3205  0.1455
 7361SOL    HW233717   1.490   4.010  16.986  1.4015  0.4599 -1.3884
 7362SOL     OW33718   0.897   0.312   7.536  0.1930  0.1121  0.4252
 7362SOL    HW133719   0.825   0.254   7.512  0.4853  0.9327 -2.4313
 7362SOL    HW233720   0.865   0.340   7.622 -1.9331  1.3978 -0.7570
 7363SOL     OW33721   3.438   0.791  14.422 -0.3706  0.8382  0.3325
 7363SOL    HW133722   3.346   0.815  14.413 -0.2483  0.4846 -1.8101
 7363SOL    HW233723   3.478   0.877  14.423 -0.8949  1.0901 -0.2054
 7364SOL     OW33724   0.099   3.999  16.361  0.0676 -0.4705 -0.1106
 7364SOL    HW133725   0.160   3.970  16.293  0.8390 -0.2170  0.4710
 7364SOL    HW233726   0.133   4.087  16.376  0.4903 -0.8200  0.9501
 7365SOL     OW33727   4.650   3.963   4.505 -0.6204  0.2662  0.3953
 7365SOL    HW133728   4.583   4.027   4.483 -2.7991 -2.2054 -0.2037
 7365SOL    HW233729   4.613   3.929   4.586 -1.5352  0.1518 -0.0733
 7366SOL     OW33730   2.464   0.103   5.047 -0.0483 -0.0672 -0.1046
 7366SOL    HW133731   2.548   0.073   5.080  0.0962  0.6553  0.1754
 7366SOL    HW233732   2.412   0.089   5.126  2.9930 -2.5849  1.4380
 7367SOL     OW33733   2.496   2.708  16.652  0.3371 -0.3194  0.5252
 7367SOL    HW133734   2.554   2.761  16.598 -1.8970  0.0247 -1.5401
 7367SOL    HW233735   2.422   2.695  16.592 -0.7880 -0.2276  1.8874
 7368SOL     OW33736   0.721   3.916   7.093 -0.4002 -0.2541 -0.1996
 7368SOL    HW133737   0.668   3.954   7.024  1.0272  0.4170 -0.9252
 7368SOL    HW233738   0.746   3.997   7.137 -1.1838  0.7478 -1.6258
 7369SOL     OW33739   2.058   4.674   4.651 -0.2778 -0.0646  0.3068
 7369SOL    HW133740   2.073   0.027   4.635 -2.0878  0.1960  0.1202
 7369SOL    HW233741   2.026   4.679   4.741  0.6123  1.3496  0.5576
 7370SOL     OW33742   1.028   0.496   7.224 -0.6983  0.2365 -0.3263
 7370SOL    HW133743   1.076   0.435   7.280 -0.8931  0.9426  0.6024
 7370SOL    HW233744   1.094   0.566   7.215 -0.1596 -0.0316  1.4212
 7371SOL     OW33745   0.485   0.301   2.754 -0.7209  0.0210  0.2262
 7371SOL    HW133746   0.455   0.219   2.795  1.5034 -0.1390  1.4979
 7371SOL    HW233747   0.573   0.277   2.726 -0.9321  0.3732 -0.7516
 7372SOL     OW33748   2.962   2.891   7.822  0.1021 -0.5179 -0.6389
 7372SOL    HW133749   3.039   2.940   7.793  0.0913 -2.5881 -4.1644
 7372SOL    HW233750   2.945   2.906   7.915  1.3725  1.0522 -0.6720
 7373SOL     OW33751   2.609   0.299   7.443 -0.3305  0.5547 -0.3757
 7373SOL    HW133752   2.695   0.258   7.452 -0.3982 -0.0004 -2.3254
 7373SOL    HW233753   2.611   0.336   7.355 -0.3824 -1.0214 -1.0362
 7374SOL     OW33754   4.033   1.715   9.441  0.2455 -0.0044  0.2936
 7374SOL    HW133755   4.085   1.747   9.367  0.5983 -1.6515 -0.1587
 7374SOL    HW233756   4.024   1.794   9.494  0.3958  1.5429 -1.9626
 7375SOL     OW33757   1.534   2.075   0.562  0.1882  0.1888  0.1448
 7375SOL    HW133758   1.579   1.990   0.560 -0.4149 -0.0972 -1.5034
 7375SOL    HW233759   1.603   2.140   0.549  1.9973 -1.9597 -1.0578
 7376SOL     OW33760   1.602   0.931   7.272  0.1893  0.1373 -0.4246
 7376SOL    HW133761   1.628   1.022   7.290  1.4221 -0.9877  3.4494
 7376SOL    HW233762   1.525   0.940   7.216 -0.0704  0.6802  0.0179
 7377SOL     OW33763   0.313   0.679   2.636  0.1885  0.4907  0.6631
 7377SOL    HW133764   0.218   0.674   2.626  0.2937 -2.1769  0.8017
 7377SOL    HW233765   0.346   0.593   2.609 -1.7913  0.0971 -0.4709
 7378SOL     OW33766   2.678   2.107  11.415  0.6306 -0.1910  0.1928
 7378SOL    HW133767   2.745   2.078  11.477 -0.4657 -3.0946  0.0040
 7378SOL    HW233768   2.613   2.038  11.417  1.7452 -1.2719 -0.8261
 7379SOL     OW33769   1.794   3.764   8.718  0.4791  0.2731 -0.6417
 7379SOL    HW133770   1.750   3.705   8.657  1.4249 -2.6747  1.5566
 7379SOL    HW233771   1.879   3.732   8.690  1.3826  0.3985  1.9367
 7380SOL     OW33772   1.077   2.038   2.507 -0.2563 -0.0119 -0.2363
 7380SOL    HW133773   1.154   1.998   2.547 -1.9753 -1.3456  1.7700
 7380SOL    HW233774   1.104   2.033   2.416 -1.0918 -1.0116 -0.4330
 7381SOL     OW33775   4.155   3.610   7.588  0.1125  1.3291  0.0844
 7381SOL    HW133776   4.146   3.674   7.518 -0.2425  1.5387  0.3236
 7381SOL    HW233777   4.248   3.590   7.591 -0.0476  1.0508  2.8806
 7382SOL     OW33778   1.594   2.461   4.723  0.3305  0.4689 -0.0652
 7382SOL    HW133779   1.579   2.509   4.805 -1.4526 -1.0750  0.5233
 7382SOL    HW233780   1.540   2.382   4.728  0.7394  0.0239 -2.8398
 7383SOL     OW33781   4.252   0.556   8.007 -0.6259  0.2634  0.0130
 7383SOL    HW133782   4.327   0.528   8.059  1.9410  2.1039 -2.7268
 7383SOL    HW233783   4.204   0.473   8.004  0.8594 -0.5062 -2.0678
 7384SOL     OW33784   1.659   2.680  11.147 -0.1962 -0.0161 -0.1711
 7384SOL    HW133785   1.622   2.752  11.096 -1.8651  0.0445  1.1283
 7384SOL    HW233786   1.751   2.704  11.155 -0.4444  1.2074 -0.9744
 7385SOL     OW33787   3.532   0.907   6.682  0.0964 -0.0770 -0.0316
 7385SOL    HW133788   3.577   0.912   6.597 -1.3515 -0.8964 -0.8409
 7385SOL    HW233789   3.466   0.977   6.678 -0.4385 -0.6385 -1.0239
 7386SOL     OW33790   1.251   3.489  12.758  0.2996  0.4978  0.3511
 7386SOL    HW133791   1.301   3.418  12.799 -0.0350  0.2837  0.3842
 7386SOL    HW233792   1.318   3.532  12.705 -0.1571  1.8804  0.9180
 7387SOL     OW33793   4.151   3.025  16.761 -0.9554 -1.0668 -0.2889
 7387SOL    HW133794   4.087   3.076  16.711  0.6251  0.7279 -0.4871
 7387SOL    HW233795   4.215   3.001  16.694  0.0517 -1.9943  0.9929
 7388SOL     OW33796   2.669   1.604   2.116  0.1063 -0.0166  0.1686
 7388SOL    HW133797   2.713   1.611   2.031 -1.0669 -0.1387 -0.4542
 7388SOL    HW233798   2.742   1.581   2.173  0.6115 -1.0487 -0.8874
 7389SOL     OW33799   0.494   3.969   5.949  0.0976 -0.4792 -0.1134
 7389SOL    HW133800   0.426   3.958   6.015 -1.8645 -0.8541 -2.1828
 7389SOL    HW233801   0.506   3.876   5.927 -4.2945 -0.4351 -2.7646
 7390SOL     OW33802   1.109   2.899  11.678  0.8231  0.2145  0.0183
 7390SOL    HW133803   1.063   2.890  11.594  0.7489 -3.0844  0.4063
 7390SOL    HW233804   1.051   2.866  11.747  1.4154 -2.2059 -0.6416
 7391SOL     OW33805   1.538   0.897   6.218  0.5350  0.3743 -0.0233
 7391SOL    HW133806   1.624   0.885   6.258  1.3271 -0.9618 -2.0953
 7391SOL    HW233807   1.508   0.808   6.202  2.3376 -0.2446 -0.0012
 7392SOL     OW33808   0.253   2.657   0.731 -0.4180  0.0131  0.1378
 7392SOL    HW133809   0.291   2.663   0.644  0.3409  0.1781  0.4787
 7392SOL    HW233810   0.330   2.651   0.787 -0.8300  1.5856  0.8711
 7393SOL     OW33811   2.964   3.912   4.288 -0.4625 -0.3503  0.0385
 7393SOL    HW133812   2.974   3.923   4.194 -0.3968 -1.1412 -0.0489
 7393SOL    HW233813   2.994   3.997   4.322 -1.0313  0.4212 -1.3930
 7394SOL     OW33814   3.671   2.417  14.303 -0.2091  0.1433  0.0823
 7394SOL    HW133815   3.703   2.412  14.393  0.1191 -0.2842 -0.0560
 7394SOL    HW233816   3.615   2.342  14.324  2.9662 -3.2619 -3.7300
 7395SOL     OW33817   2.919   0.122  10.689  0.0584  0.3330  0.1065
 7395SOL    HW133818   2.920   0.166  10.604  3.9524 -1.0608 -0.5555
 7395SOL    HW233819   2.944   0.033  10.664 -3.3078 -1.1263  1.8105
 7396SOL     OW33820   4.700   1.452   4.649  0.0234 -0.3452  0.0968
 7396SOL    HW133821   4.631   1.463   4.714 -0.6514  0.0551 -0.7017
 7396SOL    HW233822   0.035   1.506   4.673 -0.5512  0.7808 -0.6445
 7397SOL     OW33823   0.155   3.257   4.337 -0.2988  0.1644  0.2774
 7397SOL    HW133824   0.139   3.235   4.245  1.2499  1.1536 -0.2171
 7397SOL    HW233825   0.202   3.178   4.361 -0.6116  0.2918  1.2945
 7398SOL     OW33826   0.096   0.089   7.077 -0.1978  0.1541  0.5253
 7398SOL    HW133827   0.168   0.028   7.066 -0.6024 -0.4291  1.0854
 7398SOL    HW233828   0.070   0.102   6.986  0.1061  0.2223  0.4474
 7399SOL     OW33829   2.890   0.654   1.241  0.3183  0.2520  0.0245
 7399SOL    HW133830   2.937   0.677   1.321 -0.3197  0.2212  0.4066
 7399SOL    HW233831   2.882   0.559   1.251  2.7482  0.1182  0.6387
 7400SOL     OW33832   0.891   0.532   8.895  0.2458 -0.1716  0.2144
 7400SOL    HW133833   0.899   0.437   8.889 -0.6664 -0.1606 -1.0398
 7400SOL    HW233834   0.936   0.553   8.813 -1.5228  1.6875 -0.2800
 7401SOL     OW33835   3.589   1.257  16.179  0.0749 -0.4233 -0.1480
 7401SOL    HW133836   3.581   1.260  16.083  1.5403 -3.9177 -0.3761
 7401SOL    HW233837   3.588   1.350  16.200 -2.7164  0.3659 -3.7963
 7402SOL     OW33838   4.123   1.462   1.955 -0.2885 -0.2338  0.2907
 7402SOL    HW133839   4.042   1.488   1.998  0.9141  1.8456  1.2979
 7402SOL    HW233840   4.095   1.392   1.896  1.7305 -0.0353 -0.8937
 7403SOL     OW33841   4.365   2.367   7.324 -0.3456 -0.1850  0.3819
 7403SOL    HW133842   4.381   2.302   7.393 -1.0145  1.2158  1.8513
 7403SOL    HW233843   4.338   2.315   7.248  1.1564 -0.6815  0.1800
 7404SOL     OW33844   2.858   2.067  16.516  0.2620  0.3037  0.0087
 7404SOL    HW133845   2.916   2.025  16.452  1.1588 -0.3559  1.2607
 7404SOL    HW233846   2.793   2.000  16.537  0.4752 -0.4323 -1.6495
 7405SOL     OW33847   4.621   1.536   9.156  0.0142  0.2664 -0.1673
 7405SOL    HW133848   4.708   1.525   9.118  0.0432  0.4315 -0.1472
 7405SOL    HW233849   4.632   1.629   9.174 -0.0614 -0.1566  1.9665
 7406SOL     OW33850   0.881   1.557  16.235 -0.2600  0.0844 -0.0470
 7406SOL    HW133851   0.788   1.578  16.239  0.0877  1.2137  1.8246
 7406SOL    HW233852   0.877   1.473  16.281 -0.6555  0.3246  0.3479
 7407SOL     OW33853   0.498   1.155  12.997 -0.6429  0.1317 -0.0019
 7407SOL    HW133854   0.471   1.219  12.932 -0.0975  0.5116  0.1423
 7407SOL    HW233855   0.566   1.101  12.957  0.5746  0.5869  1.4505
 7408SOL     OW33856   1.453   3.228   0.129 -0.5977  0.0975 -0.1991
 7408SOL    HW133857   1.419   3.139   0.141  0.7226  0.1228  3.6615
 7408SOL    HW233858   1.427   3.249   0.039  2.5388 -2.0288 -1.6238
 7409SOL     OW33859   1.429   3.262   4.432  0.0137  0.1154  0.0014
 7409SOL    HW133860   1.398   3.243   4.520 -2.3892  0.5596 -0.7453
 7409SOL    HW233861   1.413   3.178   4.389  0.4208  0.3484 -0.6014
 7410SOL     OW33862   0.232   4.600   3.513  0.0959 -0.1165  0.1504
 7410SOL    HW133863   0.194   4.529   3.463  2.0521 -1.3393  0.3907
 7410SOL    HW233864   0.216   4.569   3.602 -1.2866 -1.3146 -0.5241
 7411SOL     OW33865   2.145   2.320   9.102  0.3882  1.0481  0.3796
 7411SOL    HW133866   2.209   2.326   9.173 -1.6896 -0.5794  2.3730
 7411SOL    HW233867   2.183   2.244   9.058  0.9727  1.0361  0.8996
 7412SOL     OW33868   2.473   4.023  12.892  0.2769  0.1499  0.2453
 7412SOL    HW133869   2.441   4.110  12.916 -1.6514 -0.0066 -1.7472
 7412SOL    HW233870   2.414   4.007  12.818 -0.8170 -0.4042  1.2238
 7413SOL     OW33871   3.910   3.025   2.396 -0.0397 -0.0505 -0.2168
 7413SOL    HW133872   4.004   3.013   2.378 -0.3189 -0.8078 -1.1429
 7413SOL    HW233873   3.926   3.005   2.488 -0.6522 -0.8067 -0.2791
 7414SOL     OW33874   0.407   3.971   2.331  0.3743  0.2121  0.7675
 7414SOL    HW133875   0.451   3.996   2.251  0.3890  2.6490  1.5501
 7414SOL    HW233876   0.446   4.037   2.388 -1.4259  3.1158 -1.3431
 7415SOL     OW33877   2.720   1.939  11.075  0.1198 -0.2640  0.1530
 7415SOL    HW133878   2.713   1.891  11.157  2.3711 -0.4725  0.2158
 7415SOL    HW233879   2.814   1.934  11.056  0.4837  1.5943  1.4905
 7416SOL     OW33880   0.201   0.709  16.811 -0.4034  0.7621  0.2131
 7416SOL    HW133881   0.144   0.644  16.853  0.6869 -1.1338 -1.2356
 7416SOL    HW233882   0.179   0.788  16.860  1.5423  0.7080  1.1434
 7417SOL     OW33883   1.003   0.044   5.707 -0.0830 -0.2254 -0.0055
 7417SOL    HW133884   1.098   0.048   5.707 -0.0459 -1.1225 -1.2386
 7417SOL    HW233885   0.994   0.054   5.802 -0.6830 -1.1105  0.0365
 7418SOL     OW33886   2.785   1.026   1.629 -0.0351  0.0701 -0.1161
 7418SOL    HW133887   2.730   0.992   1.558 -1.1523 -1.4690  1.4781
 7418SOL    HW233888   2.801   1.111   1.588 -0.7569 -0.1299 -0.8127
 7419SOL     OW33889   2.239   4.311   3.870 -0.3690  0.1003 -0.2714
 7419SOL    HW133890   2.279   4.377   3.814  0.6299 -0.1189  0.1689
 7419SOL    HW233891   2.288   4.318   3.952 -2.5038 -1.3059  1.1378
 7420SOL     OW33892   0.854   1.527   3.156  0.2209 -0.0517  0.0089
 7420SOL    HW133893   0.851   1.587   3.231 -0.5475  0.6451 -0.5905
 7420SOL    HW233894   0.899   1.582   3.092  1.7616 -0.7073  0.5355
 7421SOL     OW33895   0.812   3.304   9.916 -0.0170  0.1008 -0.0805
 7421SOL    HW133896   0.748   3.342   9.976  0.7979  2.2423 -0.5582
 7421SOL    HW233897   0.893   3.356   9.917 -0.0437  0.1368  0.1167
 7422SOL     OW33898   2.110   3.346   7.342 -0.4453  0.1293 -0.4367
 7422SOL    HW133899   2.132   3.439   7.345 -1.0459  0.2517  0.1042
 7422SOL    HW233900   2.194   3.314   7.308 -1.5984  0.8251 -4.0254
 7423SOL     OW33901   4.259   4.054   2.368  0.0736 -0.0346  0.7407
 7423SOL    HW133902   4.252   4.079   2.276 -2.1458 -2.4837  0.2512
 7423SOL    HW233903   4.165   4.051   2.386 -0.3710  2.1271 -1.2772
 7424SOL     OW33904   1.793   1.614   7.104 -0.4609 -0.1175  0.3807
 7424SOL    HW133905   1.866   1.560   7.073  0.4879  1.5463 -0.2858
 7424SOL    HW233906   1.756   1.654   7.026 -0.7322 -1.9907 -0.4646
 7425SOL     OW33907   3.590   2.720   6.338 -0.0094  0.2409 -0.2252
 7425SOL    HW133908   3.600   2.800   6.286  2.2384  0.4487  0.5420
 7425SOL    HW233909   3.638   2.738   6.419 -1.9931  0.7773  0.8571
 7426SOL     OW33910   0.037   1.336   6.070 -0.0692 -0.1735  0.3159
 7426SOL    HW133911   0.097   1.402   6.105 -0.8975  0.9163 -0.3196
 7426SOL    HW233912   0.031   1.377   5.984 -2.1542 -1.1283  0.0132
 7427SOL     OW33913   2.356   2.109  17.627  0.3568 -0.2025 -0.3245
 7427SOL    HW133914   2.421   2.116  17.697 -0.1123  1.1512 -0.0406
 7427SOL    HW233915   2.357   2.199  17.595  0.1953  0.0612  0.4066
 7428SOL     OW33916   1.436   2.417   5.257 -0.0157  0.5891 -0.1540
 7428SOL    HW133917   1.360   2.359   5.255  0.0478  0.5383 -1.5325
 7428SOL    HW233918   1.477   2.403   5.342 -2.4122 -1.5974  0.6503
 7429SOL     OW33919   0.207   2.706   9.058 -0.1820 -0.0927  0.0736
 7429SOL    HW133920   0.302   2.697   9.050 -0.0227  1.1770  0.5865
 7429SOL    HW233921   0.180   2.638   8.996 -1.0671 -0.6668  1.0921
 7430SOL     OW33922   2.615   1.907   1.766  0.1039  0.1863  0.5941
 7430SOL    HW133923   2.521   1.900   1.748  0.8099 -1.8527 -2.3463
 7430SOL    HW233924   2.638   1.826   1.720 -0.5022  0.0089  0.6029
 7431SOL     OW33925   3.870   4.090   8.508  0.3238  0.5149 -0.0818
 7431SOL    HW133926   3.857   4.169   8.455  1.4842  0.4853 -0.4293
 7431SOL    HW233927   3.958   4.115   8.537  1.4930 -0.0829 -3.1478
 7432SOL     OW33928   3.184   0.966   6.143 -0.1452 -0.7312 -0.5882
 7432SOL    HW133929   3.093   0.994   6.146  0.5121  1.4677 -1.0349
 7432SOL    HW233930   3.223   1.001   6.223  0.1290 -1.1161 -0.5507
 7433SOL     OW33931   4.214   3.169  16.389 -0.2740 -0.7315  0.3947
 7433SOL    HW133932   4.255   3.236  16.443 -1.0084 -0.4537  0.6053
 7433SOL    HW233933   4.247   3.092  16.435 -0.3436 -0.6585  0.5642
 7434SOL     OW33934   0.765   2.174   6.173 -0.1434  0.3122 -0.4107
 7434SOL    HW133935   0.796   2.128   6.095 -1.7651 -0.3968 -0.6385
 7434SOL    HW233936   0.761   2.264   6.140 -2.3756  0.5399  0.4911
 7435SOL     OW33937   0.574   1.390   4.483 -0.2990 -0.4006  0.1932
 7435SOL    HW133938   0.538   1.316   4.532  0.5844  0.9810  2.9762
 7435SOL    HW233939   0.590   1.355   4.396 -0.4815  2.0120 -0.8155
 7436SOL     OW33940   3.235   1.412   2.346 -0.0917  0.3525  0.3777
 7436SOL    HW133941   3.235   1.457   2.431  0.0145  0.5149  0.2934
 7436SOL    HW233942   3.188   1.484   2.304  1.1569  0.2351 -1.2330
 7437SOL     OW33943   3.701   4.463   2.900  0.1103  0.5511  1.0241
 7437SOL    HW133944   3.746   4.542   2.931 -0.1047 -0.4561  3.9423
 7437SOL    HW233945   3.763   4.399   2.865 -2.2906 -1.3330  0.2298
 7438SOL     OW33946   4.547   2.637   5.626  0.5038  0.3697 -0.3023
 7438SOL    HW133947   4.546   2.646   5.530 -3.3668  1.2007 -0.1815
 7438SOL    HW233948   4.497   2.712   5.657  0.8962  0.9789 -1.1358
 7439SOL     OW33949   0.547   0.110  10.431  0.6270  0.2289 -0.5508
 7439SOL    HW133950   0.527   0.202  10.414 -0.4133  0.1655  0.3386
 7439SOL    HW233951   0.637   0.103  10.462  0.1466 -0.3621  0.6899
 7440SOL     OW33952   2.868   1.823   2.695  0.0599  0.6639 -0.9671
 7440SOL    HW133953   2.816   1.886   2.646 -2.4207  0.6600  1.6944
 7440SOL    HW233954   2.924   1.887   2.739 -0.1391  1.7510 -2.3035
 7441SOL     OW33955   3.238   1.773   9.744  0.6500 -0.0977 -0.2398
 7441SOL    HW133956   3.315   1.753   9.798  0.2109  0.0127  0.4290
 7441SOL    HW233957   3.258   1.737   9.658  2.7393 -0.3420  0.3544
 7442SOL     OW33958   4.319   3.292   6.475  0.6198  0.2712  0.2603
 7442SOL    HW133959   4.375   3.370   6.476 -4.4852  3.9660  0.3847
 7442SOL    HW233960   4.272   3.302   6.559  0.4492 -0.1696  0.2190
 7443SOL     OW33961   1.510   2.124   8.700 -0.1577 -0.4166 -0.6821
 7443SOL    HW133962   1.590   2.109   8.750  0.8120  1.1668 -1.7729
 7443SOL    HW233963   1.483   2.032   8.703  0.4358 -0.5751 -0.0249
 7444SOL     OW33964   3.167   0.557  14.410 -0.2724  0.0757 -0.0400
 7444SOL    HW133965   3.184   0.645  14.376  1.0666  0.5480  1.8297
 7444SOL    HW233966   3.245   0.511  14.378  0.1588  0.3318  0.6408
 7445SOL     OW33967   2.594   0.041   2.104 -0.3650  0.9443 -0.3324
 7445SOL    HW133968   2.618   4.719   2.036 -1.0237  0.5293 -0.1810
 7445SOL    HW233969   2.531   0.001   2.164 -0.2791  1.2311 -0.0501
 7446SOL     OW33970   3.385   0.840   3.405 -0.1354  0.2934  0.3039
 7446SOL    HW133971   3.308   0.814   3.456 -1.7294  1.7080 -1.3939
 7446SOL    HW233972   3.396   0.768   3.343 -1.8212  0.9615 -0.7603
 7447SOL     OW33973   4.599   0.979   5.785 -0.3903 -0.0909  0.6341
 7447SOL    HW133974   4.610   0.986   5.691 -0.0847 -0.0818  0.6681
 7447SOL    HW233975   4.680   0.950   5.828  1.6359  1.6917 -2.0490
 7448SOL     OW33976   0.774   0.420   5.201  0.3339  0.5778  0.2368
 7448SOL    HW133977   0.780   0.354   5.132 -0.9138  0.8532 -0.1502
 7448SOL    HW233978   0.867   0.439   5.215  0.1234  0.9953  1.0712
 7449SOL     OW33979   3.571   3.680  15.070  0.3774 -0.0271  0.5075
 7449SOL    HW133980   3.561   3.632  14.988  0.0231  1.3909 -0.2720
 7449SOL    HW233981   3.504   3.745  15.048  0.6037 -0.5757 -1.7696
 7450SOL     OW33982   1.601   1.714   6.096 -0.3733  0.5483  0.1088
 7450SOL    HW133983   1.678   1.759   6.059  0.1100  0.8383  1.4758
 7450SOL    HW233984   1.538   1.718   6.024  0.0013  1.5823 -0.1653
 7451SOL     OW33985   2.949   2.005   1.782  0.0514 -0.1073  0.3862
 7451SOL    HW133986   2.964   1.976   1.872 -1.5911  1.6103  1.2327
 7451SOL    HW233987   3.032   2.050   1.771 -0.3146  0.4355 -0.1285
 7452SOL     OW33988   0.003   2.363   8.222 -0.6162 -0.3396 -0.4926
 7452SOL    HW133989   0.078   2.422   8.213  0.9250 -2.3005 -0.6154
 7452SOL    HW233990   4.673   2.405   8.174  0.7970 -0.9514 -3.1553
 7453SOL     OW33991   0.964   1.677   4.022  0.2781 -0.5667 -0.0001
 7453SOL    HW133992   0.986   1.666   4.114  1.3988  0.3634 -0.1522
 7453SOL    HW233993   0.988   1.590   3.993  0.2706 -0.2849 -0.8585
 7454SOL     OW33994   1.192   4.432   7.429 -0.8234  0.1114  0.2520
 7454SOL    HW133995   1.120   4.368   7.429  0.6381 -1.5179 -0.0792
 7454SOL    HW233996   1.261   4.370   7.450 -1.3914  0.1862  2.3184
 7455SOL     OW33997   3.039   1.876   5.592 -0.3792 -1.0065 -0.4760
 7455SOL    HW133998   2.976   1.896   5.523  0.4090  1.3965 -0.5266
 7455SOL    HW233999   3.087   1.797   5.570  0.2338 -0.4147 -1.2734
 7456SOL     OW34000   2.625   4.629   6.556  0.5697 -0.5033 -0.5383
 7456SOL    HW134001   2.621   4.534   6.565 -0.0438 -0.4664 -0.4667
 7456SOL    HW234002   2.634   4.633   6.461  2.0594 -0.9962 -0.4269
 7457SOL     OW34003   2.327   0.071   5.272 -0.0498  0.1363 -0.4570
 7457SOL    HW134004   2.354   0.106   5.356 -0.2084 -1.5282  0.2926
 7457SOL    HW234005   2.304   4.722   5.295 -0.6084  0.5071  0.4516
 7458SOL     OW34006   4.607   2.593   6.519  0.1833  0.0807 -0.5372
 7458SOL    HW134007   4.606   2.498   6.532 -2.1051  0.2249  0.2671
 7458SOL    HW234008   4.702   2.606   6.510 -0.2508  2.2379 -1.9539
 7459SOL     OW34009   4.733   3.961   1.944  0.2491 -0.4232 -0.1904
 7459SOL    HW134010   4.663   3.899   1.926 -0.3846 -0.0451  0.9349
 7459SOL    HW234011   0.001   3.931   2.035 -1.7720  1.2127  0.5483
 7460SOL     OW34012   2.127   1.655   1.369 -0.1935 -0.1049 -0.5039
 7460SOL    HW134013   2.037   1.624   1.356  1.1310 -3.4355 -1.4301
 7460SOL    HW234014   2.108   1.719   1.438 -2.1175  0.0937 -1.2106
 7461SOL     OW34015   2.424   2.087   7.817  0.0300  0.3832  0.1904
 7461SOL    HW134016   2.415   2.000   7.779 -1.4258  1.0131 -0.8822
 7461SOL    HW234017   2.373   2.131   7.750  0.0180  0.6449  0.3706
 7462SOL     OW34018   3.750   2.728  15.451 -0.2607  0.5412  0.2643
 7462SOL    HW134019   3.774   2.735  15.358 -1.8304  0.7071 -0.1262
 7462SOL    HW234020   3.669   2.778  15.460  0.5147  1.9402 -0.4836
 7463SOL     OW34021   1.510   3.731   0.085 -0.0096 -0.1868 -0.9767
 7463SOL    HW134022   1.504   3.759   0.176  3.0157 -1.7260 -0.2983
 7463SOL    HW234023   1.527   3.638   0.101 -0.9574 -0.0512  0.7704
 7464SOL     OW34024   0.567   3.716   0.999 -0.1312  0.6650  0.2459
 7464SOL    HW134025   0.566   3.811   1.011  0.8444  0.4402  2.1346
 7464SOL    HW234026   0.661   3.698   1.002 -0.4088 -1.0080 -0.9721
 7465SOL     OW34027   1.807   2.289   4.598  0.1851 -0.0542  0.9738
 7465SOL    HW134028   1.892   2.298   4.640  1.2325  0.7403 -1.3498
 7465SOL    HW234029   1.769   2.370   4.632 -0.6920 -0.0998  0.1220
 7466SOL     OW34030   0.544   2.228   5.550  0.5012  0.1089  0.0091
 7466SOL    HW134031   0.471   2.265   5.501  0.9440  1.3038  0.2630
 7466SOL    HW234032   0.574   2.307   5.595  0.1972 -0.4789  1.2287
 7467SOL     OW34033   3.516   2.345   8.647 -0.1532  0.1037  0.0862
 7467SOL    HW134034   3.501   2.369   8.556 -2.5985  1.7424  0.9324
 7467SOL    HW234035   3.611   2.358   8.654 -0.4263  2.4415 -0.6867
 7468SOL     OW34036   1.839   0.875  10.708 -0.4224  0.1548  0.2732
 7468SOL    HW134037   1.848   0.849  10.616  2.3874 -1.2000  0.9199
 7468SOL    HW234038   1.907   0.813  10.735 -2.2747 -1.5121  1.1140
 7469SOL     OW34039   4.027   3.628  14.119 -0.0581 -0.1892  0.7951
 7469SOL    HW134040   4.035   3.707  14.064  0.8889 -1.0294 -0.2881
 7469SOL    HW234041   4.084   3.570  14.068 -0.8035  0.7163 -1.0703
 7470SOL     OW34042   4.490   3.171   5.743 -0.5915  0.3859  0.1709
 7470SOL    HW134043   4.584   3.184   5.729 -0.7416 -1.6136 -2.7266
 7470SOL    HW234044   4.495   3.097   5.802  1.7387  1.0556  0.7977
 7471SOL     OW34045   1.007   1.137  13.449 -0.2796 -0.2147  0.1241
 7471SOL    HW134046   0.938   1.072  13.440  0.0067 -0.3456 -1.0770
 7471SOL    HW234047   0.950   1.214  13.452  0.3019  0.1806  0.9871
 7472SOL     OW34048   4.471   4.478   7.555 -0.3383  0.2131 -0.2413
 7472SOL    HW134049   4.526   4.536   7.607 -2.1516 -0.0326  1.9213
 7472SOL    HW234050   4.391   4.529   7.557  0.6272  1.6336  1.8180
 7473SOL     OW34051   0.422   3.139  16.718  0.2329 -0.2563  0.5975
 7473SOL    HW134052   0.399   3.046  16.719  1.4618 -0.5547  1.2517
 7473SOL    HW234053   0.512   3.140  16.752 -0.2951  1.7560  1.9350
 7474SOL     OW34054   0.773   0.206   5.940  0.2527 -0.5377 -0.4164
 7474SOL    HW134055   0.806   0.280   5.990  0.1501 -0.9465  0.2538
 7474SOL    HW234056   0.841   0.141   5.959  0.3630  0.1826  1.6428
 7475SOL     OW34057   2.636   0.303   2.702  0.2030 -0.5359  0.1474
 7475SOL    HW134058   2.732   0.307   2.703  0.1320  0.6928  2.7996
 7475SOL    HW234059   2.615   0.380   2.650 -1.7917  0.2521  2.1132
 7476SOL     OW34060   2.995   2.473   3.668  0.2345  0.0455  0.6652
 7476SOL    HW134061   3.087   2.469   3.640  0.2222  0.2759  0.5928
 7476SOL    HW234062   2.957   2.389   3.642 -2.1089  0.6906  1.9985
 7477SOL     OW34063   1.765   2.802  16.342 -0.4505  0.4092 -0.0316
 7477SOL    HW134064   1.808   2.817  16.257  0.4400  0.5126  0.4419
 7477SOL    HW234065   1.840   2.784  16.398 -1.6817  0.3631  1.5995
 7478SOL     OW34066   0.390   0.243   3.617 -0.2305 -0.3503  0.9148
 7478SOL    HW134067   0.345   0.243   3.702 -1.0558  3.3741  0.4826
 7478SOL    HW234068   0.477   0.224   3.651  0.4517 -0.1440 -0.7155
 7479SOL     OW34069   1.228   3.633   5.377  0.5505 -0.2871  0.0411
 7479SOL    HW134070   1.180   3.579   5.440  2.4102 -0.5552  1.2212
 7479SOL    HW234071   1.296   3.572   5.349 -0.3904 -0.7466 -1.2605
 7480SOL     OW34072   3.774   0.616   9.648 -0.3052 -1.1165  0.0965
 7480SOL    HW134073   3.785   0.562   9.570 -2.3223 -1.7794  0.2795
 7480SOL    HW234074   3.821   0.693   9.615  2.4611 -3.5309 -1.5839
 7481SOL     OW34075   0.366   0.192   1.523 -0.7819  0.1293 -0.3298
 7481SOL    HW134076   0.341   0.121   1.465  1.2672  0.5008 -1.6648
 7481SOL    HW234077   0.309   0.175   1.598  0.5293 -0.8880  0.4435
 7482SOL     OW34078   0.067   4.244   9.148 -0.0950  0.1286  0.0097
 7482SOL    HW134079   4.727   4.262   9.099 -0.7207  1.3708  1.5289
 7482SOL    HW234080   0.071   4.316   9.211 -0.7565 -1.4952  1.8791
 7483SOL     OW34081   0.840   3.211   3.421  0.2029  0.1901 -0.1764
 7483SOL    HW134082   0.829   3.221   3.327 -1.0354  0.1540 -0.0441
 7483SOL    HW234083   0.893   3.132   3.414  1.5108  1.0026  0.4787
 7484SOL     OW34084   0.229   0.958   2.250  0.4592 -0.1258  0.3137
 7484SOL    HW134085   0.314   0.992   2.276 -0.2357  2.6078 -0.9888
 7484SOL    HW234086   0.182   0.948   2.333  1.2533 -0.8614  0.6684
 7485SOL     OW34087   1.449   4.133  16.351 -0.3272  0.3162 -0.3128
 7485SOL    HW134088   1.500   4.192  16.407 -1.6560  1.3135 -0.1686
 7485SOL    HW234089   1.493   4.048  16.350 -0.0419  0.5089 -3.9567
 7486SOL     OW34090   2.924   2.166  15.183  0.3462 -0.3132 -0.4938
 7486SOL    HW134091   2.890   2.078  15.201 -1.2744  0.3432 -0.3560
 7486SOL    HW234092   2.912   2.168  15.088 -1.2634 -2.4408 -0.3332
 7487SOL     OW34093   0.690   3.620   3.085  0.2057  0.0397  0.4238
 7487SOL    HW134094   0.659   3.563   3.015  1.1901 -0.7820  0.6588
 7487SOL    HW234095   0.719   3.555   3.149  0.1256  0.3404  0.7694
 7488SOL     OW34096   3.541   0.354   6.472 -0.4893 -0.0597  0.7833
 7488SOL    HW134097   3.536   0.443   6.507  0.4509 -0.5323  2.1271
 7488SOL    HW234098   3.501   0.301   6.542 -0.8432  0.2164  0.7901
 7489SOL     OW34099   0.044   3.068   0.677 -0.4883  0.8088 -0.2160
 7489SOL    HW134100   4.716   3.077   0.743  0.3374  0.1321  0.7427
 7489SOL    HW234101   4.733   3.073   0.597  0.8272 -0.2377 -1.1308
 7490SOL     OW34102   1.011   1.564  13.864  0.1241 -0.4113 -0.2596
 7490SOL    HW134103   0.958   1.644  13.852  1.2962  0.2377 -1.1249
 7490SOL    HW234104   1.100   1.597  13.854 -0.2236  0.7185  0.3315
 7491SOL     OW34105   4.399   3.797  10.390 -0.6987  0.3082  0.6912
 7491SOL    HW134106   4.479   3.777  10.439 -0.8732 -1.7913  0.1219
 7491SOL    HW234107   4.437   3.809  10.303 -0.4131 -3.1416  0.3219
 7492SOL     OW34108   2.128   2.980   8.225 -0.5034  0.1080  0.5021
 7492SOL    HW134109   2.050   3.028   8.196 -1.0233  0.3843  2.3865
 7492SOL    HW234110   2.187   3.056   8.219 -0.4054 -0.1082 -1.2623
 7493SOL     OW34111   1.195   0.313   7.599  0.3426  0.0641 -0.3414
 7493SOL    HW134112   1.238   0.248   7.655  1.9068 -1.3836 -3.2102
 7493SOL    HW234113   1.103   0.289   7.594  0.5914 -0.7358 -1.0419
 7494SOL     OW34114   4.461   2.812   1.969  0.2017  0.5624 -0.1544
 7494SOL    HW134115   4.453   2.717   1.976  1.8473 -0.0260 -5.9771
 7494SOL    HW234116   4.524   2.816   1.897  2.2847 -0.5502  1.6366
 7495SOL     OW34117   0.970   1.148   4.913  0.2008 -0.1997  0.5257
 7495SOL    HW134118   0.887   1.137   4.959 -0.2634 -3.4610 -1.0013
 7495SOL    HW234119   0.986   1.242   4.915 -0.7722 -0.0461  1.0153
 7496SOL     OW34120   3.068   0.120   5.417 -0.3948  0.2307 -0.3495
 7496SOL    HW134121   2.973   0.125   5.422 -0.2565  1.1256  1.6397
 7496SOL    HW234122   3.075   0.025   5.429 -0.0021  0.5241  1.7269
 7497SOL     OW34123   0.206   4.185   7.757 -0.6269  0.4065 -0.0083
 7497SOL    HW134124   0.123   4.231   7.773 -0.9634 -0.2332  0.0872
 7497SOL    HW234125   0.196   4.119   7.826  1.5387 -0.7422 -0.8003
 7498SOL     OW34126   1.076   0.235   1.301 -0.3280  0.0227  0.5280
 7498SOL    HW134127   1.078   0.228   1.205  1.1849 -0.3632  0.5855
 7498SOL    HW234128   1.086   0.327   1.326 -1.9674  0.5455 -0.7317
 7499SOL     OW34129   4.604   0.704  16.768  0.1997 -0.5374 -0.0538
 7499SOL    HW134130   4.556   0.652  16.704  0.3385 -0.0277 -0.5650
 7499SOL    HW234131   4.574   0.678  16.856 -0.9580 -0.4834 -0.4364
 7500SOL     OW34132   0.123   3.648   0.451  0.1358  0.3124  0.2057
 7500SOL    HW134133   0.052   3.679   0.395 -0.0590  1.2387  0.9554
 7500SOL    HW234134   0.086   3.661   0.539 -0.0786  0.0900  0.1475
 7501SOL     OW34135   0.216   1.884   3.400 -0.1090  0.2493 -0.6656
 7501SOL    HW134136   0.141   1.917   3.450 -0.5833 -1.5362 -0.1968
 7501SOL    HW234137   0.273   1.961   3.394 -0.9635  0.9066 -0.2905
 7502SOL     OW34138   4.524   3.836   7.147  0.9605  0.5855 -0.0033
 7502SOL    HW134139   4.445   3.781   7.154  0.0908  1.6753 -1.2620
 7502SOL    HW234140   4.512   3.869   7.058 -1.3013 -1.1169 -0.3547
 7503SOL     OW34141   2.426   1.323   3.926 -0.0397  0.4262  0.4162
 7503SOL    HW134142   2.376   1.272   3.990  0.3469  0.3376  0.6421
 7503SOL    HW234143   2.370   1.400   3.920  0.2561  0.6223  0.1781
 7504SOL     OW34144   4.676   2.060   4.131  0.3551  0.0953 -0.0418
 7504SOL    HW134145   4.648   2.016   4.211 -2.5027  2.0302  0.0217
 7504SOL    HW234146   0.029   2.072   4.140  0.5442 -2.4361  1.2665
 7505SOL     OW34147   0.023   2.518   1.646  0.0765 -0.4895  0.1472
 7505SOL    HW134148   0.092   2.464   1.607  0.5651 -0.6098  1.1785
 7505SOL    HW234149   0.018   2.581   1.574 -0.0583  0.1288  0.6905
 7506SOL     OW34150   4.711   0.659   0.738  0.0224 -0.7696  0.0376
 7506SOL    HW134151   0.008   0.601   0.804 -2.0574 -2.8226 -0.5706
 7506SOL    HW234152   4.641   0.706   0.783  1.9031  0.5433  1.5506
 7507SOL     OW34153   0.176   2.375   2.645 -0.0913  0.6110  0.2903
 7507SOL    HW134154   0.089   2.357   2.609  0.5919 -0.4397 -0.8457
 7507SOL    HW234155   0.158   2.465   2.670  0.8690  0.7189  0.5855
 7508SOL     OW34156   2.354   3.052   1.186 -0.2737  0.4044  0.6562
 7508SOL    HW134157   2.303   3.053   1.267 -0.6921  1.2211  0.3856
 7508SOL    HW234158   2.289   3.064   1.117 -0.5263  0.2828  0.8718
 7509SOL     OW34159   2.840   2.819   4.036 -0.3770  0.0934 -0.3114
 7509SOL    HW134160   2.838   2.724   4.023 -0.3678  0.1468 -0.7308
 7509SOL    HW234161   2.914   2.825   4.096  0.3007 -1.4461 -0.9759
 7510SOL     OW34162   3.042   0.978  12.620 -0.3492 -0.6235 -0.5739
 7510SOL    HW134163   3.115   0.994  12.680 -0.5391  0.9834 -0.7765
 7510SOL    HW234164   3.042   0.882  12.628  1.0652 -0.2756  3.4753
 7511SOL     OW34165   1.615   2.771   7.470 -0.4139  0.2759  0.1257
 7511SOL    HW134166   1.578   2.774   7.558 -1.3630 -0.6534 -0.2568
 7511SOL    HW234167   1.657   2.858   7.465 -0.7744  0.4477  0.1147
 7512SOL     OW34168   0.757   3.549  11.066  0.3029 -0.4895  0.5641
 7512SOL    HW134169   0.752   3.468  11.117  2.0236 -0.0074  1.4829
 7512SOL    HW234170   0.667   3.556  11.034  0.1641  0.2347  1.1122
 7513SOL     OW34171   2.488   3.286   6.607  0.1807  0.1012  0.1256
 7513SOL    HW134172   2.505   3.341   6.530 -0.7458 -1.2672 -1.0680
 7513SOL    HW234173   2.435   3.215   6.571 -1.3008  1.2384  0.0794
 7514SOL     OW34174   1.237   3.500   5.042 -0.2812 -0.0940 -0.1462
 7514SOL    HW134175   1.187   3.418   5.038 -1.9866  0.9467  0.3026
 7514SOL    HW234176   1.168   3.565   5.028  0.5150  0.8639  0.3886
 7515SOL     OW34177   4.161   0.848   9.548 -0.5582  0.1762  0.1009
 7515SOL    HW134178   4.175   0.937   9.582  0.5646  0.4578 -1.0946
 7515SOL    HW234179   4.176   0.797   9.628 -2.0550 -0.7632 -0.2215
 7516SOL     OW34180   3.312   3.224   0.736  0.1173 -0.2858 -0.7946
 7516SOL    HW134181   3.246   3.193   0.674  0.5563 -2.2265 -0.2832
 7516SOL    HW234182   3.247   3.246   0.803 -0.5048 -0.6322 -1.2898
 7517SOL     OW34183   0.723   0.812   0.585 -0.3492 -0.1150  0.1111
 7517SOL    HW134184   0.654   0.874   0.560 -0.7742 -1.5668 -2.2606
 7517SOL    HW234185   0.806   0.851   0.558  0.1192 -1.3080 -0.1633
 7518SOL     OW34186   1.421   4.070   5.306  0.2198 -0.1440 -0.3674
 7518SOL    HW134187   1.389   3.995   5.255 -0.7877 -0.1549  0.2880
 7518SOL    HW234188   1.511   4.072   5.273 -0.2065  1.9365 -1.4002
 7519SOL     OW34189   1.123   4.152   1.505  0.0284  0.2737  0.5626
 7519SOL    HW134190   1.189   4.210   1.543 -1.2375  1.9657  0.1811
 7519SOL    HW234191   1.052   4.217   1.505 -1.1139 -0.9664 -3.0220
 7520SOL     OW34192   4.200   1.770   6.050 -0.1234 -0.0691 -0.0944
 7520SOL    HW134193   4.174   1.861   6.041  0.1757  0.0966  0.7313
 7520SOL    HW234194   4.288   1.780   6.087 -0.0837 -0.6914 -0.0156
 7521SOL     OW34195   0.213   3.875   8.466 -0.0043  0.3332  0.0176
 7521SOL    HW134196   0.157   3.952   8.463  0.3155  0.5682  0.0403
 7521SOL    HW234197   0.149   3.807   8.484  0.5923 -0.0735  0.6464
 7522SOL     OW34198   2.334   3.310  11.899 -0.6801 -0.7605 -0.2786
 7522SOL    HW134199   2.417   3.343  11.934 -1.4281  0.8721 -0.0422
 7522SOL    HW234200   2.336   3.368  11.823  2.8688 -1.4429 -0.7092
 7523SOL     OW34201   0.751   4.479   7.183 -0.2629 -0.3443  0.3909
 7523SOL    HW134202   0.700   4.434   7.249 -0.3983  0.4100  0.8053
 7523SOL    HW234203   0.808   4.534   7.237  0.0238 -0.8191  0.5636
 7524SOL     OW34204   4.127   0.144   4.183 -0.4224 -0.4136  1.1401
 7524SOL    HW134205   4.101   0.109   4.268 -1.2017 -0.9507  0.6752
 7524SOL    HW234206   4.095   0.234   4.180  0.4773 -0.1747 -1.2573
 7525SOL     OW34207   1.921   0.187   4.803 -0.2102 -0.1576 -0.5626
 7525SOL    HW134208   1.972   0.239   4.865 -0.4027 -1.8507  0.9935
 7525SOL    HW234209   1.873   0.131   4.863  0.4231  0.9547  0.9646
 7526SOL     OW34210   1.328   3.725  16.581  0.1839 -0.8063 -0.3700
 7526SOL    HW134211   1.291   3.751  16.665  1.8104  1.2298 -0.2781
 7526SOL    HW234212   1.250   3.700  16.532  1.4048 -2.4312 -1.4683
 7527SOL     OW34213   3.751   2.279   9.352  0.2914 -0.6220  0.0824
 7527SOL    HW134214   3.733   2.212   9.419  0.0777 -1.4516 -0.8132
 7527SOL    HW234215   3.706   2.359   9.379 -2.6483 -1.4690 -2.4021
 7528SOL     OW34216   1.382   1.067   6.090 -0.2066  0.1082  0.5643
 7528SOL    HW134217   1.443   1.023   6.150  0.2020  0.1445  0.1701
 7528SOL    HW234218   1.439   1.071   6.013  0.9913 -0.9556  1.3975
 7529SOL     OW34219   3.170   3.292   3.655 -0.1106 -0.2562  0.1821
 7529SOL    HW134220   3.235   3.241   3.703 -0.1932 -0.2022  0.3507
 7529SOL    HW234221   3.088   3.270   3.700  0.6483  1.0900  2.2016
 7530SOL     OW34222   1.669   0.574   8.543  0.0855 -0.1906 -0.2118
 7530SOL    HW134223   1.750   0.623   8.530  0.4275  0.0877  2.9441
 7530SOL    HW234224   1.713   0.490   8.539  0.9426  0.1241  2.2658
 7531SOL     OW34225   2.539   2.216   4.029  0.0301 -0.7532  0.2163
 7531SOL    HW134226   2.477   2.232   3.957 -0.7557  0.1829  1.0986
 7531SOL    HW234227   2.541   2.300   4.075 -0.5093 -0.0670 -1.0074
 7532SOL     OW34228   0.016   1.627   7.039 -0.0972  0.4811  0.2192
 7532SOL    HW134229   4.672   1.583   7.046  0.8053 -0.9144  2.4138
 7532SOL    HW234230   0.052   1.579   6.965 -0.3704  1.3088 -0.4548
 7533SOL     OW34231   1.010   2.053   9.749  0.2779 -0.2172 -0.1544
 7533SOL    HW134232   1.033   2.071   9.840 -0.0816 -2.3606  0.3465
 7533SOL    HW234233   1.067   2.121   9.713 -0.0504  0.2578  0.2088
 7534SOL     OW34234   1.219   4.179   6.060  0.7106 -0.2154  0.4565
 7534SOL    HW134235   1.136   4.221   6.084  0.7249 -0.0907  0.2822
 7534SOL    HW234236   1.195   4.098   6.016 -1.9707 -0.3214  2.1024
 7535SOL     OW34237   3.269   0.886  10.367 -0.2057  0.5191 -0.4734
 7535SOL    HW134238   3.213   0.815  10.400  0.6263 -0.2091 -0.6263
 7535SOL    HW234239   3.348   0.853  10.410 -1.6947 -1.1880  0.9638
 7536SOL     OW34240   0.720   0.843   1.769 -0.0762 -0.1762  0.0749
 7536SOL    HW134241   0.789   0.900   1.734  0.0236 -0.8775 -0.8660
 7536SOL    HW234242   0.742   0.771   1.711  1.3138 -0.6752  1.2224
 7537SOL     OW34243   1.945   2.643  11.250  0.4195 -0.2588 -0.2082
 7537SOL    HW134244   2.039   2.645  11.270  0.8955 -1.2589 -2.3096
 7537SOL    HW234245   1.923   2.558  11.287  1.2624  0.0976  1.1320
 7538SOL     OW34246   1.447   0.407  12.879 -0.1497 -0.0787 -0.3220
 7538SOL    HW134247   1.405   0.479  12.831  0.1121  0.1371 -0.2275
 7538SOL    HW234248   1.451   0.338  12.813 -0.0598  0.1471 -0.5525
 7539SOL     OW34249   1.452   1.910   2.228  0.0099 -0.1472  0.0888
 7539SOL    HW134250   1.471   1.821   2.199  1.3673 -0.0904  0.8340
 7539SOL    HW234251   1.496   1.948   2.153 -0.9514 -0.0189 -0.4134
 7540SOL     OW34252   4.202   1.056   2.375  0.1278 -0.1096  0.2302
 7540SOL    HW134253   4.115   1.027   2.348 -0.2393  0.6345  0.6324
 7540SOL    HW234254   4.240   0.968   2.382  0.9179  0.0847 -1.7808
 7541SOL     OW34255   1.103   2.350   3.575  0.1615  0.0281 -0.2220
 7541SOL    HW134256   1.108   2.267   3.622  0.9276  0.0462 -0.2628
 7541SOL    HW234257   1.192   2.373   3.546 -0.4127  1.0062 -1.2239
 7542SOL     OW34258   3.791   3.536   8.542 -0.2334 -0.7657  0.5624
 7542SOL    HW134259   3.848   3.510   8.615  1.2699  1.6066  0.2460
 7542SOL    HW234260   3.838   3.601   8.490  0.5000  0.1285  2.3315
 7543SOL     OW34261   3.307   1.228   8.515 -0.1222  0.7151  0.6477
 7543SOL    HW134262   3.230   1.242   8.570 -1.4188  0.2063 -1.0314
 7543SOL    HW234263   3.264   1.171   8.452 -0.1453  1.7889 -0.3155
 7544SOL     OW34264   2.473   2.662  17.086  0.2100 -0.6439 -0.2295
 7544SOL    HW134265   2.427   2.654  17.003 -0.5206 -2.7008  0.3680
 7544SOL    HW234266   2.501   2.573  17.106  0.0529 -0.5508  0.4010
 7545SOL     OW34267   1.753   1.645   5.300 -0.0915  0.1848  0.0716
 7545SOL    HW134268   1.785   1.726   5.262  0.3478  0.4296  0.9609
 7545SOL    HW234269   1.679   1.674   5.353 -0.4684  0.8212 -0.8078
 7546SOL     OW34270   3.636   0.080   3.098 -0.2644 -1.0728 -0.2499
 7546SOL    HW134271   3.638   0.141   3.172  0.1277  0.6544 -1.6700
 7546SOL    HW234272   3.634   0.000   3.151  4.2803 -0.6628  0.5793
 7547SOL     OW34273   4.735   2.642   8.394  0.1984  0.3117 -0.4625
 7547SOL    HW134274   4.672   2.714   8.401 -1.0033 -0.9647  1.8921
 7547SOL    HW234275   0.028   2.647   8.305 -0.4267  2.0829 -0.6118
 7548SOL     OW34276   1.623   2.774   2.033 -0.1931  0.1497 -0.0874
 7548SOL    HW134277   1.573   2.823   1.967  0.1181  2.5940  1.4566
 7548SOL    HW234278   1.575   2.692   2.023  0.2862  0.0108 -1.2456
 7549SOL     OW34279   2.262   2.716   2.464 -0.0693  0.3206 -0.5789
 7549SOL    HW134280   2.167   2.709   2.461  0.0174 -2.1436  2.0745
 7549SOL    HW234281   2.280   2.800   2.421  1.8355 -0.1131 -0.6071
 7550SOL     OW34282   0.289   4.621   7.078  0.6139 -0.7450  0.5226
 7550SOL    HW134283   0.303   4.582   7.165  0.9930 -1.9791 -0.0847
 7550SOL    HW234284   0.377   4.655   7.065  0.3958 -0.3701  0.0291
 7551SOL     OW34285   3.990   2.985   6.488 -0.2490 -0.6573 -0.3874
 7551SOL    HW134286   4.050   2.968   6.560 -0.9237  0.9845  0.5383
 7551SOL    HW234287   4.057   3.000   6.421 -2.0082 -1.0462 -2.2334
 7552SOL     OW34288   3.712   3.508  13.160  0.6198  0.4012  0.3578
 7552SOL    HW134289   3.668   3.487  13.242  0.8067  0.9642  0.5998
 7552SOL    HW234290   3.691   3.425  13.117  1.0056  0.9611 -0.9036
 7553SOL     OW34291   2.408   2.934   2.009  0.2168  0.2207 -0.1841
 7553SOL    HW134292   2.450   2.938   2.095 -0.4520 -1.9696  0.2437
 7553SOL    HW234293   2.478   2.982   1.965 -0.3538 -0.9043 -2.3255
 7554SOL     OW34294   2.142   0.810  12.333 -0.5293  0.0083 -0.0913
 7554SOL    HW134295   2.094   0.756  12.271  0.2196  0.4570 -1.0486
 7554SOL    HW234296   2.210   0.744  12.348 -1.5986 -1.1584 -0.3437
 7555SOL     OW34297   0.874   3.723   6.039 -0.1206 -0.3110  0.7223
 7555SOL    HW134298   0.829   3.806   6.049 -0.2876 -0.1511 -1.3447
 7555SOL    HW234299   0.796   3.669   6.026 -2.0227  2.6412  0.1228
 7556SOL     OW34300   1.121   0.787   2.960 -0.4853  0.0805  0.5097
 7556SOL    HW134301   1.212   0.761   2.972 -0.4919 -0.8257 -1.5320
 7556SOL    HW234302   1.091   0.697   2.974 -1.4891  0.3396  0.0031
 7557SOL     OW34303   3.345   0.269   2.424  0.0419  0.7829  0.0140
 7557SOL    HW134304   3.250   0.279   2.432 -0.1093 -1.4238  1.0482
 7557SOL    HW234305   3.352   0.313   2.339 -1.7636  1.9219  0.4460
 7558SOL     OW34306   1.713   2.068   7.668 -0.4782  0.2273 -0.4958
 7558SOL    HW134307   1.661   2.041   7.592  1.4869 -1.3934 -1.2604
 7558SOL    HW234308   1.794   2.105   7.635 -1.4294  0.0850 -3.0163
 7559SOL     OW34309   0.401   1.557  17.297  0.4430  0.3284  0.0033
 7559SOL    HW134310   0.409   1.570  17.202 -0.0062 -0.3870 -0.1272
 7559SOL    HW234311   0.365   1.643  17.321 -0.0355  0.5313 -1.4057
 7560SOL     OW34312   3.860   2.948   1.118 -0.1608  0.0823 -0.5250
 7560SOL    HW134313   3.863   2.894   1.039 -2.6119 -1.3760  0.3723
 7560SOL    HW234314   3.910   2.901   1.185 -0.5321 -0.5715 -0.7116
 7561SOL     OW34315   4.446   4.393   5.864 -0.2963 -0.2109 -0.2309
 7561SOL    HW134316   4.505   4.446   5.918 -0.1484 -1.9335  1.3096
 7561SOL    HW234317   4.363   4.440   5.866 -0.7275 -1.0330  0.7250
 7562SOL     OW34318   2.490   3.953  11.530 -0.7903 -0.0444 -0.4677
 7562SOL    HW134319   2.406   3.921  11.563 -1.5314  0.4202 -1.8627
 7562SOL    HW234320   2.489   4.049  11.521  2.2628 -0.0260 -0.5635
 7563SOL     OW34321   1.490   4.571   5.400 -0.4562  0.2493  0.0989
 7563SOL    HW134322   1.416   4.632   5.397  0.6673  1.6263  0.3181
 7563SOL    HW234323   1.484   4.526   5.316 -0.1245  3.4223 -1.6255
 7564SOL     OW34324   3.818   0.483   5.712 -0.6180  0.0257 -0.5864
 7564SOL    HW134325   3.910   0.465   5.695 -0.3912  0.6815 -0.0417
 7564SOL    HW234326   3.808   0.464   5.805  2.4795  0.4309 -0.1831
 7565SOL     OW34327   2.238   2.689  14.830 -0.0712  0.0549  0.1858
 7565SOL    HW134328   2.272   2.655  14.912 -1.7590  0.5993  1.1117
 7565SOL    HW234329   2.150   2.654  14.822  1.1848 -2.9356 -0.4263
 7566SOL     OW34330   3.598   0.574  13.231  0.2118  0.0602  0.0042
 7566SOL    HW134331   3.684   0.567  13.190 -0.4084 -1.9568 -0.9699
 7566SOL    HW234332   3.538   0.583  13.157 -0.9653 -1.0391  0.8144
 7567SOL     OW34333   3.453   3.900   5.488  0.3429  0.3303  0.2166
 7567SOL    HW134334   3.448   3.854   5.405  0.2506 -1.0080  0.9678
 7567SOL    HW234335   3.540   3.877   5.521  0.3212 -2.0351 -1.3654
 7568SOL     OW34336   0.579   1.790   9.285  0.1108 -0.2125 -0.5274
 7568SOL    HW134337   0.503   1.735   9.305 -0.6057  1.1391  0.4635
 7568SOL    HW234338   0.629   1.782   9.366 -2.3240 -0.9971  0.8966
 7569SOL     OW34339   4.285   1.222   8.528  0.0413  0.3871  1.2384
 7569SOL    HW134340   4.314   1.184   8.611  0.0612 -0.9656  0.6117
 7569SOL    HW234341   4.366   1.209   8.478 -1.0502 -1.6705  0.0106
 7570SOL     OW34342   2.263   1.627   5.845 -0.2540  0.1236 -0.1414
 7570SOL    HW134343   2.198   1.557   5.842 -0.3222  0.1946 -0.3679
 7570SOL    HW234344   2.332   1.595   5.787  0.1984 -1.1442  1.1099
 7571SOL     OW34345   1.613   1.235   8.324 -0.3463 -0.0443  0.3164
 7571SOL    HW134346   1.607   1.150   8.281 -0.5323  0.8205 -1.3586
 7571SOL    HW234347   1.537   1.228   8.381 -0.4028 -0.9517  0.1338
 7572SOL     OW34348   2.321   0.667   6.868  0.1136 -0.5166 -1.1783
 7572SOL    HW134349   2.229   0.681   6.844 -0.5184  0.1480  1.6790
 7572SOL    HW234350   2.371   0.686   6.789  1.8330 -0.0661  0.0260
 7573SOL     OW34351   1.292   0.170  12.947  0.2133 -0.1329  0.4855
 7573SOL    HW134352   1.242   0.172  12.866 -0.2027 -0.7418  0.7233
 7573SOL    HW234353   1.335   0.255  12.953  0.3504 -0.2446  1.1424
 7574SOL     OW34354   1.001   0.061  10.018  0.2343  0.0596  0.6367
 7574SOL    HW134355   0.905   0.060  10.018  0.2131  3.0659 -0.0398
 7574SOL    HW234356   1.014   0.053  10.112 -0.3372 -2.5798  0.5066
 7575SOL     OW34357   1.830   2.978  11.515  0.1245 -0.5586  0.1980
 7575SOL    HW134358   1.894   3.003  11.582  0.1082 -2.1426  0.8067
 7575SOL    HW234359   1.743   2.979  11.556 -0.2029 -1.1571 -0.4802
 7576SOL     OW34360   2.313   0.308   3.871  0.4851 -0.0065  0.1436
 7576SOL    HW134361   2.407   0.315   3.889  0.2698  0.0453  1.2820
 7576SOL    HW234362   2.295   0.397   3.843 -0.5175  0.0935  1.1201
 7577SOL     OW34363   1.357   4.137  17.059  0.5757  0.0789  0.6880
 7577SOL    HW134364   1.274   4.150  17.012  0.5730 -2.3463  0.0499
 7577SOL    HW234365   1.386   4.229  17.059 -0.2447  0.3397  1.2210
 7578SOL     OW34366   0.597   0.428   3.383  0.1938 -0.0895 -0.0169
 7578SOL    HW134367   0.548   0.353   3.349 -0.3599  1.6939 -3.0506
 7578SOL    HW234368   0.654   0.386   3.448 -0.5702  1.9768  1.9814
 7579SOL     OW34369   3.929   2.369   5.550 -0.6168 -0.1233  0.3919
 7579SOL    HW134370   3.952   2.393   5.639  0.3068 -0.6436  0.2928
 7579SOL    HW234371   3.903   2.278   5.561 -1.1442  0.2157  1.8973
 7580SOL     OW34372   0.682   0.183  17.626  0.8681  0.4753  0.2565
 7580SOL    HW134373   0.712   0.094  17.644  1.0754  0.5984  0.5119
 7580SOL    HW234374   0.664   0.186  17.532  0.7505 -0.1293  0.2568
 7581SOL     OW34375   3.565   0.562   9.210  0.1861 -0.1784 -0.3766
 7581SOL    HW134376   3.526   0.551   9.297 -0.9389  1.1039 -0.7098
 7581SOL    HW234377   3.489   0.572   9.153 -1.5906 -1.0238  1.8421
 7582SOL     OW34378   0.252   4.438  15.170 -0.2407 -0.6293  0.5634
 7582SOL    HW134379   0.244   4.507  15.237 -0.2905 -0.5336  0.4577
 7582SOL    HW234380   0.217   4.486  15.095 -1.7263  0.8199  2.1347
 7583SOL     OW34381   4.434   0.030   1.548  0.1637  0.2811  0.2581
 7583SOL    HW134382   4.414   0.081   1.627 -1.8061 -0.8817  0.5222
 7583SOL    HW234383   4.500   4.720   1.595  0.5763 -0.0548 -0.6784
 7584SOL     OW34384   4.062   2.820  15.186 -0.3495  0.1549  0.1375
 7584SOL    HW134385   4.106   2.896  15.147  0.3844 -0.2865  0.1089
 7584SOL    HW234386   4.108   2.750  15.140  2.4268  0.1278  2.9355
 7585SOL     OW34387   2.247   1.115   5.270 -0.3222  0.2862 -0.3939
 7585SOL    HW134388   2.205   1.097   5.355  0.8877 -2.7170 -0.4357
 7585SOL    HW234389   2.171   1.147   5.222 -0.0506  2.3317  0.5154
 7586SOL     OW34390   2.852   1.926   5.398 -0.4977 -0.1532 -0.1498
 7586SOL    HW134391   2.868   1.961   5.310 -1.3109  1.6831  0.4158
 7586SOL    HW234392   2.785   1.989   5.427 -0.0966 -0.7046  1.9682
 7587SOL     OW34393   0.538   1.798  14.603  0.1235  0.6030 -0.4375
 7587SOL    HW134394   0.610   1.796  14.540  0.1770  0.4326 -0.3713
 7587SOL    HW234395   0.519   1.891  14.615  0.3404  0.8109 -1.7953
 7588SOL     OW34396   1.088   1.087   7.151 -0.3095  0.0240  0.2626
 7588SOL    HW134397   1.036   1.008   7.169  2.9063 -1.7897  1.5576
 7588SOL    HW234398   1.101   1.078   7.056 -0.1431  0.9325  0.1977
 7589SOL     OW34399   0.110   2.373   6.805 -0.2149 -0.3716  0.0834
 7589SOL    HW134400   0.126   2.421   6.886 -0.5311  1.8038 -1.1364
 7589SOL    HW234401   0.193   2.330   6.783 -0.2419 -1.1122  1.4432
 7590SOL     OW34402   1.375   4.524   6.413  0.0568 -0.1189 -0.0101
 7590SOL    HW134403   1.346   4.484   6.495 -0.1855  0.1641  0.0425
 7590SOL    HW234404   1.467   4.543   6.430 -0.3050  1.2032  0.4273
 7591SOL     OW34405   0.026   3.935  13.892  0.7446  0.6184  0.6467
 7591SOL    HW134406   4.727   3.854  13.923  1.3259  0.7434  1.7288
 7591SOL    HW234407   0.069   3.912  13.810 -0.4187 -2.2978  0.8654
 7592SOL     OW34408   0.037   2.361   9.639 -0.6490  0.3723  0.9369
 7592SOL    HW134409   0.077   2.443   9.609  1.2133 -0.5621  0.8526
 7592SOL    HW234410   4.712   2.335   9.576  1.3043 -0.5199 -0.7204
 7593SOL     OW34411   1.180   0.484   1.891  0.7325  0.0147  0.2370
 7593SOL    HW134412   1.146   0.398   1.916 -0.1730 -0.3268 -2.1451
 7593SOL    HW234413   1.221   0.510   1.973 -1.1726 -1.4646  1.6577
 7594SOL     OW34414   3.246   4.253  11.677  0.2354  0.3501  0.5641
 7594SOL    HW134415   3.301   4.199  11.734  0.0973  1.4977  1.7787
 7594SOL    HW234416   3.305   4.327  11.664  1.2899 -0.4556  0.7959
 7595SOL     OW34417   4.428   0.607   1.574  0.5793  0.1132  0.1908
 7595SOL    HW134418   4.480   0.664   1.518  1.3030 -0.3745  0.3541
 7595SOL    HW234419   4.392   0.667   1.639  0.6642  1.5338 -1.0777
 7596SOL     OW34420   4.517   4.217   8.660 -0.1220 -0.1360  0.0131
 7596SOL    HW134421   4.575   4.268   8.716 -0.2935  0.2151 -0.1283
 7596SOL    HW234422   4.429   4.250   8.682 -0.8086 -2.3095  0.5320
 7597SOL     OW34423   3.753   3.398   5.078  0.0474 -0.0225 -0.0755
 7597SOL    HW134424   3.759   3.396   5.174  0.8902  0.0847 -0.1305
 7597SOL    HW234425   3.837   3.364   5.050 -1.2140 -0.1526 -3.6799
 7598SOL     OW34426   0.592   1.010   7.134 -0.5165  0.3394  0.0029
 7598SOL    HW134427   0.576   0.997   7.041 -0.6512 -0.5303  0.1404
 7598SOL    HW234428   0.636   1.094   7.136  4.6789 -2.3261 -2.0702
 7599SOL     OW34429   0.005   4.447   3.123  0.1643 -0.1248  0.1022
 7599SOL    HW134430   0.023   4.525   3.175  0.0365 -2.2199  3.2577
 7599SOL    HW234431   0.047   4.477   3.042 -2.0642  0.2158 -0.9343
 7600SOL     OW34432   1.257   3.860   3.604 -0.2105 -0.1813  0.4307
 7600SOL    HW134433   1.166   3.876   3.630 -0.2487 -1.2460  0.9453
 7600SOL    HW234434   1.299   3.910   3.673  1.9164  0.4479 -1.3165
 7601SOL     OW34435   0.092   2.950   6.114 -0.3333 -0.5482 -0.5362
 7601SOL    HW134436   0.106   2.943   6.208 -0.7449 -0.2345 -0.4501
 7601SOL    HW234437   0.053   2.865   6.096 -0.7873 -0.5302  0.3895
 7602SOL     OW34438   4.318   2.764   1.330  0.4581  0.0743  0.1248
 7602SOL    HW134439   4.318   2.670   1.348 -1.9452 -0.0537 -0.5786
 7602SOL    HW234440   4.313   2.757   1.234  0.6131 -1.3396  0.2205
 7603SOL     OW34441   4.324   2.485   9.110  0.3208  0.1637 -0.0949
 7603SOL    HW134442   4.352   2.394   9.124  1.3117  0.3424 -0.9501
 7603SOL    HW234443   4.298   2.513   9.198 -0.8194 -0.2573 -0.3045
 7604SOL     OW34444   2.914   1.042   6.080  0.3301  0.2351  0.1666
 7604SOL    HW134445   2.949   1.121   6.040 -0.5070  0.0775 -0.8762
 7604SOL    HW234446   2.826   1.050   6.044  1.2333 -1.2549 -2.3859
 7605SOL     OW34447   4.027   2.156  11.794 -0.0910 -0.3317 -0.0417
 7605SOL    HW134448   4.029   2.101  11.715  0.2184 -1.4605  0.7443
 7605SOL    HW234449   4.121   2.163  11.804 -0.1996 -1.5695  1.9376
 7606SOL     OW34450   1.693   3.876   4.132 -0.1842 -0.4101  0.0584
 7606SOL    HW134451   1.704   3.781   4.123  1.2675 -0.2607  0.2213
 7606SOL    HW234452   1.769   3.907   4.084  0.3921 -0.5215  0.8912
 7607SOL     OW34453   1.972   2.861   7.359 -0.0239  0.6118  0.8980
 7607SOL    HW134454   1.968   2.921   7.434  3.3460  1.5285  0.3153
 7607SOL    HW234455   1.954   2.922   7.287 -1.6796  0.0686  0.8616
 7608SOL     OW34456   2.530   0.278   6.845  0.1071  0.1142 -0.5111
 7608SOL    HW134457   2.592   0.260   6.774  0.9859 -0.1122  0.3212
 7608SOL    HW234458   2.450   0.233   6.819  0.0387  1.1331 -2.0955
 7609SOL     OW34459   2.308   2.049   2.256  0.1609  0.2596 -0.1022
 7609SOL    HW134460   2.274   2.122   2.307 -1.5579 -1.1571  0.7463
 7609SOL    HW234461   2.400   2.076   2.246  0.3009 -0.3594 -0.4789
 7610SOL     OW34462   3.013   3.518   8.251  0.0472  0.0482  0.4070
 7610SOL    HW134463   3.015   3.541   8.158 -0.8491 -0.6655  0.2064
 7610SOL    HW234464   2.922   3.543   8.261 -0.2719 -0.5815 -0.9796
 7611SOL     OW34465   3.275   1.170   5.536  0.3925  0.4983 -0.2676
 7611SOL    HW134466   3.225   1.118   5.473  0.2568 -0.7470  0.8479
 7611SOL    HW234467   3.360   1.128   5.525  0.2657  0.8525 -2.4876
 7612SOL     OW34468   4.719   0.146   4.794 -0.4039  0.1336  0.3267
 7612SOL    HW134469   0.020   0.080   4.849 -0.4671 -2.2715 -2.5187
 7612SOL    HW234470   0.057   0.177   4.751 -1.0411 -0.5595 -1.3362
 7613SOL     OW34471   0.185   2.951   3.881  0.5193 -0.1896  0.0681
 7613SOL    HW134472   0.279   2.953   3.861  0.3378  1.9272 -0.5251
 7613SOL    HW234473   0.164   3.020   3.819 -1.5298  0.1098  1.1147
 7614SOL     OW34474   1.483   1.417   2.226  0.5044 -0.1086 -0.1121
 7614SOL    HW134475   1.477   1.359   2.150 -1.2105  0.4177 -0.3774
 7614SOL    HW234476   1.576   1.416   2.248 -0.0425  0.0164  2.1768
 7615SOL     OW34477   0.350   3.773   7.541 -0.8254 -0.6481 -0.3413
 7615SOL    HW134478   0.397   3.700   7.500  0.9776  0.0437  0.4956
 7615SOL    HW234479   0.306   3.724   7.610 -0.9267  0.5333  0.4197
 7616SOL     OW34480   0.360   2.135   3.436  0.3603  0.3003 -0.4684
 7616SOL    HW134481   0.368   2.183   3.354  2.7073 -0.9167 -0.9466
 7616SOL    HW234482   0.452   2.114   3.449  0.4415  0.3648 -0.9584
 7617SOL     OW34483   4.043   3.248   1.855  0.6050  0.1165 -0.8426
 7617SOL    HW134484   4.133   3.215   1.866 -0.5462 -1.9773  2.1603
 7617SOL    HW234485   3.995   3.175   1.894 -1.5930  1.3589 -1.2295
 7618SOL     OW34486   0.383   1.138  17.361  0.2198  0.2745  0.0064
 7618SOL    HW134487   0.432   1.214  17.332 -0.3596  1.5356  2.3673
 7618SOL    HW234488   0.444   1.065  17.369 -1.0483 -0.3669  3.5380
 7619SOL     OW34489   4.016   3.316  12.321  0.1292 -0.0786  0.5055
 7619SOL    HW134490   4.078   3.328  12.393 -1.4574  0.3303  1.7921
 7619SOL    HW234491   4.075   3.270  12.261  0.9617  2.0196 -0.2773
 7620SOL     OW34492   0.071   4.043   6.029 -0.7048 -0.1825  0.6025
 7620SOL    HW134493   0.138   4.110   6.018 -0.5046 -0.2446  1.4320
 7620SOL    HW234494   0.002   4.071   5.969  0.6549  2.2730  0.2064
 7621SOL     OW34495   1.733   2.042   7.939 -0.4301 -0.1215  0.3832
 7621SOL    HW134496   1.742   2.073   7.849  0.0784 -1.1076  0.1047
 7621SOL    HW234497   1.826   2.026   7.950  0.0314  0.5999 -2.5741
 7622SOL     OW34498   2.167   0.918   3.143  0.2694  0.0805  0.3567
 7622SOL    HW134499   2.091   0.890   3.195 -0.4036 -0.7569 -1.0842
 7622SOL    HW234500   2.143   1.007   3.117 -0.0457 -0.1277 -0.0566
 7623SOL     OW34501   4.394   0.076   0.542  0.1365  0.1432  0.0492
 7623SOL    HW134502   4.451   0.142   0.502 -0.4651  1.2469  1.0123
 7623SOL    HW234503   4.454   0.019   0.591 -0.3168 -0.1209  0.2934
 7624SOL     OW34504   0.254   4.652  12.918 -0.4226  0.1882  0.3561
 7624SOL    HW134505   0.348   4.668  12.904 -0.3151 -1.0307 -0.2277
 7624SOL    HW234506   0.242   4.711  12.993 -1.9695 -1.8903  1.7381
 7625SOL     OW34507   3.221   1.298   3.084  0.2843  0.4508  0.3760
 7625SOL    HW134508   3.274   1.323   3.161 -2.0012 -1.7441  2.6552
 7625SOL    HW234509   3.239   1.376   3.032 -0.0737 -0.3110 -0.8734
 7626SOL     OW34510   2.231   2.843   4.576 -0.5320  0.0380 -0.6668
 7626SOL    HW134511   2.182   2.761   4.573 -2.4708  1.1370  1.0253
 7626SOL    HW234512   2.176   2.896   4.518 -0.1653  1.0416 -0.0909
 7627SOL     OW34513   1.319   2.330   3.097  0.0641  0.4515  0.1489
 7627SOL    HW134514   1.369   2.308   3.175  1.2393  1.9899 -0.1723
 7627SOL    HW234515   1.382   2.309   3.029  0.8156  0.5099  0.8347
 7628SOL     OW34516   1.146   2.667   9.533 -0.3295 -0.5754 -0.1348
 7628SOL    HW134517   1.188   2.641   9.451 -0.0927 -4.1602  1.1305
 7628SOL    HW234518   1.221   2.709   9.575 -1.3579 -0.8416  1.9857
 7629SOL     OW34519   3.199   0.200   7.284  0.1917 -0.0661  0.3640
 7629SOL    HW134520   3.240   0.125   7.241 -1.3391  0.1828 -1.4764
 7629SOL    HW234521   3.249   0.205   7.366 -1.4922  0.7337  1.3233
 7630SOL     OW34522   0.204   4.256   2.641  0.5734  0.7216 -0.1611
 7630SOL    HW134523   0.142   4.227   2.708  0.5655  0.6833 -0.1852
 7630SOL    HW234524   0.275   4.194   2.658  0.2559  0.3375 -0.2235
 7631SOL     OW34525   3.441   4.331   9.144  0.0840 -0.4478 -0.0650
 7631SOL    HW134526   3.491   4.274   9.086 -2.0753  1.2539 -3.6404
 7631SOL    HW234527   3.423   4.265   9.211 -1.4783 -0.5813 -0.5972
 7632SOL     OW34528   0.447   3.871   6.670  0.5341 -0.2791 -0.6893
 7632SOL    HW134529   0.510   3.816   6.624 -0.5567 -0.4606 -1.9803
 7632SOL    HW234530   0.369   3.850   6.617  0.3184 -0.9264 -0.1144
 7633SOL     OW34531   2.323   1.966  13.908  0.5807 -1.0305 -0.3454
 7633SOL    HW134532   2.368   2.042  13.871 -1.0423  0.1481  0.1064
 7633SOL    HW234533   2.233   1.991  13.890  1.0986  2.2416  1.6123
 7634SOL     OW34534   4.378   3.852   7.690 -0.0845  0.3942 -0.1516
 7634SOL    HW134535   4.314   3.831   7.623  0.0391  0.4933 -0.2992
 7634SOL    HW234536   4.349   3.794   7.761 -1.2937  2.1109  0.7512
 7635SOL     OW34537   2.870   0.073   6.762  0.0221  0.4270  0.7178
 7635SOL    HW134538   2.929   0.005   6.795 -0.1362 -0.4996 -0.9066
 7635SOL    HW234539   2.802   0.076   6.830 -0.4559  0.1426  0.2537
 7636SOL     OW34540   2.750   2.723   9.884  0.0968  0.8587  0.4111
 7636SOL    HW134541   2.656   2.724   9.867  0.3388 -0.4103 -1.0049
 7636SOL    HW234542   2.782   2.651   9.830 -0.3659  0.9670 -0.0014
 7637SOL     OW34543   3.346   1.744   3.606 -0.8873  0.5902  0.3317
 7637SOL    HW134544   3.295   1.683   3.660 -0.3882  0.7882  1.0246
 7637SOL    HW234545   3.280   1.777   3.544  0.3438  0.8011 -0.8728
 7638SOL     OW34546   4.239   4.705   0.354  0.9141  0.1266 -0.4170
 7638SOL    HW134547   4.286   0.024   0.413  0.6619 -0.7044  0.6258
 7638SOL    HW234548   4.304   4.635   0.358 -0.0666 -0.6647  1.5836
 7639SOL     OW34549   3.283   2.390   2.601  0.2863 -0.8124  0.4621
 7639SOL    HW134550   3.224   2.320   2.573  0.6650 -0.7968 -0.3803
 7639SOL    HW234551   3.218   2.453   2.631  1.2086  0.5035 -0.2973
 7640SOL     OW34552   3.863   2.215   8.177  0.1012 -0.1415  0.4520
 7640SOL    HW134553   3.906   2.146   8.228  1.5052  0.6337  0.3192
 7640SOL    HW234554   3.925   2.284   8.202  0.6047 -0.4521  0.0515
 7641SOL     OW34555   1.305   3.255   2.985 -0.8765  0.6039  0.6050
 7641SOL    HW134556   1.260   3.282   3.065  1.1555  0.7647  1.6853
 7641SOL    HW234557   1.241   3.203   2.936 -1.4518  2.2589 -0.3939
 7642SOL     OW34558   1.816   4.112   9.572  0.2577  0.5472  0.1549
 7642SOL    HW134559   1.813   4.029   9.524  1.0999  0.6832 -0.1363
 7642SOL    HW234560   1.727   4.149   9.571 -0.0911 -0.2964  0.0591
 7643SOL     OW34561   4.716   0.377   2.471  0.1102 -0.5308 -0.6088
 7643SOL    HW134562   0.030   0.327   2.532  0.5211 -0.1781 -0.6902
 7643SOL    HW234563   4.634   0.347   2.510  1.8282 -1.4104  2.2633
 7644SOL     OW34564   2.899   4.164   5.705  0.2584 -0.4090  0.2706
 7644SOL    HW134565   2.938   4.089   5.748 -0.9770 -0.2417  1.6795
 7644SOL    HW234566   2.811   4.164   5.744 -0.1137  1.1683 -0.5283
 7645SOL     OW34567   0.895   2.766   1.999  0.3637 -0.0722 -0.2018
 7645SOL    HW134568   0.958   2.698   1.976 -1.4208 -1.9671  0.5240
 7645SOL    HW234569   0.810   2.733   1.971 -0.2887  0.9460  0.5894
 7646SOL     OW34570   0.779   1.563   5.225 -0.2039  0.3201 -0.3976
 7646SOL    HW134571   0.712   1.574   5.292 -0.0034 -0.0054 -0.1450
 7646SOL    HW234572   0.732   1.525   5.151 -0.6747 -0.8806  0.5135
 7647SOL     OW34573   3.178   3.342   3.968 -0.5655  0.0455 -0.0341
 7647SOL    HW134574   3.101   3.381   3.927  0.6749 -0.1704 -2.5452
 7647SOL    HW234575   3.184   3.409   4.036 -0.9272  0.6879 -0.6291
 7648SOL     OW34576   4.455   0.318   7.894 -0.5535 -0.3791  0.2348
 7648SOL    HW134577   4.446   0.411   7.913  0.7244  0.0702 -1.3396
 7648SOL    HW234578   4.367   0.293   7.867 -0.6080 -2.3939  2.2121
 7649SOL     OW34579   4.503   1.185   5.058  0.0862  1.1166  0.6144
 7649SOL    HW134580   4.451   1.262   5.082 -0.4269  1.8211 -2.8539
 7649SOL    HW234581   4.453   1.118   5.105 -2.4546  2.3908 -0.3263
 7650SOL     OW34582   2.033   2.942   4.960 -0.1693  0.5185 -0.2793
 7650SOL    HW134583   2.011   2.895   5.041 -2.1724  1.2560 -0.3848
 7650SOL    HW234584   1.955   2.918   4.909  0.3761  2.6695 -2.1443
 7651SOL     OW34585   1.676   0.847   2.587  0.3683  0.0394  0.9163
 7651SOL    HW134586   1.730   0.823   2.662  1.2550 -1.1955 -0.1211
 7651SOL    HW234587   1.586   0.844   2.621 -0.1363  1.5355 -0.3261
 7652SOL     OW34588   3.493   4.405  10.127 -0.5015 -0.9071  0.7358
 7652SOL    HW134589   3.483   4.311  10.114 -2.7029 -0.5530 -0.1600
 7652SOL    HW234590   3.581   4.407  10.163 -0.9227 -0.1977  1.7564
 7653SOL     OW34591   3.082   4.498   2.265  0.4436 -0.6807  0.0322
 7653SOL    HW134592   3.150   4.561   2.289  0.5515 -0.8154  0.0808
 7653SOL    HW234593   3.039   4.540   2.190 -1.5877 -3.4785 -0.3629
 7654SOL     OW34594   0.161   2.689   6.856 -0.1016 -0.1762 -0.0369
 7654SOL    HW134595   0.199   2.773   6.881 -0.0034  0.0118 -0.8346
 7654SOL    HW234596   0.196   2.626   6.919 -1.8192  0.9507  2.0123
 7655SOL     OW34597   0.210   1.408  14.643 -0.2204  0.0510 -0.0260
 7655SOL    HW134598   0.277   1.454  14.593  1.0000 -2.1622 -0.4215
 7655SOL    HW234599   0.152   1.391  14.569  1.1708  0.5541 -1.2452
 7656SOL     OW34600   3.963   4.735   3.597 -0.3212  0.3651 -0.0798
 7656SOL    HW134601   4.039   0.044   3.625 -0.7148 -0.1404  1.8716
 7656SOL    HW234602   3.900   0.066   3.607  1.4490  1.5112  2.7562
 7657SOL     OW34603   2.826   2.502   8.777 -0.5371 -0.1990 -0.0964
 7657SOL    HW134604   2.876   2.551   8.842 -1.5734  0.1668  0.4251
 7657SOL    HW234605   2.745   2.554   8.774 -1.0857 -0.8853  3.0381
 7658SOL     OW34606   2.055   3.571  11.593  0.1611  0.1520  0.2766
 7658SOL    HW134607   2.025   3.480  11.598 -1.6439  0.8430  2.1029
 7658SOL    HW234608   1.994   3.611  11.530 -0.9076 -1.9924 -0.0805
 7659SOL     OW34609   4.318   0.222   1.096 -0.0276 -0.1015  0.0578
 7659SOL    HW134610   4.225   0.221   1.076  0.1876 -0.3926 -0.9273
 7659SOL    HW234611   4.312   0.167   1.174 -0.5186  1.4416  1.1126
 7660SOL     OW34612   3.764   4.301   4.362 -0.1010  0.8392 -0.5575
 7660SOL    HW134613   3.837   4.340   4.410  0.5932  0.5345 -1.3801
 7660SOL    HW234614   3.746   4.229   4.423  0.9911 -2.0627 -3.6818
 7661SOL     OW34615   0.282   2.056  16.331  0.2207  0.0242 -0.2731
 7661SOL    HW134616   0.339   2.032  16.403 -2.7808 -1.1302  1.7173
 7661SOL    HW234617   0.306   2.148  16.323 -0.2993  0.3238  1.6515
 7662SOL     OW34618   1.797   4.342   4.191  0.2665  0.3607 -0.0840
 7662SOL    HW134619   1.830   4.363   4.278 -0.2097  2.2607 -0.3683
 7662SOL    HW234620   1.705   4.317   4.195  0.5511 -0.6387  0.2035
 7663SOL     OW34621   4.148   2.634   5.022  0.1527  0.4753  0.2375
 7663SOL    HW134622   4.088   2.708   5.031 -0.7797 -0.5302  2.3202
 7663SOL    HW234623   4.218   2.681   4.978 -0.1330 -0.2986 -1.0417
 7664SOL     OW34624   3.987   4.601   2.200  0.1824  0.7755 -0.3337
 7664SOL    HW134625   3.945   4.558   2.275 -3.0352  0.0284 -2.5840
 7664SOL    HW234626   3.914   4.623   2.142 -1.8946  0.4180  2.1276
 7665SOL     OW34627   1.251   4.724   4.174 -0.5807  0.1699 -0.0316
 7665SOL    HW134628   1.315   4.683   4.115 -1.5309  0.7024 -1.4444
 7665SOL    HW234629   1.223   4.653   4.230  0.1486 -0.1871 -0.1167
 7666SOL     OW34630   1.019   0.616   1.270  0.6998  0.3171 -0.5273
 7666SOL    HW134631   0.975   0.663   1.198  0.1250  0.0130 -0.3741
 7666SOL    HW234632   1.061   0.550   1.215 -0.9704  1.0587 -2.7359
 7667SOL     OW34633   1.244   0.680   9.166  0.2041 -0.3260  0.0140
 7667SOL    HW134634   1.220   0.588   9.172 -1.6399  0.1490  0.2348
 7667SOL    HW234635   1.229   0.697   9.073 -0.3060 -1.0308 -0.0345
 7668SOL     OW34636   1.977   1.467   8.128  0.2705 -0.2809  0.1250
 7668SOL    HW134637   1.913   1.429   8.068 -0.2999 -1.9531  1.8161
 7668SOL    HW234638   1.966   1.562   8.123  0.3624 -0.3460 -1.2991
 7669SOL     OW34639   2.700   0.013  17.589 -0.0491  0.1460 -0.3679
 7669SOL    HW134640   2.712   0.083  17.526 -2.5011  0.5670 -0.3685
 7669SOL    HW234641   2.743   4.679  17.547  2.4780  0.6553  1.3360
 7670SOL     OW34642   2.631   3.228  15.289  0.1432 -0.3081  0.7513
 7670SOL    HW134643   2.700   3.292  15.271 -0.1476 -0.5486 -1.2171
 7670SOL    HW234644   2.609   3.199  15.201 -0.8641 -3.7689  2.1404
 7671SOL     OW34645   1.903   2.518   0.099  1.0292 -0.5211  0.1830
 7671SOL    HW134646   1.929   2.519   0.007  1.2808 -0.4512  0.2577
 7671SOL    HW234647   1.973   2.554   0.152  0.7070  2.2902 -1.2930
 7672SOL     OW34648   1.137   2.502   4.324 -0.1885  0.3292 -0.2847
 7672SOL    HW134649   1.085   2.582   4.329  1.0489  1.0434  1.2915
 7672SOL    HW234650   1.226   2.536   4.333 -0.6669  1.1835  1.2624
 7673SOL     OW34651   2.919   3.239   3.712  0.3228  0.5360 -0.4326
 7673SOL    HW134652   2.897   3.152   3.743  2.1060 -0.4288 -1.8842
 7673SOL    HW234653   2.860   3.285   3.773  0.2976 -0.1345  0.0470
 7674SOL     OW34654   4.360   0.872   8.045  0.0844 -0.5484 -0.3244
 7674SOL    HW134655   4.266   0.853   8.053  0.2472 -0.8360  0.9463
 7674SOL    HW234656   4.338   0.933   7.974 -2.1888 -1.1308 -0.1282
 7675SOL     OW34657   4.517   4.541   7.069  0.7554  0.6734  0.2817
 7675SOL    HW134658   4.573   4.479   7.022 -2.3707 -2.4060  0.6323
 7675SOL    HW234659   4.478   4.481   7.133  2.1850  2.1403  2.5246
 7676SOL     OW34660   1.867   3.073  13.468  0.0037 -0.2857 -0.0917
 7676SOL    HW134661   1.830   3.115  13.546 -1.6857 -1.5216 -0.2308
 7676SOL    HW234662   1.816   2.992  13.470 -2.5604  1.3252 -0.0110
 7677SOL     OW34663   0.816   1.382   3.544  0.3395  0.7339  0.4254
 7677SOL    HW134664   0.910   1.390   3.528 -0.2001  1.3708 -2.4618
 7677SOL    HW234665   0.795   1.337   3.462 -0.6985  0.6049  0.7583
 7678SOL     OW34666   3.180   3.780   7.710  0.3165 -0.9392 -0.1698
 7678SOL    HW134667   3.242   3.812   7.645  0.6677 -1.9028 -0.3103
 7678SOL    HW234668   3.189   3.848   7.776 -1.0585 -0.7582 -0.1604
 7679SOL     OW34669   0.910   1.072   8.442  0.2557 -0.1299 -0.1594
 7679SOL    HW134670   0.835   1.093   8.497 -0.5601 -2.5205 -0.3706
 7679SOL    HW234671   0.968   1.148   8.444  0.7568 -0.6238  2.6508
 7680SOL     OW34672   4.360   2.549   8.369  0.2279 -0.7564  0.7681
 7680SOL    HW134673   4.395   2.519   8.285  0.3603  0.4572  0.3763
 7680SOL    HW234674   4.402   2.489   8.430  2.0601  0.0409  0.3051
 7681SOL     OW34675   2.421   2.028   8.745 -0.8895  0.1535 -0.1937
 7681SOL    HW134676   2.477   1.955   8.719  1.7616  1.6612  1.3623
 7681SOL    HW234677   2.427   2.028   8.841 -0.8623 -2.1997 -0.2004
 7682SOL     OW34678   2.930   0.037  13.764 -0.1497 -0.4722  0.1303
 7682SOL    HW134679   2.968   4.690  13.760  1.6627  0.3246 -0.2547
 7682SOL    HW234680   2.837   0.022  13.783 -0.3564 -0.9518 -1.1957
 7683SOL     OW34681   2.356   3.595  11.393 -0.2463 -0.2879  0.0061
 7683SOL    HW134682   2.437   3.616  11.347 -0.8305  0.6442 -0.5856
 7683SOL    HW234683   2.314   3.553  11.319  0.3660  0.1486 -0.5845
 7684SOL     OW34684   3.320   3.051   0.081 -0.3692 -0.3213 -0.3451
 7684SOL    HW134685   3.293   3.136   0.114 -1.0808 -0.6023 -0.2036
 7684SOL    HW234686   3.354   3.009   0.160 -2.9442  0.9221  1.4366
 7685SOL     OW34687   2.474   3.772   6.165 -0.4700  0.0185  0.4746
 7685SOL    HW134688   2.448   3.765   6.073 -0.8228 -2.1819  0.7589
 7685SOL    HW234689   2.500   3.864   6.173 -1.6386  0.3095  0.8772
 7686SOL     OW34690   2.585   1.694   9.764  0.6394 -0.1705  0.0704
 7686SOL    HW134691   2.523   1.664   9.697  2.0807  0.2954 -1.4670
 7686SOL    HW234692   2.645   1.749   9.713  1.5892 -1.5096 -0.2521
 7687SOL     OW34693   1.880   2.098   5.827  0.0750 -0.4238  0.4029
 7687SOL    HW134694   1.856   2.118   5.918 -0.4555 -1.9849  0.5997
 7687SOL    HW234695   1.829   2.020   5.807 -0.4934 -0.1091  0.6093
 7688SOL     OW34696   3.106   2.899  12.633  0.3433 -0.3600  0.0140
 7688SOL    HW134697   3.173   2.849  12.587 -0.1346 -1.1417  0.1518
 7688SOL    HW234698   3.130   2.919  12.723 -0.2680  0.1231  0.0691
 7689SOL     OW34699   2.150   3.585   2.821  0.0452 -0.3569  0.2330
 7689SOL    HW134700   2.207   3.598   2.897 -3.4007 -0.2873  2.8207
 7689SOL    HW234701   2.069   3.632   2.842  0.2015 -0.1196  0.2950
 7690SOL     OW34702   0.548   3.287   7.446  0.4721  0.2597 -0.6149
 7690SOL    HW134703   0.639   3.314   7.434  0.3890  0.3135 -1.1550
 7690SOL    HW234704   0.536   3.219   7.380 -1.6600  0.8327 -0.8316
 7691SOL     OW34705   4.276   1.546   2.510  0.1993 -0.5680  0.1776
 7691SOL    HW134706   4.214   1.484   2.472 -2.6972  1.6024  1.3704
 7691SOL    HW234707   4.338   1.496   2.563  1.1154 -0.6616 -0.9815
 7692SOL     OW34708   3.300   2.462   5.024  0.0015  0.3668  0.4996
 7692SOL    HW134709   3.219   2.512   5.033  0.0843  0.4005  1.0567
 7692SOL    HW234710   3.300   2.457   4.929  0.7948 -0.4223  0.5356
 7693SOL     OW34711   0.585   0.475  15.399  0.4912 -0.3820 -0.1067
 7693SOL    HW134712   0.640   0.437  15.330  1.1052  1.6535 -0.7129
 7693SOL    HW234713   0.598   0.567  15.376  0.7773 -0.5184 -0.4931
 7694SOL     OW34714   4.024   1.082   5.115  0.3189 -0.4395  0.6306
 7694SOL    HW134715   4.034   1.174   5.092 -0.2547 -0.9620 -1.6456
 7694SOL    HW234716   4.021   1.053   5.024  0.2319 -0.0266  0.5017
 7695SOL     OW34717   2.381   2.081   7.182  0.1562  0.0617  0.0460
 7695SOL    HW134718   2.436   2.115   7.111 -0.2098 -0.8161 -0.6693
 7695SOL    HW234719   2.424   1.998   7.202  1.7268  1.6396  3.1493
 7696SOL     OW34720   0.678   4.665  17.430  0.1992  0.0408 -0.7061
 7696SOL    HW134721   0.598   4.645  17.478 -0.2780 -2.3134 -2.4847
 7696SOL    HW234722   0.634   4.713  17.361  0.5010 -0.6928 -1.4110
 7697SOL     OW34723   1.587   3.592   6.609 -0.4120 -0.1533 -0.0164
 7697SOL    HW134724   1.587   3.602   6.514 -2.6259  2.5671  0.2691
 7697SOL    HW234725   1.495   3.570   6.620 -1.7386  4.7240 -1.1727
 7698SOL     OW34726   1.021   2.515   1.041  0.6619 -0.4945 -0.6966
 7698SOL    HW134727   0.933   2.478   1.040  0.8314 -0.9420  1.0680
 7698SOL    HW234728   1.011   2.559   0.956  2.3265 -1.9528 -1.6539
 7699SOL     OW34729   0.839   3.294   8.484 -0.2462  0.6597 -0.0944
 7699SOL    HW134730   0.845   3.387   8.463  1.0071  0.0606 -2.4493
 7699SOL    HW234731   0.845   3.298   8.579 -1.4807 -0.0948  0.0178
 7700SOL     OW34732   0.283   3.864   7.250  0.2468  0.4383 -0.5080
 7700SOL    HW134733   0.188   3.851   7.255  0.4142 -1.2314 -1.6109
 7700SOL    HW234734   0.297   3.824   7.336  0.4597  0.4713 -0.5276
 7701SOL     OW34735   1.486   0.623   7.336  0.6668 -0.3703 -0.4128
 7701SOL    HW134736   1.548   0.653   7.403  0.9173 -0.2675 -0.6921
 7701SOL    HW234737   1.459   0.709   7.303  0.3464  0.0629  0.9671
 7702SOL     OW34738   3.682   1.629   6.853  0.1429  0.4464  1.0576
 7702SOL    HW134739   3.665   1.559   6.917 -1.4991  0.3077  0.4756
 7702SOL    HW234740   3.606   1.685   6.871  0.6636  1.2059  0.8703
 7703SOL     OW34741   2.991   2.445  10.501  0.2288 -0.1796  0.3835
 7703SOL    HW134742   2.926   2.501  10.458 -0.0676 -1.1737 -0.4590
 7703SOL    HW234743   2.934   2.383  10.545  1.4539  1.0665  3.7083
 7704SOL     OW34744   0.101   1.154   1.018 -0.8994  0.0070 -0.2278
 7704SOL    HW134745   0.041   1.128   1.088  0.2433 -1.3774  0.2151
 7704SOL    HW234746   0.164   1.083   1.009  1.0967  1.5503  1.9157
 7705SOL     OW34747   3.676   4.012  16.295  0.1853  0.0511  0.3687
 7705SOL    HW134748   3.680   4.035  16.202 -0.9031 -0.0609  0.2999
 7705SOL    HW234749   3.760   4.038  16.333 -1.0878  0.3656  2.9210
 7706SOL     OW34750   2.194   3.173  17.509 -0.0498  0.1551 -0.0679
 7706SOL    HW134751   2.155   3.226  17.578 -2.2457 -1.9024  0.2613
 7706SOL    HW234752   2.286   3.164  17.534  0.1649 -2.2785 -1.6670
 7707SOL     OW34753   3.223   2.101  16.314 -0.7027 -0.5730  0.1044
 7707SOL    HW134754   3.162   2.037  16.275 -1.8485  0.4682  0.1854
 7707SOL    HW234755   3.260   2.037  16.375 -1.4242 -0.9794  0.1276
 7708SOL     OW34756   4.621   1.117   6.037 -0.0751 -0.4665  0.1450
 7708SOL    HW134757   4.594   1.113   5.946 -1.2218  2.4379  0.3743
 7708SOL    HW234758   4.679   1.193   6.044 -1.5813  0.5843  1.2631
 7709SOL     OW34759   3.583   2.415   3.785  0.2372 -0.0849  0.2774
 7709SOL    HW134760   3.675   2.406   3.760  0.1295 -1.0774  0.2275
 7709SOL    HW234761   3.538   2.365   3.717  0.0117  0.5903 -0.0691
 7710SOL     OW34762   2.889   2.275   5.852 -0.0907 -0.0475  0.0038
 7710SOL    HW134763   2.878   2.364   5.885 -0.2583 -0.1953  0.3535
 7710SOL    HW234764   2.920   2.234   5.932 -0.4913 -0.0470  0.1608
 7711SOL     OW34765   1.160   2.933   6.095 -0.1264  0.0779 -0.3875
 7711SOL    HW134766   1.124   2.974   6.174 -1.0675 -1.4535 -0.0303
 7711SOL    HW234767   1.210   2.861   6.132 -0.4895  0.7974  1.4915
 7712SOL     OW34768   4.692   1.798   6.310  0.4925 -0.6068 -0.1058
 7712SOL    HW134769   4.740   1.862   6.257  0.8195 -0.1755  0.7102
 7712SOL    HW234770   4.719   1.825   6.398 -1.2138 -1.5171  0.6889
 7713SOL     OW34771   4.148   1.686   6.803  0.1125 -0.3268  0.1231
 7713SOL    HW134772   4.155   1.687   6.707 -0.4800 -2.4823  0.0633
 7713SOL    HW234773   4.069   1.632   6.806 -0.1137 -0.0090 -0.1175
 7714SOL     OW34774   1.383   0.294  11.004  0.3681 -0.2133 -0.1943
 7714SOL    HW134775   1.471   0.320  11.029  0.5522 -1.3099  0.3188
 7714SOL    HW234776   1.329   0.332  11.073  0.8266 -1.5919  0.9275
 7715SOL     OW34777   3.450   4.143   7.545  0.2173 -0.0178  0.3282
 7715SOL    HW134778   3.369   4.188   7.520  1.1189  0.3425 -1.8643
 7715SOL    HW234779   3.517   4.159   7.479  1.6833  1.9196  2.3117
 7716SOL     OW34780   0.463   3.786   8.749 -0.0716 -0.5698  0.4795
 7716SOL    HW134781   0.401   3.731   8.701  0.1815 -0.2214 -0.2433
 7716SOL    HW234782   0.422   3.783   8.836 -1.8047  0.6067 -0.3014
 7717SOL     OW34783   0.080   0.946  16.613 -0.2330 -0.4259 -0.0610
 7717SOL    HW134784   0.119   1.020  16.661  0.6770 -0.4179 -0.8098
 7717SOL    HW234785   0.083   0.882  16.684  0.9883  1.6886  1.8017
 7718SOL     OW34786   2.797   0.660   7.407  0.4379  0.3971  0.2740
 7718SOL    HW134787   2.762   0.705   7.330 -0.5908 -0.7609  0.0537
 7718SOL    HW234788   2.824   0.576   7.369  0.0267  0.4837 -0.2107
 7719SOL     OW34789   4.529   2.517   0.524  0.4691  0.0395  0.4912
 7719SOL    HW134790   4.443   2.527   0.566 -0.1408  0.1366 -0.7947
 7719SOL    HW234791   4.500   2.460   0.454 -0.9209  0.5823  0.6300
 7720SOL     OW34792   2.826   0.695   9.881 -0.0229 -0.0680 -0.5082
 7720SOL    HW134793   2.890   0.686   9.810  1.5774  0.1099  0.8946
 7720SOL    HW234794   2.810   0.789   9.885 -0.5140 -0.2193  1.1844
 7721SOL     OW34795   4.675   2.201   5.818 -0.1910 -0.3246  0.1323
 7721SOL    HW134796   4.611   2.136   5.848 -0.7123 -0.0871 -0.4763
 7721SOL    HW234797   4.616   2.265   5.778  0.1677  0.4496  0.8546
 7722SOL     OW34798   3.458   3.887  15.981  0.6340 -0.2096  0.1851
 7722SOL    HW134799   3.475   3.842  15.899  1.5647  1.2282 -0.4210
 7722SOL    HW234800   3.539   3.867  16.028  1.0752 -0.0842 -0.5285
 7723SOL     OW34801   2.485   1.952   4.785 -0.2883  0.0700 -0.2952
 7723SOL    HW134802   2.415   1.952   4.720  0.9552  1.5215 -1.6319
 7723SOL    HW234803   2.530   1.869   4.769  1.3533  0.8934  0.0951
 7724SOL     OW34804   3.864   1.560   5.573  0.2116  0.4899  0.0849
 7724SOL    HW134805   3.839   1.635   5.627  2.1077  0.2926  1.2230
 7724SOL    HW234806   3.836   1.490   5.632  0.2192  1.2822  1.0248
 7725SOL     OW34807   1.802   2.712   4.289  0.3877 -0.1889  0.3131
 7725SOL    HW134808   1.754   2.789   4.320 -1.9311 -1.5020  0.0704
 7725SOL    HW234809   1.841   2.669   4.365  1.4153  0.4242  0.1194
 7726SOL     OW34810   4.408   3.710   4.626  0.3824  0.5179 -0.0685
 7726SOL    HW134811   4.321   3.711   4.666  1.0084  1.8072  1.2632
 7726SOL    HW234812   4.385   3.764   4.550 -1.2782 -1.4503 -0.9582
 7727SOL     OW34813   2.606   1.845   2.441  0.0563  0.2741 -0.6227
 7727SOL    HW134814   2.685   1.898   2.431  0.7129 -0.7327 -0.7324
 7727SOL    HW234815   2.544   1.908   2.478  2.3482  2.1071  0.1328
 7728SOL     OW34816   3.823   1.880   7.697 -0.1882 -0.1247 -0.2238
 7728SOL    HW134817   3.886   1.808   7.694  0.7460  0.6378  1.0419
 7728SOL    HW234818   3.810   1.876   7.791 -1.4810 -0.2820 -0.4114
 7729SOL     OW34819   3.737   2.166   3.049 -0.2715 -0.1075  0.6970
 7729SOL    HW134820   3.783   2.108   3.109 -1.2602  0.2760  1.8386
 7729SOL    HW234821   3.703   2.103   2.986  0.5219  0.8745 -0.7100
 7730SOL     OW34822   3.263   1.745   1.603  0.9592 -0.5522 -0.5240
 7730SOL    HW134823   3.312   1.785   1.532  1.2825 -1.9348 -1.0883
 7730SOL    HW234824   3.276   1.809   1.673 -2.3684  0.1536 -0.5570
 7731SOL     OW34825   3.142   3.678  15.365  0.1518 -0.2067  0.4235
 7731SOL    HW134826   3.232   3.646  15.369  0.2251 -0.0674 -0.1275
 7731SOL    HW234827   3.126   3.707  15.455 -4.1963  0.4476 -0.5216
 7732SOL     OW34828   4.707   1.149  14.743 -0.2626 -0.4219 -0.2056
 7732SOL    HW134829   0.013   1.156  14.660  0.2283  0.1461  0.1238
 7732SOL    HW234830   4.684   1.056  14.745  0.8720 -0.6740  1.0557
 7733SOL     OW34831   2.648   2.897   9.507 -0.3131 -0.4850 -0.3831
 7733SOL    HW134832   2.687   2.814   9.534  5.8407  1.6467 -2.7199
 7733SOL    HW234833   2.609   2.926   9.590  0.2645 -2.1893  0.4954
 7734SOL     OW34834   3.113   4.571  15.409 -0.1841 -0.1478  0.1675
 7734SOL    HW134835   3.022   4.554  15.384 -0.0732 -0.1105 -0.2659
 7734SOL    HW234836   3.154   4.506  15.351  2.1785  0.9302  0.6539
 7735SOL     OW34837   0.772   3.359  14.643  0.7349 -0.1524  0.0771
 7735SOL    HW134838   0.864   3.341  14.624  1.3681  1.1524  1.9377
 7735SOL    HW234839   0.777   3.455  14.641 -1.4654 -0.0259  0.8910
 7736SOL     OW34840   3.905   0.317  11.629 -0.3654  0.7415 -0.2026
 7736SOL    HW134841   3.928   0.386  11.692  1.4412  1.0185 -1.1706
 7736SOL    HW234842   3.861   0.373  11.565  0.6612  0.8516 -0.8104
 7737SOL     OW34843   1.094   0.999  16.060 -0.4087  0.4525 -0.3049
 7737SOL    HW134844   1.004   1.017  16.088 -0.4413 -1.5820  0.8375
 7737SOL    HW234845   1.073   0.939  15.988  2.2061 -1.3687  0.4558
 7738SOL     OW34846   0.542   2.869   8.031 -0.1090 -0.0728 -0.2222
 7738SOL    HW134847   0.620   2.882   7.978 -0.2939  1.0877 -0.2226
 7738SOL    HW234848   0.592   2.847   8.110 -0.9687 -2.4447 -0.3460
 7739SOL     OW34849   1.574   3.864   9.692  0.2650  0.2715  0.3757
 7739SOL    HW134850   1.539   3.948   9.722 -0.9404 -0.3795  0.8003
 7739SOL    HW234851   1.611   3.880   9.605  1.0064  1.1104  0.8405
 7740SOL     OW34852   0.699   4.646  17.722 -0.0683 -0.0656  0.3377
 7740SOL    HW134853   0.638   4.575  17.700  1.0619 -1.1789  0.8181
 7740SOL    HW234854   0.749   4.597   0.025  1.9202  0.4878 -0.7913
 7741SOL     OW34855   2.165   2.706   2.139 -0.2749 -0.7327  0.1906
 7741SOL    HW134856   2.132   2.740   2.057 -0.1096 -1.0876 -0.0243
 7741SOL    HW234857   2.261   2.709   2.135 -0.4628  3.2413 -1.1829
 7742SOL     OW34858   2.644   4.103   5.814 -0.5245  0.5970 -0.2299
 7742SOL    HW134859   2.560   4.057   5.810  0.3809 -1.1622  0.9937
 7742SOL    HW234860   2.622   4.160   5.887 -0.8157  2.5319 -1.8325
 7743SOL     OW34861   0.906   2.620   4.701  0.5787 -0.7366  0.1951
 7743SOL    HW134862   0.937   2.554   4.638  1.0343 -0.2092 -0.1257
 7743SOL    HW234863   0.825   2.583   4.736  1.4388 -2.0348  0.8260
 7744SOL     OW34864   3.905   1.968   1.564 -0.1082  0.7961  0.3340
 7744SOL    HW134865   3.957   1.919   1.628 -3.1634 -0.5854  1.7439
 7744SOL    HW234866   3.940   1.932   1.482  1.7024 -0.1046  1.5027
 7745SOL     OW34867   3.990   2.844   7.725  0.0363 -0.8089 -0.2044
 7745SOL    HW134868   3.922   2.890   7.676  0.9006  0.1952 -0.4691
 7745SOL    HW234869   3.940   2.814   7.801 -0.2028 -2.9974 -1.2161
 7746SOL     OW34870   4.313   3.099   0.355 -0.5663 -0.2957 -0.8797
 7746SOL    HW134871   4.265   3.027   0.314  0.9858 -2.5151  1.2485
 7746SOL    HW234872   4.302   3.178   0.301  0.8546  1.4603  1.3904
 7747SOL     OW34873   3.398   3.600  15.337 -0.5020  0.1937 -0.3079
 7747SOL    HW134874   3.447   3.518  15.343  0.1067  0.5073 -0.9363
 7747SOL    HW234875   3.442   3.654  15.271  0.0160 -1.2436 -1.1464
 7748SOL     OW34876   4.715   3.972   2.486  0.2633 -0.0318  0.1712
 7748SOL    HW134877   4.645   3.939   2.429 -0.2826 -0.6168  1.1762
 7748SOL    HW234878   0.025   4.025   2.425 -0.1090  0.9858  0.7522
 7749SOL     OW34879   2.319   2.569   8.736 -0.0229  0.4760  0.4117
 7749SOL    HW134880   2.376   2.534   8.668 -1.1102 -1.4281  0.4951
 7749SOL    HW234881   2.349   2.524   8.815 -0.4093 -0.8760 -0.2187
 7750SOL     OW34882   1.749   1.864   5.686 -0.3640 -0.0517 -0.3001
 7750SOL    HW134883   1.674   1.805   5.680 -0.8920  0.6840 -0.9471
 7750SOL    HW234884   1.829   1.811   5.681  0.2236  0.7863  0.0991
 7751SOL     OW34885   3.782   1.700   7.210 -0.2783  0.3923 -0.6521
 7751SOL    HW134886   3.796   1.775   7.151  0.9873 -0.5865 -1.5859
 7751SOL    HW234887   3.781   1.735   7.299 -1.7669 -1.0075 -0.1343
 7752SOL     OW34888   3.452   0.233   7.440  0.6655 -0.1990  0.2048
 7752SOL    HW134889   3.529   0.254   7.387  0.4345 -1.6328 -0.6889
 7752SOL    HW234890   3.488   0.158   7.487 -2.3261 -1.5505  0.3263
 7753SOL     OW34891   2.709   2.936   0.662  0.2046 -0.0685  0.2404
 7753SOL    HW134892   2.687   2.975   0.746 -0.4069 -2.8681  1.3619
 7753SOL    HW234893   2.700   2.845   0.689  2.1680  0.4318  2.5121
 7754SOL     OW34894   2.728   3.741   1.846  0.5161 -0.4051 -0.6292
 7754SOL    HW134895   2.707   3.797   1.772  2.7882  0.3235 -0.7205
 7754SOL    HW234896   2.813   3.781   1.860 -1.0783  1.1127  4.6133
 7755SOL     OW34897   1.184   3.197  15.610 -0.2803  0.0986  0.3005
 7755SOL    HW134898   1.253   3.264  15.613 -0.1270  0.0031 -0.9976
 7755SOL    HW234899   1.141   3.199  15.695 -0.0206  0.4423  0.4279
 7756SOL     OW34900   1.001   3.354  13.292  0.0354 -0.7199 -0.2163
 7756SOL    HW134901   0.993   3.308  13.376 -2.1800 -0.6071 -0.3448
 7756SOL    HW234902   1.086   3.396  13.305  0.6388 -2.1953  0.5825
 7757SOL     OW34903   2.025   0.465   1.313 -0.6260  0.4569  0.6665
 7757SOL    HW134904   2.011   0.467   1.408  3.0653  1.4724  1.1837
 7757SOL    HW234905   1.975   0.387   1.287  1.5503 -1.2849  1.7484
 7758SOL     OW34906   2.663   2.395  12.425 -0.3603  0.5622  0.0645
 7758SOL    HW134907   2.736   2.451  12.452 -0.4907  0.1884  1.2154
 7758SOL    HW234908   2.601   2.448  12.374  0.6470  1.9960  0.3143
 7759SOL     OW34909   2.749   1.124   6.901 -0.0599 -0.1161 -0.0344
 7759SOL    HW134910   2.658   1.154   6.902 -0.5061 -1.4571 -0.6855
 7759SOL    HW234911   2.778   1.121   6.810  0.1882  0.3426  0.0271
 7760SOL     OW34912   1.267   1.440   1.681 -0.2794  0.1751 -0.0586
 7760SOL    HW134913   1.264   1.427   1.776  1.2145  2.0786  0.2297
 7760SOL    HW234914   1.300   1.356   1.648 -0.3204  0.0771  0.1492
 7761SOL     OW34915   0.761   0.305   3.559 -0.2710 -0.0021  0.1564
 7761SOL    HW134916   0.719   0.233   3.605 -1.2357  0.0489 -0.6328
 7761SOL    HW234917   0.787   0.371   3.624 -0.4174  0.9679 -0.7680
 7762SOL     OW34918   2.848   4.511  15.393  0.2286 -0.7181  0.4828
 7762SOL    HW134919   2.858   4.521  15.298  0.0780 -4.3550  0.0864
 7762SOL    HW234920   2.767   4.459  15.392  0.9915 -1.9028  0.0960
 7763SOL     OW34921   0.982   0.360  13.939 -0.0226  0.2052 -0.6016
 7763SOL    HW134922   1.055   0.315  13.981 -1.0622 -1.8105 -0.9272
 7763SOL    HW234923   0.971   0.434  13.997 -2.7159 -0.0575 -0.7642
 7764SOL     OW34924   3.395   2.705  12.875 -0.3320  0.0887  0.0943
 7764SOL    HW134925   3.424   2.681  12.787 -3.3058 -0.6769 -0.6615
 7764SOL    HW234926   3.482   2.707  12.916  0.2177 -0.9236 -1.0232
 7765SOL     OW34927   1.287   3.714   7.649 -1.0504  0.6266  0.3177
 7765SOL    HW134928   1.198   3.692   7.624 -1.2761 -0.6803  2.2241
 7765SOL    HW234929   1.328   3.693   7.565 -1.4552  1.4385 -0.0789
 7766SOL     OW34930   4.329   1.050   7.829  0.1974 -0.4598  0.1047
 7766SOL    HW134931   4.261   1.061   7.762  0.3835 -1.4689 -0.2614
 7766SOL    HW234932   4.406   1.086   7.784 -0.2241  0.6970  0.3158
 7767SOL     OW34933   2.072   0.634   2.616 -0.4280  0.2319  0.0510
 7767SOL    HW134934   2.124   0.604   2.690  0.8584  2.0438 -0.1284
 7767SOL    HW234935   2.079   0.556   2.560 -2.3031 -0.5946  0.9561
 7768SOL     OW34936   2.202   1.850   5.724  0.6287 -0.0783 -0.1816
 7768SOL    HW134937   2.227   1.780   5.784  1.8002  0.7752  0.3395
 7768SOL    HW234938   2.286   1.878   5.687  2.5188 -1.9983  2.6174
 7769SOL     OW34939   1.536   0.871   2.924  0.5882 -0.3047 -0.0238
 7769SOL    HW134940   1.553   0.777   2.929 -1.5949 -0.6716  0.5893
 7769SOL    HW234941   1.505   0.892   3.013  0.1907 -2.0864  0.2584
 7770SOL     OW34942   0.259   4.011   6.873  0.2215 -0.1865 -0.2962
 7770SOL    HW134943   0.206   3.937   6.841  2.4095 -1.3906 -1.1037
 7770SOL    HW234944   0.320   4.016   6.799 -0.8248 -0.2060 -1.1681
 7771SOL     OW34945   0.052   0.878   7.720 -0.4948  0.3086  0.1293
 7771SOL    HW134946   4.706   0.910   7.696 -0.6616 -1.7505 -2.0859
 7771SOL    HW234947   0.066   0.806   7.657  2.4843 -1.6091  2.9647
 7772SOL     OW34948   3.842   3.474  11.872  0.3404  0.3819 -0.5237
 7772SOL    HW134949   3.821   3.425  11.791  0.9134 -0.0647 -0.4001
 7772SOL    HW234950   3.793   3.437  11.945 -0.4097 -0.5225 -1.4764
 7773SOL     OW34951   3.534   2.650  13.500 -0.4944  0.8897 -0.1135
 7773SOL    HW134952   3.518   2.694  13.584 -0.9394  0.6120 -0.0517
 7773SOL    HW234953   3.451   2.616  13.466  0.4998 -0.3592 -1.2666
 7774SOL     OW34954   1.610   0.445   7.946  0.5398 -0.0154 -0.8612
 7774SOL    HW134955   1.609   0.362   7.994 -1.7007  1.5030  1.7612
 7774SOL    HW234956   1.652   0.494   8.017 -1.4547  0.6297 -0.1317
 7775SOL     OW34957   0.226   1.412  15.144 -0.4702  0.0296  0.1746
 7775SOL    HW134958   0.292   1.481  15.132 -1.4631  1.1629  1.1849
 7775SOL    HW234959   0.188   1.404  15.057  0.0571 -0.5048 -0.0052
 7776SOL     OW34960   2.920   1.319   4.427  0.1883  0.5500  0.1049
 7776SOL    HW134961   2.968   1.272   4.496 -0.5630 -1.3839 -0.7041
 7776SOL    HW234962   2.877   1.249   4.379  0.6908 -1.2569  2.2860
 7777SOL     OW34963   2.742   3.224   1.351 -0.3071 -0.3500  0.3295
 7777SOL    HW134964   2.679   3.265   1.293  0.1743  1.4782  1.0694
 7777SOL    HW234965   2.688   3.178   1.415  0.9480 -1.1190  0.8300
 7778SOL     OW34966   1.402   3.241   4.703 -0.2157 -0.4474  0.2633
 7778SOL    HW134967   1.426   3.331   4.724  0.8586 -0.9807  1.2838
 7778SOL    HW234968   1.315   3.235   4.743 -0.5019  0.5192 -0.2335
 7779SOL     OW34969   0.942   0.123   6.257 -0.4788  0.2120 -0.0973
 7779SOL    HW134970   0.884   0.092   6.326 -2.1921  2.3054 -0.5774
 7779SOL    HW234971   0.997   0.182   6.309 -0.8094  0.6382 -0.2226
 7780SOL     OW34972   1.547   1.849   7.752  0.5544  0.5146 -0.5301
 7780SOL    HW134973   1.622   1.906   7.770  0.9733 -0.0667 -0.4279
 7780SOL    HW234974   1.546   1.800   7.834 -0.7149  1.1283 -0.1810
 7781SOL     OW34975   1.175   0.071   1.520  0.3990 -0.3525  0.1290
 7781SOL    HW134976   1.131   0.156   1.511 -1.1026 -1.0570  0.7544
 7781SOL    HW234977   1.231   0.069   1.442 -0.8213 -1.3705 -0.7226
 7782SOL     OW34978   4.514   1.936   2.840 -0.1236  0.2619  0.4042
 7782SOL    HW134979   4.534   1.852   2.798  2.4950  0.6227  0.9261
 7782SOL    HW234980   4.443   1.922   2.903  0.1542 -3.4434 -0.0821
 7783SOL     OW34981   0.474   1.282   2.460 -0.0736  0.3852 -0.1049
 7783SOL    HW134982   0.482   1.320   2.373  0.0547  2.3456  0.7771
 7783SOL    HW234983   0.493   1.189   2.443  4.3635  1.4540 -0.9286
 7784SOL     OW34984   3.941   3.502   7.290 -0.4578  0.1246  0.2386
 7784SOL    HW134985   3.908   3.583   7.328 -1.0487 -0.0483  0.1058
 7784SOL    HW234986   4.029   3.533   7.268  0.3975 -1.2135  1.7364
 7785SOL     OW34987   4.125   1.954   9.550 -0.0432  0.1477  0.0768
 7785SOL    HW134988   4.140   2.016   9.478 -1.9774 -1.4036 -1.6862
 7785SOL    HW234989   4.181   1.986   9.620  0.1086 -0.7383  0.3634
 7786SOL     OW34990   4.335   1.980   5.483  0.6726  0.3347  1.2413
 7786SOL    HW134991   4.248   2.017   5.501 -0.1931 -0.3572 -1.4445
 7786SOL    HW234992   4.365   2.052   5.429 -0.1395 -1.6950 -1.9501
 7787SOL     OW34993   3.882   1.929   7.092 -0.5587  0.3069  0.4112
 7787SOL    HW134994   3.957   1.878   7.061 -0.2836  1.4536 -0.8100
 7787SOL    HW234995   3.935   1.988   7.145 -1.5531  0.5119  1.1692
 7788SOL     OW34996   0.833   3.043   8.151 -0.5010  0.1355  0.3568
 7788SOL    HW134997   0.782   2.990   8.212 -0.5943 -0.0925  0.0804
 7788SOL    HW234998   0.916   2.996   8.162 -0.7110 -0.0092  1.3087
 7789SOL     OW34999   3.604   0.074  13.176 -0.2942  0.0813 -0.6140
 7789SOL    HW135000   3.532   0.041  13.230  0.5152 -0.3023  0.2554
 7789SOL    HW235001   3.606   0.167  13.198  0.6713  0.3690 -1.9411
 7790SOL     OW35002   3.587   3.967   7.961 -0.1329  0.2366 -1.1110
 7790SOL    HW135003   3.576   4.018   8.042 -0.6634 -0.7781 -0.5484
 7790SOL    HW235004   3.595   3.878   7.995 -1.6604  0.5721  0.1130
 7791SOL     OW35005   1.901   2.231   9.145  0.8533 -0.1800 -0.0162
 7791SOL    HW135006   1.833   2.289   9.112  0.2235  0.4991  2.4445
 7791SOL    HW235007   1.979   2.276   9.112  1.7003 -1.0636  0.7578
 7792SOL     OW35008   0.949   0.925   6.535 -0.5120  0.3109 -0.1974
 7792SOL    HW135009   0.917   0.994   6.478 -0.6863 -1.1153 -1.8281
 7792SOL    HW235010   0.880   0.912   6.599  1.7684 -1.9836  1.8356
 7793SOL     OW35011   2.812   1.696   6.232  0.2582  0.2972  0.1019
 7793SOL    HW135012   2.739   1.757   6.220 -0.2161 -0.4286 -0.7226
 7793SOL    HW235013   2.867   1.741   6.167  0.9733  2.0398  1.9161
 7794SOL     OW35014   0.412   1.704   1.960 -0.0345  0.3866 -0.1197
 7794SOL    HW135015   0.346   1.726   2.027 -1.4569  1.7593 -1.9865
 7794SOL    HW235016   0.388   1.615   1.938 -0.9940  0.6585 -0.1695
 7795SOL     OW35017   1.839   1.828   9.444  0.1051  0.1855  0.4971
 7795SOL    HW135018   1.793   1.879   9.511 -0.4235  0.3354  0.0180
 7795SOL    HW235019   1.928   1.861   9.457  0.2695  0.2798 -0.9301
 7796SOL     OW35020   1.340   2.223  12.094  0.0524 -0.1666  0.4060
 7796SOL    HW135021   1.275   2.162  12.062 -1.3059  1.7804 -0.5112
 7796SOL    HW235022   1.425   2.181  12.084 -0.1670 -0.3668 -0.6137
 7797SOL     OW35023   3.613   2.258   6.468 -0.6033  0.0770 -0.0324
 7797SOL    HW135024   3.668   2.247   6.546 -0.1545 -2.3683 -0.6841
 7797SOL    HW235025   3.537   2.207   6.496 -0.2040  0.0197  0.9556
 7798SOL     OW35026   3.915   4.267   3.403 -0.5226 -0.2529  0.3763
 7798SOL    HW135027   3.896   4.270   3.310 -2.4579 -0.1834  0.7724
 7798SOL    HW235028   3.829   4.241   3.435 -0.7597 -0.0420 -0.0951
 7799SOL     OW35029   2.325   3.752   3.527  0.1357  0.1747  0.0894
 7799SOL    HW135030   2.397   3.690   3.512  1.2251  1.4488  0.0067
 7799SOL    HW235031   2.353   3.793   3.610  0.6300 -0.7052  0.3539
 7800SOL     OW35032   1.532   3.641  16.464  0.0766  0.0597 -0.1690
 7800SOL    HW135033   1.445   3.661  16.497 -0.2556 -0.3626 -0.7884
 7800SOL    HW235034   1.569   3.597  16.541  0.4174 -0.6316 -0.7338
 7801SOL     OW35035   1.763   0.469   8.922 -0.0121  0.1379  0.2400
 7801SOL    HW135036   1.795   0.381   8.901 -1.6200  0.1840 -2.4840
 7801SOL    HW235037   1.670   0.455   8.905  0.1634  0.4101 -1.0005
 7802SOL     OW35038   3.276   2.116   1.186 -0.7380 -0.2815  0.3221
 7802SOL    HW135039   3.249   2.053   1.119 -1.1965 -0.6904  0.8900
 7802SOL    HW235040   3.204   2.093   1.245 -1.1661  1.2859  0.4052
 7803SOL     OW35041   2.750   0.027   5.745  0.1678 -0.2913 -0.9553
 7803SOL    HW135042   2.827   4.727   5.783  1.3549  0.8065 -2.1714
 7803SOL    HW235043   2.695   4.691   5.757  1.4887 -1.3289 -1.5724
 7804SOL     OW35044   4.125   0.324   5.384 -0.0825  0.1620 -0.0919
 7804SOL    HW135045   4.124   0.348   5.291 -1.0412  0.2214 -0.0650
 7804SOL    HW235046   4.031   0.308   5.392  0.0783  0.5144  2.6013
 7805SOL     OW35047   2.949   0.778   8.511  0.2971 -0.2041 -0.3160
 7805SOL    HW135048   2.861   0.812   8.528  0.6433  1.0607 -1.0203
 7805SOL    HW235049   3.014   0.828   8.560  0.0391  0.8863 -1.0588
 7806SOL     OW35050   2.993   3.066   2.537 -0.2026  0.6856 -0.3128
 7806SOL    HW135051   3.002   3.148   2.489 -1.0446  0.1126 -1.4462
 7806SOL    HW235052   3.060   3.091   2.600 -0.2870  1.7761 -0.6617
 7807SOL     OW35053   1.553   3.506   8.780 -0.0793 -0.7253 -0.1769
 7807SOL    HW135054   1.587   3.536   8.865 -0.3770 -0.8078 -0.0275
 7807SOL    HW235055   1.478   3.456   8.814  0.0494 -1.0199 -0.3278
 7808SOL     OW35056   0.468   1.741   6.260  0.1942 -0.8608  0.3517
 7808SOL    HW135057   0.406   1.813   6.254  0.5691 -0.4675  1.1324
 7808SOL    HW235058   0.544   1.799   6.257 -0.4371  0.0016  1.1311
 7809SOL     OW35059   4.300   3.476   3.972  0.6181  0.0386 -0.2763
 7809SOL    HW135060   4.316   3.411   4.040 -0.1699 -0.5500 -0.6642
 7809SOL    HW235061   4.326   3.557   4.016 -0.1564  1.1210 -1.7970
 7810SOL     OW35062   3.100   3.736   8.804  0.1082 -0.1798  0.2987
 7810SOL    HW135063   3.010   3.767   8.817 -0.8101 -2.8256  0.2609
 7810SOL    HW235064   3.145   3.799   8.748  1.1113  0.1525  1.4921
 7811SOL     OW35065   2.080   0.674  15.947  0.4027  0.2094 -0.5520
 7811SOL    HW135066   2.137   0.705  15.877  1.4604  0.2729  0.3398
 7811SOL    HW235067   2.124   0.698  16.029  0.1405 -1.4103  0.0497
 7812SOL     OW35068   0.202   4.227   7.271  0.2660  0.7175  0.0707
 7812SOL    HW135069   0.134   4.210   7.336  0.1148  0.1833 -0.2274
 7812SOL    HW235070   0.249   4.145   7.291  0.7784  1.1654  0.7121
 7813SOL     OW35071   1.570   0.604   4.701  0.0935 -0.4441 -0.5646
 7813SOL    HW135072   1.492   0.570   4.745 -0.8855  1.0314 -1.1499
 7813SOL    HW235073   1.563   0.695   4.731 -0.0307  0.0708 -2.1749
 7814SOL     OW35074   1.769   1.712   7.875  0.0316  0.5947  0.2713
 7814SOL    HW135075   1.835   1.772   7.841  1.9079 -0.9063  1.2405
 7814SOL    HW235076   1.761   1.735   7.968  2.2033  0.9325  0.3719
 7815SOL     OW35077   2.078   2.533   3.442  0.2139 -0.0611  0.1257
 7815SOL    HW135078   2.061   2.494   3.356 -0.2486  2.4440 -0.9136
 7815SOL    HW235079   2.075   2.625   3.417  0.2017 -0.1992 -0.3832
 7816SOL     OW35080   1.627   2.461   3.170 -0.2628  0.1220 -0.1660
 7816SOL    HW135081   1.699   2.465   3.107 -0.1725 -0.4771 -0.0966
 7816SOL    HW235082   1.635   2.547   3.211 -1.1032  0.1611 -0.0805
 7817SOL     OW35083   0.210   1.969   2.808 -0.6986 -0.6283 -0.6735
 7817SOL    HW135084   0.275   1.940   2.744 -0.4039 -0.9954 -0.2099
 7817SOL    HW235085   0.241   1.923   2.886 -1.7566 -1.3709 -0.7031
 7818SOL     OW35086   1.010   2.026   2.998 -0.0248 -0.0154 -0.9534
 7818SOL    HW135087   1.105   2.023   3.004  0.0189  0.6275 -1.3306
 7818SOL    HW235088   1.002   1.931   2.998 -1.9009  0.1447 -0.1428
 7819SOL     OW35089   0.494   3.107   2.743  0.0314 -0.0304 -0.1401
 7819SOL    HW135090   0.449   3.183   2.780 -0.1420  1.2459 -2.9617
 7819SOL    HW235091   0.493   3.129   2.650  0.0654  0.8406  0.0622
 7820SOL     OW35092   0.873   0.184   7.262  1.1159  0.0796 -0.3426
 7820SOL    HW135093   0.841   0.273   7.250 -0.4341 -0.4085  0.1646
 7820SOL    HW235094   0.813   0.155   7.331 -0.1558  0.2887 -1.3838
 7821SOL     OW35095   2.504   1.896  11.470  0.0735 -0.0825  0.5912
 7821SOL    HW135096   2.414   1.881  11.441  0.9972  1.7202 -3.1841
 7821SOL    HW235097   2.559   1.846  11.410 -1.8807 -2.2096  0.5612
 7822SOL     OW35098   4.270   2.751   0.457 -0.1417  0.3132 -0.8559
 7822SOL    HW135099   4.278   2.770   0.363  1.2626 -0.8785 -0.9650
 7822SOL    HW235100   4.362   2.776   0.465  0.2665 -1.9064  1.1791
 7823SOL     OW35101   1.826   3.021   2.968  0.0878 -0.5498 -0.2538
 7823SOL    HW135102   1.761   3.031   3.037 -0.9420 -0.0518 -1.2953
 7823SOL    HW235103   1.834   3.115   2.955 -0.9810  0.0097  3.1537
 7824SOL     OW35104   1.390   4.416   4.316  0.6498 -0.3441 -0.6019
 7824SOL    HW135105   1.468   4.376   4.353  0.3509 -0.0171  0.3969
 7824SOL    HW235106   1.424   4.505   4.331 -1.5299  0.1144  1.6633
 7825SOL     OW35107   0.443   3.731  13.233  0.3770  0.0315 -0.3257
 7825SOL    HW135108   0.395   3.804  13.271 -1.6270 -1.1300 -0.6620
 7825SOL    HW235109   0.374   3.686  13.184  0.4793  2.0922 -2.3440
 7826SOL     OW35110   0.186   0.712   6.617 -0.1566 -0.2601  0.5067
 7826SOL    HW135111   0.265   0.748   6.657 -0.5011 -0.2064  1.1344
 7826SOL    HW235112   0.195   0.755   6.531  0.4403 -1.3282  0.0436
 7827SOL     OW35113   3.123   2.801   8.763 -0.7322  0.4245  0.4410
 7827SOL    HW135114   3.102   2.876   8.708 -0.5254  0.0483 -0.1503
 7827SOL    HW235115   3.102   2.837   8.849 -0.8628  1.8261 -0.1769
 7828SOL     OW35116   1.652   0.493   2.205 -0.1987 -0.0254  0.2281
 7828SOL    HW135117   1.638   0.576   2.251 -0.3048  0.3319 -0.4522
 7828SOL    HW235118   1.631   0.433   2.277  0.3297  0.7646  1.0368
 7829SOL     OW35119   2.034   2.412   3.190  0.1876  0.1286 -0.5104
 7829SOL    HW135120   2.004   2.324   3.166  0.1869  0.3019 -1.1506
 7829SOL    HW235121   1.965   2.461   3.145 -0.4819  0.7931  1.2257
 7830SOL     OW35122   1.373   0.930   7.118  0.2038 -0.4034 -0.3292
 7830SOL    HW135123   1.290   0.961   7.082  0.1327  1.2404  1.2425
 7830SOL    HW235124   1.347   0.838   7.122  1.3881 -0.6983  0.4100
 7831SOL     OW35125   3.113   0.681  13.616  0.1316 -0.2930  0.9108
 7831SOL    HW135126   3.053   0.755  13.617 -0.3501 -0.6624 -0.8822
 7831SOL    HW235127   3.157   0.700  13.699 -0.7948  0.0260  1.3297
 7832SOL     OW35128   1.169   3.051   5.218 -0.0441  0.4558  0.0976
 7832SOL    HW135129   1.248   3.005   5.191 -1.2534 -0.7375 -1.4355
 7832SOL    HW235130   1.105   3.030   5.149 -0.6692 -0.7256  1.0509
 7833SOL     OW35131   1.444   3.449   9.687 -0.2039  0.4003 -0.4391
 7833SOL    HW135132   1.434   3.457   9.592 -0.0230 -2.3394 -0.6960
 7833SOL    HW235133   1.530   3.489   9.696 -0.1247  0.0957  0.1674
 7834SOL     OW35134   2.179   2.477   0.873 -0.2298  0.4325  0.0618
 7834SOL    HW135135   2.204   2.390   0.905 -3.0815  0.0032  1.0996
 7834SOL    HW235136   2.261   2.521   0.895  0.5617 -0.6853 -0.6654
 7835SOL     OW35137   3.151   3.287  16.305  0.1070 -0.5026 -0.2769
 7835SOL    HW135138   3.143   3.235  16.385  1.2731 -1.7897 -0.9817
 7835SOL    HW235139   3.113   3.371  16.329 -2.0471 -1.4546 -0.4114
 7836SOL     OW35140   2.296   0.854   8.833  0.3915 -0.6631 -0.1813
 7836SOL    HW135141   2.356   0.834   8.761  0.5737 -0.8480  0.0232
 7836SOL    HW235142   2.348   0.927   8.866 -1.0332 -0.0038  0.6429
 7837SOL     OW35143   0.743   1.248   6.845 -0.2258 -0.3787 -0.0196
 7837SOL    HW135144   0.660   1.284   6.815  0.2541  0.2064 -0.6624
 7837SOL    HW235145   0.730   1.252   6.939 -0.2260  1.7451 -0.1090
 7838SOL     OW35146   0.802   2.245  10.383  0.2480 -0.5550  0.2183
 7838SOL    HW135147   0.827   2.337  10.390 -0.5447 -0.2557 -1.0040
 7838SOL    HW235148   0.799   2.256  10.288  0.8227 -0.4751  0.2062
 7839SOL     OW35149   2.926   1.887   9.407  0.0158  0.3254  0.6305
 7839SOL    HW135150   2.952   1.847   9.323  0.1181 -1.2238  1.3934
 7839SOL    HW235151   2.996   1.951   9.419  2.4849 -1.9787 -1.2210
 7840SOL     OW35152   1.885   1.075  15.552 -0.6563 -0.1697  0.7129
 7840SOL    HW135153   1.789   1.078  15.544 -0.6491  1.5822  1.2625
 7840SOL    HW235154   1.907   1.168  15.554  2.3121 -0.8654  0.1225
 7841SOL     OW35155   3.143   4.718  10.355 -0.0704  0.2020  0.3679
 7841SOL    HW135156   3.078   4.718  10.284 -0.8077 -1.3205  1.0407
 7841SOL    HW235157   3.207   0.031  10.310  0.0204 -1.3445 -1.3768
 7842SOL     OW35158   0.275   0.690   1.176  0.0467 -0.3716 -0.0991
 7842SOL    HW135159   0.204   0.625   1.179  0.6707 -0.8730  4.1192
 7842SOL    HW235160   0.286   0.711   1.269  1.6063 -0.5744 -0.2395
 7843SOL     OW35161   4.427   1.371  12.617  0.3232  0.2568 -0.0730
 7843SOL    HW135162   4.424   1.365  12.522  0.1041  1.5189 -0.1353
 7843SOL    HW235163   4.399   1.285  12.649  1.4856 -0.8229 -1.9662
 7844SOL     OW35164   1.642   2.870   1.315 -0.3047  0.4840  0.3091
 7844SOL    HW135165   1.580   2.799   1.332  2.6959 -1.5551  2.8870
 7844SOL    HW235166   1.592   2.921   1.251 -0.2087  1.9381  1.3900
 7845SOL     OW35167   1.483   1.216   1.972  0.5827  0.2313 -0.1230
 7845SOL    HW135168   1.552   1.251   1.917  0.8269 -0.3063 -0.1630
 7845SOL    HW235169   1.456   1.145   1.914 -1.5869  0.0825  1.0948
 7846SOL     OW35170   1.904   4.740   1.449  0.1177  0.4101  0.5793
 7846SOL    HW135171   1.982   4.711   1.401  0.3238  0.0051  1.1641
 7846SOL    HW235172   1.933   4.705   1.533  1.5287  0.3064  0.0632
 7847SOL     OW35173   1.714   0.217   5.714  0.2907  0.3328  0.7554
 7847SOL    HW135174   1.732   0.271   5.791  1.0253  0.2042  0.6821
 7847SOL    HW235175   1.644   0.161   5.746  0.3957  0.1500  0.6624
 7848SOL     OW35176   3.024   3.684  10.777 -0.1156 -0.6410 -0.1549
 7848SOL    HW135177   3.118   3.672  10.771 -0.5615 -3.6789 -1.0870
 7848SOL    HW235178   3.017   3.773  10.744 -0.9101 -1.7288 -2.9323
 7849SOL     OW35179   3.413   0.061   5.534 -0.1072 -0.3933 -0.0870
 7849SOL    HW135180   3.456   0.008   5.601  1.4886  0.0772 -0.7629
 7849SOL    HW235181   3.333   0.012   5.515 -1.5746  2.2569 -0.7215
 7850SOL     OW35182   1.334   3.349  15.922 -0.0882  0.1840 -0.4979
 7850SOL    HW135183   1.420   3.326  15.886 -0.1662 -0.1452 -0.4697
 7850SOL    HW235184   1.345   3.313  16.010 -0.6242  0.8029 -0.1746
 7851SOL     OW35185   1.332   1.904   6.209 -0.0972 -0.4155 -0.1764
 7851SOL    HW135186   1.310   1.909   6.302  0.4880  1.8961 -0.1835
 7851SOL    HW235187   1.267   1.839   6.180 -0.8692  0.3299 -0.1145
 7852SOL     OW35188   4.166   1.092  15.015 -0.2127  0.2223  0.2573
 7852SOL    HW135189   4.170   1.061  15.106 -0.5256 -0.1802  0.1316
 7852SOL    HW235190   4.076   1.123  15.016 -0.8369 -1.5419 -0.1741
 7853SOL     OW35191   2.888   2.701   6.104  0.1698  0.5892 -0.4703
 7853SOL    HW135192   2.901   2.789   6.140  0.9776  0.0338  0.5925
 7853SOL    HW235193   2.803   2.725   6.068 -0.3080 -0.8215 -0.2746
 7854SOL     OW35194   2.314   4.565   8.948  1.2147 -0.0593 -0.1570
 7854SOL    HW135195   2.260   4.587   9.024  1.4465  0.4149 -0.1306
 7854SOL    HW235196   2.267   4.486   8.922  0.7582 -1.1042  3.9328
 7855SOL     OW35197   2.126   2.970  17.332 -0.2590  0.2439  0.3422
 7855SOL    HW135198   2.162   3.049  17.372 -2.1995  1.8481 -1.0318
 7855SOL    HW235199   2.132   2.987  17.238 -2.2003 -0.4084  0.0870
 7856SOL     OW35200   1.392   0.983   1.838  0.0446  0.3815 -0.4265
 7856SOL    HW135201   1.355   0.990   1.750  2.1874  1.1337 -1.2670
 7856SOL    HW235202   1.424   0.893   1.841  0.8638  0.7221  1.4642
 7857SOL     OW35203   3.524   1.254   0.823  0.2298 -0.1248  0.2147
 7857SOL    HW135204   3.512   1.276   0.915  0.3466  1.3859 -0.1422
 7857SOL    HW235205   3.461   1.310   0.778 -0.1898  0.8766  2.0725
 7858SOL     OW35206   3.179   4.490  13.127  0.2732  0.4680  0.1710
 7858SOL    HW135207   3.195   4.542  13.206 -2.6692  0.8043  0.5316
 7858SOL    HW235208   3.117   4.424  13.157  1.1340  0.3927  1.7985
 7859SOL     OW35209   1.811   3.061   6.049 -0.6394 -0.5760  0.5321
 7859SOL    HW135210   1.810   3.156   6.061 -0.1749 -0.7368  1.8985
 7859SOL    HW235211   1.860   3.024   6.123  1.4409 -2.9168 -2.0002
 7860SOL     OW35212   0.843   1.276  15.247 -0.5193 -0.5905  0.0520
 7860SOL    HW135213   0.899   1.285  15.324  0.1178 -2.6253 -0.1731
 7860SOL    HW235214   0.869   1.190  15.214 -0.4194  0.3539 -2.4045
 7861SOL     OW35215   0.526   3.490  11.280  0.0718 -0.0066 -0.4579
 7861SOL    HW135216   0.591   3.549  11.320  0.6120 -0.6576 -0.3775
 7861SOL    HW235217   0.519   3.417  11.341  0.1009 -0.3909 -0.9185
 7862SOL     OW35218   4.628   4.712  16.506  0.0555 -0.0056  0.4025
 7862SOL    HW135219   4.589   4.688  16.590 -2.3435 -0.0909 -0.7285
 7862SOL    HW235220   4.718   4.693  16.531 -0.1479 -0.1457  1.0134
 7863SOL     OW35221   1.734   1.002   9.038 -0.0173  0.4853  0.0663
 7863SOL    HW135222   1.799   1.047   8.984 -1.3155  0.2298 -1.6951
 7863SOL    HW235223   1.743   0.910   9.012 -0.7264  0.0098  1.5332
 7864SOL     OW35224   2.317   0.631  13.796  0.0117  0.1005  0.3478
 7864SOL    HW135225   2.270   0.606  13.875  0.4600 -0.9933  0.2766
 7864SOL    HW235226   2.300   0.725  13.795 -2.7368 -0.3712  2.7856
 7865SOL     OW35227   2.288   0.569   3.787  0.7612 -0.6201 -0.0016
 7865SOL    HW135228   2.228   0.626   3.836  2.0148 -1.3383  2.3812
 7865SOL    HW235229   2.337   0.638   3.743 -1.1024  2.0774  2.0758
 7866SOL     OW35230   4.066   0.307   4.505  0.2718  0.1782  0.0775
 7866SOL    HW135231   4.065   0.337   4.414  0.8850 -2.2053 -0.7123
 7866SOL    HW235232   3.984   0.347   4.530 -0.7108 -0.4752 -2.0786
 7867SOL     OW35233   4.653   4.097   1.166  0.9238  0.2033  0.0872
 7867SOL    HW135234   4.578   4.112   1.224 -0.0504  1.4391 -1.4980
 7867SOL    HW235235   4.637   4.007   1.138  2.3766  0.1769 -0.6436
 7868SOL     OW35236   3.231   1.331   0.663  0.1916  0.6218 -0.0657
 7868SOL    HW135237   3.161   1.313   0.599  0.6133 -0.1173 -0.3143
 7868SOL    HW235238   3.301   1.345   0.599  1.3756 -1.1109  0.8766
 7869SOL     OW35239   3.405   4.492   6.754 -0.2375 -0.5454 -0.0883
 7869SOL    HW135240   3.374   4.430   6.688 -0.5738 -0.7009  0.2138
 7869SOL    HW235241   3.492   4.502   6.718  0.2240 -0.4122  1.0563
 7870SOL     OW35242   0.241   0.270   7.763 -0.4409  0.9398 -0.4542
 7870SOL    HW135243   0.163   0.325   7.760 -2.9636 -2.6215  1.0588
 7870SOL    HW235244   0.207   0.181   7.771 -0.3442  1.1681  2.6374
 7871SOL     OW35245   0.443   4.103   5.348  0.3888  0.4070 -0.4974
 7871SOL    HW135246   0.421   4.148   5.267  0.2513  1.5313  0.1734
 7871SOL    HW235247   0.537   4.110   5.332  0.3408  1.0082 -0.5162
 7872SOL     OW35248   4.528   0.224  10.618  0.1311  0.0198 -0.0854
 7872SOL    HW135249   4.606   0.278  10.632  0.5799 -0.0471 -2.2276
 7872SOL    HW235250   4.507   0.250  10.528  0.1397 -0.8123 -0.3351
 7873SOL     OW35251   3.061   0.637   7.112  0.1039 -0.0791  0.0596
 7873SOL    HW135252   3.126   0.596   7.054 -0.7584  1.3868 -1.9359
 7873SOL    HW235253   3.123   0.702   7.144  0.1523  0.5429 -1.2942
 7874SOL     OW35254   1.458   3.541  12.510 -0.0280  0.2596 -0.3690
 7874SOL    HW135255   1.436   3.485  12.436 -0.6402  0.2837 -0.2103
 7874SOL    HW235256   1.539   3.585  12.484 -0.3357  1.6383  1.0144
 7875SOL     OW35257   1.613   4.439   3.675  0.3892  0.7568  0.1309
 7875SOL    HW135258   1.644   4.400   3.757 -0.0436 -2.0436 -1.0249
 7875SOL    HW235259   1.541   4.496   3.703  1.2995  0.8885  2.1444
 7876SOL     OW35260   2.607   3.488  13.440  0.1465 -0.4282  0.3796
 7876SOL    HW135261   2.569   3.519  13.522  2.9516  0.5832  1.2784
 7876SOL    HW235262   2.593   3.570  13.391 -0.8302 -0.4983  0.5296
 7877SOL     OW35263   2.360   2.041  16.084  0.5119  0.4059 -0.0190
 7877SOL    HW135264   2.354   2.025  16.178 -0.5785  0.4177 -0.0884
 7877SOL    HW235265   2.354   2.134  16.065  1.7577  0.1002 -1.9756
 7878SOL     OW35266   4.704   4.353   8.787 -0.8723 -0.1399 -0.1519
 7878SOL    HW135267   0.053   4.381   8.803 -1.4100  0.4282  1.8852
 7878SOL    HW235268   4.659   4.354   8.871 -0.1211  1.8112  0.2152
 7879SOL     OW35269   0.120   3.336  11.665 -0.1583  0.3706  0.3705
 7879SOL    HW135270   0.091   3.415  11.710 -1.0397 -0.3310  1.0357
 7879SOL    HW235271   0.151   3.366  11.580 -1.9355 -2.2172 -1.1810
 7880SOL     OW35272   3.091   2.050   4.043 -0.9755 -0.0998 -0.1172
 7880SOL    HW135273   3.041   1.991   4.100  1.8044 -0.1588  2.2697
 7880SOL    HW235274   3.144   2.095   4.108 -2.4653  0.0506  0.9952
 7881SOL     OW35275   3.459   0.420  12.188 -0.2340 -0.5643 -0.7424
 7881SOL    HW135276   3.534   0.458  12.234  0.0250  0.6309 -2.1254
 7881SOL    HW235277   3.413   0.501  12.170  0.5811  0.7189  2.9505
 7882SOL     OW35278   2.138   0.249   4.574  0.1170  0.0004  0.3131
 7882SOL    HW135279   2.074   0.235   4.643 -1.1067  0.0713 -0.8174
 7882SOL    HW235280   2.139   0.344   4.562  0.8880 -0.3032 -1.9463
 7883SOL     OW35281   3.042   2.340   3.144  0.0441 -0.4727 -0.1074
 7883SOL    HW135282   3.125   2.388   3.138  0.2781 -0.5303  2.7120
 7883SOL    HW235283   3.007   2.383   3.222  0.2929 -1.2257  0.4212
 7884SOL     OW35284   2.856   3.855   2.686 -0.3366  0.4467  0.0494
 7884SOL    HW135285   2.904   3.851   2.604 -1.7399 -0.7150 -0.6958
 7884SOL    HW235286   2.824   3.945   2.692  1.2822  0.9496  1.4409
 7885SOL     OW35287   2.032   0.282   9.006 -0.3386 -0.2222  0.2262
 7885SOL    HW135288   2.038   0.241   9.092 -0.7509 -1.4330 -0.3156
 7885SOL    HW235289   2.099   0.349   9.018 -0.3223 -0.7824  3.1958
 7886SOL     OW35290   1.134   3.675   3.430  0.3286  0.0998 -0.6739
 7886SOL    HW135291   1.162   3.723   3.508 -1.0679  0.5672 -0.4548
 7886SOL    HW235292   1.136   3.754   3.376  2.0112  0.1190 -0.5902
 7887SOL     OW35293   4.628   4.355  14.124  0.0574  0.9653  0.4208
 7887SOL    HW135294   4.622   4.335  14.218  0.5329 -0.5294  0.1328
 7887SOL    HW235295   4.624   4.450  14.120 -2.0175  0.8456 -0.6318
 7888SOL     OW35296   3.175   1.559   8.632 -0.0548  0.3330 -0.3244
 7888SOL    HW135297   3.142   1.471   8.651  0.2289  0.1969 -0.4499
 7888SOL    HW235298   3.152   1.599   8.716  0.3842  1.8307 -0.9256
 7889SOL     OW35299   1.680   1.031   4.528 -0.1320 -0.5773  0.7191
 7889SOL    HW135300   1.710   1.105   4.581  2.0154  0.0543 -1.3333
 7889SOL    HW235301   1.737   1.040   4.451 -1.7253 -1.6738 -0.5857
 7890SOL     OW35302   4.738   0.916   5.550  0.6838 -0.4794  0.4877
 7890SOL    HW135303   4.734   1.011   5.537 -0.7951 -0.6639 -0.5008
 7890SOL    HW235304   4.679   0.884   5.481 -1.9816  3.7362  0.8044
 7891SOL     OW35305   4.441   3.644  13.752 -0.5196  0.0936  0.3301
 7891SOL    HW135306   4.445   3.736  13.726 -2.1148  0.6713  2.0572
 7891SOL    HW235307   4.516   3.637  13.810  0.6458 -0.1763 -1.2169
 7892SOL     OW35308   2.677   4.097   9.139  0.6524 -0.4934 -0.3617
 7892SOL    HW135309   2.661   4.125   9.049 -1.8458  1.3102  0.6438
 7892SOL    HW235310   2.593   4.074   9.179  0.1666  1.7125 -0.1092
 7893SOL     OW35311   4.289   0.069   8.838  0.0945 -0.2121  0.2547
 7893SOL    HW135312   4.354   0.013   8.880 -0.3353 -0.1689  0.9838
 7893SOL    HW235313   4.214   0.063   8.897  0.9407  1.2713  1.4736
 7894SOL     OW35314   1.139   3.937  14.308 -0.0597 -0.0226 -0.1616
 7894SOL    HW135315   1.190   3.971  14.234 -0.2761  1.5497  0.4177
 7894SOL    HW235316   1.051   3.918  14.278 -0.9037  1.4810  1.4084
 7895SOL     OW35317   4.621   4.665   5.123 -0.0364  0.3190  0.1738
 7895SOL    HW135318   4.620   4.580   5.167  3.2360 -0.1419 -0.6047
 7895SOL    HW235319   4.615   4.720   5.201  0.0829  1.8079 -0.8694
 7896SOL     OW35320   2.155   0.890   7.802  0.7623 -0.3168 -0.2017
 7896SOL    HW135321   2.159   0.984   7.787 -0.4943 -0.1131  0.6996
 7896SOL    HW235322   2.240   0.858   7.772  0.8942  0.1998 -0.3648
 7897SOL     OW35323   3.723   1.862   7.440  0.0092 -0.2406  0.4823
 7897SOL    HW135324   3.747   1.865   7.532 -0.8301  1.1119  0.6585
 7897SOL    HW235325   3.634   1.829   7.449  0.4763 -1.3681  0.9745
 7898SOL     OW35326   3.996   4.405   9.293  0.0559  0.1088  0.6124
 7898SOL    HW135327   4.015   4.446   9.377 -2.6842  1.9057  0.3425
 7898SOL    HW235328   4.054   4.329   9.288 -0.8890 -0.5589 -0.2930
 7899SOL     OW35329   4.700   1.763  15.660 -0.8938 -0.2772 -0.4715
 7899SOL    HW135330   0.010   1.801  15.589  0.4358 -1.2912 -0.0455
 7899SOL    HW235331   4.702   1.837  15.721 -2.2149 -1.3908  0.9220
 7900SOL     OW35332   0.041   0.489   7.811  0.1090  0.3363 -0.0041
 7900SOL    HW135333   0.094   0.546   7.867 -0.1756  1.9422 -1.3661
 7900SOL    HW235334   0.008   0.547   7.743 -0.1858  2.3713  1.8559
 7901SOL     OW35335   3.166   4.336  11.123 -0.3943 -0.2071 -0.5231
 7901SOL    HW135336   3.203   4.256  11.160  1.1267 -0.4700 -2.6182
 7901SOL    HW235337   3.236   4.401  11.121 -2.9335  2.4896 -1.1478
 7902SOL     OW35338   2.981   4.719   7.522  0.2002  0.1437  0.3388
 7902SOL    HW135339   3.074   4.734   7.538  0.3038  0.2617 -0.3693
 7902SOL    HW235340   2.945   0.067   7.521  1.4015  0.6191 -0.2615
 7903SOL     OW35341   0.945   0.024   6.989 -0.2736  0.2514 -0.8633
 7903SOL    HW135342   0.916   0.072   7.066  1.6393  1.5743 -0.9475
 7903SOL    HW235343   0.979   0.097   6.936 -0.0652  0.2339 -0.7523
 7904SOL     OW35344   2.452   1.475   4.631 -0.6139 -0.1687 -0.1042
 7904SOL    HW135345   2.436   1.381   4.629 -0.8331 -0.0937 -1.4440
 7904SOL    HW235346   2.412   1.516   4.555 -1.5382  0.1537  0.5597
 7905SOL     OW35347   4.663   0.798   3.208 -0.0360 -0.1703  0.0451
 7905SOL    HW135348   0.017   0.811   3.217 -0.2412  1.1072  0.4225
 7905SOL    HW235349   4.659   0.706   3.236  0.0182  0.0846  0.9008
 7906SOL     OW35350   4.083   0.582   8.697 -0.6678  0.2677 -0.4753
 7906SOL    HW135351   4.154   0.559   8.637  0.7706  1.2177  0.8728
 7906SOL    HW235352   4.009   0.558   8.641  0.1271  2.1120 -2.3200
 7907SOL     OW35353   2.222   4.484   5.912 -0.5179 -0.0915  0.5312
 7907SOL    HW135354   2.279   4.539   5.966 -2.2011 -0.4407  2.6616
 7907SOL    HW235355   2.250   4.515   5.826  0.5825  0.0156  0.9282
 7908SOL     OW35356   2.573   3.427   5.665  0.5400 -0.7738 -0.1366
 7908SOL    HW135357   2.499   3.370   5.642 -2.2031  1.5804  2.9445
 7908SOL    HW235358   2.646   3.381   5.623  1.6284  1.2451 -0.4336
 7909SOL     OW35359   0.417   2.941  13.862 -0.2814 -0.4754  0.2444
 7909SOL    HW135360   0.392   2.877  13.795 -2.6552 -0.8479  1.4716
 7909SOL    HW235361   0.511   2.927  13.871  0.0704  0.7373 -1.6722
 7910SOL     OW35362   2.973   3.836   8.122 -0.6782  0.1523 -0.0587
 7910SOL    HW135363   2.934   3.750   8.108  0.9831 -0.2846 -2.1025
 7910SOL    HW235364   2.902   3.895   8.100 -0.0599  0.1521 -2.0817
 7911SOL     OW35365   3.502   1.595  13.161  0.1707 -0.3055 -0.3299
 7911SOL    HW135366   3.567   1.630  13.100 -2.0214 -0.8613 -3.0007
 7911SOL    HW235367   3.560   1.558  13.228  2.3624 -0.9746 -2.5861
 7912SOL     OW35368   2.490   2.551   6.030  0.2720 -0.1020 -0.6686
 7912SOL    HW135369   2.513   2.472   6.079  0.2711 -0.3931 -1.1346
 7912SOL    HW235370   2.461   2.503   5.952  1.5335  2.3496 -2.6418
 7913SOL     OW35371   1.489   0.501   4.218  0.0022  0.6543  0.0716
 7913SOL    HW135372   1.509   0.493   4.312 -0.5822  1.6506  0.2795
 7913SOL    HW235373   1.395   0.487   4.212 -0.1697  1.9521 -0.1667
 7914SOL     OW35374   3.718   4.168   5.409 -0.0436 -1.3042  0.4650
 7914SOL    HW135375   3.625   4.193   5.401  0.3839  0.4920  1.1203
 7914SOL    HW235376   3.752   4.221   5.338 -1.0683 -0.7320  0.3939
 7915SOL     OW35377   3.399   3.256   9.176  0.0851  0.0681 -0.0735
 7915SOL    HW135378   3.373   3.304   9.254 -0.9948  0.7763 -0.8522
 7915SOL    HW235379   3.484   3.295   9.156  0.2771  0.4598  1.5590
 7916SOL     OW35380   2.974   1.814   5.944  0.3378 -0.1455 -0.0623
 7916SOL    HW135381   3.058   1.787   5.980 -0.2627 -4.2002 -1.7369
 7916SOL    HW235382   2.977   1.765   5.862  0.0114  1.0914 -0.8309
 7917SOL     OW35383   3.608   1.004   4.372 -0.3158 -0.3848 -0.0700
 7917SOL    HW135384   3.686   0.948   4.384  0.2237 -0.1632 -2.5467
 7917SOL    HW235385   3.607   1.016   4.278 -0.6522  0.6459  0.0720
 7918SOL     OW35386   0.738   4.112   4.760 -0.0428 -0.3979  0.0481
 7918SOL    HW135387   0.832   4.127   4.763  0.0827 -1.3614  1.0916
 7918SOL    HW235388   0.723   4.032   4.812 -2.1499 -0.4730 -0.6711
 7919SOL     OW35389   0.326   1.867   5.055  0.5173  0.5375  0.2559
 7919SOL    HW135390   0.233   1.850   5.068  0.2087  1.2278 -1.0192
 7919SOL    HW235391   0.322   1.951   5.010 -0.6808  0.1503 -0.3602
 7920SOL     OW35392   3.427   3.322   4.140 -0.0024  0.2214  0.1647
 7920SOL    HW135393   3.388   3.288   4.220 -0.7167 -0.7104 -0.5896
 7920SOL    HW235394   3.410   3.414   4.160 -1.4431 -0.1173  0.4994
 7921SOL     OW35395   3.441   3.463   8.837 -0.5033  0.8031 -0.2960
 7921SOL    HW135396   3.347   3.478   8.849 -1.0211 -1.7998 -1.1036
 7921SOL    HW235397   3.434   3.421   8.751  0.8486 -0.7129  0.3379
 7922SOL     OW35398   0.094   0.308   2.003 -0.1220  0.3131 -0.2631
 7922SOL    HW135399   0.155   0.365   1.957  3.7808 -1.5075  2.5917
 7922SOL    HW235400   0.095   0.342   2.092 -2.1207  1.3319 -0.6393
 7923SOL     OW35401   2.204   2.016  16.909  0.2503 -0.1441 -0.1660
 7923SOL    HW135402   2.108   2.011  16.907  0.1921  0.8975 -0.1323
 7923SOL    HW235403   2.228   1.923  16.905 -0.3496 -0.3257  0.3718
 7924SOL     OW35404   2.151   2.123  12.122  0.4240 -0.5349 -0.4859
 7924SOL    HW135405   2.233   2.100  12.165 -0.0762 -0.3026  0.5897
 7924SOL    HW235406   2.102   2.041  12.112  1.1737 -1.2178  1.5447
 7925SOL     OW35407   1.614   4.696   0.059  0.1346  0.6308 -0.4753
 7925SOL    HW135408   1.591   4.603   0.051  0.3252  0.5062  0.4479
 7925SOL    HW235409   1.707   4.690   0.078  0.0695  0.8881 -0.0910
 7926SOL     OW35410   2.088   0.327   4.965 -0.0102  0.2042 -0.1535
 7926SOL    HW135411   2.183   0.324   4.976 -0.0109  0.0943 -0.1781
 7926SOL    HW235412   2.057   0.398   5.021 -1.9942 -0.8613  0.1179
 7927SOL     OW35413   4.305   1.691   0.809  0.8551  0.4887 -0.4569
 7927SOL    HW135414   4.316   1.597   0.823 -0.3335  0.6393  1.5267
 7927SOL    HW235415   4.311   1.734   0.894  0.8373  1.1193 -0.7759
 7928SOL     OW35416   0.146   3.701  11.519 -0.5257 -0.1095  0.6396
 7928SOL    HW135417   0.086   3.773  11.500  0.0791  0.0668 -0.5516
 7928SOL    HW235418   0.233   3.739  11.505 -0.7750  0.8981  1.7562
 7929SOL     OW35419   0.485   4.150   1.806 -0.3673  0.0270  0.1620
 7929SOL    HW135420   0.471   4.124   1.715 -1.2193 -2.5275  1.0344
 7929SOL    HW235421   0.503   4.243   1.793 -2.0491  0.4198  0.6612
 7930SOL     OW35422   0.752   4.450  10.281 -0.1193  0.7149 -0.5069
 7930SOL    HW135423   0.809   4.500  10.339 -0.0089 -0.5404  0.4689
 7930SOL    HW235424   0.811   4.420  10.212  1.2491  0.3412  0.8248
 7931SOL     OW35425   2.186   1.156   2.916  0.2166 -0.5288 -0.5937
 7931SOL    HW135426   2.170   1.186   2.826 -2.8484  1.3974  0.5827
 7931SOL    HW235427   2.158   1.239   2.954  0.0368 -0.3785 -1.0534
 7932SOL     OW35428   0.956   0.450   4.529 -0.2460  0.2792  0.3898
 7932SOL    HW135429   0.904   0.530   4.534  1.3139  1.3383 -0.3320
 7932SOL    HW235430   1.044   0.488   4.524 -0.5771  1.1400  0.9546
 7933SOL     OW35431   1.856   2.529   3.031 -0.2735  0.2066 -0.4341
 7933SOL    HW135432   1.908   2.535   2.952  0.6767  0.8897  0.2406
 7933SOL    HW235433   1.814   2.615   3.020 -1.1285 -0.2532 -0.7822
 7934SOL     OW35434   0.101   1.176   6.973 -0.1318  0.4692  0.3713
 7934SOL    HW135435   0.109   1.226   7.054  1.8675 -0.6029  0.8437
 7934SOL    HW235436   0.025   1.123   6.996  0.8756 -0.8553  0.6351
 7935SOL     OW35437   4.213   3.040  12.445  0.0374 -0.2008  0.5478
 7935SOL    HW135438   4.218   3.135  12.457 -0.3636 -0.2168  0.8277
 7935SOL    HW235439   4.296   3.034  12.397 -0.7297 -0.6525 -0.7030
 7936SOL     OW35440   2.077   4.297  10.707  0.1300 -0.0244  0.3870
 7936SOL    HW135441   2.132   4.324  10.634  1.7831  0.4996  1.8160
 7936SOL    HW235442   2.131   4.312  10.784  1.3297  2.0588 -0.8589
 7937SOL     OW35443   0.920   4.564   4.139 -0.2288  0.0334 -0.0472
 7937SOL    HW135444   0.943   4.589   4.050 -2.4315 -0.8436 -0.8595
 7937SOL    HW235445   0.970   4.484   4.127  1.2665  0.6157  2.3494
 7938SOL     OW35446   3.279   4.669   2.340  0.1978  0.1544  0.3920
 7938SOL    HW135447   3.312   4.639   2.424  2.4926 -0.1679 -0.6446
 7938SOL    HW235448   3.246   0.016   2.358  0.1458  0.1327  0.4051
 7939SOL     OW35449   0.426   0.666  13.769 -0.1093 -0.4060 -0.1250
 7939SOL    HW135450   0.421   0.722  13.692  1.0760 -0.2496 -0.0826
 7939SOL    HW235451   0.398   0.579  13.738  0.3762 -0.3163 -0.7953
 7940SOL     OW35452   0.679   4.329   5.989 -0.1258 -0.3164  1.0235
 7940SOL    HW135453   0.608   4.291   5.937  2.5691 -1.1986 -2.0250
 7940SOL    HW235454   0.651   4.320   6.080 -1.4026  1.1253  0.7748
 7941SOL     OW35455   0.330   1.968   6.234  0.5480  0.0151  0.1409
 7941SOL    HW135456   0.251   2.012   6.202 -0.2460 -1.7821 -0.3505
 7941SOL    HW235457   0.389   2.042   6.220  3.2903 -2.1138  0.5742
 7942SOL     OW35458   3.199   0.302   2.822  0.1992 -0.1965 -0.0985
 7942SOL    HW135459   3.280   0.302   2.874 -0.8170  1.7845  1.4784
 7942SOL    HW235460   3.169   0.390   2.846 -3.1934 -1.0700 -1.2541
 7943SOL     OW35461   2.223   2.281  16.790 -0.3387  0.4065 -0.5664
 7943SOL    HW135462   2.141   2.240  16.761 -0.5290 -0.0648  0.6228
 7943SOL    HW235463   2.253   2.230  16.865 -0.8979 -2.2587 -2.1523
 7944SOL     OW35464   2.674   2.182   7.814 -0.1655 -0.2911  0.1125
 7944SOL    HW135465   2.682   2.259   7.758  1.9438  1.9252  3.4904
 7944SOL    HW235466   2.582   2.156   7.812 -0.4859  0.7965  0.8043
 7945SOL     OW35467   4.583   3.152  17.113 -0.7385  0.3231 -0.3471
 7945SOL    HW135468   4.499   3.133  17.072 -0.9502  0.1884  0.1530
 7945SOL    HW235469   4.561   3.228  17.167 -1.3166 -0.5316  0.6155
 7946SOL     OW35470   2.266   4.315  10.267 -0.0059 -0.1838 -0.6111
 7946SOL    HW135471   2.249   4.224  10.244  1.3321 -0.4323 -0.6023
 7946SOL    HW235472   2.213   4.357  10.200 -1.9873 -0.8306  0.5564
 7947SOL     OW35473   2.933   1.773   7.581  0.6730 -0.1906 -0.5391
 7947SOL    HW135474   2.857   1.772   7.639 -0.5102  1.4608 -2.0912
 7947SOL    HW235475   2.922   1.843   7.517 -0.9465  1.3184  1.4089
 7948SOL     OW35476   1.323   3.536   0.470  0.0896 -0.4980 -0.4006
 7948SOL    HW135477   1.257   3.544   0.401 -0.3494 -5.7196 -0.6228
 7948SOL    HW235478   1.394   3.510   0.411  0.2785  1.9327 -1.2380
 7949SOL     OW35479   1.744   1.953   7.178 -0.4003 -0.7277  0.3017
 7949SOL    HW135480   1.801   2.029   7.164 -2.0950  0.4218 -0.3977
 7949SOL    HW235481   1.718   1.937   7.087 -1.1364  0.2329  0.3352
 7950SOL     OW35482   0.471   2.635  12.058  0.5701  1.0177 -0.0660
 7950SOL    HW135483   0.409   2.704  12.032 -0.0924  0.7797  0.8779
 7950SOL    HW235484   0.412   2.598  12.124 -0.1835  1.7250 -0.3383
 7951SOL     OW35485   0.293   2.563  11.036 -0.1202 -0.0440 -0.0489
 7951SOL    HW135486   0.366   2.527  10.986  0.8369 -0.8124  1.9099
 7951SOL    HW235487   0.258   2.483  11.076 -0.2552  0.1415  0.2056
 7952SOL     OW35488   4.072   3.828  13.306 -0.7194 -0.2437  0.2584
 7952SOL    HW135489   4.056   3.741  13.268  1.8218  0.0367 -1.4209
 7952SOL    HW235490   3.994   3.874  13.274  0.3540  0.6029 -1.1446
 7953SOL     OW35491   0.282   2.861   1.230  0.8346  0.6763  0.9181
 7953SOL    HW135492   0.246   2.791   1.175 -0.6431  0.6555  1.9074
 7953SOL    HW235493   0.270   2.944   1.183 -0.1638  0.8794  1.5199
 7954SOL     OW35494   1.078   4.477   9.321 -0.0574 -0.1932 -0.0944
 7954SOL    HW135495   1.017   4.479   9.247 -0.6866 -1.6137  0.3870
 7954SOL    HW235496   1.074   4.384   9.343  1.3486 -0.9487 -3.0148
 7955SOL     OW35497   1.833   0.806   7.163 -0.5546  0.0060 -0.2895
 7955SOL    HW135498   1.754   0.852   7.189  0.1924  0.0499  1.9874
 7955SOL    HW235499   1.815   0.787   7.071 -0.2869  0.8569 -0.5177
 7956SOL     OW35500   0.475   2.407   3.751  0.4356 -0.5022  0.0987
 7956SOL    HW135501   0.561   2.415   3.791  1.3696 -0.8975 -1.8432
 7956SOL    HW235502   0.490   2.441   3.662 -2.7539  0.0334 -0.2546
 7957SOL     OW35503   0.096   2.172   3.494  0.5832  0.1258  0.6742
 7957SOL    HW135504   0.084   2.212   3.408  1.4381  1.1302  1.0055
 7957SOL    HW235505   0.187   2.142   3.487  0.2287 -0.7615  0.0176
 7958SOL     OW35506   4.335   2.651   4.009 -0.1383 -0.1159  0.3427
 7958SOL    HW135507   4.401   2.642   3.940  0.7377  0.1831  1.1365
 7958SOL    HW235508   4.377   2.715   4.067 -0.6321  2.8216 -2.4898
 7959SOL     OW35509   4.044   3.198  10.421 -0.3262  0.1842 -0.3530
 7959SOL    HW135510   4.089   3.174  10.502  0.0294 -0.6291 -0.7913
 7959SOL    HW235511   3.998   3.278  10.444  2.1597  1.3441  0.5127
 7960SOL     OW35512   4.544   2.233   3.990  0.0474  0.0191  0.0224
 7960SOL    HW135513   4.586   2.208   3.908 -0.6012  0.1803 -0.3621
 7960SOL    HW235514   4.575   2.167   4.052  1.6830  0.5743 -0.1872
 7961SOL     OW35515   0.539   3.211   6.094  0.3191  0.0521 -0.3296
 7961SOL    HW135516   0.519   3.248   6.180 -0.0478 -0.0857 -0.3566
 7961SOL    HW235517   0.468   3.150   6.074 -0.4833  0.9875 -0.3615
 7962SOL     OW35518   3.207   2.968   1.852  0.2037 -0.7722  0.4602
 7962SOL    HW135519   3.178   2.918   1.776 -2.7249 -0.4861  1.3681
 7962SOL    HW235520   3.267   2.901   1.885  2.0214 -0.4015 -2.1306
 7963SOL     OW35521   3.089   0.123   3.334  0.0808 -0.1313 -0.1376
 7963SOL    HW135522   3.138   0.110   3.253 -0.2834 -0.5199 -0.2979
 7963SOL    HW235523   3.002   0.116   3.294 -1.2109  0.4967  2.5019
 7964SOL     OW35524   2.554   1.874   6.201 -0.2605 -0.5417  0.1414
 7964SOL    HW135525   2.535   1.908   6.113 -0.8283 -1.8723 -0.2562
 7964SOL    HW235526   2.546   1.952   6.256  0.4975 -0.8332  0.6623
 7965SOL     OW35527   2.716   0.846   4.168 -0.6210  0.0467 -0.3054
 7965SOL    HW135528   2.757   0.762   4.186  0.8054  0.5808 -1.0357
 7965SOL    HW235529   2.703   0.845   4.074 -2.4395 -1.3367 -0.0408
 7966SOL     OW35530   1.447   3.394   6.313  0.0944 -0.2355  0.2807
 7966SOL    HW135531   1.501   3.317   6.327 -2.2277 -2.2678 -1.9168
 7966SOL    HW235532   1.441   3.426   6.404  1.8160  0.7540  0.0519
 7967SOL     OW35533   1.085   0.909   3.997  0.0570  0.3212  0.0776
 7967SOL    HW135534   1.129   0.890   3.914 -0.1610 -0.5716  0.1670
 7967SOL    HW235535   1.137   0.984   4.026  0.6040  1.0782 -2.8035
 7968SOL     OW35536   4.484   3.035   2.981 -0.0465  0.5074  0.4502
 7968SOL    HW135537   4.559   2.976   2.982  0.8675  1.6514 -0.9385
 7968SOL    HW235538   4.443   3.011   3.064  1.2222 -1.8733  0.4151
 7969SOL     OW35539   2.967   2.356   8.075 -0.1119 -0.1202 -0.0599
 7969SOL    HW135540   2.968   2.435   8.021 -0.7320 -0.3938 -0.4772
 7969SOL    HW235541   3.061   2.342   8.087 -0.1707 -1.1618 -0.9056
 7970SOL     OW35542   3.307   4.591  13.713  0.3748 -0.2121 -0.0694
 7970SOL    HW135543   3.272   4.678  13.694  1.8355  0.4508  0.2252
 7970SOL    HW235544   3.227   4.549  13.745 -0.3333  1.0695 -0.1284
 7971SOL     OW35545   4.182   1.752   6.533  0.0732  0.4029  0.4640
 7971SOL    HW135546   4.211   1.836   6.499  0.4203  0.6870  1.4674
 7971SOL    HW235547   4.199   1.693   6.460 -1.5344 -1.9141  1.9323
 7972SOL     OW35548   0.455   4.148   3.457  0.6874 -0.1525  0.3604
 7972SOL    HW135549   0.460   4.055   3.479 -1.3850 -0.1348  0.8585
 7972SOL    HW235550   0.361   4.162   3.466  0.8015  1.5460 -1.0189
 7973SOL     OW35551   3.036   1.887   1.521  0.3796 -0.2421 -0.0568
 7973SOL    HW135552   3.040   1.922   1.610 -1.6385 -1.0297  0.3426
 7973SOL    HW235553   3.096   1.814   1.535 -0.0262 -0.4928  0.3664
 7974SOL     OW35554   4.208   1.707   7.751  0.4053  0.1732 -0.1347
 7974SOL    HW135555   4.134   1.702   7.691  0.2873 -0.2180  0.0398
 7974SOL    HW235556   4.243   1.794   7.732  0.1708 -0.0632 -1.6260
 7975SOL     OW35557   1.803   1.618   0.472  0.3002  0.4622 -0.1145
 7975SOL    HW135558   1.724   1.565   0.458 -0.5228  1.7575 -0.3455
 7975SOL    HW235559   1.868   1.548   0.464  0.6603  0.6999  0.7442
 7976SOL     OW35560   0.191   1.936   3.825 -0.5593  0.5695  0.8303
 7976SOL    HW135561   0.243   2.007   3.786 -1.0784  0.8434  0.6465
 7976SOL    HW235562   0.136   1.905   3.753  0.9603  0.2355 -0.1967
 7977SOL     OW35563   4.185   0.970   1.298  0.1316 -0.8688  0.3618
 7977SOL    HW135564   4.160   0.952   1.389 -0.7710  0.1836  0.3182
 7977SOL    HW235565   4.161   1.063   1.297  1.4840 -0.4974  1.1681
 7978SOL     OW35566   3.164   2.406   9.711  0.1606  0.0351  0.3394
 7978SOL    HW135567   3.129   2.321   9.684 -2.1629  0.7550  1.0524
 7978SOL    HW235568   3.159   2.456   9.630 -2.0798 -1.3496 -0.3464
 7979SOL     OW35569   1.467   1.426   1.355  0.0395  0.3350  0.0622
 7979SOL    HW135570   1.456   1.517   1.382  1.7349  0.0283  1.7687
 7979SOL    HW235571   1.562   1.415   1.349  0.2065  2.5544 -1.2284
 7980SOL     OW35572   3.367   2.073   6.481 -0.3124 -0.3055 -0.0248
 7980SOL    HW135573   3.337   2.018   6.409 -1.3566  0.0465  0.1340
 7980SOL    HW235574   3.318   2.153   6.463  3.4223  2.0838  0.5062
 7981SOL     OW35575   0.017   3.650   1.940  0.2835 -0.3168 -0.0154
 7981SOL    HW135576   0.045   3.706   2.013 -1.2612  0.3787  0.0657
 7981SOL    HW235577   4.680   3.702   1.921  2.2939  2.1132 -1.5482
 7982SOL     OW35578   4.421   2.261   1.917  0.1664  0.1604 -0.2099
 7982SOL    HW135579   4.435   2.312   1.837 -0.1694  0.0142 -0.3597
 7982SOL    HW235580   4.392   2.176   1.886 -0.4136 -0.6207  2.4863
 7983SOL     OW35581   4.595   4.739   3.562 -0.5655  0.1749 -0.6924
 7983SOL    HW135582   4.521   4.690   3.598  0.2549 -1.2190 -0.9081
 7983SOL    HW235583   4.655   4.719   3.634  0.4456  0.5888 -1.4165
 7984SOL     OW35584   1.394   2.219  14.990 -0.2345 -0.4044 -0.7520
 7984SOL    HW135585   1.316   2.207  14.935 -1.2271  2.5594  0.0105
 7984SOL    HW235586   1.426   2.129  14.995  1.5125  0.2810  0.2896
 7985SOL     OW35587   0.629   3.363   4.703 -0.2303  0.1602 -0.3335
 7985SOL    HW135588   0.626   3.458   4.700  1.1621  0.2731  1.7999
 7985SOL    HW235589   0.539   3.341   4.728 -0.1560  0.1119 -0.1064
 7986SOL     OW35590   4.118   2.037   6.046 -0.2007  0.1000  0.0550
 7986SOL    HW135591   4.117   2.124   6.085  0.4929  0.5031 -0.8393
 7986SOL    HW235592   4.044   2.033   5.986 -0.4072 -0.4696  0.3462
 7987SOL     OW35593   2.686   0.417  16.947 -0.0633  0.2336 -0.2402
 7987SOL    HW135594   2.593   0.401  16.932  0.0839 -1.9963  1.2041
 7987SOL    HW235595   2.691   0.510  16.928  0.8663  0.1770 -0.2688
 7988SOL     OW35596   1.988   3.797   4.384  0.0519 -0.2784 -0.5765
 7988SOL    HW135597   2.015   3.713   4.422  2.1381  0.2684 -0.8375
 7988SOL    HW235598   1.894   3.787   4.396  0.1659 -1.2295 -0.4644
 7989SOL     OW35599   2.637   0.244   5.689 -0.2341 -0.3499  0.7003
 7989SOL    HW135600   2.683   0.170   5.728 -0.0143  0.0154  1.1331
 7989SOL    HW235601   2.632   0.302   5.765  0.1761  0.1889  0.3177
 7990SOL     OW35602   1.292   4.706   6.194  0.4397  0.5997 -0.2080
 7990SOL    HW135603   1.383   4.722   6.167  0.4745  1.8712  0.6793
 7990SOL    HW235604   1.316   4.643   6.261 -2.8101 -0.4124  0.0086
 7991SOL     OW35605   2.792   4.075  10.641  0.3490 -0.0179 -0.0059
 7991SOL    HW135606   2.734   4.046  10.571 -0.9135  0.5760  0.7941
 7991SOL    HW235607   2.864   4.012  10.642  0.7372  0.4292  0.2110
 7992SOL     OW35608   3.824   1.690   6.429 -0.1767 -0.2115  0.0846
 7992SOL    HW135609   3.902   1.712   6.377 -0.0544  1.7628  1.0981
 7992SOL    HW235610   3.828   1.764   6.489 -0.6902 -0.7979  0.8280
 7993SOL     OW35611   0.282   4.582  16.904 -0.4426 -0.5351 -0.2068
 7993SOL    HW135612   0.366   4.546  16.876 -1.1493 -2.0148 -0.4121
 7993SOL    HW235613   0.270   4.550  16.993  1.4735 -1.6880 -0.3641
 7994SOL     OW35614   1.365   1.681   2.040 -0.0291 -0.1637  0.1316
 7994SOL    HW135615   1.440   1.644   2.086 -1.6853  0.6008  3.4890
 7994SOL    HW235616   1.410   1.717   1.964  0.4912 -1.7483 -0.3077
 7995SOL     OW35617   2.741   2.181   9.362 -0.0414  0.1986  0.0421
 7995SOL    HW135618   2.831   2.163   9.334 -1.1080 -0.6706 -2.8523
 7995SOL    HW235619   2.720   2.095   9.397  1.3887 -1.0089 -2.0476
 7996SOL     OW35620   0.066   1.406   6.379 -0.6508  0.6741 -0.4698
 7996SOL    HW135621   0.141   1.419   6.322 -0.7583 -0.8679 -0.9756
 7996SOL    HW235622   4.739   1.452   6.329 -1.9534 -0.3091  0.3896
 7997SOL     OW35623   3.779   0.888   7.980  0.6098 -0.3304 -0.1839
 7997SOL    HW135624   3.709   0.897   8.044 -0.6811  0.2413 -1.6596
 7997SOL    HW235625   3.742   0.817   7.929 -0.5993 -0.5230  0.9601
 7998SOL     OW35626   0.049   2.626  12.825  0.2746  0.0118  0.2969
 7998SOL    HW135627   0.089   2.635  12.739 -0.4055 -0.5168 -0.0749
 7998SOL    HW235628   0.042   2.718  12.852 -2.5500 -0.9120  2.7691
 7999SOL     OW35629   0.741   1.816   9.500 -0.4302  0.1038  0.0386
 7999SOL    HW135630   0.788   1.742   9.461  1.3893  1.5444 -0.4644
 7999SOL    HW235631   0.756   1.795   9.593  0.7536 -1.1409 -0.4362
 8000SOL     OW35632   3.015   2.698  10.199  0.3861  0.5195 -0.7495
 8000SOL    HW135633   3.097   2.697  10.247 -0.0432 -0.7869 -0.0518
 8000SOL    HW235634   3.047   2.735  10.117  1.8332 -0.3125 -0.5476
 8001SOL     OW35635   2.767   2.133   1.620 -0.4620  0.3431  0.0904
 8001SOL    HW135636   2.729   2.185   1.691  1.8637 -1.7478  2.8700
 8001SOL    HW235637   2.840   2.097   1.671 -0.5576 -0.7808 -0.5595
 8002SOL     OW35638   1.394   3.350  10.071 -0.5320  0.3641 -0.1773
 8002SOL    HW135639   1.487   3.330  10.085 -0.3089  0.7828 -1.0171
 8002SOL    HW235640   1.377   3.294   9.995 -2.9627  1.6715 -0.5654
 8003SOL     OW35641   0.023   1.570  10.986 -0.2554  0.3234  0.5653
 8003SOL    HW135642   0.062   1.500  11.038 -1.0431 -0.4196  0.1464
 8003SOL    HW235643   4.675   1.536  10.980 -0.3714  0.9366 -1.1088
 8004SOL     OW35644   0.638   2.526   7.636 -0.2519 -0.0244  0.0671
 8004SOL    HW135645   0.603   2.614   7.654 -3.2632 -1.0781 -0.6791
 8004SOL    HW235646   0.578   2.477   7.693  0.0192  0.2588  0.6003
 8005SOL     OW35647   0.939   3.723   6.535  0.0416  0.1513 -1.1352
 8005SOL    HW135648   1.013   3.713   6.595 -1.2792 -0.4169  0.4013
 8005SOL    HW235649   0.964   3.800   6.484  0.9668  0.3069 -0.4489
 8006SOL     OW35650   0.270   4.231   3.849 -0.8041  0.0078 -0.5213
 8006SOL    HW135651   0.240   4.202   3.936 -0.7530  0.8602 -0.2196
 8006SOL    HW235652   0.277   4.143   3.811  1.2237 -0.5724  1.2041
 8007SOL     OW35653   4.172   4.460   6.732 -0.1235  0.2735  0.1290
 8007SOL    HW135654   4.192   4.407   6.655 -2.1251 -1.4778  0.8061
 8007SOL    HW235655   4.262   4.469   6.763 -0.0797 -0.9099  0.3418
 8008SOL     OW35656   3.371   1.457   5.386  0.3044 -0.2527 -0.1809
 8008SOL    HW135657   3.445   1.413   5.343 -0.3538 -1.5915  0.0422
 8008SOL    HW235658   3.357   1.396   5.458 -0.8874 -1.2037 -1.2196
 8009SOL     OW35659   0.587   3.588   7.784 -0.0087 -0.1926 -0.5812
 8009SOL    HW135660   0.508   3.538   7.804 -0.7433  1.2574  0.1650
 8009SOL    HW235661   0.596   3.642   7.862 -0.5711 -0.8624 -0.0536
 8010SOL     OW35662   0.052   1.178   7.554 -0.0679  0.2143  0.8833
 8010SOL    HW135663   4.720   1.233   7.523 -0.8766  0.1897  2.6837
 8010SOL    HW235664   0.036   1.173   7.649  2.8397  1.8114  1.4576
 8011SOL     OW35665   1.702   4.273  15.062  0.7428  0.5351  0.2648
 8011SOL    HW135666   1.774   4.331  15.035 -0.5815  0.5379 -3.2930
 8011SOL    HW235667   1.722   4.200  15.004  0.4196  0.5268  0.1636
 8012SOL     OW35668   2.658   2.825   2.153 -0.2663  0.0230  0.1010
 8012SOL    HW135669   2.601   2.762   2.108 -0.9865 -1.0190  2.4620
 8012SOL    HW235670   2.622   2.816   2.242 -1.0722  2.1220  0.0003
 8013SOL     OW35671   0.957   1.867   6.323  0.3869  1.0907  0.1615
 8013SOL    HW135672   0.902   1.856   6.401  1.0816 -1.3411  0.3039
 8013SOL    HW235673   1.021   1.798   6.336 -0.2247  0.6963  1.0527
 8014SOL     OW35674   2.550   4.550   8.846 -0.4537 -0.1680 -0.1194
 8014SOL    HW135675   2.464   4.550   8.888 -0.2848  2.0402  0.2107
 8014SOL    HW235676   2.572   4.457   8.845  2.1333  0.4506 -0.6398
 8015SOL     OW35677   3.761   3.976   9.439  0.3075  0.5531 -1.0407
 8015SOL    HW135678   3.786   4.058   9.483 -1.5167  1.0812 -1.0255
 8015SOL    HW235679   3.819   3.970   9.363  2.0330  0.8833  0.2485
 8016SOL     OW35680   3.372   1.869   1.832 -0.1690 -0.2970 -0.2964
 8016SOL    HW135681   3.352   1.962   1.822 -1.1304 -0.3527  1.0907
 8016SOL    HW235682   3.361   1.849   1.925 -0.8006  1.7728  0.0732
 8017SOL     OW35683   4.226   2.218   3.951  0.0510 -0.4648  0.3112
 8017SOL    HW135684   4.197   2.294   3.902 -0.7613 -1.1188 -0.2290
 8017SOL    HW235685   4.305   2.257   3.987  0.2249 -0.8324  0.3285
 8018SOL     OW35686   2.669   3.225  13.539  0.3452 -0.1825  0.1177
 8018SOL    HW135687   2.696   3.207  13.629  0.7036 -2.6884 -0.4823
 8018SOL    HW235688   2.684   3.319  13.533 -1.7670  0.2121  1.0450
 8019SOL     OW35689   3.551   2.206   3.345 -0.2239 -0.2385  0.0061
 8019SOL    HW135690   3.526   2.114   3.335 -0.5298 -0.0851 -0.6615
 8019SOL    HW235691   3.644   2.207   3.326 -0.4171 -1.2342 -0.9843
 8020SOL     OW35692   2.229   3.688   6.252 -0.1798  0.8439 -0.1477
 8020SOL    HW135693   2.310   3.698   6.202  0.4560  0.1996  0.7483
 8020SOL    HW235694   2.177   3.635   6.192  1.0524 -0.0582 -0.4118
 8021SOL     OW35695   0.440   4.262   7.634 -0.3746 -0.4333  0.2551
 8021SOL    HW135696   0.354   4.245   7.672 -1.2435  0.5772 -1.2584
 8021SOL    HW235697   0.477   4.174   7.633 -0.4522 -0.4328 -2.7187
 8022SOL     OW35698   4.474   2.242   6.383  0.1792  0.7428  0.2105
 8022SOL    HW135699   4.546   2.302   6.401  1.5171 -1.1650  1.1421
 8022SOL    HW235700   4.471   2.185   6.459 -0.7585  2.5169  1.5112
 8023SOL     OW35701   2.372   3.492  17.415 -0.0725  0.2090  0.3716
 8023SOL    HW135702   2.463   3.515  17.434  0.0918 -0.1588  0.0014
 8023SOL    HW235703   2.356   3.423  17.479 -0.1015  1.1936  1.4278
 8024SOL     OW35704   4.675   3.795  16.527 -0.7973  0.1071 -0.1737
 8024SOL    HW135705   0.010   3.841  16.491  1.2222 -3.4684 -0.5002
 8024SOL    HW235706   4.617   3.789  16.451 -1.3718 -0.9668  0.3458
 8025SOL     OW35707   3.797   1.789   2.149 -0.1481  0.7495  0.1435
 8025SOL    HW135708   3.767   1.849   2.080 -0.1462 -0.7765 -1.2051
 8025SOL    HW235709   3.721   1.731   2.153 -0.4536  1.0922 -0.6337
 8026SOL     OW35710   1.934   1.597   6.313 -0.2728 -0.1295  0.2872
 8026SOL    HW135711   1.915   1.528   6.377  1.6050 -0.6659  0.2448
 8026SOL    HW235712   1.988   1.664   6.355  1.6080 -0.7933 -1.1235
 8027SOL     OW35713   3.372   3.132   6.996 -0.1712 -0.1460 -0.4945
 8027SOL    HW135714   3.437   3.139   6.927 -0.0964 -3.0768 -0.7446
 8027SOL    HW235715   3.330   3.217   7.005 -2.3408 -1.4719  1.9678
 8028SOL     OW35716   4.676   1.409  14.323  0.0082  0.2595 -0.3525
 8028SOL    HW135717   4.639   1.492  14.352  1.2547 -0.1342  2.4609
 8028SOL    HW235718   0.026   1.432  14.306  0.6540 -0.3256  2.2127
 8029SOL     OW35719   1.066   2.099  11.403  0.8248  0.1882 -0.2537
 8029SOL    HW135720   1.145   2.152  11.391  0.5443  1.0740  1.7959
 8029SOL    HW235721   1.107   2.013  11.393  0.3445  0.0053 -0.6288
 8030SOL     OW35722   2.971   4.046   6.451 -0.1904 -0.0308 -0.5605
 8030SOL    HW135723   2.883   4.014   6.428  0.0384 -0.4953 -0.7852
 8030SOL    HW235724   2.945   4.138   6.449  0.1134  0.0411 -1.4003
 8031SOL     OW35725   3.489   1.643   2.850  0.1498 -0.6264  0.5672
 8031SOL    HW135726   3.523   1.554   2.836 -0.9877 -0.7717 -1.3819
 8031SOL    HW235727   3.574   1.686   2.847  0.9258 -2.1566  0.5662
 8032SOL     OW35728   3.443   3.508   8.051  0.1930 -0.1430 -0.0202
 8032SOL    HW135729   3.383   3.534   8.120  0.0602 -2.4320  0.7318
 8032SOL    HW235730   3.418   3.416   8.047 -1.8338  0.3127  2.6285
 8033SOL     OW35731   2.543   0.766   7.523 -0.2668  0.2679  0.7959
 8033SOL    HW135732   2.541   0.798   7.433  2.4875  1.0757  1.0034
 8033SOL    HW235733   2.600   0.690   7.512 -0.6238  0.2849 -1.1381
 8034SOL     OW35734   0.508   0.966  13.493 -0.3860  0.2963 -0.0806
 8034SOL    HW135735   0.532   0.996  13.581  0.2947  1.3695 -0.6356
 8034SOL    HW235736   0.512   1.052  13.452  3.1349 -0.5426 -1.5019
 8035SOL     OW35737   0.605   1.467   5.892 -0.1416 -0.1400 -0.2990
 8035SOL    HW135738   0.514   1.449   5.869 -0.2693 -0.6355  0.6266
 8035SOL    HW235739   0.624   1.465   5.985  1.0245 -0.1611 -0.5404
 8036SOL     OW35740   2.409   4.719  16.364 -0.0608  0.0781  0.2424
 8036SOL    HW135741   2.487   0.022  16.331 -0.5247  0.0662 -0.8696
 8036SOL    HW235742   2.422   4.710  16.459 -0.3070 -2.6184  0.0029
 8037SOL     OW35743   1.289   4.693  13.416 -0.0146  0.0938  0.3012
 8037SOL    HW135744   1.348   4.739  13.355 -0.6730  0.9352  0.3006
 8037SOL    HW235745   1.221   4.665  13.355 -0.7859  5.2339 -1.2235
 8038SOL     OW35746   1.229   3.542   3.951  0.0706 -0.0647  0.3328
 8038SOL    HW135747   1.139   3.537   3.921 -0.4322 -1.3519  2.0109
 8038SOL    HW235748   1.213   3.501   4.036  1.8655 -0.4955  0.4804
 8039SOL     OW35749   0.821   1.845   1.690 -0.1343  0.4298  0.3846
 8039SOL    HW135750   0.819   1.866   1.784 -0.1254 -0.3175  0.5504
 8039SOL    HW235751   0.823   1.749   1.687  1.5533  0.4249  1.4847
 8040SOL     OW35752   2.102   4.010   2.822 -0.4120 -0.0958 -0.0290
 8040SOL    HW135753   2.070   4.095   2.852  2.2860  1.0886 -0.4480
 8040SOL    HW235754   2.032   3.975   2.767 -0.5331 -1.2564  0.8523
 8041SOL     OW35755   3.584   2.152   5.346 -0.3195 -0.3307 -0.6777
 8041SOL    HW135756   3.624   2.233   5.377  0.9146 -0.5445 -1.7066
 8041SOL    HW235757   3.500   2.179   5.308 -0.5038  0.9643  0.6594
 8042SOL     OW35758   4.238   4.715   3.450  0.1712 -0.1975 -0.1793
 8042SOL    HW135759   4.289   0.047   3.415 -1.3004  0.9923  0.1390
 8042SOL    HW235760   4.176   4.697   3.378 -1.0677  0.1167  0.8051
 8043SOL     OW35761   1.867   3.846   7.207  0.0781  0.4354 -0.6610
 8043SOL    HW135762   1.805   3.895   7.153 -1.1608  0.2839  0.6068
 8043SOL    HW235763   1.831   3.758   7.197  2.6149 -0.7680  0.9013
 8044SOL     OW35764   3.323   3.565   4.210  0.4254 -0.1993  0.1616
 8044SOL    HW135765   3.387   3.628   4.244 -1.2713  0.9224  1.3224
 8044SOL    HW235766   3.239   3.613   4.214 -0.7839 -2.3174  0.0904
 8045SOL     OW35767   0.498   0.943   2.714 -0.0527  0.1636 -0.0601
 8045SOL    HW135768   0.551   0.870   2.746  1.8981  2.0910  1.0785
 8045SOL    HW235769   0.506   1.006   2.785  2.8997 -0.2847 -0.0004
 8046SOL     OW35770   2.830   2.920   5.784  0.1247  0.0152 -0.2806
 8046SOL    HW135771   2.794   2.835   5.808 -1.4153  0.2935 -1.5789
 8046SOL    HW235772   2.914   2.897   5.746 -0.1814 -1.1192 -0.2650
 8047SOL     OW35773   4.675   3.553   7.019 -0.0325 -0.3222 -0.0728
 8047SOL    HW135774   4.668   3.601   6.936 -0.3569 -0.3951 -0.0871
 8047SOL    HW235775   4.581   3.543   7.035 -0.4748  0.5878 -2.1007
 8048SOL     OW35776   3.884   2.962   3.683 -0.4243  0.1898  0.2630
 8048SOL    HW135777   3.827   2.963   3.760 -0.9738 -1.1140 -0.1357
 8048SOL    HW235778   3.839   3.028   3.631  0.1789  0.1046 -0.3571
 8049SOL     OW35779   3.962   1.471   6.219 -0.4294 -0.6113  0.2371
 8049SOL    HW135780   4.050   1.439   6.200 -0.0059  1.0131 -0.5964
 8049SOL    HW235781   3.926   1.396   6.265  0.8202 -1.8516 -0.8069
 8050SOL     OW35782   4.179   3.999   2.948 -0.1699 -0.3229 -0.0574
 8050SOL    HW135783   4.149   4.089   2.942  0.0514 -0.3303 -1.2508
 8050SOL    HW235784   4.098   3.952   2.927 -0.0170 -0.5694 -0.1012
 8051SOL     OW35785   0.319   0.492   1.549 -0.1429 -0.5020  0.4234
 8051SOL    HW135786   0.394   0.465   1.602  0.2258  1.6377  0.9933
 8051SOL    HW235787   0.316   0.411   1.498  0.9693 -0.2439 -0.0363
 8052SOL     OW35788   1.364   0.528   4.837 -0.5806 -0.3099 -0.2517
 8052SOL    HW135789   1.345   0.435   4.839  1.3028 -0.7253 -1.6093
 8052SOL    HW235790   1.330   0.560   4.921 -0.3758  1.0165 -0.6611
 8053SOL     OW35791   2.158   0.812   5.853 -0.1338  0.2256  0.1860
 8053SOL    HW135792   2.236   0.847   5.894  0.6440  0.8654 -1.8441
 8053SOL    HW235793   2.181   0.784   5.764 -2.5852 -0.4800 -0.2418
 8054SOL     OW35794   2.635   0.332   3.827  0.1407 -0.0921  0.1879
 8054SOL    HW135795   2.685   0.256   3.857  2.0838  1.0846 -0.0711
 8054SOL    HW235796   2.699   0.375   3.770 -1.1943  0.9026 -0.5774
 8055SOL     OW35797   4.338   2.438   0.945 -0.0949  0.0397 -0.1170
 8055SOL    HW135798   4.361   2.444   0.852  2.6330 -0.6687  0.5080
 8055SOL    HW235799   4.384   2.356   0.959  0.0850  0.4810  1.9450
 8056SOL     OW35800   4.218   4.161   7.041 -0.6413  0.2188 -0.1910
 8056SOL    HW135801   4.274   4.196   6.972  1.6910  1.3870  2.3104
 8056SOL    HW235802   4.132   4.164   6.999 -0.9733 -3.1219  0.1867
 8057SOL     OW35803   0.443   1.361   4.863 -0.0184 -0.3587 -0.2020
 8057SOL    HW135804   0.393   1.285   4.835  0.9295 -2.1382  2.9490
 8057SOL    HW235805   0.398   1.428   4.811 -1.4371 -0.2400  1.1843
 8058SOL     OW35806   1.324   0.245   7.045  0.2781  0.2353  0.7113
 8058SOL    HW135807   1.374   0.325   7.063 -1.7134  2.1047 -1.9634
 8058SOL    HW235808   1.284   0.223   7.129 -0.7660  1.9241  0.6528
 8059SOL     OW35809   2.802   4.150   4.477 -0.2234 -0.2823  0.5092
 8059SOL    HW135810   2.728   4.117   4.425 -1.9067  1.1919  2.0050
 8059SOL    HW235811   2.868   4.156   4.407  0.6250  3.2768  1.6103
 8060SOL     OW35812   2.435   0.543   4.479  0.4141 -0.2612  0.4604
 8060SOL    HW135813   2.412   0.486   4.406 -0.3087 -0.7507  1.0781
 8060SOL    HW235814   2.510   0.496   4.517  1.4067 -1.0775 -2.4786
 8061SOL     OW35815   4.094   4.045   4.992  0.4523 -0.0030  0.1129
 8061SOL    HW135816   4.048   4.097   4.927 -0.0978 -0.7722 -0.1229
 8061SOL    HW235817   4.182   4.083   4.994 -0.1924  1.4794 -0.3177
 8062SOL     OW35818   0.276   1.713  14.750  0.0572 -0.2775  0.2209
 8062SOL    HW135819   0.348   1.695  14.809 -1.0593  1.6343  2.1540
 8062SOL    HW235820   0.303   1.656  14.677 -1.8865  1.3451 -1.7939
 8063SOL     OW35821   0.715   1.278   5.403  0.2665  0.3730 -0.3006
 8063SOL    HW135822   0.650   1.209   5.414  2.1743 -1.2759  0.7251
 8063SOL    HW235823   0.752   1.297   5.489  1.2850  1.2240 -0.9139
 8064SOL     OW35824   3.156   2.754   4.050  0.2478 -0.7739 -0.0598
 8064SOL    HW135825   3.169   2.762   3.956 -0.9676  0.4294 -0.1169
 8064SOL    HW235826   3.147   2.659   4.051 -1.3038 -0.6193 -0.0690
 8065SOL     OW35827   0.934   2.237   5.750 -0.0402  0.1085  0.4498
 8065SOL    HW135828   0.876   2.307   5.779  1.0530  0.6715  1.2926
 8065SOL    HW235829   0.875   2.180   5.702 -0.9142  2.0445 -0.7930
 8066SOL     OW35830   3.202   1.728   4.222 -0.3328  0.1016  0.0745
 8066SOL    HW135831   3.224   1.678   4.143  1.6007 -0.2072  0.7898
 8066SOL    HW235832   3.224   1.658   4.284 -0.7643 -0.5597 -0.5166
 8067SOL     OW35833   1.656   3.302   5.562 -0.9699  0.2355  0.0250
 8067SOL    HW135834   1.642   3.234   5.628  0.5792  1.6171  1.8252
 8067SOL    HW235835   1.567   3.333   5.578 -0.2631  1.2072  2.1993
 8068SOL     OW35836   4.177   3.779   6.239  0.0259 -0.3520 -0.1260
 8068SOL    HW135837   4.155   3.805   6.328 -1.9402 -0.6394 -0.5425
 8068SOL    HW235838   4.268   3.805   6.224  0.3074 -1.8789 -1.0384
 8069SOL     OW35839   2.692   3.760   9.473  0.0225 -0.1272 -0.2532
 8069SOL    HW135840   2.717   3.669   9.488 -3.7570 -1.3585 -1.2544
 8069SOL    HW235841   2.597   3.744   9.475  0.0513 -0.7335 -3.1698
 8070SOL     OW35842   0.654   2.607  17.273  0.0896 -0.2602 -0.3885
 8070SOL    HW135843   0.647   2.659  17.353  0.9485 -0.3775 -0.2392
 8070SOL    HW235844   0.738   2.640  17.242  0.0350  0.4823  0.2582
 8071SOL     OW35845   3.258   2.504   3.136 -0.4715  0.3604  0.2199
 8071SOL    HW135846   3.315   2.557   3.082  1.1021  0.5962  2.0979
 8071SOL    HW235847   3.321   2.494   3.208 -0.6101  0.7926  0.4020
 8072SOL     OW35848   0.075   1.937   7.651 -0.5195  0.0214  0.5303
 8072SOL    HW135849   0.073   1.851   7.611 -1.7763  0.7273 -0.9477
 8072SOL    HW235850   4.726   1.921   7.680 -1.0421 -0.0304 -1.1035
 8073SOL     OW35851   2.339   3.089   9.314  0.0134 -0.2144 -0.2607
 8073SOL    HW135852   2.280   3.029   9.268 -1.4540  1.7917 -0.9844
 8073SOL    HW235853   2.298   3.171   9.285 -0.9134 -0.9258 -0.9907
 8074SOL     OW35854   2.668   1.556   9.089  0.1339  0.7254  0.3388
 8074SOL    HW135855   2.707   1.641   9.071 -0.5178  1.2424  1.3254
 8074SOL    HW235856   2.627   1.532   9.006  0.3174  1.3845  0.0639
 8075SOL     OW35857   0.782   1.549  17.287 -0.3991 -0.1321 -0.0546
 8075SOL    HW135858   0.813   1.635  17.259  2.8514 -1.5507 -0.7447
 8075SOL    HW235859   0.759   1.513  17.202 -0.3846  0.0754 -0.1468
 8076SOL     OW35860   4.377   3.691   9.700 -0.0197  0.0891  0.0400
 8076SOL    HW135861   4.312   3.665   9.765  0.8840 -1.5250  0.3023
 8076SOL    HW235862   4.370   3.785   9.713  1.8040 -0.0541  2.0215
 8077SOL     OW35863   3.295   4.095   5.994 -0.1337 -0.1845 -0.1888
 8077SOL    HW135864   3.219   4.104   5.936 -0.0251 -0.1695 -0.3276
 8077SOL    HW235865   3.359   4.152   5.952  0.7936 -0.3633  0.9756
 8078SOL     OW35866   0.005   1.757  10.125 -0.2388  0.2825  0.1041
 8078SOL    HW135867   4.721   1.727  10.037  0.3679 -1.2454  0.4628
 8078SOL    HW235868   0.100   1.746  10.112 -0.5720 -0.2845 -1.9485
 8079SOL     OW35869   1.781   3.932   2.220 -0.7658 -0.0766 -0.0201
 8079SOL    HW135870   1.725   3.985   2.163 -1.5074 -3.0495 -2.0788
 8079SOL    HW235871   1.769   3.846   2.180 -2.6871 -1.4425  3.4457
 8080SOL     OW35872   0.416   1.262   1.513 -0.2404  0.2028 -0.0108
 8080SOL    HW135873   0.468   1.327   1.466  1.3433 -0.2308  1.1500
 8080SOL    HW235874   0.431   1.185   1.459 -0.5839 -0.1636  0.4112
 8081SOL     OW35875   1.368   3.273   7.858 -0.7142 -0.7885  0.0892
 8081SOL    HW135876   1.275   3.291   7.844 -0.7748 -0.0746  1.4790
 8081SOL    HW235877   1.368   3.277   7.953  2.7841  0.3640  0.0345
 8082SOL     OW35878   4.248   1.349   4.196  0.1971  0.1377  0.1020
 8082SOL    HW135879   4.330   1.349   4.146  0.3869  1.4681  0.4085
 8082SOL    HW235880   4.276   1.389   4.278  1.1431  1.5494 -0.9028
 8083SOL     OW35881   2.504   0.406  11.717 -0.0909  0.7841  0.1375
 8083SOL    HW135882   2.558   0.358  11.655  0.5583  0.7094  0.7581
 8083SOL    HW235883   2.550   0.397  11.800 -1.6705  0.6364  1.0037
 8084SOL     OW35884   2.484   4.171   1.668 -0.1326  0.1554 -0.2330
 8084SOL    HW135885   2.412   4.128   1.621  0.1228 -1.6247  1.0141
 8084SOL    HW235886   2.433   4.249   1.690  2.3549  1.5513  0.5562
 8085SOL     OW35887   3.712   4.272   9.330 -0.0049 -0.1625 -0.5889
 8085SOL    HW135888   3.783   4.257   9.393 -1.5615 -0.1071  1.1645
 8085SOL    HW235889   3.725   4.361   9.299 -0.6397 -0.2454 -1.0869
 8086SOL     OW35890   1.706   3.272   7.200  0.0294  0.3517 -0.4955
 8086SOL    HW135891   1.762   3.276   7.122 -0.0840 -0.8153 -0.6468
 8086SOL    HW235892   1.776   3.242   7.258 -2.4498  0.9640  2.7279
 8087SOL     OW35893   4.421   0.133   4.457 -0.3035 -0.3053  0.0401
 8087SOL    HW135894   4.426   0.124   4.361 -0.0775  1.6840 -0.1333
 8087SOL    HW235895   4.516   0.120   4.468 -0.3097  0.7512  1.2433
 8088SOL     OW35896   4.089   1.199   5.732  0.2328 -0.1987 -0.0248
 8088SOL    HW135897   4.111   1.122   5.785  0.7002 -0.8036 -1.1050
 8088SOL    HW235898   4.140   1.261   5.785  1.3101 -0.1373 -1.1310
 8089SOL     OW35899   1.090   1.071  11.271  0.8003  0.0937  0.1032
 8089SOL    HW135900   1.020   1.083  11.336  0.7686 -0.4935  0.1785
 8089SOL    HW235901   1.091   1.149  11.217 -0.8556 -0.8726 -1.3070
 8090SOL     OW35902   1.526   0.910   7.892  0.7779 -0.1335  0.3222
 8090SOL    HW135903   1.453   0.948   7.843 -0.2954 -0.2485  1.8246
 8090SOL    HW235904   1.505   0.817   7.880  0.4939  0.6431 -5.1451
 8091SOL     OW35905   2.615   0.352  15.457  0.2517 -0.0458  0.0901
 8091SOL    HW135906   2.705   0.321  15.462  0.9036  1.6893 -0.9169
 8091SOL    HW235907   2.578   0.307  15.534 -2.2397 -0.2371 -1.2043
 8092SOL     OW35908   4.004   3.612   6.119  0.0549  0.6189 -0.7446
 8092SOL    HW135909   4.056   3.534   6.098  0.1590  0.5855 -0.3528
 8092SOL    HW235910   4.065   3.667   6.167 -0.1038  1.0337 -1.0179
 8093SOL     OW35911   1.661   0.195   8.620  0.0971 -0.1953  0.8598
 8093SOL    HW135912   1.728   0.227   8.680 -0.0475 -1.7120  1.8305
 8093SOL    HW235913   1.675   0.241   8.538 -0.6099  0.6423  1.2135
 8094SOL     OW35914   1.830   2.838   6.828 -0.1184  0.0790  0.3795
 8094SOL    HW135915   1.870   2.830   6.741  2.0972  0.0840  1.4006
 8094SOL    HW235916   1.878   2.778   6.884  0.5592 -2.4852 -2.9508
 8095SOL     OW35917   0.020   1.072   3.976 -0.1672 -0.7745  0.2148
 8095SOL    HW135918   4.697   1.034   4.037  0.8310 -0.6484  1.3416
 8095SOL    HW235919   0.053   1.139   4.036  1.0518  0.9460 -2.4350
 8096SOL     OW35920   2.605   3.619   5.155  0.5024 -0.1559 -0.5134
 8096SOL    HW135921   2.607   3.537   5.105  0.3897  1.0521 -2.4804
 8096SOL    HW235922   2.534   3.663   5.108 -1.1279 -2.9616 -0.7082
 8097SOL     OW35923   4.541   1.000   4.629 -0.1315  0.0263 -0.7007
 8097SOL    HW135924   4.461   0.962   4.592 -1.3694  3.2280 -1.2831
 8097SOL    HW235925   4.504   1.088   4.632 -0.0517  0.0172  0.4698
 8098SOL     OW35926   1.458   1.819   5.643 -0.8876 -0.1037  0.2219
 8098SOL    HW135927   1.440   1.751   5.579  1.4890 -0.8444  0.3198
 8098SOL    HW235928   1.376   1.868   5.649 -0.6663  0.3356 -0.4054
 8099SOL     OW35929   2.881   4.110   2.296  0.2546  0.2465 -0.0577
 8099SOL    HW135930   2.973   4.097   2.273  0.1151  0.3211 -0.6391
 8099SOL    HW235931   2.867   4.197   2.258  0.7824  0.1948 -0.3741
 8100SOL     OW35932   1.929   2.217  16.792 -0.0597 -0.4456 -0.7846
 8100SOL    HW135933   1.938   2.212  16.887 -2.7245  1.3223 -0.4318
 8100SOL    HW235934   1.855   2.158  16.776 -0.2906 -0.2771 -0.3364
 8101SOL     OW35935   4.348   0.222   6.030  0.1093 -0.2741 -0.0180
 8101SOL    HW135936   4.263   0.263   6.014  0.3235  0.9510  2.0038
 8101SOL    HW235937   4.336   0.182   6.116 -2.0835  0.0959 -0.1558
 8102SOL     OW35938   2.447   1.097  13.780  0.2191  0.3797 -0.3855
 8102SOL    HW135939   2.405   1.161  13.839 -2.0344 -2.2406  0.8645
 8102SOL    HW235940   2.539   1.109  13.804  0.3571  1.9466 -1.7213
 8103SOL     OW35941   0.838   2.541   5.734 -0.0683 -0.5348  0.3003
 8103SOL    HW135942   0.753   2.498   5.723 -0.0873 -0.8933  1.9104
 8103SOL    HW235943   0.819   2.629   5.703  0.6213  0.1342  1.7970
 8104SOL     OW35944   3.603   2.720   1.765  0.2647 -0.2563 -0.2707
 8104SOL    HW135945   3.531   2.684   1.714  1.4080 -0.1380 -1.9869
 8104SOL    HW235946   3.658   2.765   1.700 -0.9114 -0.0145 -1.0960
 8105SOL     OW35947   0.036   2.922   8.993  0.1484 -0.0015  0.1161
 8105SOL    HW135948   0.105   2.858   9.009  0.4033 -0.0550 -1.1590
 8105SOL    HW235949   4.740   2.892   8.910  1.9976 -1.7634 -0.0626
 8106SOL     OW35950   3.046   3.922  10.681 -0.2627  0.2668  0.2398
 8106SOL    HW135951   3.119   3.921  10.619  1.3681  1.2540  2.1267
 8106SOL    HW235952   3.095   3.962  10.753 -1.3365  0.6236  0.7702
 8107SOL     OW35953   0.341   2.002   5.482 -0.2360 -0.2102  0.4568
 8107SOL    HW135954   0.415   1.949   5.511  0.2834 -0.5761 -1.5246
 8107SOL    HW235955   0.296   1.945   5.419 -0.6582 -1.0099  1.4681
 8108SOL     OW35956   3.674   1.029   8.647  0.4895 -0.2634 -1.0606
 8108SOL    HW135957   3.723   1.027   8.729 -1.5068 -1.4733  0.1234
 8108SOL    HW235958   3.691   0.939   8.617  2.1624  0.8562 -3.3951
 8109SOL     OW35959   3.399   0.337  13.480 -0.0664  0.0511 -0.0658
 8109SOL    HW135960   3.322   0.324  13.424 -0.7327  1.1524  0.5931
 8109SOL    HW235961   3.467   0.299  13.425 -0.0107  0.3407 -0.1960
 8110SOL     OW35962   2.770   1.489   5.917  0.1096  0.0486 -0.0662
 8110SOL    HW135963   2.679   1.518   5.910  0.2189 -0.1736 -2.4406
 8110SOL    HW235964   2.825   1.551   5.868  0.6174  1.3139  2.1293
 8111SOL     OW35965   0.335   2.509  12.279 -0.3699  0.0730 -0.0761
 8111SOL    HW135966   0.244   2.490  12.298 -0.0019  0.5077  2.1920
 8111SOL    HW235967   0.367   2.519  12.369  0.6797 -1.9805 -0.2160
 8112SOL     OW35968   1.598   0.382   6.463 -0.6576 -0.2361  0.4815
 8112SOL    HW135969   1.604   0.325   6.539  1.6002 -0.0005  0.4777
 8112SOL    HW235970   1.627   0.463   6.506  1.8233 -0.7017 -0.3665
 8113SOL     OW35971   2.856   4.186   2.976  0.9497  0.2787 -0.4736
 8113SOL    HW135972   2.904   4.207   3.056  2.3405  0.3986 -1.3249
 8113SOL    HW235973   2.883   4.098   2.952 -1.2294 -0.6906  0.6484
 8114SOL     OW35974   2.152   1.855   9.933  0.6035 -0.2836 -1.2333
 8114SOL    HW135975   2.072   1.908   9.931 -0.0131 -1.1533  0.2721
 8114SOL    HW235976   2.108   1.770   9.931 -1.1502  0.5580  1.0117
 8115SOL     OW35977   1.746   2.147   6.521  0.1419  0.4290  0.0600
 8115SOL    HW135978   1.754   2.191   6.605 -0.5164 -0.2301  0.4712
 8115SOL    HW235979   1.834   2.109   6.518  0.1309  0.6816 -3.3099
 8116SOL     OW35980   1.100   0.846   6.252  0.7375  0.6973  0.0119
 8116SOL    HW135981   1.132   0.774   6.197 -1.4908  0.0312 -0.4188
 8116SOL    HW235982   1.172   0.841   6.316  1.6687  2.2312 -0.9037
 8117SOL     OW35983   2.531   2.254   7.358 -0.1414  0.5746 -0.0890
 8117SOL    HW135984   2.496   2.190   7.296  1.3093  1.1371 -1.4850
 8117SOL    HW235985   2.561   2.318   7.294  0.0316 -1.5776 -2.1618
 8118SOL     OW35986   2.464   4.567  12.280  0.0641  0.3129 -0.2033
 8118SOL    HW135987   2.519   4.512  12.224  0.1221 -0.5487  0.6927
 8118SOL    HW235988   2.396   4.595  12.219 -1.4884  0.9922  1.8128
 8119SOL     OW35989   3.841   1.892   9.637  0.0544 -0.6808 -0.2185
 8119SOL    HW135990   3.936   1.897   9.625 -0.0975 -0.4064 -1.2746
 8119SOL    HW235991   3.806   1.937   9.561 -0.7190 -2.8716 -1.1747
 8120SOL     OW35992   1.620   1.628   3.644 -0.1704  0.1024  0.0858
 8120SOL    HW135993   1.592   1.693   3.579 -1.3005 -0.3871  0.0864
 8120SOL    HW235994   1.660   1.557   3.595 -0.7869  1.5008 -2.4277
 8121SOL     OW35995   1.875   3.067  11.248 -0.4948  0.1272 -0.3075
 8121SOL    HW135996   1.848   3.046  11.337 -0.4320  0.0250 -0.3136
 8121SOL    HW235997   1.951   3.121  11.269  0.5947 -0.2530 -3.2423
 8122SOL     OW35998   3.977   4.273   2.328  0.1335 -0.1451  0.2411
 8122SOL    HW135999   4.015   4.316   2.405 -1.3892  0.3411  0.7048
 8122SOL    HW236000   3.885   4.292   2.343  0.9233  2.9237  1.1573
 8123SOL     OW36001   2.666   2.665   5.788 -0.2900  0.2290  0.0248
 8123SOL    HW136002   2.579   2.681   5.825 -0.1840 -2.4675  1.4603
 8123SOL    HW236003   2.650   2.681   5.695 -2.1557 -2.0711 -0.0628
 8124SOL     OW36004   2.846   4.606  13.402  0.3713 -0.2918  0.1077
 8124SOL    HW136005   2.754   4.613  13.428  0.0283 -2.9400 -0.4147
 8124SOL    HW236006   2.854   4.511  13.399 -1.8396 -0.3873 -3.4105
 8125SOL     OW36007   3.852   4.002  17.655  0.4316  0.2192 -0.0870
 8125SOL    HW136008   3.764   3.991  17.693 -0.6243 -0.5317 -2.7945
 8125SOL    HW236009   3.871   3.910  17.638  4.4089  1.1659 -0.7570
 8126SOL     OW36010   3.825   1.101   6.818 -0.1349 -0.1502  0.0504
 8126SOL    HW136011   3.743   1.149   6.809 -1.1546 -1.0124  5.0390
 8126SOL    HW236012   3.853   1.073   6.731  0.1458  1.7156 -0.4757
 8127SOL     OW36013   4.216   2.915   0.168 -0.5910 -1.1814  0.0019
 8127SOL    HW136014   4.304   2.877   0.163 -0.6840 -1.4962  0.6865
 8127SOL    HW236015   4.225   2.983   0.102  0.9146 -1.8885 -0.5068
 8128SOL     OW36016   1.609   0.199   3.726 -0.1666 -0.1455 -0.0788
 8128SOL    HW136017   1.689   0.219   3.777 -0.5158 -0.1168  0.4615
 8128SOL    HW236018   1.543   0.252   3.771 -0.6866 -1.8979  1.2442
 8129SOL     OW36019   3.284   3.562   5.947 -0.3274 -0.4959  0.7822
 8129SOL    HW136020   3.373   3.542   5.919 -1.3462 -1.6034 -1.6729
 8129SOL    HW236021   3.270   3.645   5.900  0.5964 -1.6126 -1.4394
 8130SOL     OW36022   4.033   1.093   8.561  0.0960 -0.9255  0.2452
 8130SOL    HW136023   4.125   1.118   8.569  0.1752 -2.3452  3.6414
 8130SOL    HW236024   4.035   1.041   8.480  2.3786  0.7763 -0.7944
 8131SOL     OW36025   2.994   1.091   4.904 -0.1205 -0.3209  0.6031
 8131SOL    HW136026   2.964   1.182   4.905  1.7139  0.2789  1.9624
 8131SOL    HW236027   3.054   1.093   4.979 -0.7183 -1.4279  1.1009
 8132SOL     OW36028   4.038   4.304  10.708  0.7349 -0.3214  0.2585
 8132SOL    HW136029   4.074   4.249  10.638 -0.6839 -0.8008 -0.0947
 8132SOL    HW236030   4.014   4.244  10.778 -1.0310 -1.3625 -1.2455
 8133SOL     OW36031   2.287   2.361   3.149 -0.0122  0.1308  0.1018
 8133SOL    HW136032   2.193   2.379   3.155 -0.3771 -2.3937  2.3218
 8133SOL    HW236033   2.313   2.450   3.125  2.2733 -0.3658  0.6929
 8134SOL     OW36034   0.005   1.523   3.501 -0.4097 -0.1830 -0.2191
 8134SOL    HW136035   0.084   1.522   3.448 -0.4296  2.9136 -0.3022
 8134SOL    HW236036   0.017   1.446   3.557  0.2051  0.4627  0.5378
 8135SOL     OW36037   1.653   2.084   8.938  0.5877 -0.0958 -0.1461
 8135SOL    HW136038   1.702   2.008   8.970 -0.9016 -0.9231  0.1674
 8135SOL    HW236039   1.719   2.152   8.942 -0.1521  0.5242  1.8105
 8136SOL     OW36040   1.140   1.725   3.139 -0.4071 -0.4351 -0.3363
 8136SOL    HW136041   1.118   1.730   3.046  2.3453 -0.9387 -1.0142
 8136SOL    HW236042   1.216   1.667   3.140  0.9546  1.3394 -3.1376
 8137SOL     OW36043   2.030   3.103  13.806 -0.1089  0.1889 -0.0624
 8137SOL    HW136044   2.075   3.070  13.728 -1.0531  0.7572 -0.8383
 8137SOL    HW236045   2.107   3.104  13.863 -0.0614  0.1806 -0.1259
 8138SOL     OW36046   0.100   3.357   6.933  0.6404 -0.2874  0.1414
 8138SOL    HW136047   0.051   3.424   6.980  1.3045  0.5044 -0.2909
 8138SOL    HW236048   0.175   3.410   6.907  2.3610 -2.0755  1.5212
 8139SOL     OW36049   3.044   1.771   4.666  0.2022  0.0904  0.2786
 8139SOL    HW136050   3.136   1.754   4.687  0.1448  0.2919  0.6827
 8139SOL    HW236051   3.020   1.695   4.613 -1.4278  1.8891 -1.5155
 8140SOL     OW36052   0.324   2.357  16.337  0.5054  0.0639  0.1352
 8140SOL    HW136053   0.283   2.442  16.352  0.6000  0.3069 -0.9955
 8140SOL    HW236054   0.417   2.379  16.336  0.8583 -1.4473  0.0659
 8141SOL     OW36055   0.086   2.442  12.332  0.4387 -0.1596 -0.3351
 8141SOL    HW136056   0.057   2.524  12.373 -2.7395 -1.1788 -0.5871
 8141SOL    HW236057   0.004   2.395  12.320 -0.6545  1.7183 -0.2469
 8142SOL     OW36058   1.108   3.865   6.062 -0.0090 -0.2652  0.3210
 8142SOL    HW136059   1.155   3.885   5.982 -0.6946  1.6139  0.3943
 8142SOL    HW236060   1.041   3.799   6.042 -0.5977  0.7268 -0.9109
 8143SOL     OW36061   4.476   0.371   3.078 -0.1146  0.4295  0.1589
 8143SOL    HW136062   4.567   0.398   3.086  0.2015 -0.8853  0.9875
 8143SOL    HW236063   4.463   0.316   3.156 -0.3540 -0.3165 -0.4011
 8144SOL     OW36064   3.934   0.049   8.704 -0.0134  0.5144  0.2558
 8144SOL    HW136065   4.010   0.036   8.761  0.8437  0.4815 -0.9140
 8144SOL    HW236066   3.866   0.015   8.764  1.3201 -1.7458  0.4685
 8145SOL     OW36067   2.907   0.244   1.862 -0.6619  0.0166  0.4606
 8145SOL    HW136068   2.863   0.181   1.805  0.5477 -0.0686 -0.3711
 8145SOL    HW236069   2.977   0.191   1.900  1.1465  1.7461 -0.4332
 8146SOL     OW36070   0.299   3.779   0.167 -0.2109  0.3794 -0.1729
 8146SOL    HW136071   0.256   3.734   0.094 -3.5848  1.5524  1.0816
 8146SOL    HW236072   0.244   3.858   0.168  0.9759  1.2138 -0.3323
 8147SOL     OW36073   2.871   0.570   5.445 -0.2646  0.4433 -0.1608
 8147SOL    HW136074   2.891   0.519   5.367  4.0570  1.7689  0.0781
 8147SOL    HW236075   2.827   0.648   5.411  2.4368  2.3517  0.7748
 8148SOL     OW36076   3.194   3.223   6.670  0.5149 -0.9002 -0.2609
 8148SOL    HW136077   3.245   3.258   6.597  1.3006 -0.1848  0.6299
 8148SOL    HW236078   3.135   3.298   6.678 -1.4852 -2.6707  1.6371
 8149SOL     OW36079   1.144   3.615   8.746 -0.4505 -0.8561 -0.6078
 8149SOL    HW136080   1.188   3.543   8.790  1.0561  1.1673  1.1748
 8149SOL    HW236081   1.165   3.590   8.656 -0.0026 -0.2351 -0.6765
 8150SOL     OW36082   3.595   0.333  11.111  0.2911  0.1572  0.4827
 8150SOL    HW136083   3.627   0.247  11.135 -0.7176  0.3396  2.5104
 8150SOL    HW236084   3.666   0.372  11.060 -0.9082 -0.4802 -1.6743
 8151SOL     OW36085   1.587   0.717   2.321  0.9372 -0.0681  0.1495
 8151SOL    HW136086   1.596   0.768   2.401  2.3956  0.5606 -0.4109
 8151SOL    HW236087   1.563   0.793   2.268  1.6364  0.1680  0.1675
 8152SOL     OW36088   0.282   2.838   0.438  0.6225  0.7354 -0.4386
 8152SOL    HW136089   0.201   2.877   0.406 -0.7516  0.6960  2.9426
 8152SOL    HW236090   0.307   2.808   0.351 -0.3717 -1.1179 -0.0914
 8153SOL     OW36091   2.375   0.305   6.586  0.2530  0.1931 -0.3401
 8153SOL    HW136092   2.461   0.263   6.587  1.2701  2.2619 -0.6729
 8153SOL    HW236093   2.314   0.255   6.640 -1.1216 -0.0366 -2.1104
 8154SOL     OW36094   2.672   3.098   7.701 -0.2489  0.3526  0.2395
 8154SOL    HW136095   2.711   3.185   7.697  2.2075 -0.7918 -0.8915
 8154SOL    HW236096   2.751   3.044   7.691  0.1227  0.5573  2.0823
 8155SOL     OW36097   3.975   0.388  15.872  0.5973  0.4132  0.3963
 8155SOL    HW136098   3.978   0.362  15.964  0.2768  3.4388  1.2529
 8155SOL    HW236099   4.043   0.455  15.875 -0.2285  1.2308  0.7737
 8156SOL     OW36100   3.797   1.947   3.484  0.3458 -0.2958 -0.1454
 8156SOL    HW136101   3.811   1.975   3.574  2.6615 -1.2946 -0.1882
 8156SOL    HW236102   3.885   1.955   3.447  0.7566 -1.1901  0.6466
 8157SOL     OW36103   4.515   3.617   0.873  0.1222 -0.7147  0.2372
 8157SOL    HW136104   4.461   3.563   0.931 -1.2971  2.7169  2.1093
 8157SOL    HW236105   4.454   3.690   0.873 -0.9814 -1.6524 -0.9890
 8158SOL     OW36106   4.402   3.148   8.424 -0.0494 -0.3281 -0.0167
 8158SOL    HW136107   4.334   3.127   8.488  1.8735 -0.0199  2.0820
 8158SOL    HW236108   4.359   3.223   8.382 -1.5985 -1.8362 -1.1291
 8159SOL     OW36109   2.280   1.564   3.926 -0.5285 -0.4845  0.2747
 8159SOL    HW136110   2.245   1.621   3.858  0.4817 -0.9241 -0.6089
 8159SOL    HW236111   2.349   1.625   3.949  0.0996 -2.0637  2.6055
 8160SOL     OW36112   0.855   1.900  12.014  0.1598  0.2782 -0.0130
 8160SOL    HW136113   0.899   1.817  11.999  0.4916  0.3502  0.5745
 8160SOL    HW236114   0.853   1.900  12.110  0.6344  1.8643 -0.0152
 8161SOL     OW36115   0.563   1.588   1.394 -0.3161  0.8771 -0.0075
 8161SOL    HW136116   0.553   1.621   1.305 -1.0319  0.3692 -0.1232
 8161SOL    HW236117   0.656   1.568   1.399 -0.6507 -0.2137  1.8925
 8162SOL     OW36118   0.296   2.005   8.469 -0.2049 -0.1393  0.6848
 8162SOL    HW136119   0.307   1.944   8.543 -2.0275  3.9156  4.2984
 8162SOL    HW236120   0.275   1.941   8.401 -1.3457 -0.9492  1.8102
 8163SOL     OW36121   1.256   2.099   9.579 -0.6774  0.1516  0.4269
 8163SOL    HW136122   1.228   2.069   9.493 -0.9607 -0.9879  0.9235
 8163SOL    HW236123   1.254   2.194   9.563  1.0188  0.4312  1.8794
 8164SOL     OW36124   4.331   3.872   4.407 -0.9189  0.1855  0.2699
 8164SOL    HW136125   4.283   3.803   4.361  0.1748 -1.2849  1.3641
 8164SOL    HW236126   4.264   3.939   4.423 -1.5166 -0.3125 -0.1159
 8165SOL     OW36127   2.189   1.767  13.716  0.6337 -0.5960  0.0767
 8165SOL    HW136128   2.100   1.749  13.685  0.6934 -1.5384  0.4420
 8165SOL    HW236129   2.206   1.842  13.660  0.2869 -1.1107 -0.7143
 8166SOL     OW36130   2.250   3.434   4.038  0.3035 -0.2019  0.4020
 8166SOL    HW136131   2.276   3.343   4.053 -0.2809 -0.6083 -0.9646
 8166SOL    HW236132   2.156   3.418   4.022  0.6443 -0.1807 -1.7256
 8167SOL     OW36133   0.842   3.756   9.565 -0.1517 -0.2992 -0.2008
 8167SOL    HW136134   0.924   3.772   9.612 -0.4376  0.2156  0.1300
 8167SOL    HW236135   0.798   3.691   9.618  1.0570  1.4107  2.8992
 8168SOL     OW36136   2.051   4.338   9.497  0.7257 -0.2447 -0.6042
 8168SOL    HW136137   2.132   4.338   9.547  1.7945  3.4881 -2.3965
 8168SOL    HW236138   2.063   4.252   9.457  1.6203 -0.0664 -0.7054
 8169SOL     OW36139   1.731   2.091   3.335 -0.5426  0.7674  0.0661
 8169SOL    HW136140   1.826   2.082   3.340 -0.5912  0.0952 -0.1692
 8169SOL    HW236141   1.711   2.021   3.272  0.3977  0.2632  0.3262
 8170SOL     OW36142   3.580   1.742  14.711  0.5925 -0.0863  0.0610
 8170SOL    HW136143   3.673   1.721  14.702  0.6634  0.4590 -0.5132
 8170SOL    HW236144   3.569   1.809  14.643  0.6985 -0.3277 -0.1951
 8171SOL     OW36145   0.342   0.720   4.959 -0.1684 -0.0440 -0.0923
 8171SOL    HW136146   0.425   0.755   4.927 -0.7050  0.1526 -1.2773
 8171SOL    HW236147   0.297   0.702   4.877  0.5098 -0.9432 -0.2670
 8172SOL     OW36148   4.073   1.660   4.691 -0.5614 -0.3057 -0.0956
 8172SOL    HW136149   4.003   1.702   4.742  1.3867  3.5173 -0.5799
 8172SOL    HW236150   4.099   1.736   4.640 -0.9532 -0.0231  0.1248
 8173SOL     OW36151   2.890   2.569   3.910  0.0725 -0.4332  0.3961
 8173SOL    HW136152   2.886   2.545   3.818  0.4294  1.0881 -0.0184
 8173SOL    HW236153   2.968   2.522   3.940  2.5813  1.5007 -3.1219
 8174SOL     OW36154   3.491   3.420  11.006  0.5453  0.3728 -0.1638
 8174SOL    HW136155   3.502   3.346  11.065  1.7566  1.0826  0.5204
 8174SOL    HW236156   3.530   3.380  10.929  0.2944  1.3575 -0.8009
 8175SOL     OW36157   2.057   2.927   3.606  0.3647 -0.0519  0.4832
 8175SOL    HW136158   1.976   2.879   3.621 -1.1643  2.5251  0.4094
 8175SOL    HW236159   2.031   3.018   3.593 -1.5049 -0.5008  1.2087
 8176SOL     OW36160   1.579   2.330   5.513  0.5874  0.1735  0.0041
 8176SOL    HW136161   1.675   2.334   5.509  0.7567 -0.6477  2.7884
 8176SOL    HW236162   1.558   2.249   5.560  1.5647  0.5133  1.0300
 8177SOL     OW36163   2.962   4.219   5.260 -0.3419  0.1643 -0.2602
 8177SOL    HW136164   2.991   4.179   5.178 -0.6045  1.3940 -0.9526
 8177SOL    HW236165   2.872   4.240   5.233  0.0538 -0.2347 -1.9305
 8178SOL     OW36166   2.060   2.433   9.365 -0.8025  0.1694  0.0153
 8178SOL    HW136167   2.088   2.344   9.389 -0.8629 -0.0203 -0.6118
 8178SOL    HW236168   2.137   2.485   9.387  1.0289 -2.6858  0.3720
 8179SOL     OW36169   0.862   0.727   2.612 -0.7012 -0.1993 -0.2493
 8179SOL    HW136170   0.785   0.673   2.596 -1.3537  1.0425 -1.3722
 8179SOL    HW236171   0.926   0.659   2.632 -0.8387  0.3031  1.9205
 8180SOL     OW36172   1.710   3.745  17.028  0.2964 -0.1061  0.0318
 8180SOL    HW136173   1.646   3.810  17.000  0.7497 -0.0858 -0.9580
 8180SOL    HW236174   1.775   3.761  16.960 -0.4094 -1.6211 -0.9951
 8181SOL     OW36175   2.269   2.606   2.842  0.5270 -0.3108  0.3481
 8181SOL    HW136176   2.331   2.600   2.914  1.2758  1.8240 -0.1180
 8181SOL    HW236177   2.268   2.702   2.835 -0.7441 -0.3283  0.1667
 8182SOL     OW36178   3.483   4.516   4.031 -0.6048 -0.2826  0.2411
 8182SOL    HW136179   3.525   4.474   3.955  1.8846  0.5643  1.1723
 8182SOL    HW236180   3.544   4.471   4.090  1.5121  0.1414 -1.6148
 8183SOL     OW36181   4.652   1.897  11.908  0.4342 -0.2699 -0.8329
 8183SOL    HW136182   4.723   1.890  11.843  2.1523  2.6678  0.7238
 8183SOL    HW236183   4.575   1.872  11.857 -0.9223 -0.9391  1.5806
 8184SOL     OW36184   4.443   2.348   0.296  0.2673 -0.4815  0.2290
 8184SOL    HW136185   4.480   2.261   0.280 -5.0895 -2.5444 -0.7926
 8184SOL    HW236186   4.350   2.325   0.292  0.6063 -1.8056  0.1233
 8185SOL     OW36187   2.373   4.542   3.781 -0.0347 -0.0726  0.4695
 8185SOL    HW136188   2.323   4.551   3.700 -1.2905 -0.8085  1.1790
 8185SOL    HW236189   2.387   4.636   3.793 -2.4482  0.0285  2.4488
 8186SOL     OW36190   3.936   2.885   7.427  0.1851  0.5742 -0.0743
 8186SOL    HW136191   3.952   2.909   7.336 -1.2260  1.2888 -0.1288
 8186SOL    HW236192   4.016   2.843   7.458  0.5873  0.7597 -0.8638
 8187SOL     OW36193   3.276   3.243   1.820  0.7672  0.3365 -0.6632
 8187SOL    HW136194   3.274   3.150   1.839 -1.8718 -0.2242 -3.7757
 8187SOL    HW236195   3.228   3.241   1.738  1.0851  1.0684 -0.8742
 8188SOL     OW36196   1.288   1.305  11.760  0.8250  0.1879 -0.4837
 8188SOL    HW136197   1.205   1.273  11.723  1.4292 -3.0692  1.0279
 8188SOL    HW236198   1.349   1.257  11.703  0.6843 -2.7838  1.8823
 8189SOL     OW36199   3.665   0.883   2.731 -0.1583 -0.1380 -0.4443
 8189SOL    HW136200   3.690   0.897   2.822 -2.2771  0.1811  0.0770
 8189SOL    HW236201   3.720   0.807   2.711  0.1974 -0.7841  3.1318
 8190SOL     OW36202   0.965   2.592   6.612  0.4524  0.3065 -0.2178
 8190SOL    HW136203   0.910   2.527   6.657  0.4405 -0.9822 -2.1264
 8190SOL    HW236204   0.996   2.643   6.687 -0.1187  0.6213 -0.1911
 8191SOL     OW36205   1.829   2.040  17.651  0.4413 -0.6318 -0.0729
 8191SOL    HW136206   1.899   2.102  17.633  0.2578 -0.7053 -1.0324
 8191SOL    HW236207   1.810   2.057  17.743  1.9221 -0.6075  0.2184
 8192SOL     OW36208   1.114   3.923   3.971 -0.0816  0.2732  0.7671
 8192SOL    HW136209   1.162   3.850   4.012  0.1038 -0.8763 -1.5337
 8192SOL    HW236210   1.030   3.882   3.950 -1.4732  2.8885  1.3086
 8193SOL     OW36211   4.143   1.532  14.307  0.3804 -0.0935 -0.3259
 8193SOL    HW136212   4.182   1.619  14.295  0.7878 -0.3879 -1.1508
 8193SOL    HW236213   4.173   1.491  14.226  0.4179  0.0927 -0.4057
 8194SOL     OW36214   1.947   1.658   3.286 -0.3706 -0.0157 -0.3174
 8194SOL    HW136215   1.873   1.638   3.344 -1.7717  3.0126 -1.0715
 8194SOL    HW236216   1.886   1.662   3.212 -1.1710  0.4947  0.3695
 8195SOL     OW36217   0.025   3.167  11.275 -0.5011  0.7368 -0.8920
 8195SOL    HW136218   0.074   3.131  11.200  1.1781 -0.4478  0.7857
 8195SOL    HW236219   4.725   3.244  11.234  0.1460  1.2905 -0.4967
 8196SOL     OW36220   2.230   2.115   4.885 -0.2510 -0.1555 -0.3326
 8196SOL    HW136221   2.310   2.065   4.870  0.0818  0.8835 -2.0322
 8196SOL    HW236222   2.178   2.043   4.922 -0.8661  0.4278 -0.0489
 8197SOL     OW36223   1.748   3.226  16.911 -0.1082  0.2262  0.3959
 8197SOL    HW136224   1.708   3.307  16.877 -2.1357 -1.0285 -0.1945
 8197SOL    HW236225   1.840   3.253  16.919 -0.2467 -0.1670  3.2663
 8198SOL     OW36226   1.815   2.349   5.766  0.1071 -0.1313 -0.2585
 8198SOL    HW136227   1.827   2.260   5.733  1.5031  0.4089 -1.1916
 8198SOL    HW236228   1.736   2.319   5.811 -0.4279  1.7256  0.0228
 8199SOL     OW36229   1.000   2.343   7.517  0.1639  0.5647  0.0577
 8199SOL    HW136230   1.048   2.313   7.594 -1.7101  2.9590  2.1864
 8199SOL    HW236231   0.996   2.436   7.541  1.5542  0.3996  0.9040
 8200SOL     OW36232   1.680   1.795   4.756 -0.2214 -0.5574  0.1057
 8200SOL    HW136233   1.628   1.826   4.682 -0.7209  0.0017  0.6792
 8200SOL    HW236234   1.760   1.766   4.713 -0.1931 -0.1660 -0.1104
 8201SOL     OW36235   4.037   1.521  12.793 -0.0820 -0.1200 -0.5600
 8201SOL    HW136236   4.130   1.544  12.793 -0.4267  1.2712  0.2089
 8201SOL    HW236237   4.049   1.438  12.747  0.9055  0.4098 -1.2564
 8202SOL     OW36238   1.114   4.559   7.180  0.3502 -0.5911 -0.2032
 8202SOL    HW136239   1.153   4.501   7.246 -1.1341  0.0455  1.2365
 8202SOL    HW236240   1.045   4.609   7.223  2.4181  0.8071  1.4741
 8203SOL     OW36241   2.648   4.428   7.484 -0.0569 -0.4789 -0.5812
 8203SOL    HW136242   2.725   4.384   7.447  0.1627  0.4994 -1.2983
 8203SOL    HW236243   2.578   4.388   7.432 -0.3385  0.7206 -1.1139
 8204SOL     OW36244   1.930   4.220   2.860  0.2890 -0.3171 -0.0236
 8204SOL    HW136245   1.880   4.270   2.925 -0.4322 -1.4678  0.3180
 8204SOL    HW236246   1.861   4.184   2.803 -1.1469 -1.1629  2.2542
 8205SOL     OW36247   3.175   0.410   6.074  0.7329  0.4365  0.2004
 8205SOL    HW136248   3.136   0.323   6.083  3.3585 -0.8538 -0.9591
 8205SOL    HW236249   3.231   0.407   5.997  0.2694  1.8562 -0.1789
 8206SOL     OW36250   4.664   0.282   3.705  0.2785  0.0016 -0.0227
 8206SOL    HW136251   4.616   0.291   3.622 -0.1095 -0.1823  0.1817
 8206SOL    HW236252   0.001   0.233   3.681 -0.4144 -1.5306  0.8708
 8207SOL     OW36253   0.495   2.541   8.899 -0.1410  0.2401 -0.3301
 8207SOL    HW136254   0.404   2.547   8.871  0.0172 -0.1810 -0.9396
 8207SOL    HW236255   0.503   2.449   8.873  1.5512  0.4678 -0.6173
 8208SOL     OW36256   0.664   0.064   3.672 -0.5414  1.0206 -0.7766
 8208SOL    HW136257   0.721   4.741   3.628 -0.5520  0.3459  0.1970
 8208SOL    HW236258   0.591   0.009   3.700  0.3685  0.4162  0.4444
 8209SOL     OW36259   1.090   3.936   7.072 -0.1497  0.0809 -0.2987
 8209SOL    HW136260   1.049   4.000   7.130 -1.1083 -0.1139 -0.7565
 8209SOL    HW236261   1.169   3.985   7.053 -0.0864  0.4496  0.9265
 8210SOL     OW36262   3.792   0.450   9.417 -0.1457 -0.6492 -0.2742
 8210SOL    HW136263   3.784   0.428   9.324 -0.3569  0.6958 -0.5742
 8210SOL    HW236264   3.741   0.375   9.448 -1.3802 -1.2197 -3.7527
 8211SOL     OW36265   0.511   0.921   5.719 -0.3495  0.1772  0.1498
 8211SOL    HW136266   0.532   1.013   5.733 -2.3229  0.8748 -1.6182
 8211SOL    HW236267   0.448   0.927   5.647  1.9190  0.5893 -1.7963
 8212SOL     OW36268   2.961   4.057   5.013  0.7218  0.4775  0.1116
 8212SOL    HW136269   3.001   3.990   4.958  1.0769  1.0338 -0.3060
 8212SOL    HW236270   2.937   4.001   5.087  3.4537 -0.7501  0.0587
 8213SOL     OW36271   1.756   2.579   8.851  0.4262 -0.1537  1.0004
 8213SOL    HW136272   1.754   2.540   8.938 -2.7802 -0.0317  0.9658
 8213SOL    HW236273   1.771   2.501   8.797  1.0944  0.2189  0.6527
 8214SOL     OW36274   3.315   3.915   7.529  0.5106  0.4391  0.3971
 8214SOL    HW136275   3.361   3.998   7.540 -1.3261  1.4787  0.2068
 8214SOL    HW236276   3.373   3.863   7.473  1.7169  1.2860  0.8881
 8215SOL     OW36277   4.638   3.935   7.684 -0.0758  0.3143  0.4218
 8215SOL    HW136278   4.554   3.892   7.695  0.1427 -0.5747 -1.3241
 8215SOL    HW236279   4.680   3.888   7.756 -0.0041 -2.2115 -1.2888
 8216SOL     OW36280   0.732   2.469   1.006  1.0051 -0.0133  0.3875
 8216SOL    HW136281   0.709   2.401   0.942 -1.1022  1.5151 -0.4453
 8216SOL    HW236282   0.700   2.426   1.085  2.5729 -0.8414  0.5817
 8217SOL     OW36283   4.295   3.163   1.998 -0.4244  0.1877  0.0746
 8217SOL    HW136284   4.281   3.076   2.035  1.0906  0.4857  1.3811
 8217SOL    HW236285   4.241   3.221   2.050 -1.3195 -0.7674  0.2059
 8218SOL     OW36286   3.671   3.333   6.125  0.2060  0.6792 -0.1329
 8218SOL    HW136287   3.674   3.423   6.156  2.1140  0.4147  0.4667
 8218SOL    HW236288   3.672   3.330   6.029  0.0349  2.9835 -0.1987
 8219SOL     OW36289   2.325   4.525  15.127 -0.0083  0.2485 -0.0663
 8219SOL    HW136290   2.301   4.472  15.203 -0.9135  0.1056 -0.4472
 8219SOL    HW236291   2.242   4.567  15.103 -0.7268 -1.4288 -0.5055
 8220SOL     OW36292   2.164   2.264   6.416 -0.8350  0.0477  0.1010
 8220SOL    HW136293   2.142   2.226   6.501 -2.2597  0.1426 -0.2245
 8220SOL    HW236294   2.161   2.186   6.361  1.0796 -0.8276  1.2233
 8221SOL     OW36295   3.856   0.339   3.380  0.2255 -0.2057 -0.1479
 8221SOL    HW136296   3.804   0.404   3.334  1.3456  0.8678  0.0910
 8221SOL    HW236297   3.797   0.264   3.394  2.6221 -2.4368 -2.1199
 8222SOL     OW36298   2.329   4.271   6.676  0.3560  0.9685  0.1988
 8222SOL    HW136299   2.236   4.281   6.698  0.9559  1.7269  2.4015
 8222SOL    HW236300   2.364   4.266   6.765  2.3383 -0.0097 -0.6298
 8223SOL     OW36301   1.995   3.293  13.364 -0.3416  0.5251 -0.2332
 8223SOL    HW136302   1.990   3.325  13.455  0.4921 -2.1321  0.7447
 8223SOL    HW236303   1.949   3.209  13.377 -1.0053  0.8906 -0.1996
 8224SOL     OW36304   3.410   3.511   8.557 -0.2416 -0.2898 -0.3533
 8224SOL    HW136305   3.501   3.542   8.552  0.0813 -1.1076  0.6747
 8224SOL    HW236306   3.369   3.592   8.525 -1.2976 -0.1040  1.4861
 8225SOL     OW36307   1.600   2.667  10.804 -0.2072  0.0037  0.0916
 8225SOL    HW136308   1.568   2.745  10.759 -1.3934 -1.1791 -1.1306
 8225SOL    HW236309   1.689   2.697  10.822 -0.3694  0.2939  0.4105
 8226SOL     OW36310   0.229   0.418   5.819  0.5223 -0.1378 -0.1418
 8226SOL    HW136311   0.221   0.477   5.744 -0.9920  0.7927  0.7451
 8226SOL    HW236312   0.233   0.336   5.769 -0.4645 -0.1455 -0.2077
 8227SOL     OW36313   2.757   0.915   1.925  0.0397  0.6186 -0.5739
 8227SOL    HW136314   2.762   1.007   1.952 -3.2550  0.2608  1.1376
 8227SOL    HW236315   2.710   0.928   1.842  0.8948  3.6630 -0.5755
 8228SOL     OW36316   2.739   1.153   5.295  0.0026 -0.1759 -0.0646
 8228SOL    HW136317   2.648   1.152   5.267 -0.4586  0.3430  1.4234
 8228SOL    HW236318   2.728   1.109   5.379 -1.3188 -1.9822 -1.1742
 8229SOL     OW36319   1.770   4.115  16.926 -0.3061 -0.7118  0.3028
 8229SOL    HW136320   1.862   4.099  16.947 -0.1063  0.8828  0.6896
 8229SOL    HW236321   1.729   4.098  17.010  0.4256  1.1482  1.0463
 8230SOL     OW36322   2.603   3.475   6.796  0.1883  0.1446  0.1635
 8230SOL    HW136323   2.537   3.543   6.811  0.9401  0.1949  3.0981
 8230SOL    HW236324   2.548   3.415   6.745  0.8836 -1.5349  1.4063
 8231SOL     OW36325   0.995   2.546   7.918  0.1961 -0.3417 -0.1396
 8231SOL    HW136326   0.920   2.585   7.963  0.8570  1.0337 -0.2278
 8231SOL    HW236327   1.066   2.608   7.936 -0.9067  0.7006  0.7132
 8232SOL     OW36328   4.708   4.722   6.180 -0.0543  0.0479 -0.2746
 8232SOL    HW136329   4.731   0.070   6.154 -1.0747 -0.6957 -3.7319
 8232SOL    HW236330   0.034   4.721   6.249 -0.5570 -0.7300  0.2079
 8233SOL     OW36331   4.459   1.239   4.683 -0.1016  0.7682 -1.2069
 8233SOL    HW136332   4.535   1.296   4.666  0.0050  1.1646  0.6500
 8233SOL    HW236333   4.388   1.302   4.694 -1.5821 -1.1213  0.0867
 8234SOL     OW36334   0.623   0.661   0.340  0.6776  0.3942  0.5029
 8234SOL    HW136335   0.685   0.695   0.405  0.6379 -0.5064  1.0143
 8234SOL    HW236336   0.550   0.712   0.376  0.7054  2.5579 -2.5348
 8235SOL     OW36337   1.436   2.592   8.653  0.4570 -0.1044  0.1312
 8235SOL    HW136338   1.394   2.636   8.728  2.3312 -0.6998  1.5139
 8235SOL    HW236339   1.363   2.604   8.592  0.8480 -2.8828 -0.8806
 8236SOL     OW36340   1.188   4.043  14.790 -0.0020 -0.5216 -0.4427
 8236SOL    HW136341   1.202   4.076  14.701 -0.9851  2.5490  0.5749
 8236SOL    HW236342   1.264   4.088  14.827 -2.1828  0.9637  2.1866
 8237SOL     OW36343   1.324   0.116   8.041 -0.7580 -0.1686 -0.1871
 8237SOL    HW136344   1.419   0.131   8.043 -0.7413 -0.7469  3.0793
 8237SOL    HW236345   1.318   0.049   8.109 -3.3961 -1.6275 -1.8594
 8238SOL     OW36346   0.988   4.401   6.517  0.1115 -0.1738  1.1117
 8238SOL    HW136347   1.001   4.495   6.523 -1.4310  0.1972 -1.3265
 8238SOL    HW236348   0.902   4.398   6.558 -0.5663  0.8233 -0.2187
 8239SOL     OW36349   0.706   2.850   4.403 -0.6287  0.6819 -0.2034
 8239SOL    HW136350   0.683   2.813   4.317  1.2204  2.5089 -1.4853
 8239SOL    HW236351   0.786   2.803   4.425 -1.6766 -1.2463 -0.4660
 8240SOL     OW36352   0.485   0.692   7.088 -0.6503 -0.2425  0.3071
 8240SOL    HW136353   0.446   0.779   7.095  1.4796  0.7725 -0.5702
 8240SOL    HW236354   0.539   0.698   7.167  0.5443  0.0072 -0.5502
 8241SOL     OW36355   1.478   4.226   4.109  0.2807 -0.0336  0.0216
 8241SOL    HW136356   1.416   4.153   4.116  1.3884 -0.8254  1.5604
 8241SOL    HW236357   1.414   4.298   4.110 -1.0345 -1.1615 -2.5758
 8242SOL     OW36358   2.793   4.708   4.586  0.0017 -0.0079 -0.2646
 8242SOL    HW136359   2.807   4.617   4.559  3.2410  0.7827 -1.2535
 8242SOL    HW236360   2.794   4.695   4.681 -0.5712 -0.2869 -0.2958
 8243SOL     OW36361   0.239   1.355   7.656 -0.0081  0.3761  0.1862
 8243SOL    HW136362   0.258   1.279   7.711 -1.7972  0.3654  0.7681
 8243SOL    HW236363   0.172   1.320   7.598 -0.0079  1.7602 -0.6562
 8244SOL     OW36364   1.068   1.707  12.230 -0.0314  0.1976  0.0048
 8244SOL    HW136365   1.156   1.672  12.213  0.0288  0.5570 -0.4334
 8244SOL    HW236366   1.090   1.800  12.239 -2.3010  0.6212  1.0313
 8245SOL     OW36367   0.739   3.954   6.117  0.0970 -0.0235  0.6806
 8245SOL    HW136368   0.661   4.008   6.128 -1.3361 -2.2748  1.4563
 8245SOL    HW236369   0.797   4.026   6.090 -0.6953 -0.1525 -1.3524
 8246SOL     OW36370   3.818   4.499   8.512  0.1692  0.5406  0.0673
 8246SOL    HW136371   3.753   4.471   8.448 -0.2909 -2.5749  1.9156
 8246SOL    HW236372   3.875   4.556   8.461 -0.0020  1.4179  0.8563
 8247SOL     OW36373   3.028   1.217  13.782 -0.1190  0.0704 -0.1311
 8247SOL    HW136374   3.023   1.309  13.757  0.3205 -0.4951 -2.2926
 8247SOL    HW236375   3.062   1.188  13.697 -0.1507 -0.6185  0.0885
 8248SOL     OW36376   0.938   0.301   2.247  0.0054  0.4412  0.2862
 8248SOL    HW136377   1.033   0.306   2.238  0.1562 -3.2659  0.0404
 8248SOL    HW236378   0.901   0.369   2.191  0.9196  1.1978  0.6150
 8249SOL     OW36379   0.268   4.383  12.676 -0.1032 -0.1251 -0.1676
 8249SOL    HW136380   0.233   4.383  12.765 -1.0333 -0.9543 -0.5396
 8249SOL    HW236381   0.233   4.465  12.642 -1.0090 -0.3240  0.3064
 8250SOL     OW36382   2.732   3.804   4.907  0.3619  0.2893  0.2843
 8250SOL    HW136383   2.697   3.746   4.839 -2.2593  0.7570  1.2402
 8250SOL    HW236384   2.663   3.870   4.913  0.9169  0.7614  1.5518
 8251SOL     OW36385   2.865   4.561   8.628 -0.4318  0.3268 -0.2811
 8251SOL    HW136386   2.869   4.506   8.550 -0.9478 -1.5509  1.0321
 8251SOL    HW236387   2.916   4.509   8.690  0.5287  1.4052 -0.1591
 8252SOL     OW36388   2.202   2.665   7.777  0.1636  0.4394 -0.2192
 8252SOL    HW136389   2.211   2.647   7.684  0.8118  0.0109 -0.0796
 8252SOL    HW236390   2.122   2.621   7.807  0.7570 -1.4004 -1.3235
 8253SOL     OW36391   4.721   2.548  17.705 -0.4877 -0.3397  0.3719
 8253SOL    HW136392   4.663   2.621  17.682 -1.5638 -0.7747  1.6597
 8253SOL    HW236393   4.673   2.482  17.655 -0.9501 -0.5277  1.0521
 8254SOL     OW36394   2.238   0.624   7.888 -0.3077 -0.1665  0.4664
 8254SOL    HW136395   2.163   0.680   7.909 -0.0946  0.4883 -0.5008
 8254SOL    HW236396   2.241   0.646   7.795 -0.8744  1.1691  0.7636
 8255SOL     OW36397   1.671   2.523  14.740 -0.1807 -0.0314  0.5854
 8255SOL    HW136398   1.649   2.554  14.828 -1.6339 -0.6913  0.4623
 8255SOL    HW236399   1.594   2.550  14.688  0.8858 -0.0039 -0.9858
 8256SOL     OW36400   2.162   2.278   1.350  0.2670  0.2831  0.0399
 8256SOL    HW136401   2.199   2.194   1.322  0.4921  0.4149 -0.0686
 8256SOL    HW236402   2.200   2.342   1.289 -0.3195 -0.0335 -0.6537
 8257SOL     OW36403   4.490   4.302   5.061  0.3505 -0.1131  0.1334
 8257SOL    HW136404   4.579   4.332   5.082  0.3185  0.6715 -0.7850
 8257SOL    HW236405   4.441   4.381   5.085  2.0147  0.0631  2.8705
 8258SOL     OW36406   2.826   1.033   1.363 -0.4749  0.0689 -0.3520
 8258SOL    HW136407   2.816   0.979   1.285 -1.0177 -0.8121  0.3302
 8258SOL    HW236408   2.880   1.104   1.328  0.6256 -0.0887  1.0398
 8259SOL     OW36409   4.083   4.454   2.521  0.4113 -0.2448 -0.1368
 8259SOL    HW136410   4.012   4.509   2.555  0.1049  0.2179 -1.5571
 8259SOL    HW236411   4.153   4.518   2.516 -0.8188  1.1029 -0.1038
 8260SOL     OW36412   0.944   4.059  10.068  0.1246  0.4845  0.4714
 8260SOL    HW136413   0.990   3.994  10.016  0.8945  0.7871  0.7767
 8260SOL    HW236414   0.866   4.003  10.076  0.3272  0.4500  2.1839
 8261SOL     OW36415   0.272   0.375   6.180 -0.5201 -0.3568 -0.0015
 8261SOL    HW136416   0.360   0.381   6.144 -0.6573  0.1896 -0.2445
 8261SOL    HW236417   0.226   0.433   6.119  1.4582  2.1272  0.8658
 8262SOL     OW36418   2.033   2.051   4.550 -0.6039 -0.2019 -0.3276
 8262SOL    HW136419   2.052   2.124   4.609 -0.5815  0.3162 -0.9782
 8262SOL    HW236420   1.968   2.022   4.615 -0.0567 -2.4977 -0.7839
 8263SOL     OW36421   0.840   4.056  16.970 -0.5326  0.3969 -0.0162
 8263SOL    HW136422   0.806   4.070  17.058 -1.6913  0.9129 -0.5493
 8263SOL    HW236423   0.760   4.032  16.924 -1.6830  0.3430  2.0360
 8264SOL     OW36424   2.070   0.069   8.222 -0.3006  0.5376  0.3224
 8264SOL    HW136425   2.059   4.732   8.275  2.5604  0.2226  0.4810
 8264SOL    HW236426   2.057   0.038   8.132 -1.6303 -0.6132  0.9108
 8265SOL     OW36427   2.668   2.805  14.080  0.1916 -0.2507 -0.0695
 8265SOL    HW136428   2.616   2.879  14.111 -1.3276 -1.1404 -0.5077
 8265SOL    HW236429   2.616   2.787  14.001 -0.5465 -0.3486  0.4428
 8266SOL     OW36430   4.168   2.325  15.488 -0.4477 -0.0069  0.0330
 8266SOL    HW136431   4.095   2.267  15.466 -2.5377  2.1125  1.4041
 8266SOL    HW236432   4.140   2.404  15.442  0.0383 -0.4033 -0.9424
 8267SOL     OW36433   2.466   0.191  16.065  0.1116  0.1297  0.4643
 8267SOL    HW136434   2.387   0.208  16.116 -0.6302  1.8232 -1.2096
 8267SOL    HW236435   2.535   0.196  16.131  2.2986  0.8210 -1.8635
 8268SOL     OW36436   1.603   0.076   1.223 -0.6348  0.1323 -0.0860
 8268SOL    HW136437   1.590   0.135   1.149  1.3633  0.0435 -0.4870
 8268SOL    HW236438   1.580   4.734   1.183 -0.3156 -0.3691  0.7731
 8269SOL     OW36439   1.042   0.908   8.676  0.1973 -0.4230 -0.0049
 8269SOL    HW136440   1.113   0.894   8.613  0.6542 -2.4058  0.9701
 8269SOL    HW236441   0.959   0.903   8.628  0.5900 -1.3677 -0.5820
 8270SOL     OW36442   0.157   1.096   8.362 -1.0475  0.2034  0.0008
 8270SOL    HW136443   0.242   1.072   8.399 -0.5685 -0.9676 -1.8886
 8270SOL    HW236444   0.095   1.040   8.409  3.0959 -4.0419  0.4608
 8271SOL     OW36445   1.603   2.955   1.796  0.0719 -0.1209  0.5224
 8271SOL    HW136446   1.560   2.966   1.711 -1.3708  2.1767  1.5365
 8271SOL    HW236447   1.663   2.888   1.763 -0.0639  0.9100 -1.8547
 8272SOL     OW36448   2.991   1.251   5.319  0.5399  0.1527 -0.1365
 8272SOL    HW136449   2.959   1.336   5.351 -0.2115  1.2082 -3.6708
 8272SOL    HW236450   2.910   1.211   5.288  0.1873 -0.2376  1.2722
 8273SOL     OW36451   3.766   1.882  11.835  0.5849 -0.2260  0.2224
 8273SOL    HW136452   3.713   1.806  11.858  0.9903 -0.8845 -1.0455
 8273SOL    HW236453   3.750   1.896  11.742 -1.0428 -0.2114  0.5079
 8274SOL     OW36454   0.421   1.794  11.583 -0.3273  0.2425 -0.0521
 8274SOL    HW136455   0.498   1.742  11.560 -1.3113 -1.1675 -0.1664
 8274SOL    HW236456   0.440   1.811  11.675  0.0876  0.1574 -0.1191
 8275SOL     OW36457   4.037   2.229   7.465  0.0135 -0.6608 -0.0401
 8275SOL    HW136458   4.001   2.317   7.454 -1.4973 -1.2720 -0.0266
 8275SOL    HW236459   4.121   2.266   7.493 -0.4490  0.0517  0.3877
 8276SOL     OW36460   3.738   2.570   6.073  0.3246 -0.5031  0.4004
 8276SOL    HW136461   3.702   2.569   6.162  1.7140  2.1481  0.9947
 8276SOL    HW236462   3.814   2.626   6.087 -0.7929  1.4528 -1.4140
 8277SOL     OW36463   1.268   1.678   9.272 -0.1342 -0.3843  0.3820
 8277SOL    HW136464   1.215   1.665   9.350 -0.1533  3.0691  0.9292
 8277SOL    HW236465   1.336   1.611   9.280 -1.2595 -1.8448 -2.1146
 8278SOL     OW36466   2.546   1.208   4.367  1.0081 -0.3551  0.2533
 8278SOL    HW136467   2.527   1.131   4.312  2.9363 -1.4375  1.0999
 8278SOL    HW236468   2.573   1.168   4.449  0.9882 -1.4109 -0.2494
 8279SOL     OW36469   2.563   3.002   0.256  0.5028 -0.1249  1.1233
 8279SOL    HW136470   2.497   3.054   0.302 -0.8589 -0.3268 -0.6059
 8279SOL    HW236471   2.631   2.999   0.323  1.7549 -0.5577 -0.1701
 8280SOL     OW36472   2.683   1.982   1.191 -0.1913  1.1457  0.0478
 8280SOL    HW136473   2.680   1.895   1.232 -0.5796  1.6431  1.0719
 8280SOL    HW236474   2.670   2.042   1.264  0.8005  1.7566 -0.2717
 8281SOL     OW36475   2.106   4.035  14.038 -0.2804  0.2477 -0.5309
 8281SOL    HW136476   2.196   4.019  14.066 -1.3724 -2.0052  1.6083
 8281SOL    HW236477   2.097   4.107  14.101 -0.3849 -0.4964  0.2948
 8282SOL     OW36478   0.622   4.168   6.276  0.3162  0.2853 -0.0694
 8282SOL    HW136479   0.569   4.183   6.355 -0.7862 -1.7576 -0.4277
 8282SOL    HW236480   0.666   4.253   6.271 -0.8269  0.7599 -2.1427
 8283SOL     OW36481   2.502   0.941   5.810 -0.1691  0.1341 -0.4343
 8283SOL    HW136482   2.495   0.847   5.795  0.6051  0.2611 -1.5786
 8283SOL    HW236483   2.590   0.936   5.848  0.5442  2.5528 -1.7949
 8284SOL     OW36484   2.798   3.638   7.022  0.1911 -0.0473  0.2803
 8284SOL    HW136485   2.812   3.551   6.985  1.5670  0.5178 -0.5409
 8284SOL    HW236486   2.703   3.639   7.030 -0.1213 -0.3897 -3.3044
 8285SOL     OW36487   0.680   2.788   7.402  0.0487  0.2353 -0.3656
 8285SOL    HW136488   0.700   2.788   7.495  1.9159  2.4515 -0.7704
 8285SOL    HW236489   0.584   2.780   7.400  0.2119 -1.7810 -0.0832
 8286SOL     OW36490   2.290   2.202   7.616  0.1060  0.0607 -0.2289
 8286SOL    HW136491   2.197   2.184   7.631 -0.4890  1.3173 -2.3157
 8286SOL    HW236492   2.290   2.268   7.546  2.8068  0.5396  0.2158
 8287SOL     OW36493   1.313   0.722  15.157 -0.6573  0.3907  0.5092
 8287SOL    HW136494   1.283   0.684  15.074 -0.7723  3.1574 -0.7335
 8287SOL    HW236495   1.396   0.677  15.172 -0.1308  1.2048  0.0997
 8288SOL     OW36496   3.080   3.550  16.396  0.2540 -0.5101  0.2151
 8288SOL    HW136497   3.134   3.626  16.415  1.7900 -1.9729  1.7605
 8288SOL    HW236498   2.990   3.582  16.400  1.2099  2.0752  0.9925
 8289SOL     OW36499   3.004   0.519   8.394  0.0742 -0.7866  0.3096
 8289SOL    HW136500   2.991   0.614   8.399 -2.2866 -0.9309 -2.9901
 8289SOL    HW236501   2.984   0.488   8.482  0.6053  1.6696  1.2908
 8290SOL     OW36502   1.216   3.109   1.732 -0.8350  0.2755 -0.7629
 8290SOL    HW136503   1.267   3.050   1.675  0.7292 -1.1101  2.0859
 8290SOL    HW236504   1.129   3.090   1.695 -0.8723 -0.4799 -0.2926
 8291SOL     OW36505   0.611   4.551   9.577 -0.2311 -0.1983  0.3258
 8291SOL    HW136506   0.599   4.506   9.494  1.4443 -0.2693  0.1160
 8291SOL    HW236507   0.529   4.599   9.590 -0.5718 -0.5873 -0.3862
 8292SOL     OW36508   3.047   2.170   5.492  0.6039 -0.0163 -0.4739
 8292SOL    HW136509   3.118   2.113   5.522  0.0602  0.3727  1.5774
 8292SOL    HW236510   2.980   2.144   5.556  0.9060  0.0440 -0.1344
 8293SOL     OW36511   2.500   0.516   6.472  0.3819  0.4437 -0.3685
 8293SOL    HW136512   2.571   0.463   6.435  1.6804  1.1609  1.1203
 8293SOL    HW236513   2.453   0.453   6.526 -1.2941  1.2501 -0.8814
 8294SOL     OW36514   0.188   1.437  11.137 -0.2366  0.1332  0.4673
 8294SOL    HW136515   0.192   1.398  11.224 -1.3305  2.6800  1.6662
 8294SOL    HW236516   0.236   1.375  11.082 -1.0251  0.8558 -1.0570
 8295SOL     OW36517   3.271   1.419   5.649 -0.2881  0.5821  0.2818
 8295SOL    HW136518   3.222   1.421   5.731  0.3776 -0.4272  0.7093
 8295SOL    HW236519   3.263   1.326   5.628 -2.9573  1.0677 -0.8029
 8296SOL     OW36520   4.130   4.034   9.784 -0.1181  0.0130  0.5023
 8296SOL    HW136521   4.123   4.095   9.858 -0.5645 -1.8423  2.0011
 8296SOL    HW236522   4.213   4.071   9.753 -1.6577  2.3044 -0.8901
 8297SOL     OW36523   4.239   1.132   3.090 -0.4725 -0.3503  0.0319
 8297SOL    HW136524   4.285   1.089   3.017  1.3741  0.2851  0.8122
 8297SOL    HW236525   4.262   1.225   3.079 -1.6191  0.2316  2.5885
 8298SOL     OW36526   1.756   1.328   0.105  0.2880 -0.3650  0.3047
 8298SOL    HW136527   1.817   1.290   0.042 -0.5946 -1.6501  0.2336
 8298SOL    HW236528   1.787   1.419   0.102 -1.6052  0.2101 -1.7609
 8299SOL     OW36529   3.067   2.419   5.438 -0.1501 -0.0032  0.2853
 8299SOL    HW136530   3.060   2.325   5.455 -1.5768  0.4903  2.2949
 8299SOL    HW236531   3.154   2.442   5.472  1.0642 -3.4738 -0.5118
 8300SOL     OW36532   4.143   2.252   5.022  0.0805  0.3441  0.3330
 8300SOL    HW136533   4.126   2.311   4.948 -0.0031  1.1708  1.0047
 8300SOL    HW236534   4.140   2.311   5.098 -0.8130 -4.0664  3.7096
 8301SOL     OW36535   4.710   1.714  10.735 -0.1976  0.5495  0.1913
 8301SOL    HW136536   0.004   1.797  10.703  0.6509  0.0819 -0.0829
 8301SOL    HW236537   0.004   1.696  10.822  0.8329  1.6422  0.0040
 8302SOL     OW36538   1.351   2.910   4.738  0.3428 -0.2823 -0.1794
 8302SOL    HW136539   1.277   2.850   4.746 -0.5535  0.8683  0.1318
 8302SOL    HW236540   1.338   2.925   4.644 -0.0044  0.8466  0.0511
 8303SOL     OW36541   0.694   3.715   1.768  0.4204 -0.2671 -0.4234
 8303SOL    HW136542   0.681   3.763   1.850  0.0284 -2.3417  0.7134
 8303SOL    HW236543   0.674   3.789   1.711  0.9790  0.0999 -0.1438
 8304SOL     OW36544   3.467   1.381  15.602 -0.5145  0.1515 -0.3964
 8304SOL    HW136545   3.491   1.339  15.519 -0.7996 -1.2467  0.2284
 8304SOL    HW236546   3.548   1.433  15.601 -1.4958  1.6996  1.8055
 8305SOL     OW36547   0.573   0.309   8.797 -0.2064  0.1536  1.0425
 8305SOL    HW136548   0.499   0.360   8.831 -0.3584  0.3206  0.4622
 8305SOL    HW236549   0.551   0.235   8.854  0.0252 -1.9676 -1.6344
 8306SOL     OW36550   4.680   0.879   6.436 -0.0106  0.2334  0.1794
 8306SOL    HW136551   4.687   0.800   6.382 -0.4948 -0.2528  0.8323
 8306SOL    HW236552   4.704   0.951   6.377  1.4467  0.8868  1.5935
 8307SOL     OW36553   0.550   3.519   6.623  0.1973 -0.1801 -0.4020
 8307SOL    HW136554   0.612   3.592   6.627  0.0239  0.0423 -1.7777
 8307SOL    HW236555   0.597   3.440   6.652 -0.2700 -0.8655 -1.5224
 8308SOL     OW36556   3.351   0.994   7.962 -0.2645 -0.1868  0.0654
 8308SOL    HW136557   3.353   1.080   8.003  1.1850  0.3813 -1.1936
 8308SOL    HW236558   3.432   0.988   7.910 -0.0733 -3.2681  0.6831
 8309SOL     OW36559   2.046   3.448   5.876 -0.2601 -0.0320  0.2283
 8309SOL    HW136560   2.036   3.541   5.895  0.9686  0.2579 -0.5393
 8309SOL    HW236561   1.978   3.432   5.810  1.8063  0.2598 -1.9674
 8310SOL     OW36562   1.614   1.458  11.584 -0.0525  0.0051 -0.2344
 8310SOL    HW136563   1.657   1.414  11.658  2.5223 -0.2154 -1.8636
 8310SOL    HW236564   1.668   1.535  11.569 -0.5328 -0.0957 -2.5651
 8311SOL     OW36565   2.665   1.949   5.059  0.5083  0.0960 -0.2718
 8311SOL    HW136566   2.693   1.935   4.968  0.3152  1.4259 -0.5301
 8311SOL    HW236567   2.612   2.028   5.058 -3.9208 -2.8863 -0.9551
 8312SOL     OW36568   2.027   2.890   1.966  0.3351 -0.8005  0.1534
 8312SOL    HW136569   1.968   2.943   1.913  1.5624 -0.7094 -1.1200
 8312SOL    HW236570   2.056   2.821   1.907  3.4825  0.5701  0.0845
 8313SOL     OW36571   4.504   1.567   0.346 -0.3136  0.4373  0.1319
 8313SOL    HW136572   4.428   1.603   0.391  0.4955 -1.4528  3.0543
 8313SOL    HW236573   4.486   1.475   0.323 -1.1973  0.5711  0.2920
 8314SOL     OW36574   1.872   2.207  12.006 -0.1307 -0.4394  0.2405
 8314SOL    HW136575   1.918   2.124  11.994  0.7583  0.2588 -1.1421
 8314SOL    HW236576   1.887   2.248  11.921 -1.5525  2.7947  1.5534
 8315SOL     OW36577   3.004   0.880  15.251 -0.1022 -0.1349 -0.2076
 8315SOL    HW136578   3.005   0.946  15.320 -2.6466 -0.8774  0.5177
 8315SOL    HW236579   2.981   0.808  15.309 -0.1552  2.0025  2.3972
 8316SOL     OW36580   4.269   1.626   5.842 -0.0321  0.0031 -0.0425
 8316SOL    HW136581   4.243   1.669   5.923 -0.2743  1.0961 -0.7089
 8316SOL    HW236582   4.197   1.662   5.790 -1.6676  0.3379  2.4718
 8317SOL     OW36583   3.618   2.163  12.942  0.2270 -0.0192 -0.2069
 8317SOL    HW136584   3.618   2.253  12.909  1.1272  0.6179  1.5257
 8317SOL    HW236585   3.530   2.132  12.921  0.5911  0.5817 -2.6514
 8318SOL     OW36586   3.468   0.731  13.434  0.0165  0.1436  0.3025
 8318SOL    HW136587   3.437   0.784  13.361  0.4565  2.1627  1.5732
 8318SOL    HW236588   3.508   0.657  13.387 -0.3306 -0.9420  1.7087
 8319SOL     OW36589   2.957   2.763   3.580 -0.1875 -0.0602  0.6125
 8319SOL    HW136590   3.039   2.780   3.533 -0.8805  1.6987  0.0017
 8319SOL    HW236591   2.986   2.685   3.626 -1.7966  0.0317  1.7833
 8320SOL     OW36592   4.564   1.538   7.626  0.0671 -0.0225  0.2523
 8320SOL    HW136593   4.485   1.484   7.632 -0.2044  0.1931 -1.3704
 8320SOL    HW236594   4.598   1.527   7.714  2.5666 -2.0673 -0.9645
 8321SOL     OW36595   3.836   1.879  14.986  0.8096 -0.2616 -0.4557
 8321SOL    HW136596   3.831   1.859  14.892  0.6436  2.6687 -1.0672
 8321SOL    HW236597   3.748   1.845  15.004 -0.1711  2.2920 -0.4749
 8322SOL     OW36598   3.099   1.352   7.069 -0.4331  0.3199  0.3800
 8322SOL    HW136599   3.008   1.324   7.074 -0.7619  0.8219 -2.7511
 8322SOL    HW236600   3.107   1.366   6.974  0.4457 -1.3222  0.2243
 8323SOL     OW36601   0.739   4.473   4.629 -0.0531  0.1905  0.0326
 8323SOL    HW136602   0.795   4.397   4.612  1.3392  1.8409 -2.7004
 8323SOL    HW236603   0.800   4.519   4.686 -0.2580  1.9204 -1.1479
 8324SOL     OW36604   3.366   4.356   8.136 -0.0989  0.2409  0.5232
 8324SOL    HW136605   3.300   4.426   8.132  1.2334  1.6187  2.3157
 8324SOL    HW236606   3.304   4.284   8.147 -0.2929 -0.0851 -2.9295
 8325SOL     OW36607   1.903   1.303   1.727 -0.3462  0.1765  0.4734
 8325SOL    HW136608   1.948   1.256   1.657  1.7085  1.2628  1.0875
 8325SOL    HW236609   1.918   1.254   1.808  1.5261 -1.2329 -0.7053
 8326SOL     OW36610   1.891   0.148   9.490  0.1914  0.4399 -0.0022
 8326SOL    HW136611   1.974   0.181   9.457  0.6526 -1.2486 -0.5050
 8326SOL    HW236612   1.869   0.223   9.546 -1.0191  1.8101 -2.2875
 8327SOL     OW36613   3.028   2.131   6.597  0.4265 -0.2231  0.2465
 8327SOL    HW136614   3.101   2.182   6.561 -0.0480 -0.2043 -0.6993
 8327SOL    HW236615   3.083   2.068   6.644 -1.4420 -2.4555 -0.5569
 8328SOL     OW36616   4.498   4.318   4.710 -0.1377  0.1795  0.1525
 8328SOL    HW136617   4.478   4.257   4.781 -1.3665  0.3748 -0.0222
 8328SOL    HW236618   4.593   4.305   4.706 -0.2273 -0.7848  1.1507
 8329SOL     OW36619   3.831   3.496  13.726  0.1296  0.0598  0.1007
 8329SOL    HW136620   3.921   3.467  13.714 -0.0972 -1.0627  1.1207
 8329SOL    HW236621   3.781   3.440  13.666  0.0577  1.7846 -1.4515
 8330SOL     OW36622   2.649   4.230   8.886  0.3053  0.2923 -0.4677
 8330SOL    HW136623   2.554   4.227   8.900  0.4187  1.1765  0.4636
 8330SOL    HW236624   2.662   4.142   8.852  0.7784  0.3987 -0.5597
 8331SOL     OW36625   3.746   2.489   7.387 -0.3894 -0.6438 -0.4192
 8331SOL    HW136626   3.837   2.515   7.370  0.0167 -2.4983 -1.0661
 8331SOL    HW236627   3.742   2.412   7.330 -0.6988 -0.8729 -0.0884
 8332SOL     OW36628   0.889   1.191  10.298 -0.6224 -0.1461  1.3548
 8332SOL    HW136629   0.927   1.247  10.366  0.6004  1.0731 -0.3294
 8332SOL    HW236630   0.842   1.125  10.349 -0.5451 -3.4277 -2.7618
 8333SOL     OW36631   1.041   3.898   6.347  0.3198 -0.0294 -0.1931
 8333SOL    HW136632   1.070   3.866   6.262  0.5440 -0.3932  0.0226
 8333SOL    HW236633   1.035   3.990   6.321  1.4113 -0.0565 -0.5468
 8334SOL     OW36634   0.454   3.581   4.092 -0.5656 -0.4277 -0.3240
 8334SOL    HW136635   0.383   3.556   4.032  1.0071 -1.0555 -1.9328
 8334SOL    HW236636   0.391   3.624   4.150 -0.1160 -1.6578  1.0860
 8335SOL     OW36637   4.405   1.947   2.253  0.1277  1.0689  0.0333
 8335SOL    HW136638   4.366   1.963   2.168  1.8587 -3.9161 -1.7180
 8335SOL    HW236639   4.431   1.855   2.241 -0.4980  0.9521 -0.3995
 8336SOL     OW36640   2.093   4.106   5.018 -0.2528 -0.0532  0.0752
 8336SOL    HW136641   2.112   4.144   5.104  0.8893 -0.7436  0.1330
 8336SOL    HW236642   2.055   4.187   4.985  0.3447 -0.0731 -0.6636
 8337SOL     OW36643   0.323   3.392   7.943 -0.1008  0.0694  0.2532
 8337SOL    HW136644   0.348   3.347   7.862 -0.1218  1.3055 -0.4379
 8337SOL    HW236645   0.263   3.330   7.985 -1.0289  0.4946 -0.4330
 8338SOL     OW36646   4.018   2.750   3.591  0.2570 -0.3680  0.2671
 8338SOL    HW136647   3.976   2.830   3.623 -3.4636 -1.1450 -2.6670
 8338SOL    HW236648   4.005   2.773   3.499  0.9811 -0.9467  0.0226
 8339SOL     OW36649   1.884   3.856  17.201  0.4397 -0.4814 -0.0765
 8339SOL    HW136650   1.834   3.937  17.210 -2.2431 -1.9808 -1.2088
 8339SOL    HW236651   1.830   3.817  17.132 -0.1431  1.9556 -1.0087
 8340SOL     OW36652   3.738   3.848  14.135  0.1951  0.0186  0.1433
 8340SOL    HW136653   3.720   3.805  14.051  1.2779 -1.5794  0.7362
 8340SOL    HW236654   3.814   3.902  14.114  0.6340  0.4738  2.8909
 8341SOL     OW36655   3.916   0.790   0.911 -0.5351 -0.0669  0.8913
 8341SOL    HW136656   3.888   0.822   0.826 -1.1157  0.4271  1.2714
 8341SOL    HW236657   3.859   0.837   0.972  0.8816  1.6922  0.8472
 8342SOL     OW36658   1.738   0.790  15.670  0.3376 -0.2306 -0.1878
 8342SOL    HW136659   1.790   0.767  15.593  1.3348 -0.1443  0.4651
 8342SOL    HW236660   1.674   0.851  15.632 -0.9346 -1.5068 -0.1072
 8343SOL     OW36661   1.438   1.814   8.462  0.1272 -0.8291  0.1214
 8343SOL    HW136662   1.438   1.805   8.557  1.1968  5.7628  0.7605
 8343SOL    HW236663   1.531   1.828   8.447  0.0934 -1.2984 -0.5568
 8344SOL     OW36664   3.166   4.729   9.461  0.3780 -0.2097 -0.1909
 8344SOL    HW136665   3.099   4.722   9.529 -1.9574 -1.0494 -2.5616
 8344SOL    HW236666   3.161   4.650   9.407 -0.6141 -0.2631 -0.0282
 8345SOL     OW36667   0.649   2.028   8.074 -0.0026  0.4842  0.3329
 8345SOL    HW136668   0.712   2.005   8.143  0.2433 -0.2947 -0.1541
 8345SOL    HW236669   0.664   1.957   8.011 -3.0196  0.1975 -0.0554
 8346SOL     OW36670   3.636   0.045   8.327  0.1310 -0.1731 -0.3551
 8346SOL    HW136671   3.548   0.082   8.324  1.0588  2.0875  0.0698
 8346SOL    HW236672   3.624   4.694   8.302 -1.2899  0.0431 -0.4318
 8347SOL     OW36673   4.430   3.243   0.100 -0.1131  0.2942 -0.1935
 8347SOL    HW136674   4.358   3.188   0.070  0.1039 -0.2707  0.3341
 8347SOL    HW236675   4.492   3.184   0.144 -1.3062  2.7369  4.6598
 8348SOL     OW36676   4.025   0.101   1.352  0.8045 -0.6696 -0.8926
 8348SOL    HW136677   4.116   0.072   1.362  0.4192 -1.3642  0.5428
 8348SOL    HW236678   4.022   0.130   1.261 -0.3210 -0.3592 -0.7504
 8349SOL     OW36679   0.208   1.464   2.046 -0.4458  0.4934  0.1556
 8349SOL    HW136680   0.210   1.394   1.982  1.6841 -0.0824  0.8518
 8349SOL    HW236681   0.117   1.477   2.073 -0.6220 -1.3947  0.4506
 8350SOL     OW36682   0.560   4.320   4.738  0.0095  0.3634 -0.0763
 8350SOL    HW136683   0.634   4.259   4.742  0.7078  1.2072 -0.0742
 8350SOL    HW236684   0.600   4.394   4.692 -0.4422 -0.5018 -1.8367
 8351SOL     OW36685   3.262   2.520   4.697  0.9085 -0.0392  0.6626
 8351SOL    HW136686   3.170   2.504   4.675  1.2072 -1.4674  0.4434
 8351SOL    HW236687   3.272   2.614   4.709 -0.8177  0.0917  1.0887
 8352SOL     OW36688   1.557   0.034  11.293 -0.6135  0.2874 -0.2582
 8352SOL    HW136689   1.548   0.118  11.336  0.7280  1.6107 -2.5679
 8352SOL    HW236690   1.640   0.051  11.248  0.1002  0.6674  1.2135
 8353SOL     OW36691   4.482   3.081   6.478  0.7054  0.2977  0.0896
 8353SOL    HW136692   4.464   3.011   6.415 -0.7044 -0.3394  1.1908
 8353SOL    HW236693   4.420   3.152   6.461 -1.0625 -1.2298  0.2339
 8354SOL     OW36694   1.925   4.060   9.213 -0.3915 -0.1604  0.7467
 8354SOL    HW136695   1.999   4.078   9.271  1.0614 -1.4800 -0.6861
 8354SOL    HW236696   1.946   4.118   9.140  0.3085  0.0169  1.0891
 8355SOL     OW36697   3.160   2.828   5.953 -0.0797  0.6147  0.1200
 8355SOL    HW136698   3.104   2.904   5.967 -0.7983  0.1194 -0.0912
 8355SOL    HW236699   3.142   2.816   5.860  0.4613  0.3479  0.0462
 8356SOL     OW36700   1.103   1.354   2.497 -1.0599  0.0059  0.5475
 8356SOL    HW136701   1.140   1.279   2.452 -1.5831  1.3103 -2.0491
 8356SOL    HW236702   1.046   1.386   2.427  0.2299  1.5015  0.1780
 8357SOL     OW36703   4.221   1.290  11.768 -0.2907  0.0716 -0.1870
 8357SOL    HW136704   4.237   1.349  11.694 -1.5026  1.7621  0.9214
 8357SOL    HW236705   4.175   1.214  11.731  0.7080 -0.6881  0.1131
 8358SOL     OW36706   2.360   1.542   1.299 -0.6971  0.4032  0.4451
 8358SOL    HW136707   2.311   1.475   1.251 -0.0402 -0.3520  0.8394
 8358SOL    HW236708   2.283   1.585   1.335 -1.0381 -0.1409  0.3649
 8359SOL     OW36709   4.592   2.194  12.525  0.2483  0.4304  0.2504
 8359SOL    HW136710   4.668   2.196  12.584  1.0376 -3.6004 -0.6493
 8359SOL    HW236711   4.601   2.258  12.454  0.8726  1.7741  1.5365
 8360SOL     OW36712   1.467   0.847   3.205 -0.2315 -0.3153 -0.4714
 8360SOL    HW136713   1.481   0.764   3.251 -1.8611  0.1469  0.8723
 8360SOL    HW236714   1.376   0.878   3.212 -0.3170 -0.8785  1.0638
 8361SOL     OW36715   4.633   1.759   5.723 -0.3465 -0.0804  0.4380
 8361SOL    HW136716   4.717   1.767   5.678 -1.0470 -1.1046 -1.0502
 8361SOL    HW236717   4.606   1.674   5.689 -0.4470  1.0241 -2.2401
 8362SOL     OW36718   4.423   2.176   8.655  0.0803 -0.3031 -0.3112
 8362SOL    HW136719   4.472   2.098   8.678  0.2165 -0.5156 -1.3046
 8362SOL    HW236720   4.402   2.158   8.563 -0.0699  0.3220 -0.4042
 8363SOL     OW36721   0.345   1.177   9.701  0.1525 -0.4626 -0.1929
 8363SOL    HW136722   0.391   1.192   9.784 -0.1584 -2.8074  0.3884
 8363SOL    HW236723   0.354   1.083   9.685 -1.0720 -0.2754 -1.9654
 8364SOL     OW36724   0.586   0.440  14.896  0.3725 -0.5757  0.2304
 8364SOL    HW136725   0.532   0.384  14.952  0.2733 -1.0596 -0.3529
 8364SOL    HW236726   0.561   0.525  14.934 -0.5912 -0.4926 -0.5995
 8365SOL     OW36727   3.605   4.468   8.257  0.3611 -0.0888 -0.0513
 8365SOL    HW136728   3.533   4.505   8.206  0.2894 -1.3142 -0.8273
 8365SOL    HW236729   3.566   4.469   8.345  3.2419  1.2087  1.2341
 8366SOL     OW36730   3.398   0.927  17.139  0.5682 -0.4416 -0.1893
 8366SOL    HW136731   3.370   0.888  17.056  2.5286 -0.9650 -0.6155
 8366SOL    HW236732   3.459   0.984  17.092  0.4876 -0.4582 -0.3128
 8367SOL     OW36733   1.224   1.724  11.018  0.1656 -0.3845  0.0251
 8367SOL    HW136734   1.180   1.808  11.030 -2.5071 -1.9308  1.0895
 8367SOL    HW236735   1.191   1.698  10.932  0.1326  0.6883 -0.2780
 8368SOL     OW36736   2.879   4.322   2.559 -0.0318  0.2388  0.3321
 8368SOL    HW136737   2.820   4.250   2.534 -0.7973  0.8882  0.2745
 8368SOL    HW236738   2.849   4.342   2.647  1.4324 -0.0086  0.8719
 8369SOL     OW36739   3.671   3.157   3.507 -0.2696 -0.4609 -0.2850
 8369SOL    HW136740   3.623   3.076   3.525  0.5097 -0.8101  0.2065
 8369SOL    HW236741   3.645   3.219   3.575 -1.0791 -1.0900 -0.0143
 8370SOL     OW36742   0.410   2.199  12.844 -0.2538 -0.3889  0.2440
 8370SOL    HW136743   0.369   2.200  12.757 -2.1853  2.4143  1.2123
 8370SOL    HW236744   0.390   2.281  12.887 -1.0868 -0.6905  0.4255
 8371SOL     OW36745   1.535   0.029   4.737  0.5831 -0.5004  0.0734
 8371SOL    HW136746   1.517   0.026   4.831  0.8065  1.0864  0.1641
 8371SOL    HW236747   1.451   0.018   4.692 -0.0030 -0.0965  1.0728
 8372SOL     OW36748   2.711   3.143   5.660 -0.2754  0.4177 -0.3569
 8372SOL    HW136749   2.621   3.162   5.634 -0.8319  0.0877  1.2768
 8372SOL    HW236750   2.703   3.062   5.710 -3.0357  0.8892  0.0141
 8373SOL     OW36751   3.750   4.604  13.878 -0.2192 -0.4184 -0.4608
 8373SOL    HW136752   3.724   4.572  13.964  1.2858 -0.8864 -0.1766
 8373SOL    HW236753   3.710   4.691  13.887 -0.7986 -0.5388 -1.8301
 8374SOL     OW36754   0.565   2.365   6.609  0.6304 -0.1048  0.1862
 8374SOL    HW136755   0.498   2.330   6.668 -0.2755  0.6706 -0.3735
 8374SOL    HW236756   0.575   2.285   6.557 -1.5517 -0.2713  0.0278
 8375SOL     OW36757   2.223   2.499   4.191  0.5581  0.0794 -0.6670
 8375SOL    HW136758   2.185   2.458   4.113  0.9189 -0.1343 -0.7279
 8375SOL    HW236759   2.209   2.592   4.173  1.0703  0.5548  1.3972
 8376SOL     OW36760   3.908   1.055   5.364  0.1891 -0.8683  0.3706
 8376SOL    HW136761   3.951   1.074   5.280 -0.9892 -0.7847 -0.2036
 8376SOL    HW236762   3.947   1.123   5.419  1.1133 -0.5014 -0.7324
 8377SOL     OW36763   2.081   3.702   6.493  0.1508  0.7962 -0.0346
 8377SOL    HW136764   2.026   3.780   6.484 -0.2625  0.4010 -0.9243
 8377SOL    HW236765   2.134   3.707   6.414  0.4122  1.2223  0.1687
 8378SOL     OW36766   1.430   4.094   2.861 -0.6584  0.5479  0.6117
 8378SOL    HW136767   1.517   4.089   2.901 -1.1916  1.0699  1.8341
 8378SOL    HW236768   1.414   4.188   2.870  1.7511  0.9601  0.7174
 8379SOL     OW36769   4.061   0.385   3.896  0.4379 -0.2998  0.1427
 8379SOL    HW136770   4.044   0.306   3.946  0.0089  0.4847  1.2257
 8379SOL    HW236771   4.049   0.362   3.803 -0.5633 -0.8917  0.4197
 8380SOL     OW36772   0.673   4.175   5.126 -0.7043 -0.6395  0.1265
 8380SOL    HW136773   0.682   4.130   5.042  1.0456 -1.5081  0.7780
 8380SOL    HW236774   0.754   4.160   5.175  0.5260  0.3886 -1.5620
 8381SOL     OW36775   3.077   1.274   8.693  0.1162  0.4679  0.6376
 8381SOL    HW136776   2.983   1.279   8.676  0.1749  0.2911  0.2442
 8381SOL    HW236777   3.079   1.272   8.789 -2.0566 -1.7029  0.6365
 8382SOL     OW36778   0.734   1.527   8.307 -0.1222 -0.1441 -0.1526
 8382SOL    HW136779   0.666   1.485   8.359 -0.0055  2.6154  2.2516
 8382SOL    HW236780   0.690   1.569   8.233 -0.9468 -0.1625  0.3303
 8383SOL     OW36781   4.319   3.310   1.328 -0.3196 -0.3078 -0.4999
 8383SOL    HW136782   4.250   3.349   1.382 -0.2336  0.8700 -1.2460
 8383SOL    HW236783   4.314   3.220   1.358 -1.9507 -0.5318 -1.4842
 8384SOL     OW36784   1.544   3.451   8.204  0.8292  0.5307  0.0433
 8384SOL    HW136785   1.558   3.383   8.138  0.0139 -0.9225  1.3442
 8384SOL    HW236786   1.631   3.447   8.245  2.5664  0.3822 -3.6496
 8385SOL     OW36787   2.849   4.468  10.179 -0.0670  0.1418 -0.0504
 8385SOL    HW136788   2.766   4.423  10.190 -1.6144  3.0218  0.0815
 8385SOL    HW236789   2.828   4.552  10.219 -2.1352  0.2608 -1.4190
 8386SOL     OW36790   1.520   3.951  11.201  0.0262 -0.2209 -0.3755
 8386SOL    HW136791   1.486   3.960  11.112 -1.1574  0.0392  0.1106
 8386SOL    HW236792   1.441   3.942  11.253  0.2087 -1.1977 -0.2671
 8387SOL     OW36793   3.305   2.776  12.494 -0.2861 -0.3161  0.3395
 8387SOL    HW136794   3.368   2.765  12.566 -1.3542 -0.3827  1.2723
 8387SOL    HW236795   3.302   2.687  12.459 -2.6196 -0.5150  1.0158
 8388SOL     OW36796   1.519   0.298   7.479  0.2984 -0.2297  0.7019
 8388SOL    HW136797   1.572   0.329   7.553 -0.1027  1.5166  0.2502
 8388SOL    HW236798   1.552   0.365   7.419 -0.1038  0.2827  1.0546
 8389SOL     OW36799   3.645   1.292   6.957  0.3127  0.7107 -0.4883
 8389SOL    HW136800   3.724   1.321   7.004  1.3285 -2.7405 -0.0548
 8389SOL    HW236801   3.640   1.203   6.991 -0.4597  0.8612 -0.2165
 8390SOL     OW36802   2.465   4.310   7.332 -0.5098  0.6175  0.2203
 8390SOL    HW136803   2.479   4.244   7.263 -1.2761  2.0520 -1.3070
 8390SOL    HW236804   2.459   4.390   7.280  1.3382  2.4958  2.9240
 8391SOL     OW36805   3.653   3.497   2.892  0.0519 -0.0327  0.0971
 8391SOL    HW136806   3.693   3.449   2.819  0.5730 -0.4049  0.6269
 8391SOL    HW236807   3.701   3.458   2.966 -0.8309  2.5728  2.0291
 8392SOL     OW36808   2.825   1.237   3.507  0.2267  0.0702  0.4388
 8392SOL    HW136809   2.759   1.261   3.572  0.2102  1.3167 -0.0363
 8392SOL    HW236810   2.765   1.177   3.462  0.7227  0.1833 -0.3806
 8393SOL     OW36811   2.194   3.040   2.179  0.1514 -0.1689 -0.3268
 8393SOL    HW136812   2.246   3.022   2.100  0.4002 -1.4155  0.1242
 8393SOL    HW236813   2.143   2.960   2.193 -1.3927  0.8716 -0.0899
 8394SOL     OW36814   2.396   3.359   5.304  0.0217 -0.9453  0.1563
 8394SOL    HW136815   2.405   3.408   5.222 -0.9740 -0.6902  0.2109
 8394SOL    HW236816   2.397   3.266   5.281  0.7733 -0.2564 -2.5564
 8395SOL     OW36817   2.978   0.819   2.464  0.6098  1.0110  0.4763
 8395SOL    HW136818   3.018   0.762   2.398  1.6455  2.6038 -0.2675
 8395SOL    HW236819   2.931   0.754   2.515  2.6074 -2.4175 -2.0460
 8396SOL     OW36820   0.368   3.246   0.505  0.3837  0.2107  0.1796
 8396SOL    HW136821   0.434   3.315   0.501 -0.4365  1.0229  0.6272
 8396SOL    HW236822   0.307   3.279   0.570  0.3403 -1.1178  0.8143
 8397SOL     OW36823   3.435   1.363   6.029  0.1666  0.0957  0.2113
 8397SOL    HW136824   3.346   1.345   6.059 -1.1800  2.6189 -2.3526
 8397SOL    HW236825   3.451   1.276   5.991  2.3212  0.3366  0.5692
 8398SOL     OW36826   3.203   4.460   4.392 -0.2581  0.9022  0.2344
 8398SOL    HW136827   3.174   4.537   4.441  2.5297  1.6678  0.6840
 8398SOL    HW236828   3.271   4.420   4.447 -0.4802  1.9943  1.3120
 8399SOL     OW36829   2.810   3.782   5.243  0.0034  0.1583 -0.0750
 8399SOL    HW136830   2.743   3.739   5.190  1.1507 -1.0421 -0.5419
 8399SOL    HW236831   2.777   3.857   5.292  1.9463 -1.1072  3.1832
 8400SOL     OW36832   1.373   3.625   1.651  0.1812 -0.0854  0.3532
 8400SOL    HW136833   1.292   3.608   1.699  0.8315  1.1255  1.8717
 8400SOL    HW236834   1.425   3.660   1.723 -0.1772 -1.0854  1.0991
 8401SOL     OW36835   2.207   3.299   9.184 -0.1138 -0.4364 -0.6026
 8401SOL    HW136836   2.180   3.256   9.103  2.0384 -0.2245 -1.4443
 8401SOL    HW236837   2.155   3.379   9.172  0.6045 -0.1531 -1.8685
 8402SOL     OW36838   0.340   0.723   4.478 -0.6570 -0.5761 -0.2867
 8402SOL    HW136839   0.290   0.699   4.557  0.4871 -1.9813  0.0041
 8402SOL    HW236840   0.304   0.807   4.451  1.6737  0.6483  0.4499
 8403SOL     OW36841   0.535   1.304   1.250 -0.0775 -0.2552 -0.0065
 8403SOL    HW136842   0.545   1.380   1.193  0.0569  1.1232  1.8854
 8403SOL    HW236843   0.624   1.274   1.268  0.9101  2.3714 -0.4793
 8404SOL     OW36844   0.479   2.010   1.416 -0.0151  0.0044 -0.0224
 8404SOL    HW136845   0.474   1.964   1.332 -1.8610  0.4061 -0.1357
 8404SOL    HW236846   0.405   1.973   1.463  1.6925 -0.0080  2.6610
 8405SOL     OW36847   1.346   0.161   5.138  0.2582  0.3296  0.5184
 8405SOL    HW136848   1.254   0.160   5.166  0.9072  0.8708  2.6516
 8405SOL    HW236849   1.390   0.182   5.220 -0.1376  1.4337  0.4498
 8406SOL     OW36850   1.145   4.728  17.217 -0.1757  0.1670  0.2667
 8406SOL    HW136851   1.081   0.042  17.263  2.1037  1.3488  1.9835
 8406SOL    HW236852   1.130   0.019  17.128  1.6823 -2.5318 -0.9997
 8407SOL     OW36853   3.843   4.648  16.784  0.1509 -1.0866 -0.2189
 8407SOL    HW136854   3.760   4.654  16.737  1.3156  0.4509 -2.1215
 8407SOL    HW236855   3.823   4.689  16.868  0.4910  0.1476 -0.7371
 8408SOL     OW36856   1.870   1.650   9.698 -0.0067 -0.0997 -0.2323
 8408SOL    HW136857   1.888   1.685   9.611  0.1853 -0.1046 -0.1947
 8408SOL    HW236858   1.775   1.657   9.708 -0.0699 -0.0049 -0.9139
 8409SOL     OW36859   4.313   1.617  15.382 -0.5594  0.2072 -0.0761
 8409SOL    HW136860   4.290   1.601  15.291 -0.5615 -1.8674  0.3040
 8409SOL    HW236861   4.406   1.637  15.372 -0.5512  0.7605  1.1121
 8410SOL     OW36862   3.783   0.123   6.774  0.0401 -0.0447 -0.1913
 8410SOL    HW136863   3.869   0.132   6.814 -0.3928 -1.1359  0.9824
 8410SOL    HW236864   3.726   0.154   6.844  2.0602  0.5183  1.1832
 8411SOL     OW36865   3.691   2.955   3.862  0.4608 -0.3808  0.0660
 8411SOL    HW136866   3.634   2.893   3.908 -0.2917 -1.1344 -1.8724
 8411SOL    HW236867   3.660   3.037   3.901  0.1535 -1.1605  1.4438
 8412SOL     OW36868   0.927   4.325  10.110 -0.2415 -0.3065  1.0115
 8412SOL    HW136869   0.910   4.356  10.021 -1.3327 -0.0350  1.3156
 8412SOL    HW236870   0.947   4.232  10.105  1.4151  0.0738  0.4296
 8413SOL     OW36871   3.444   1.757   5.472 -0.2289 -0.0105  0.2087
 8413SOL    HW136872   3.438   1.686   5.535  0.2308 -0.5389 -0.3508
 8413SOL    HW236873   3.535   1.747   5.446  0.4405  1.4438  2.0036
 8414SOL     OW36874   0.399   2.067   4.368  0.0653 -0.3688  0.1911
 8414SOL    HW136875   0.336   2.136   4.351 -0.6974 -1.5053 -1.6011
 8414SOL    HW236876   0.435   2.042   4.283  0.5368 -0.3392  0.3849
 8415SOL     OW36877   3.612   2.257   8.156 -0.2782  0.2006  0.3494
 8415SOL    HW136878   3.706   2.241   8.154 -0.4741 -0.9447  0.3739
 8415SOL    HW236879   3.590   2.200   8.230  0.0777  1.0689  1.1302
 8416SOL     OW36880   1.519   2.270   3.353  0.2531 -0.5696  0.8547
 8416SOL    HW136881   1.576   2.195   3.339 -0.4460 -0.7280 -1.2161
 8416SOL    HW236882   1.570   2.336   3.305 -0.2422 -0.1023  0.9664
 8417SOL     OW36883   1.175   1.137   9.860  0.0838  0.0088 -0.5254
 8417SOL    HW136884   1.270   1.135   9.870 -0.4057 -2.2433  3.7081
 8417SOL    HW236885   1.151   1.132   9.953 -0.9417 -0.7249 -0.8175
 8418SOL     OW36886   0.238   2.688   5.180 -0.3821 -0.1337  0.1265
 8418SOL    HW136887   0.234   2.592   5.189  0.3619 -0.4449 -2.9826
 8418SOL    HW236888   0.209   2.707   5.269 -0.3326 -0.1347  0.1430
 8419SOL     OW36889   2.655   3.095   4.282 -0.2869 -0.6073 -0.5454
 8419SOL    HW136890   2.562   3.108   4.296  0.2578  1.1589  1.4199
 8419SOL    HW236891   2.680   3.184   4.254  2.1631 -1.0153  0.3815
 8420SOL     OW36892   0.670   4.700   6.313  0.2525 -0.6873 -0.4496
 8420SOL    HW136893   0.725   4.701   6.391 -1.0687 -0.1412  0.4792
 8420SOL    HW236894   0.617   0.039   6.321  1.1284  0.0293 -1.8198
 8421SOL     OW36895   0.519   4.413   1.768 -0.4640  0.1873 -0.0181
 8421SOL    HW136896   0.525   4.460   1.685 -2.1587 -2.2579 -1.5553
 8421SOL    HW236897   0.547   4.488   1.820  1.7883 -1.1384  0.6662
 8422SOL     OW36898   0.010   2.744  16.383 -0.0848  0.0339  0.0966
 8422SOL    HW136899   0.085   2.685  16.372 -0.9670 -1.0473 -0.0664
 8422SOL    HW236900   0.044   2.820  16.336  2.4855 -0.1059  1.7041
 8423SOL     OW36901   3.404   3.714   7.123 -0.0523 -0.2131  0.2934
 8423SOL    HW136902   3.468   3.773   7.164  0.8246 -0.0621 -1.3077
 8423SOL    HW236903   3.410   3.736   7.030  0.3243  1.3924  0.6996
 8424SOL     OW36904   3.756   0.353   3.924  0.3167 -0.0736 -0.5422
 8424SOL    HW136905   3.770   0.423   3.988 -0.8492 -0.0969 -0.2539
 8424SOL    HW236906   3.755   0.272   3.975  0.5473  0.1954 -0.1099
 8425SOL     OW36907   0.851   0.479  10.437 -0.1599  0.3253 -0.1619
 8425SOL    HW136908   0.777   0.451  10.491  0.9747  0.0561  1.2586
 8425SOL    HW236909   0.846   0.424  10.359  1.0570 -1.7358  1.2023
 8426SOL     OW36910   1.286   0.149   1.058  0.0609 -0.3715 -0.8463
 8426SOL    HW136911   1.265   0.214   0.990  1.7820  2.0855  0.9781
 8426SOL    HW236912   1.355   0.106   1.007  0.7181 -1.8265  1.2539
 8427SOL     OW36913   2.307   1.682   7.596  0.0827  0.0391 -0.3414
 8427SOL    HW136914   2.387   1.713   7.638  0.4701 -0.7602 -0.4739
 8427SOL    HW236915   2.341   1.613   7.538  0.2123  3.0851 -3.8521
 8428SOL     OW36916   2.740   3.943   6.308  0.3172 -0.0474  0.2443
 8428SOL    HW136917   2.650   3.974   6.296  0.7376  0.5510 -1.3583
 8428SOL    HW236918   2.767   3.957   6.218 -0.8990 -0.8088 -0.2339
 8429SOL     OW36919   1.678   2.467   8.585 -0.3278  0.1082 -0.3194
 8429SOL    HW136920   1.722   2.514   8.513  1.1247 -0.2006  0.3677
 8429SOL    HW236921   1.602   2.520   8.607  0.6538  0.5534  1.9812
 8430SOL     OW36922   1.331   2.639   0.267  0.8671  0.1647 -0.4241
 8430SOL    HW136923   1.241   2.611   0.251  0.8436  0.3083 -0.5487
 8430SOL    HW236924   1.374   2.555   0.282  1.8829  0.5446 -1.2362
 8431SOL     OW36925   4.280   3.810  12.930  0.6216  0.4362 -0.0402
 8431SOL    HW136926   4.246   3.859  12.855  1.7185 -1.8356 -2.0219
 8431SOL    HW236927   4.280   3.875  13.000 -1.2671 -1.4618  1.7162
 8432SOL     OW36928   4.388   3.345   1.676 -0.8872  0.2176  0.8155
 8432SOL    HW136929   4.368   3.385   1.761 -1.0554 -0.3648  1.0548
 8432SOL    HW236930   4.308   3.352   1.624  0.2408  1.6259 -0.7428
 8433SOL     OW36931   2.896   0.158   3.617  0.4070 -0.3798  0.0247
 8433SOL    HW136932   2.841   0.203   3.553  2.4603  2.8720  0.5699
 8433SOL    HW236933   2.982   0.160   3.577  0.0604  0.6686 -0.6562
 8434SOL     OW36934   2.035   1.962   6.848 -0.1510  0.2950 -0.4849
 8434SOL    HW136935   2.126   1.951   6.875 -1.5143 -2.5674  3.0865
 8434SOL    HW236936   2.026   1.883   6.794 -0.6207 -0.0101  0.0371
 8435SOL     OW36937   4.377   1.644   0.045  0.0098  0.3608  0.1037
 8435SOL    HW136938   4.298   1.679   0.087 -1.2208 -1.2185 -0.9454
 8435SOL    HW236939   4.346   1.554   0.039  0.6624  0.2626 -1.4999
 8436SOL     OW36940   0.025   4.080   7.011  0.2022  0.1631  0.4291
 8436SOL    HW136941   0.037   4.087   7.106 -0.3965  0.3275  0.4986
 8436SOL    HW236942   0.112   4.052   6.985  1.1210  0.3253  3.3531
 8437SOL     OW36943   0.091   0.321   5.150 -0.2548  0.4175 -0.2542
 8437SOL    HW136944   0.009   0.369   5.140 -0.5762 -0.6681 -2.7064
 8437SOL    HW236945   0.142   0.350   5.075  1.6535 -1.2809  0.3769
 8438SOL     OW36946   0.706   1.525  12.454 -0.3645  0.7271  0.5610
 8438SOL    HW136947   0.712   1.524  12.358  1.2165 -0.8283  0.6748
 8438SOL    HW236948   0.751   1.603  12.484  2.2659 -0.9603  1.0457
 8439SOL     OW36949   3.866   2.033  16.850  0.2084 -0.1383  0.1533
 8439SOL    HW136950   3.848   1.969  16.919 -0.3494 -0.7827 -0.5936
 8439SOL    HW236951   3.808   2.006  16.779 -0.9196 -0.0144  1.0289
 8440SOL     OW36952   4.451   0.682  13.622 -0.0619  0.1177  1.0363
 8440SOL    HW136953   4.422   0.749  13.560  1.3721 -1.0418 -0.8545
 8440SOL    HW236954   4.539   0.712  13.646  0.7376 -1.7922  0.4519
 8441SOL     OW36955   4.265   3.155   9.136 -1.3278 -0.3865  0.0860
 8441SOL    HW136956   4.242   3.212   9.210  1.3845  0.3864  0.3328
 8441SOL    HW236957   4.190   3.100   9.114 -0.6669 -0.3726 -2.2293
 8442SOL     OW36958   3.663   3.178  12.016 -0.1944 -0.0151 -0.3797
 8442SOL    HW136959   3.727   3.237  12.054  0.4032 -1.5662  1.0187
 8442SOL    HW236960   3.590   3.239  12.024 -0.4833 -0.6006  1.4617
 8443SOL     OW36961   1.357   2.871   6.475  0.7940  0.2228  0.5820
 8443SOL    HW136962   1.380   2.779   6.458  1.6946 -0.1715  3.8482
 8443SOL    HW236963   1.439   2.920   6.476 -0.5926  2.4833  2.3452
 8444SOL     OW36964   4.008   3.221   8.544  0.3602  0.0996 -0.0435
 8444SOL    HW136965   3.988   3.209   8.637  2.4551 -0.3778  0.3490
 8444SOL    HW236966   4.091   3.174   8.555  1.1939  1.4095 -0.6834
 8445SOL     OW36967   2.686   0.396   6.304  0.4968  0.7499 -0.4077
 8445SOL    HW136968   2.740   0.470   6.276  0.2893  1.5658  1.3356
 8445SOL    HW236969   2.738   0.320   6.275 -0.4440 -0.2373  0.5127
 8446SOL     OW36970   1.203   3.716   2.127 -0.5555 -0.2626  0.0390
 8446SOL    HW136971   1.175   3.798   2.169 -1.9098  0.0141 -1.3910
 8446SOL    HW236972   1.253   3.674   2.197  1.0673  2.9418  0.7999
 8447SOL     OW36973   1.555   3.238  11.560  0.1588 -0.0728  0.0701
 8447SOL    HW136974   1.575   3.271  11.473 -0.7412  0.7005  0.1663
 8447SOL    HW236975   1.567   3.143  11.548  0.6882 -0.2095  1.6215
 8448SOL     OW36976   2.086   1.277  16.160 -0.3886  0.5083  0.0664
 8448SOL    HW136977   2.113   1.368  16.173 -2.0540  0.8277  1.2867
 8448SOL    HW236978   2.044   1.275  16.074 -0.7989 -0.1922  0.2854
 8449SOL     OW36979   4.156   2.159   3.602  0.2684 -0.2582 -0.7649
 8449SOL    HW136980   4.107   2.177   3.682  2.7733 -2.0813  1.1898
 8449SOL    HW236981   4.167   2.240   3.552 -0.1156 -0.0285 -0.4773
 8450SOL     OW36982   0.602   2.498   8.175 -0.2977 -1.0795  0.2232
 8450SOL    HW136983   0.610   2.476   8.268  0.0587  2.5489  1.0760
 8450SOL    HW236984   0.521   2.549   8.174  0.2118 -0.2662  0.1434
 8451SOL     OW36985   0.779   1.885   4.068  0.0283 -0.1752  0.0150
 8451SOL    HW136986   0.701   1.846   4.028 -0.3339 -0.9298  1.4540
 8451SOL    HW236987   0.844   1.819   4.044 -2.3782 -2.4654 -0.2697
 8452SOL     OW36988   0.810   2.054   5.931  0.4674 -0.3258 -0.4092
 8452SOL    HW136989   0.883   2.113   5.912 -0.2155  0.4429 -0.6104
 8452SOL    HW236990   0.765   2.037   5.848 -0.9818 -2.0399  0.7346
 8453SOL     OW36991   1.690   1.738   4.226  0.2602  0.3956  0.3724
 8453SOL    HW136992   1.671   1.829   4.201 -0.5737 -0.3195 -1.5427
 8453SOL    HW236993   1.627   1.686   4.176 -1.7044  3.6227 -0.5878
 8454SOL     OW36994   2.947   3.901   1.925 -0.3939 -0.3121 -0.4843
 8454SOL    HW136995   2.889   3.932   1.994 -1.4158 -1.7352 -0.7203
 8454SOL    HW236996   3.017   3.967   1.923 -1.6398  0.9685 -1.8410
 8455SOL     OW36997   1.283   3.994  10.146 -0.0847  0.1830  0.9202
 8455SOL    HW136998   1.193   3.994  10.177  1.0477  0.2510  4.3011
 8455SOL    HW236999   1.325   4.054  10.208 -1.9607  3.0609 -0.6332
 8456SOL     OW37000   0.717   2.343   2.257  0.6075  0.2748 -0.6292
 8456SOL    HW137001   0.633   2.370   2.220  0.6219  1.6689  0.3605
 8456SOL    HW237002   0.776   2.365   2.186  0.3871 -0.5353 -1.0693
 8457SOL     OW37003   1.739   2.513   4.975 -0.3014  0.3076 -0.2992
 8457SOL    HW137004   1.736   2.595   5.025  0.7108  0.9339 -1.2755
 8457SOL    HW237005   1.778   2.535   4.891 -0.8162 -0.1756 -0.6681
 8458SOL     OW37006   2.388   3.877   9.033  0.0532  0.2291 -0.0298
 8458SOL    HW137007   2.422   3.790   9.012  0.2988  0.4398 -0.5115
 8458SOL    HW237008   2.441   3.890   9.112 -1.3277  0.5811  0.8453
 8459SOL     OW37009   1.075   3.117   2.177  0.5040  0.1701  0.7404
 8459SOL    HW137010   1.145   3.111   2.113 -0.0581 -0.7097  0.2229
 8459SOL    HW237011   1.000   3.098   2.120  0.6991 -1.3052  0.9992
 8460SOL     OW37012   3.319   4.702   7.226  0.6144  0.0864  0.6411
 8460SOL    HW137013   3.281   4.626   7.183 -0.0101 -1.0385  3.1761
 8460SOL    HW237014   3.404   4.675   7.260 -0.2094  1.0340  3.4765
 8461SOL     OW37015   3.251   2.794  14.698  0.5619 -0.1569 -0.1993
 8461SOL    HW137016   3.300   2.776  14.619 -0.7293 -1.6392 -0.6592
 8461SOL    HW237017   3.163   2.760  14.683  1.4497 -2.2408 -0.7016
 8462SOL     OW37018   0.063   4.414   1.602 -0.3130  0.7678 -0.1149
 8462SOL    HW137019   4.725   4.425   1.550 -0.7678 -1.5978  0.0674
 8462SOL    HW237020   0.033   4.416   1.693  0.3967 -1.6808  0.1660
 8463SOL     OW37021   3.832   0.061  11.662 -0.4466  0.3403  0.2521
 8463SOL    HW137022   3.852   0.153  11.647 -0.3817  0.4906  1.2395
 8463SOL    HW237023   3.772   0.058  11.737 -1.7897  1.8806 -0.7538
 8464SOL     OW37024   0.733   0.495   9.855 -0.1194  0.0290  0.3492
 8464SOL    HW137025   0.809   0.483   9.913  0.0673  1.7615  0.4588
 8464SOL    HW237026   0.691   0.570   9.897  0.3427 -1.1437  2.8985
 8465SOL     OW37027   2.125   3.554   9.112 -0.1038 -0.6038 -0.5119
 8465SOL    HW137028   2.104   3.644   9.138 -1.8173 -1.4349  1.0146
 8465SOL    HW237029   2.051   3.532   9.055  0.1928 -0.2031 -1.0482
 8466SOL     OW37030   2.895   1.344   4.865 -0.7030 -0.0267  0.4186
 8466SOL    HW137031   2.857   1.357   4.778 -0.7111 -2.8216  0.0048
 8466SOL    HW237032   2.874   1.429   4.904 -0.0627  0.3860 -0.1226
 8467SOL     OW37033   1.995   1.151   3.226  0.1585  0.4824  0.2463
 8467SOL    HW137034   1.924   1.214   3.222  0.3107  0.7653  2.0873
 8467SOL    HW237035   1.972   1.075   3.279  0.6305 -0.4375 -0.8712
 8468SOL     OW37036   4.429   3.435   7.858  0.7206 -0.7444 -0.1531
 8468SOL    HW137037   4.398   3.347   7.834  0.0251 -0.9547  1.4905
 8468SOL    HW237038   4.363   3.447   7.927  1.1825  1.4677 -0.0994
 8469SOL     OW37039   3.636   3.545   7.363  0.1224 -0.7490  0.3240
 8469SOL    HW137040   3.670   3.477   7.422 -1.3083 -0.0270  1.9868
 8469SOL    HW237041   3.681   3.514   7.284  2.2246  3.0979  0.0522
 8470SOL     OW37042   3.581   3.625  13.586 -0.0558  0.1719 -0.1323
 8470SOL    HW137043   3.658   3.642  13.639 -0.2963 -2.7610  1.1488
 8470SOL    HW237044   3.603   3.560  13.519  1.0393 -0.1508  0.5551
 8471SOL     OW37045   3.353   4.582   5.292  0.0893 -0.5936  0.0721
 8471SOL    HW137046   3.407   4.521   5.342  0.3983 -0.8359 -0.5565
 8471SOL    HW237047   3.416   4.606   5.224  2.0822  0.8125  2.4014
 8472SOL     OW37048   2.770   4.249   4.898  0.3187  0.3694 -0.1466
 8472SOL    HW137049   2.841   4.222   4.955  0.4252  0.7896 -0.0763
 8472SOL    HW237050   2.824   4.266   4.821 -0.9453  2.4888 -0.5698
 8473SOL     OW37051   1.554   4.608   6.098  0.3827 -0.5824 -0.3704
 8473SOL    HW137052   1.497   4.532   6.094 -0.8245  0.3139 -0.1337
 8473SOL    HW237053   1.635   4.576   6.140  0.5014 -0.0652 -0.2050
 8474SOL     OW37054   0.296   1.062  15.190  0.1855  0.1678  0.2805
 8474SOL    HW137055   0.245   1.099  15.117 -0.5057 -0.8085  0.2720
 8474SOL    HW237056   0.368   1.126  15.193  0.3920  0.0202 -1.1901
 8475SOL     OW37057   3.516   4.191  16.520  0.0911  0.6092 -0.4316
 8475SOL    HW137058   3.491   4.227  16.434 -0.3402 -0.6926 -0.8457
 8475SOL    HW237059   3.601   4.231  16.541  0.2170  0.3686 -0.4847
 8476SOL     OW37060   1.200   4.208  16.449  0.5847  0.0270 -0.3020
 8476SOL    HW137061   1.166   4.205  16.360 -0.1334 -3.2534  0.0615
 8476SOL    HW237062   1.278   4.154  16.435  0.4428  0.5840 -3.0579
 8477SOL     OW37063   3.849   0.814   4.724  0.2454  0.0981 -0.7374
 8477SOL    HW137064   3.922   0.759   4.753  1.0162  1.2735 -0.4796
 8477SOL    HW237065   3.895   0.865   4.658  2.6606 -0.5944  0.4137
 8478SOL     OW37066   1.212   4.089   4.194 -0.3677 -0.0968 -0.6722
 8478SOL    HW137067   1.200   4.046   4.109  3.1203 -2.1212 -0.1399
 8478SOL    HW237068   1.242   4.017   4.249  1.1119 -0.2110 -1.6075
 8479SOL     OW37069   1.608   0.470   4.467  0.8259 -0.1803 -0.2594
 8479SOL    HW137070   1.598   0.526   4.544  3.2130  1.7507 -1.3649
 8479SOL    HW237071   1.616   0.385   4.509 -0.6368 -0.5804 -0.7772
 8480SOL     OW37072   2.269   3.344   6.750 -0.5162  0.2905  0.3504
 8480SOL    HW137073   2.254   3.263   6.798 -1.7163  0.2193 -0.1531
 8480SOL    HW237074   2.353   3.329   6.708 -0.8066 -1.7739  0.5212
 8481SOL     OW37075   0.289   3.669   4.798 -0.0963  0.8799  0.5742
 8481SOL    HW137076   0.249   3.744   4.754  1.1936  0.0799 -1.9592
 8481SOL    HW237077   0.254   3.687   4.885 -0.9603 -0.7006  0.5370
 8482SOL     OW37078   2.118   1.029  14.043 -0.3667  0.3076  0.7054
 8482SOL    HW137079   2.034   0.998  14.008 -0.1559  0.5856 -0.0489
 8482SOL    HW237080   2.093   1.064  14.128 -1.5411 -1.1184  0.9657
 8483SOL     OW37081   3.518   0.795  13.692 -0.1143 -0.1942 -0.5701
 8483SOL    HW137082   3.591   0.854  13.672  1.0029 -1.0316  1.0057
 8483SOL    HW237083   3.470   0.781  13.611 -1.6972  0.9897  0.1617
 8484SOL     OW37084   2.667   0.856  10.867 -0.4154  0.7038  0.1933
 8484SOL    HW137085   2.742   0.892  10.819  0.3605  0.0031  0.8694
 8484SOL    HW237086   2.683   0.873  10.960 -0.1841 -0.2590  0.3390
 8485SOL     OW37087   0.611   2.542  15.969 -0.3079  0.2728 -0.6280
 8485SOL    HW137088   0.696   2.505  15.991 -1.9198 -2.7575  0.5382
 8485SOL    HW237089   0.631   2.602  15.897 -2.5462 -0.7080 -2.0859
 8486SOL     OW37090   1.857   4.615   6.721  0.1215  0.2255 -0.1909
 8486SOL    HW137091   1.788   4.571   6.671 -1.5028  1.9291  0.5662
 8486SOL    HW237092   1.889   4.542   6.774 -0.0229 -0.3071 -0.8234
 8487SOL     OW37093   3.993   0.904   5.852  0.2515 -0.2052 -0.0393
 8487SOL    HW137094   3.950   0.843   5.792  1.3268  0.5134 -1.5296
 8487SOL    HW237095   4.073   0.919   5.802  1.0841 -1.1404  1.0052
 8488SOL     OW37096   4.457   0.679   7.856 -0.3355 -0.5405 -0.2486
 8488SOL    HW137097   4.391   0.614   7.884 -1.1941 -0.3965 -1.9720
 8488SOL    HW237098   4.455   0.753   7.916  2.8841  0.3978 -1.3079
 8489SOL     OW37099   2.152   2.383  14.825 -0.4984 -0.5829 -0.2419
 8489SOL    HW137100   2.155   2.333  14.907  2.0097 -2.1546 -1.2955
 8489SOL    HW237101   2.093   2.328  14.773 -0.1673  0.3891 -1.6298
 8490SOL     OW37102   1.457   1.097   4.358  0.4589  0.2079 -0.2193
 8490SOL    HW137103   1.414   1.019   4.321 -0.9660  1.6231 -1.5687
 8490SOL    HW237104   1.535   1.062   4.400 -1.8280  0.0408  3.9019
 8491SOL     OW37105   0.123   2.569   9.305 -0.0132 -0.1341  0.4114
 8491SOL    HW137106   0.155   2.604   9.222  4.9731 -0.9080  1.9783
 8491SOL    HW237107   0.082   2.489   9.271  1.9923 -1.2814  0.7111
 8492SOL     OW37108   0.441   0.899  15.998 -0.0894 -0.2119 -0.0297
 8492SOL    HW137109   0.485   0.862  16.074 -1.3201 -0.6477  0.4711
 8492SOL    HW237110   0.509   0.895  15.931  1.4333 -1.2707  1.5779
 8493SOL     OW37111   4.189   1.837   0.161 -0.0667 -0.4872 -0.3870
 8493SOL    HW137112   4.137   1.781   0.103 -0.7280  0.8444 -1.0905
 8493SOL    HW237113   4.117   1.894   0.188  0.9739 -0.2850  1.9609
 8494SOL     OW37114   2.158   0.590  13.565 -0.3715 -0.2704  0.6184
 8494SOL    HW137115   2.214   0.582  13.642  1.8595 -3.9690 -1.4030
 8494SOL    HW237116   2.197   0.668  13.526 -0.0454  0.2596  2.0232
 8495SOL     OW37117   4.603   1.791  16.959 -0.3681 -0.4506  0.2555
 8495SOL    HW137118   4.637   1.878  16.937 -1.0739 -0.3706 -0.4843
 8495SOL    HW237119   4.518   1.785  16.915 -1.3601  0.6050  2.0515
 8496SOL     OW37120   0.370   1.159  13.235  0.3395  0.3090  0.6669
 8496SOL    HW137121   0.454   1.175  13.277 -0.0636  0.1645  1.5283
 8496SOL    HW237122   0.411   1.155  13.148  1.6163  0.0299  1.2706
 8497SOL     OW37123   3.136   3.331   9.078  0.0460  0.2233 -0.6950
 8497SOL    HW137124   3.217   3.287   9.052  0.1697 -0.3490  0.6634
 8497SOL    HW237125   3.121   3.311   9.170 -1.0086  0.3158 -0.8433
 8498SOL     OW37126   4.371   4.565  14.797  0.5722  0.3707  0.2243
 8498SOL    HW137127   4.290   4.568  14.747 -0.6579 -0.7510  2.1507
 8498SOL    HW237128   4.406   4.483  14.761  0.3397  1.2861 -2.0973
 8499SOL     OW37129   4.501   3.003   4.438 -0.3416  0.0419 -0.2628
 8499SOL    HW137130   4.475   3.053   4.514  1.9519  0.5067  0.2074
 8499SOL    HW237131   4.541   3.077   4.393  1.2086  0.7098  2.2673
 8500SOL     OW37132   0.124   2.631   2.649  0.2687 -0.2797  0.0199
 8500SOL    HW137133   0.158   2.720   2.645  0.0808 -0.0626  3.4354
 8500SOL    HW237134   0.141   2.598   2.561 -0.4512 -0.1513 -0.1601
 8501SOL     OW37135   3.747   1.212   8.467 -0.2013  0.4526 -0.5701
 8501SOL    HW137136   3.737   1.138   8.526  0.1380  0.2920 -0.7139
 8501SOL    HW237137   3.675   1.273   8.483 -0.6718  0.2878 -2.0565
 8502SOL     OW37138   3.457   2.226   3.615 -0.7473 -0.0788  0.3445
 8502SOL    HW137139   3.506   2.215   3.533  1.8784  2.8544  1.5225
 8502SOL    HW237140   3.395   2.158   3.589  0.9772 -2.6166  2.9870
 8503SOL     OW37141   1.441   0.461  15.437 -0.0843 -0.6121 -0.4065
 8503SOL    HW137142   1.473   0.370  15.435 -0.3181 -0.6691 -1.5587
 8503SOL    HW237143   1.476   0.492  15.354 -0.4827  0.6192 -0.1096
 8504SOL     OW37144   0.014   4.346   9.630 -0.8494 -0.1326 -0.0125
 8504SOL    HW137145   0.031   4.414   9.565 -1.0014  2.2875  2.4348
 8504SOL    HW237146   0.085   4.371   9.689 -1.1733  0.7601 -0.0025
 8505SOL     OW37147   2.871   3.627   9.302 -0.5801  0.3907  0.0953
 8505SOL    HW137148   2.803   3.562   9.286  0.7587 -1.3071  1.2156
 8505SOL    HW237149   2.815   3.692   9.342 -0.5111  0.3932  0.1882
 8506SOL     OW37150   2.487   3.394   2.132 -0.1779 -0.2908  0.2945
 8506SOL    HW137151   2.495   3.442   2.215  2.9807 -1.9316  0.9456
 8506SOL    HW237152   2.420   3.439   2.081  1.3718  0.8770 -0.7010
 8507SOL     OW37153   0.665   4.596   4.226  0.4751 -0.6123  0.0676
 8507SOL    HW137154   0.752   4.561   4.207 -0.2396 -2.0561 -0.5307
 8507SOL    HW237155   0.698   4.681   4.254  1.7378 -1.5809  1.5321
 8508SOL     OW37156   2.107   2.691   8.082  0.5794  0.2949  0.0667
 8508SOL    HW137157   2.083   2.766   8.137  0.5817  0.0409  0.4171
 8508SOL    HW237158   2.046   2.682   8.009 -1.0677  3.3625  1.0531
 8509SOL     OW37159   3.132   2.883   7.358  0.0832 -0.0645 -0.4332
 8509SOL    HW137160   3.123   2.950   7.290 -2.7851 -1.0222 -0.9993
 8509SOL    HW237161   3.211   2.904   7.408  0.4063 -0.8421 -0.6198
 8510SOL     OW37162   4.227   3.945  12.070  0.0250 -0.1482  0.3837
 8510SOL    HW137163   4.261   3.861  12.040 -0.2413 -0.3981  0.7901
 8510SOL    HW237164   4.248   4.004  11.997 -1.5045  0.0046  0.0592
 8511SOL     OW37165   3.009   2.029   3.755 -0.5676 -0.1759 -0.1827
 8511SOL    HW137166   2.999   1.936   3.774 -1.7672  0.5734  2.7660
 8511SOL    HW237167   3.064   2.053   3.829 -1.8750  0.0467  0.7149
 8512SOL     OW37168   0.877   3.907   2.426  0.6530  0.3171  0.1218
 8512SOL    HW137169   0.815   3.859   2.480  3.2124 -1.6627  1.3034
 8512SOL    HW237170   0.891   3.847   2.354 -1.2246 -1.1626  0.9874
 8513SOL     OW37171   3.429   0.032   3.982  0.5544 -0.0498  0.7000
 8513SOL    HW137172   3.483   0.041   3.904 -0.0047  0.1318  0.3395
 8513SOL    HW237173   3.430   4.677   3.976  1.6745 -0.1022  1.7433
 8514SOL     OW37174   3.352   0.619  13.075 -0.3325 -0.1018 -0.1864
 8514SOL    HW137175   3.301   0.624  13.156  2.1927  0.3641  1.3521
 8514SOL    HW237176   3.302   0.686  13.027 -0.9454 -0.3862  0.0579
 8515SOL     OW37177   2.526   4.734   8.634  0.1628  0.0402  0.0327
 8515SOL    HW137178   2.579   4.687   8.698  0.8501  1.7750  0.7458
 8515SOL    HW237179   2.470   0.049   8.688  0.8263  1.5319 -0.8216
 8516SOL     OW37180   3.956   4.526   0.021 -0.3586 -0.1473  0.1058
 8516SOL    HW137181   3.862   4.519   0.038 -0.4745  1.1927 -0.0122
 8516SOL    HW237182   3.983   4.602   0.072  0.4781 -0.0849 -0.4213
 8517SOL     OW37183   3.448   0.163   7.021 -0.1910 -0.6513 -0.1061
 8517SOL    HW137184   3.388   0.091   7.040  0.8557 -0.8414  2.3998
 8517SOL    HW237185   3.503   0.158   7.099 -1.2749 -0.3503  0.6692
 8518SOL     OW37186   0.764   3.840  11.137 -0.1266  0.6695  0.0059
 8518SOL    HW137187   0.722   3.756  11.121  1.1925 -0.1044  0.6171
 8518SOL    HW237188   0.711   3.898  11.083 -0.0010  0.4341 -0.3674
 8519SOL     OW37189   2.712   3.593   4.396 -0.0670 -0.1148 -0.4174
 8519SOL    HW137190   2.734   3.667   4.339 -2.1566 -0.4615 -1.6827
 8519SOL    HW237191   2.623   3.582   4.363  0.3159 -2.4745 -0.7106
 8520SOL     OW37192   3.546   2.134   3.955  0.3435  0.1605  0.7530
 8520SOL    HW137193   3.629   2.110   3.997  0.2094  0.2047  1.0431
 8520SOL    HW237194   3.574   2.216   3.916  3.0156 -1.0631  0.0847
 8521SOL     OW37195   3.066   1.049   7.738 -0.7078 -0.3174 -0.1634
 8521SOL    HW137196   3.034   0.972   7.692  2.7555 -1.6963 -0.2099
 8521SOL    HW237197   3.116   1.009   7.809 -0.3271 -0.4893 -0.5323
 8522SOL     OW37198   3.976   2.595   7.991 -0.2207 -0.1370 -0.7055
 8522SOL    HW137199   3.958   2.686   8.013 -1.1503 -0.1692 -1.3331
 8522SOL    HW237200   3.908   2.582   7.925 -0.7409  1.8749 -0.5556
 8523SOL     OW37201   3.296   1.596   5.172 -0.1708 -0.2493  0.0623
 8523SOL    HW137202   3.320   1.536   5.243  3.6541  3.1649  1.6823
 8523SOL    HW237203   3.364   1.586   5.105  2.2243 -1.2200  2.6170
 8524SOL     OW37204   3.561   3.190   3.938  0.4874  0.2370 -0.6126
 8524SOL    HW137205   3.527   3.240   3.864  0.8718  1.9332  0.3751
 8524SOL    HW237206   3.525   3.230   4.017  1.6137  0.5654 -0.2690
 8525SOL     OW37207   1.023   4.691   4.418 -1.0353  0.2304  0.3905
 8525SOL    HW137208   0.942   4.691   4.367 -0.1267  1.0441 -1.0402
 8525SOL    HW237209   1.008   0.021   4.480 -2.3479 -1.5054  2.0443
 8526SOL     OW37210   0.520   4.343   8.361 -0.0433 -0.0981  0.1541
 8526SOL    HW137211   0.584   4.397   8.314 -0.1348  0.7258  0.9882
 8526SOL    HW237212   0.561   4.322   8.445  1.9187  1.9870 -0.2734
 8527SOL     OW37213   1.005   3.318  12.822 -0.4434  0.4723  0.3458
 8527SOL    HW137214   1.094   3.354  12.829 -0.2685  0.4270 -1.5076
 8527SOL    HW237215   0.950   3.396  12.823  0.6144  1.2493 -4.6392
 8528SOL     OW37216   4.676   3.683   4.763  0.0273  0.2279  0.0089
 8528SOL    HW137217   4.615   3.652   4.696 -0.5672  1.3340  0.0435
 8528SOL    HW237218   4.692   3.600   4.808 -2.9845  0.3417  1.2428
 8529SOL     OW37219   0.343   4.193   8.181 -0.3548  0.2743 -0.6909
 8529SOL    HW137220   0.327   4.253   8.108  0.2642 -0.1327 -1.1590
 8529SOL    HW237221   0.408   4.243   8.230  1.7084 -2.8289 -0.2811
 8530SOL     OW37222   2.003   1.305   4.121  0.5221  0.0601  0.2839
 8530SOL    HW137223   1.961   1.364   4.183 -1.7219 -0.5872 -0.6314
 8530SOL    HW237224   1.981   1.341   4.035 -0.9145  2.2329  1.5452
 8531SOL     OW37225   3.073   0.112  15.438  0.4544 -0.2017  0.0222
 8531SOL    HW137226   3.093   0.020  15.417  0.1471  0.1829 -1.9368
 8531SOL    HW237227   3.016   0.124  15.363  2.1697 -0.9377 -1.4043
 8532SOL     OW37228   1.169   4.491  10.024 -0.3574  0.4872 -0.5913
 8532SOL    HW137229   1.192   4.539  10.103 -0.6927 -0.6024  0.1750
 8532SOL    HW237230   1.074   4.480  10.028 -0.3696  0.9530  0.4522
 8533SOL     OW37231   1.066   3.747   8.323 -0.0384  0.0078  0.4498
 8533SOL    HW137232   1.064   3.824   8.380 -1.1717  0.0990  0.2718
 8533SOL    HW237233   1.111   3.804   8.261  0.7760  0.4348  1.4295
 8534SOL     OW37234   3.670   4.569   6.218  0.0565 -0.0653 -0.2851
 8534SOL    HW137235   3.686   4.646   6.273 -1.6653  1.1170 -1.4498
 8534SOL    HW237236   3.709   4.508   6.280 -1.1981  0.7037  1.2391
 8535SOL     OW37237   1.385   0.195  17.534  0.5512 -0.2920  0.5746
 8535SOL    HW137238   1.381   0.284  17.500  1.2657 -0.3846  0.2411
 8535SOL    HW237239   1.298   0.181  17.572  0.0617 -1.6769 -1.0050
 8536SOL     OW37240   1.632   0.397   5.907 -0.2116 -0.2517 -0.2319
 8536SOL    HW137241   1.641   0.491   5.892  0.3140 -0.5230 -1.5752
 8536SOL    HW237242   1.700   0.387   5.975 -1.6415  0.4711  1.3013
 8537SOL     OW37243   0.930   2.776   6.420  0.7109  0.2386 -0.0315
 8537SOL    HW137244   0.866   2.828   6.470 -1.1117 -1.6278 -0.4202
 8537SOL    HW237245   0.938   2.709   6.488  0.9640  0.4717  0.1694
 8538SOL     OW37246   1.491   2.892   2.938 -0.3789 -0.0384 -0.3406
 8538SOL    HW137247   1.477   2.897   2.843 -0.4676  0.6077 -0.2986
 8538SOL    HW237248   1.443   2.970   2.966  2.5411  2.5228 -2.4913
 8539SOL     OW37249   0.133   3.167   7.958  0.9662 -0.3391  0.3517
 8539SOL    HW137250   0.129   3.136   7.868  1.9903  0.6189 -0.0348
 8539SOL    HW237251   0.204   3.116   7.997  1.4666 -1.0482 -1.5352
 8540SOL     OW37252   1.655   3.418   2.040 -0.3693  0.6512  0.4665
 8540SOL    HW137253   1.560   3.427   2.040 -0.6408 -1.9492  0.4356
 8540SOL    HW237254   1.661   3.327   2.009  0.1956  1.1089 -0.7568
 8541SOL     OW37255   3.520   3.159   7.602 -0.5567  0.0019  0.3511
 8541SOL    HW137256   3.566   3.112   7.533 -1.1583  0.6809 -0.5223
 8541SOL    HW237257   3.577   3.233   7.621  0.8255 -1.4410  1.7936
 8542SOL     OW37258   2.691   1.858   7.349  0.0760  0.3963  0.5857
 8542SOL    HW137259   2.604   1.817   7.350  0.0270  0.4959  0.4015
 8542SOL    HW237260   2.721   1.809   7.273  0.5485  0.5225  0.6924
 8543SOL     OW37261   2.700   2.993   6.448  0.6127 -0.1713  0.0843
 8543SOL    HW137262   2.688   2.979   6.542 -0.7147 -0.3554 -0.1162
 8543SOL    HW237263   2.616   2.965   6.412  0.2911 -1.3086  1.7214
 8544SOL     OW37264   0.871   3.653   5.273  0.2949  0.1801 -0.1042
 8544SOL    HW137265   0.881   3.636   5.367  1.2621  1.5122  0.0287
 8544SOL    HW237266   0.836   3.743   5.279  1.1843  0.3935  1.9441
 8545SOL     OW37267   3.045   3.689   6.664  0.1991 -0.4212  0.1571
 8545SOL    HW137268   3.108   3.624   6.695 -0.1782 -0.7547  0.2186
 8545SOL    HW237269   2.975   3.632   6.631 -2.5266  2.5544  0.7620
 8546SOL     OW37270   1.401   1.432   9.247 -0.8268 -0.5545 -0.0502
 8546SOL    HW137271   1.378   1.358   9.304 -1.2425 -0.8621 -0.6203
 8546SOL    HW237272   1.382   1.398   9.159 -0.8634  2.2084 -1.1055
 8547SOL     OW37273   1.131   0.334   3.183 -0.5003 -0.3246 -0.2046
 8547SOL    HW137274   1.112   0.348   3.276 -3.4673  1.3541 -1.0695
 8547SOL    HW237275   1.112   0.240   3.185  0.0240 -0.4176  0.9828
 8548SOL     OW37276   4.312   2.190   7.845  0.0503  0.2262  0.6386
 8548SOL    HW137277   4.286   2.269   7.891 -0.9989 -1.6299  3.2318
 8548SOL    HW237278   4.406   2.182   7.863  0.0586 -0.8623  0.1092
 8549SOL     OW37279   0.268   1.219  14.350  0.2330  0.7708  0.2258
 8549SOL    HW137280   0.249   1.137  14.305  0.1375  0.7863  0.2372
 8549SOL    HW237281   0.323   1.254  14.280 -1.7977 -1.1368 -2.3245
 8550SOL     OW37282   0.527   2.934   6.619 -0.4419  0.2952  0.1500
 8550SOL    HW137283   0.566   2.933   6.706  0.3281  0.9102 -0.1849
 8550SOL    HW237284   0.540   3.027   6.597  2.4922 -0.0058  0.5172
 8551SOL     OW37285   0.795   0.118   1.092 -0.3248  0.8380 -0.6460
 8551SOL    HW137286   0.724   0.144   1.150 -1.1307 -0.2160 -1.1582
 8551SOL    HW237287   0.854   0.192   1.104 -0.7124  1.1769 -0.8508
 8552SOL     OW37288   1.733   0.761   8.886 -0.4669 -0.1669 -0.2009
 8552SOL    HW137289   1.738   0.742   8.792  2.9202 -1.3476  0.1997
 8552SOL    HW237290   1.735   0.672   8.921 -1.1272 -1.3689 -3.2331
 8553SOL     OW37291   2.439   1.943   1.065 -0.3558 -0.1220  0.4132
 8553SOL    HW137292   2.529   1.915   1.052 -0.9265 -2.7709  2.1969
 8553SOL    HW237293   2.447   2.027   1.019  1.9458 -0.1520  0.7545
 8554SOL     OW37294   0.943   2.271  15.050  0.4590 -0.7626  0.2061
 8554SOL    HW137295   1.029   2.244  15.082  0.9951  1.5083  0.6878
 8554SOL    HW237296   0.968   2.295  14.961  0.2398  0.8926  0.5856
 8555SOL     OW37297   0.660   0.476   9.203 -0.0885  0.0220  0.0150
 8555SOL    HW137298   0.723   0.436   9.262 -0.2540  0.1466  0.2745
 8555SOL    HW237299   0.654   0.406   9.137 -3.3951  0.9956 -0.6981
 8556SOL     OW37300   4.164   3.986   7.963  0.3596  0.1179 -0.0991
 8556SOL    HW137301   4.112   3.906   7.973 -1.7780  1.3409 -1.6886
 8556SOL    HW237302   4.128   4.014   7.880 -1.2156 -1.1382  0.1682
 8557SOL     OW37303   4.580   4.647   9.727 -0.2777 -0.6360  0.2250
 8557SOL    HW137304   4.562   4.584   9.797  1.8355  0.1709  1.4647
 8557SOL    HW237305   4.610   4.727   9.769 -0.0061 -0.2529 -0.6844
 8558SOL     OW37306   0.272   1.908   4.549  0.5827  0.1017 -0.1605
 8558SOL    HW137307   0.344   1.853   4.578 -0.3403 -1.9594 -1.7277
 8558SOL    HW237308   0.315   1.979   4.501 -1.6093  2.7853  1.8036
 8559SOL     OW37309   4.709   1.414  17.557 -0.5189 -0.6224 -0.0601
 8559SOL    HW137310   4.690   1.487  17.616  1.4698 -1.6229  1.8129
 8559SOL    HW237311   0.058   1.391  17.578 -0.0598 -0.1738 -1.5879
 8560SOL     OW37312   3.178   1.794   8.168 -0.0176  0.3134 -0.5777
 8560SOL    HW137313   3.200   1.779   8.076 -0.0192 -1.4223 -0.3004
 8560SOL    HW237314   3.123   1.872   8.158  1.1771  0.9680 -2.0415
 8561SOL     OW37315   3.403   3.739   6.858 -0.3255 -0.1711  0.2067
 8561SOL    HW137316   3.429   3.811   6.800  1.4503  0.5515  1.8990
 8561SOL    HW237317   3.385   3.673   6.791 -0.2621 -0.6862  0.6989
 8562SOL     OW37318   3.455   3.004   5.383 -0.0960  0.1314  0.1958
 8562SOL    HW137319   3.372   2.993   5.431  0.2185 -1.1812  0.4422
 8562SOL    HW237320   3.452   2.922   5.334 -2.1001 -0.6139  1.5438
 8563SOL     OW37321   4.443   4.718   6.209  0.0535 -0.1809 -0.4245
 8563SOL    HW137322   4.538   4.706   6.200  0.3799  1.3759  0.9077
 8563SOL    HW237323   4.430   4.717   6.304 -0.4256  1.3124 -0.4795
 8564SOL     OW37324   3.767   2.779  15.172  0.0439 -0.5036  0.2534
 8564SOL    HW137325   3.733   2.811  15.089 -1.7657  0.1990  1.2458
 8564SOL    HW237326   3.860   2.780  15.151  0.8447 -1.9299  3.6899
 8565SOL     OW37327   3.400   1.575   1.347  0.3998  0.2447 -0.2762
 8565SOL    HW137328   3.387   1.603   1.257 -0.3649  0.5145 -0.0762
 8565SOL    HW237329   3.477   1.627   1.372 -0.5284 -0.0455  3.2449
 8566SOL     OW37330   0.196   1.758   5.952  0.1869 -0.2829 -0.1327
 8566SOL    HW137331   0.152   1.839   5.976  1.3675  0.2394  0.3036
 8566SOL    HW237332   0.282   1.760   5.996 -0.0199  2.7936  0.0868
 8567SOL     OW37333   1.623   3.046   3.703  0.0363 -0.1265 -0.0516
 8567SOL    HW137334   1.553   3.034   3.767 -1.4961 -0.9679 -1.8603
 8567SOL    HW237335   1.616   2.967   3.648  0.7033 -0.7829  0.8006
 8568SOL     OW37336   3.185   2.599  13.983  0.2903  0.2235  0.2217
 8568SOL    HW137337   3.251   2.574  13.918  0.5986  1.1604  0.1737
 8568SOL    HW237338   3.142   2.674  13.943  1.6213  0.9399  0.1425
 8569SOL     OW37339   1.208   0.628   4.574  0.3952 -0.1772  0.2811
 8569SOL    HW137340   1.241   0.539   4.589  0.6632  0.2561  2.2287
 8569SOL    HW237341   1.280   0.678   4.612 -0.2816  2.6158 -2.1413
 8570SOL     OW37342   2.029   3.600   7.082  0.0801  0.5998  0.1081
 8570SOL    HW137343   2.112   3.563   7.052 -0.3585  0.2561 -0.6949
 8570SOL    HW237344   1.963   3.533   7.064  0.4597  1.3047 -4.0085
 8571SOL     OW37345   3.803   2.787   3.331 -0.1257 -0.4331 -0.2989
 8571SOL    HW137346   3.807   2.692   3.319  1.6394 -0.6871  2.2996
 8571SOL    HW237347   3.867   2.814   3.265  0.2254  1.9701  1.0185
 8572SOL     OW37348   0.375   2.201   7.179  0.0344 -0.4038 -0.9042
 8572SOL    HW137349   0.301   2.186   7.237 -0.6523  1.7643 -1.2074
 8572SOL    HW237350   0.357   2.131   7.116  1.2758 -0.2799 -1.3950
 8573SOL     OW37351   1.423   0.640   7.892 -0.4587 -0.7470  0.0361
 8573SOL    HW137352   1.356   0.602   7.834  0.9828 -0.8928 -1.5345
 8573SOL    HW237353   1.490   0.573   7.900 -1.0692 -1.1630  1.7190
 8574SOL     OW37354   3.314   0.388   5.820  0.1426  0.0586  0.2757
 8574SOL    HW137355   3.377   0.319   5.840  2.2801  1.7228 -0.7428
 8574SOL    HW237356   3.292   0.374   5.728  1.7144 -0.3117 -0.0433
 8575SOL     OW37357   0.123   1.626   4.169 -0.9922 -0.0456 -0.9051
 8575SOL    HW137358   0.198   1.666   4.126 -0.5786  0.5761  0.4064
 8575SOL    HW237359   0.048   1.655   4.117 -2.0689 -4.0720 -1.6557
 8576SOL     OW37360   0.643   0.909   8.250  0.2171  0.3657  0.0933
 8576SOL    HW137361   0.580   0.981   8.251 -0.9748 -0.6792  0.3229
 8576SOL    HW237362   0.604   0.846   8.190 -1.2364 -0.7696  2.2071
 8577SOL     OW37363   2.676   4.592   1.027  0.0989 -0.0027  0.1947
 8577SOL    HW137364   2.685   4.565   0.935 -0.4313  0.2867  0.0550
 8577SOL    HW237365   2.710   4.512   1.067 -1.8150  0.2788  2.4435
 8578SOL     OW37366   3.597   3.337   1.908  0.3703 -0.1027 -0.1367
 8578SOL    HW137367   3.526   3.364   1.966  0.8935  3.4212 -1.1401
 8578SOL    HW237368   3.546   3.313   1.830  1.6786 -1.3760 -0.5912
 8579SOL     OW37369   2.482   2.796  13.889  0.4362  0.1101 -0.2404
 8579SOL    HW137370   2.535   2.806  13.810 -0.7864 -1.3604 -1.2508
 8579SOL    HW237371   2.395   2.824  13.862  0.2071 -0.7936 -0.4360
 8580SOL     OW37372   3.850   0.898   7.015  0.0794  0.5097  0.0685
 8580SOL    HW137373   3.854   0.974   6.957 -0.1292  0.4642 -0.0063
 8580SOL    HW237374   3.791   0.842   6.965  1.1396  0.3558 -1.0011
 8581SOL     OW37375   1.217   0.602   2.401 -0.1798 -0.9485 -0.2998
 8581SOL    HW137376   1.285   0.661   2.433 -0.3568  0.0138 -1.6991
 8581SOL    HW237377   1.264   0.561   2.329  1.9980  1.2041 -0.1036
 8582SOL     OW37378   0.608   2.280   7.979 -0.4439 -0.0471 -0.0859
 8582SOL    HW137379   0.590   2.325   8.061 -0.2796  1.1531 -0.7024
 8582SOL    HW237380   0.629   2.195   8.017 -1.1899 -0.8242 -1.4292
 8583SOL     OW37381   3.700   1.327   1.944 -0.8304  0.1558 -0.2576
 8583SOL    HW137382   3.709   1.284   1.859 -1.3441  1.7436 -1.1198
 8583SOL    HW237383   3.618   1.301   1.986 -0.2982 -1.6242 -0.3102
 8584SOL     OW37384   2.428   0.254   8.807  0.1574 -0.7480  0.2722
 8584SOL    HW137385   2.377   0.176   8.827  3.3702 -3.2772 -1.3580
 8584SOL    HW237386   2.359   0.311   8.772 -0.5004 -2.0289 -0.4883
 8585SOL     OW37387   2.227   1.408   7.839 -0.0237 -0.0452  0.2667
 8585SOL    HW137388   2.172   1.477   7.801  1.0892 -1.1506 -3.4386
 8585SOL    HW237389   2.230   1.339   7.772  0.9451  0.7796 -0.5332
 8586SOL     OW37390   1.104   2.041  10.285  0.8725  0.0031  0.2350
 8586SOL    HW137391   1.112   2.134  10.305 -2.8203  0.7034 -1.5545
 8586SOL    HW237392   1.167   2.005  10.348  0.7070 -0.1013  0.3408
 8587SOL     OW37393   1.676   0.934   3.375  0.1028  0.3895  0.5051
 8587SOL    HW137394   1.644   0.912   3.287 -1.3278 -1.1506  1.3971
 8587SOL    HW237395   1.610   0.995   3.409 -0.8627  0.0150 -0.6758
 8588SOL     OW37396   4.006   1.581   3.139  0.2067  0.3264  0.3227
 8588SOL    HW137397   4.019   1.522   3.065 -2.1621  0.1057  0.0863
 8588SOL    HW237398   3.919   1.615   3.117 -0.7757 -3.4029 -1.5712
 8589SOL     OW37399   2.616   2.751   7.027 -0.4508  0.4277  0.4275
 8589SOL    HW137400   2.615   2.698   7.107  0.5269  0.3121  0.3708
 8589SOL    HW237401   2.528   2.739   6.991  1.0173  0.1777 -3.0324
 8590SOL     OW37402   1.161   4.115  14.528 -0.1725 -0.0118 -0.8861
 8590SOL    HW137403   1.164   4.200  14.485 -1.0564  0.6410  0.3575
 8590SOL    HW237404   1.169   4.055  14.453 -0.6060 -0.4293 -0.5970
 8591SOL     OW37405   4.442   0.679   4.488 -0.4719  0.1576 -0.3631
 8591SOL    HW137406   4.492   0.629   4.552  0.9125  0.3352 -1.3162
 8591SOL    HW237407   4.415   0.612   4.425  0.9514  0.1407 -0.9498
 8592SOL     OW37408   0.970   2.300  16.234  0.2078 -0.2334  0.0684
 8592SOL    HW137409   1.005   2.241  16.167 -0.9291 -2.4355  1.4235
 8592SOL    HW237410   0.985   2.253  16.315  1.3667 -1.2220 -0.7223
 8593SOL     OW37411   2.104   4.412   4.291 -0.1333 -0.7613 -0.3804
 8593SOL    HW137412   2.168   4.345   4.270  0.0439 -1.1176  1.3113
 8593SOL    HW237413   2.107   4.456   4.206  1.0179 -0.1680 -0.0354
 8594SOL     OW37414   4.285   0.392  14.455 -0.1638  0.3120 -0.4272
 8594SOL    HW137415   4.310   0.311  14.411 -2.4609 -1.6194  1.7899
 8594SOL    HW237416   4.320   0.458  14.395  1.4126  1.1241  1.3732
 8595SOL     OW37417   3.766   0.674   2.008 -0.3163  0.5151 -0.3985
 8595SOL    HW137418   3.684   0.721   1.991 -1.0380 -0.2768  0.8579
 8595SOL    HW237419   3.764   0.596   1.952  0.8324  0.2490 -0.0699
 8596SOL     OW37420   1.028   3.005   3.340 -0.2064 -0.6650 -0.6488
 8596SOL    HW137421   1.093   3.068   3.370  0.9988 -3.2155  2.0994
 8596SOL    HW237422   1.049   2.982   3.249 -0.9435  0.2409 -1.0456
 8597SOL     OW37423   2.846   0.450   2.885  0.2791 -0.5992  0.3761
 8597SOL    HW137424   2.885   0.381   2.831  1.0891  1.3796 -1.5673
 8597SOL    HW237425   2.918   0.460   2.948  0.2089  3.1866 -0.1340
 8598SOL     OW37426   3.925   3.810   0.539  0.0681  0.4844 -0.0938
 8598SOL    HW137427   3.908   3.842   0.628 -2.2778  0.7418 -0.6535
 8598SOL    HW237428   3.877   3.727   0.539 -0.9263  1.0735 -1.2224
 8599SOL     OW37429   0.101   2.204  12.986  0.1937  0.0226  0.1748
 8599SOL    HW137430   0.156   2.279  12.963 -0.7513  0.2684 -1.2401
 8599SOL    HW237431   0.136   2.129  12.938 -1.6644 -0.3928 -0.5307
 8600SOL     OW37432   2.998   2.916  17.120  0.3853 -0.3118 -0.4348
 8600SOL    HW137433   2.995   2.966  17.201 -0.0056  0.3126 -0.8426
 8600SOL    HW237434   3.084   2.943  17.086 -1.0864  3.2097 -1.3200
 8601SOL     OW37435   2.406   2.241   3.362  0.1251  0.2539  0.4115
 8601SOL    HW137436   2.328   2.248   3.417  0.5959  1.6792  0.9283
 8601SOL    HW237437   2.374   2.271   3.278  0.3577  0.0055  0.2353
 8602SOL     OW37438   3.380   3.920   4.680  1.1242  0.4777  0.4194
 8602SOL    HW137439   3.298   3.927   4.632  1.3521  2.0806  0.2876
 8602SOL    HW237440   3.400   3.826   4.683 -0.5698  0.1305  0.7971
 8603SOL     OW37441   2.605   4.502  14.749  0.0603  0.4375  0.1532
 8603SOL    HW137442   2.608   4.569  14.818  0.2336 -1.2258  1.7408
 8603SOL    HW237443   2.666   4.545  14.688  0.6400 -0.4607  0.1117
 8604SOL     OW37444   4.400   3.846   8.675 -0.1195  0.2369 -0.1189
 8604SOL    HW137445   4.467   3.887   8.620  1.3535 -2.1661 -0.1353
 8604SOL    HW237446   4.435   3.765   8.713 -2.8721 -0.9129 -0.0855
 8605SOL     OW37447   3.940   3.063   8.236 -0.2100 -0.0337 -0.3855
 8605SOL    HW137448   3.875   3.005   8.277 -0.1153  0.4931  0.5223
 8605SOL    HW237449   3.907   3.149   8.264  2.5436  0.4205  1.4687
 8606SOL     OW37450   2.592   2.903   2.646 -0.4949 -0.0833 -0.4574
 8606SOL    HW137451   2.565   2.992   2.669  0.0408  0.2780 -1.2473
 8606SOL    HW237452   2.645   2.898   2.726  0.3253  0.1771 -0.9809
 8607SOL     OW37453   3.775   3.302   4.562  0.0352 -0.4419  0.0534
 8607SOL    HW137454   3.691   3.334   4.596  0.9874  1.0467  0.9825
 8607SOL    HW237455   3.782   3.345   4.477 -1.4703  0.5522  0.4260
 8608SOL     OW37456   1.274   2.657   8.396 -0.8263 -0.1122 -0.3877
 8608SOL    HW137457   1.284   2.571   8.354  1.0224 -0.6001  1.0476
 8608SOL    HW237458   1.341   2.706   8.348 -1.0884  1.2045  0.5962
 8609SOL     OW37459   2.161   1.038  15.809 -0.5513 -0.3228 -0.6354
 8609SOL    HW137460   2.235   1.082  15.852 -0.8005  0.1457 -0.6903
 8609SOL    HW237461   2.184   0.947  15.830  0.7262  0.0845 -0.2376
 8610SOL     OW37462   0.944   2.412   2.579 -0.4905 -0.6320  0.4281
 8610SOL    HW137463   0.994   2.400   2.498 -1.9284  1.2386 -0.7258
 8610SOL    HW237464   0.959   2.329   2.624  0.9467 -0.6720 -0.1292
 8611SOL     OW37465   3.579   1.675  13.877  0.2945  0.4787 -0.5050
 8611SOL    HW137466   3.568   1.768  13.857  0.3763  0.5935 -0.0068
 8611SOL    HW237467   3.675   1.672  13.878  0.2869 -0.2897 -1.2448
 8612SOL     OW37468   1.010   4.118   5.851 -0.2447  0.1949 -0.6640
 8612SOL    HW137469   0.920   4.093   5.830 -0.1932 -1.2679  0.8694
 8612SOL    HW237470   1.003   4.205   5.891 -1.4614 -0.1949 -0.0226
 8613SOL     OW37471   1.577   1.801   3.425 -0.0761 -0.1670  0.2552
 8613SOL    HW137472   1.488   1.835   3.435  0.2409 -0.0042  2.3929
 8613SOL    HW237473   1.600   1.826   3.335  0.0823  2.3647  0.9994
 8614SOL     OW37474   3.702   4.070   3.537 -0.3321 -0.3114  0.2073
 8614SOL    HW137475   3.678   4.050   3.447 -0.4077  1.0717 -0.0891
 8614SOL    HW237476   3.618   4.111   3.560 -0.4891  0.3144 -1.4584
 8615SOL     OW37477   1.637   4.240   7.877 -0.0129 -0.7065 -0.5494
 8615SOL    HW137478   1.731   4.246   7.890  0.1403 -0.7305 -1.6919
 8615SOL    HW237479   1.631   4.174   7.808 -1.5701  0.4587 -1.5435
 8616SOL     OW37480   0.616   0.486   6.181 -0.2393  0.4553 -0.0190
 8616SOL    HW137481   0.612   0.484   6.277  0.5372 -0.4355 -0.0101
 8616SOL    HW237482   0.659   0.401   6.176 -2.0355 -0.3207 -2.0905
 8617SOL     OW37483   4.640   4.690   2.998 -0.5459  0.1936  0.2594
 8617SOL    HW137484   4.641   4.696   2.902 -2.0934 -1.3712  0.1401
 8617SOL    HW237485   4.551   4.718   3.019 -0.1658  0.3529  1.6494
 8618SOL     OW37486   1.276   3.339   8.102  0.0008  0.3064  0.2165
 8618SOL    HW137487   1.211   3.395   8.144 -1.3064 -0.7166 -0.4609
 8618SOL    HW237488   1.356   3.391   8.108 -0.4330  0.9389  0.5788
 8619SOL     OW37489   0.479   1.335   8.159  0.0253 -0.3358 -0.1199
 8619SOL    HW137490   0.504   1.286   8.237 -0.0835  1.1845  0.8879
 8619SOL    HW237491   0.565   1.348   8.118  0.8109 -1.0357  1.2925
 8620SOL     OW37492   1.458   2.876   0.427 -0.0260  0.1490  0.2641
 8620SOL    HW137493   1.490   2.788   0.409  0.4374 -0.0681  2.0863
 8620SOL    HW237494   1.373   2.850   0.462 -1.9266  2.5871 -2.6648
 8621SOL     OW37495   2.425   1.277   6.606 -0.2473  0.9633  0.4451
 8621SOL    HW137496   2.372   1.202   6.632  0.0660 -1.0833 -4.7874
 8621SOL    HW237497   2.360   1.348   6.600  0.0959  1.3112  0.8226
 8622SOL     OW37498   2.024   4.476   3.497  0.0214  0.0096  0.1255
 8622SOL    HW137499   1.955   4.458   3.561 -0.7107  0.0389 -0.6533
 8622SOL    HW237500   2.077   4.397   3.490  1.5244  1.1057 -0.9562
 8623SOL     OW37501   0.755   2.675   6.931  0.3331 -0.3306  0.0343
 8623SOL    HW137502   0.776   2.604   6.991 -2.0914 -0.1061  1.1496
 8623SOL    HW237503   0.772   2.620   6.854  2.5717 -1.3600  1.2852
 8624SOL     OW37504   3.271   2.208   3.834 -0.4258  0.1637  0.2254
 8624SOL    HW137505   3.315   2.213   3.750  0.0558  2.2979  0.5991
 8624SOL    HW237506   3.283   2.117   3.864 -1.6019  0.4979  1.6990
 8625SOL     OW37507   1.795   3.102   5.159 -0.0233  0.5109  0.0329
 8625SOL    HW137508   1.858   3.030   5.169  0.3270  0.7525 -0.3980
 8625SOL    HW237509   1.727   3.084   5.224 -0.7189 -0.1509 -0.8831
 8626SOL     OW37510   4.253   0.897   3.891  0.2034 -0.8372 -0.1097
 8626SOL    HW137511   4.291   0.933   3.811  0.0291  0.3649  0.3542
 8626SOL    HW237512   4.172   0.854   3.863 -1.4264  1.9185  0.3524
 8627SOL     OW37513   2.611   1.685  14.279 -0.0112 -0.1180 -0.3825
 8627SOL    HW137514   2.552   1.635  14.336  1.4513 -1.4087 -0.0001
 8627SOL    HW237515   2.556   1.740  14.222 -0.8551 -1.1376 -0.5524
 8628SOL     OW37516   4.519   2.815   4.738  0.4752  0.5801  0.2157
 8628SOL    HW137517   4.461   2.774   4.803  1.0118 -0.5597 -0.0472
 8628SOL    HW237518   4.476   2.797   4.655 -1.4455 -2.6432  1.8770
 8629SOL     OW37519   2.613   4.374  10.265 -0.0485 -0.0673  0.0185
 8629SOL    HW137520   2.564   4.409  10.341  0.0803 -0.6632  0.3725
 8629SOL    HW237521   2.554   4.306  10.234  1.6289 -1.9423  0.9965
 8630SOL     OW37522   3.170   2.835   6.975 -0.3364  0.2154 -0.1854
 8630SOL    HW137523   3.127   2.898   6.917 -2.0186  0.4257  1.2721
 8630SOL    HW237524   3.091   2.821   7.027 -1.3700  0.5829 -1.6670
 8631SOL     OW37525   4.376   3.025   1.408 -0.2413  0.3802 -0.0786
 8631SOL    HW137526   4.305   2.979   1.365  0.6391 -0.5858 -0.4964
 8631SOL    HW237527   4.450   2.965   1.401 -1.2125 -1.0613  1.8475
 8632SOL     OW37528   1.099   4.544   6.098  0.1519 -0.0791  0.3955
 8632SOL    HW137529   1.110   4.485   6.173  1.0330  0.2342  0.5213
 8632SOL    HW237530   1.156   4.616   6.125  0.2177 -0.2627  0.7431
 8633SOL     OW37531   1.471   1.180  15.160 -0.3448  0.6631 -0.0697
 8633SOL    HW137532   1.543   1.118  15.174 -0.7806 -0.1727 -1.6510
 8633SOL    HW237533   1.472   1.187  15.065  0.6914  0.7537 -0.0593
 8634SOL     OW37534   3.039   2.801   2.501 -0.2986 -0.4185 -0.1632
 8634SOL    HW137535   3.024   2.841   2.415  3.9228  1.0872 -0.2348
 8634SOL    HW237536   2.999   2.869   2.555 -2.4681 -1.7280 -0.1152
 8635SOL     OW37537   3.817   2.892   5.862  0.6449  0.9333  0.2131
 8635SOL    HW137538   3.809   2.909   5.956  0.7129 -0.4090  0.4513
 8635SOL    HW237539   3.727   2.912   5.835 -0.0521  0.5004  2.2209
 8636SOL     OW37540   2.835   3.714  15.579  0.3082  0.4528  0.0299
 8636SOL    HW137541   2.917   3.761  15.591  0.0176  0.8149  0.5792
 8636SOL    HW237542   2.860   3.623  15.564 -2.3855 -0.2738 -0.1612
 8637SOL     OW37543   0.373   1.139   0.876  0.3658  0.9885 -0.3950
 8637SOL    HW137544   0.321   1.077   0.825  0.6245 -0.5831  1.2778
 8637SOL    HW237545   0.443   1.084   0.910  1.3428  1.8822 -0.9466
 8638SOL     OW37546   4.107   4.381  11.978  0.0483 -0.2280 -1.0614
 8638SOL    HW137547   4.078   4.448  11.916  0.9603  2.2974  1.2634
 8638SOL    HW237548   4.047   4.397  12.051  1.4008  0.1169 -0.0264
 8639SOL     OW37549   2.935   3.045   1.043 -0.1417 -0.5724  0.1077
 8639SOL    HW137550   2.930   3.011   1.132  0.5654  3.3249  1.6261
 8639SOL    HW237551   3.031   3.051   1.038 -0.2781 -0.0538 -2.1482
 8640SOL     OW37552   0.184   1.075   9.103 -0.2257 -0.2084  0.1604
 8640SOL    HW137553   0.230   1.128   9.039 -1.0592  1.8977  1.2917
 8640SOL    HW237554   0.180   1.135   9.178 -0.3011  0.2644 -0.2246
 8641SOL     OW37555   4.099   4.329   7.362  0.2224 -0.0083 -0.8364
 8641SOL    HW137556   4.053   4.391   7.419  1.3797  0.5127 -0.4561
 8641SOL    HW237557   4.147   4.275   7.424 -0.1096  1.6388  0.8560
 8642SOL     OW37558   2.172   1.751   7.225 -0.4618  0.5540 -0.3848
 8642SOL    HW137559   2.077   1.747   7.237 -0.3469 -0.5079  0.1499
 8642SOL    HW237560   2.180   1.749   7.130  2.0314  2.5478 -0.2117
 8643SOL     OW37561   0.278   4.435   8.397 -0.5439 -1.0134  0.0361
 8643SOL    HW137562   0.363   4.392   8.382  1.3232  2.4478  0.5921
 8643SOL    HW237563   0.257   4.458   8.306  1.1594  1.9201  0.3616
 8644SOL     OW37564   4.105   1.209   3.959  0.0220 -0.3950  0.5036
 8644SOL    HW137565   4.197   1.227   3.978  0.1101 -0.8422  0.5013
 8644SOL    HW237566   4.067   1.297   3.965 -0.4344 -0.5255 -0.4244
 8645SOL     OW37567   1.897   4.665   2.597  0.2162 -0.8252  0.1980
 8645SOL    HW137568   1.955   4.665   2.673 -0.3527  0.9616  0.6302
 8645SOL    HW237569   1.933   4.739   2.549  0.3975 -1.2994 -0.4009
 8646SOL     OW37570   0.731   4.618   5.320 -0.5368 -0.5137 -0.1938
 8646SOL    HW137571   0.645   4.594   5.354 -0.2400 -2.1116 -0.5782
 8646SOL    HW237572   0.728   4.714   5.328  1.8706 -0.5090  0.5990
 8647SOL     OW37573   2.439   4.181  15.699  0.1066  0.3524  0.3116
 8647SOL    HW137574   2.408   4.111  15.642  1.6224 -1.0609  1.2071
 8647SOL    HW237575   2.355   4.190  15.743 -0.5086 -0.5416 -0.6727
 8648SOL     OW37576   1.991   1.429   0.373  0.1031  0.3393 -0.6904
 8648SOL    HW137577   2.026   1.350   0.415 -2.3324 -0.5158 -0.2780
 8648SOL    HW237578   2.067   1.453   0.321  0.5595 -1.8576 -1.0650
 8649SOL     OW37579   0.640   2.699  10.689  0.5541 -0.7116 -0.0970
 8649SOL    HW137580   0.601   2.787  10.688 -0.2139 -1.0323  0.8502
 8649SOL    HW237581   0.585   2.665  10.618 -0.0764  0.7320 -0.3082
 8650SOL     OW37582   1.459   1.269  13.123  0.3733  0.1185  0.6445
 8650SOL    HW137583   1.540   1.279  13.172 -0.1670 -0.4680  1.6718
 8650SOL    HW237584   1.431   1.184  13.159 -0.3335 -0.4962 -1.3812
 8651SOL     OW37585   1.769   0.570   4.220 -0.0338  0.0920 -0.1751
 8651SOL    HW137586   1.686   0.523   4.214  0.4698 -1.2227  2.9478
 8651SOL    HW237587   1.762   0.587   4.314  0.8762 -2.2630  0.3178
 8652SOL     OW37588   2.738   3.667  10.629 -0.0803  0.1858  0.0997
 8652SOL    HW137589   2.674   3.624  10.685  0.4444 -2.1418 -1.1035
 8652SOL    HW237590   2.814   3.633  10.676 -0.1454 -0.5412 -0.3187
 8653SOL     OW37591   3.873   1.333  15.221  0.6427 -0.1865  0.2546
 8653SOL    HW137592   3.933   1.302  15.289 -0.5112 -1.8594  0.5403
 8653SOL    HW237593   3.911   1.283  15.149  1.0353  0.6227 -0.0999
 8654SOL     OW37594   1.890   1.178  17.628 -0.0166 -0.3782 -0.5295
 8654SOL    HW137595   1.971   1.227  17.620 -0.0954 -0.1261  0.1915
 8654SOL    HW237596   1.911   1.110  17.564 -1.0295  1.3385 -2.6710
 8655SOL     OW37597   1.870   0.936   5.013  0.5783 -0.5819  0.2528
 8655SOL    HW137598   1.933   0.871   4.982  1.2543  1.0469 -1.8104
 8655SOL    HW237599   1.891   1.014   4.960  0.1280 -0.1754  0.6731
 8656SOL     OW37600   0.664   2.795   3.597  0.1730  0.1643  0.4690
 8656SOL    HW137601   0.610   2.768   3.672  0.6066 -0.9226  0.3834
 8656SOL    HW237602   0.596   2.836   3.543  1.5641  0.5726 -0.9565
 8657SOL     OW37603   3.338   4.620   2.594  0.1180  0.9052 -0.2625
 8657SOL    HW137604   3.370   4.635   2.683  2.4510 -1.2373 -0.7365
 8657SOL    HW237605   3.259   4.672   2.606 -0.2359  0.2679  0.1297
 8658SOL     OW37606   1.443   1.470   3.293 -0.0758  0.6813  0.3803
 8658SOL    HW137607   1.446   1.390   3.242 -0.2427  0.2794  0.9938
 8658SOL    HW237608   1.422   1.536   3.227 -1.0345 -0.5831 -0.5641
 8659SOL     OW37609   2.695   4.633  15.162 -0.0684  0.4587 -0.0323
 8659SOL    HW137610   2.700   4.725  15.188 -1.0003  0.8127 -1.1206
 8659SOL    HW237611   2.664   4.637  15.071  0.5251  0.4995 -0.2361
 8660SOL     OW37612   3.213   3.577  17.464 -0.1679  0.3171 -0.1891
 8660SOL    HW137613   3.197   3.549  17.374  1.8130 -0.6189 -0.2503
 8660SOL    HW237614   3.249   3.664  17.445 -0.5805  0.0362 -2.3096
 8661SOL     OW37615   2.921   2.037  11.597 -0.1501  0.2131  0.3792
 8661SOL    HW137616   2.963   1.968  11.648 -1.1919  0.0772  1.0599
 8661SOL    HW237617   2.872   2.080  11.668  2.8006  1.9353  1.3896
 8662SOL     OW37618   1.822   2.798   8.742 -0.4885 -0.5007  0.0080
 8662SOL    HW137619   1.783   2.725   8.790  1.3929 -0.6157  1.3350
 8662SOL    HW237620   1.763   2.799   8.667  3.0055 -0.9222 -2.7509
 8663SOL     OW37621   0.957   4.177   5.344  0.7093  0.3476  0.0568
 8663SOL    HW137622   0.988   4.264   5.320 -0.8063  1.1169  0.8413
 8663SOL    HW237623   0.885   4.198   5.404 -0.7923  0.4539 -1.7828
 8664SOL     OW37624   4.554   1.962   1.774  0.1433 -0.6300 -0.1540
 8664SOL    HW137625   4.514   2.002   1.697 -1.3211  0.9858  1.4192
 8664SOL    HW237626   4.484   1.975   1.838 -0.9016  1.0627 -1.6569
 8665SOL     OW37627   3.477   2.683   7.258 -0.2915 -0.0204 -0.0954
 8665SOL    HW137628   3.496   2.777   7.261  0.1082 -0.0870 -0.6232
 8665SOL    HW237629   3.419   2.680   7.334 -1.5819 -1.5823 -1.1492
 8666SOL     OW37630   2.658   4.562   1.916  0.6175  0.9820 -0.1299
 8666SOL    HW137631   2.603   4.500   1.963  0.8014 -0.0412 -1.2679
 8666SOL    HW237632   2.682   4.514   1.837  1.7831  1.7112 -0.2283
 8667SOL     OW37633   2.964   1.533  15.514 -0.4029  0.0203  0.0562
 8667SOL    HW137634   3.029   1.591  15.476 -1.0411  1.2780  0.8770
 8667SOL    HW237635   2.886   1.588  15.520  0.3000  0.9783  0.3169
 8668SOL     OW37636   3.891   4.407   4.716  0.3860 -0.1828  0.1770
 8668SOL    HW137637   3.846   4.489   4.693  0.8277 -0.3593 -1.2602
 8668SOL    HW237638   3.891   4.408   4.812  0.4329 -0.7111  0.1794
 8669SOL     OW37639   0.403   0.325  10.755  0.7374 -0.8614 -0.7387
 8669SOL    HW137640   0.467   0.393  10.734 -0.7082  0.4775 -0.8495
 8669SOL    HW237641   0.327   0.380  10.775  0.7554 -0.6495 -1.2400
 8670SOL     OW37642   0.070   1.249   5.162 -0.6678 -0.5572  0.0949
 8670SOL    HW137643   0.033   1.335   5.182  0.0980 -0.7377  2.2994
 8670SOL    HW237644   4.733   1.210   5.122 -0.6487  1.6626 -2.0847
 8671SOL     OW37645   3.878   4.547  16.464 -0.1193  0.4125  0.8941
 8671SOL    HW137646   3.857   4.547  16.370  2.1008 -2.0524  0.3909
 8671SOL    HW237647   3.903   4.639  16.473 -3.2861  1.5162 -1.4025
 8672SOL     OW37648   4.254   0.491   4.063 -0.0913 -0.1732  0.3767
 8672SOL    HW137649   4.198   0.456   3.994 -0.8450  0.4559  0.6686
 8672SOL    HW237650   4.293   0.567   4.020  2.0788 -1.1888  0.5808
 8673SOL     OW37651   4.598   3.322   0.950 -0.0753  0.3218  0.5858
 8673SOL    HW137652   4.514   3.331   0.996 -2.0984 -1.0683 -2.8692
 8673SOL    HW237653   4.597   3.400   0.895 -3.9024  1.5497  2.3750
 8674SOL     OW37654   2.091   2.444   8.638 -0.0933  0.8078  0.1216
 8674SOL    HW137655   2.089   2.390   8.716  0.8764  3.3698  1.9038
 8674SOL    HW237656   2.167   2.498   8.659 -1.0083  0.6094  3.7931
 8675SOL     OW37657   0.664   2.952   9.717  0.3372 -0.0373 -0.2486
 8675SOL    HW137658   0.756   2.960   9.692  0.7915  1.0850  1.7690
 8675SOL    HW237659   0.670   3.002   9.798 -2.8544 -0.5436  0.3092
 8676SOL     OW37660   4.409   2.576  11.911 -0.1499  0.0064  0.0581
 8676SOL    HW137661   4.324   2.564  11.870 -0.3945 -0.2294  0.6317
 8676SOL    HW237662   4.409   2.672  11.909  0.2951 -0.0041 -0.3631
 8677SOL     OW37663   1.489   1.160   6.561 -0.1470  0.4181 -0.1617
 8677SOL    HW137664   1.438   1.222   6.507  2.2308  1.2432 -1.4692
 8677SOL    HW237665   1.574   1.166   6.519  0.1927 -0.5468  0.4059
 8678SOL     OW37666   1.562   4.428  16.046  0.2045 -0.1885 -0.4780
 8678SOL    HW137667   1.500   4.373  16.093 -1.9268  1.4920 -1.3074
 8678SOL    HW237668   1.634   4.434  16.108 -0.1553  0.3538 -0.1105
 8679SOL     OW37669   1.723   3.117   7.766  0.4043  0.2268  0.2881
 8679SOL    HW137670   1.798   3.174   7.778  0.2953  0.0192  2.0207
 8679SOL    HW237671   1.673   3.156   7.695 -0.0953 -0.9917 -0.0426
 8680SOL     OW37672   2.650   1.035   2.219 -0.9173  0.5274 -0.1121
 8680SOL    HW137673   2.657   1.123   2.184  2.0703  0.3505  0.0446
 8680SOL    HW237674   2.716   1.050   2.286 -0.1777  0.2153 -0.7642
 8681SOL     OW37675   0.611   4.698  16.735 -0.4451 -0.2409  0.4624
 8681SOL    HW137676   0.532   4.656  16.700 -1.1232  0.7470  0.8432
 8681SOL    HW237677   0.676   4.627  16.743  1.3437  1.4217  0.7579
 8682SOL     OW37678   2.030   2.896   4.406  0.1841  0.1756  0.2922
 8682SOL    HW137679   1.984   2.950   4.342  2.5259  1.0634 -0.6388
 8682SOL    HW237680   1.990   2.941   4.480  0.7796  2.0884 -0.5486
 8683SOL     OW37681   4.173   1.953   8.499 -0.6087  0.1567  0.6232
 8683SOL    HW137682   4.148   1.861   8.486 -1.9056  0.6607 -0.3960
 8683SOL    HW237683   4.259   1.955   8.457 -1.5033  0.6537 -1.1788
 8684SOL     OW37684   0.411   2.336  17.392  0.2307  0.3764 -0.1726
 8684SOL    HW137685   0.488   2.392  17.402  0.3467  0.3493 -0.8783
 8684SOL    HW237686   0.348   2.399  17.355 -0.7469 -1.2903 -1.3141
 8685SOL     OW37687   3.170   0.070   2.652  0.0747 -0.2864 -0.1050
 8685SOL    HW137688   3.086   0.028   2.668  0.2359 -1.0467 -1.2369
 8685SOL    HW237689   3.163   0.145   2.711  3.0231  1.1016 -1.4934
 8686SOL     OW37690   0.561   1.216  15.173 -0.0708 -0.5314 -0.0287
 8686SOL    HW137691   0.554   1.241  15.081  2.7838  1.0581  0.1942
 8686SOL    HW237692   0.650   1.245  15.190  0.0840 -1.5543  0.8786
 8687SOL     OW37693   4.117   0.213   7.085  0.1652 -0.2085 -0.0140
 8687SOL    HW137694   4.112   0.154   7.160  0.7620  0.5998  0.6698
 8687SOL    HW237695   4.071   0.288   7.122 -3.2260 -2.9909  1.3776
 8688SOL     OW37696   4.484   4.443   7.919  0.4774 -0.3523  0.2991
 8688SOL    HW137697   4.435   4.366   7.946 -0.2307  0.1962  0.5822
 8688SOL    HW237698   4.409   4.502   7.915  1.1360  0.3252 -2.3627
 8689SOL     OW37699   0.645   0.365  15.644 -0.4684  0.3038  0.3977
 8689SOL    HW137700   0.727   0.413  15.637 -0.2718 -0.7775 -4.9557
 8689SOL    HW237701   0.603   0.400  15.565 -2.3514  0.2315  1.3496
 8690SOL     OW37702   0.302   1.536   8.191 -0.8766 -0.2653  0.2112
 8690SOL    HW137703   0.362   1.476   8.147 -1.2196  0.6728 -1.5394
 8690SOL    HW237704   0.312   1.516   8.284  1.4840  3.1173  0.7065
 8691SOL     OW37705   1.801   0.239   4.357 -0.2472  0.1313 -0.3003
 8691SOL    HW137706   1.780   0.235   4.450 -0.8241 -2.4567 -0.5422
 8691SOL    HW237707   1.721   0.251   4.305  0.5813  3.5806 -0.7748
 8692SOL     OW37708   3.920   0.645  15.314  0.6858  0.0032 -0.2771
 8692SOL    HW137709   3.919   0.725  15.368 -2.9493 -0.1191 -0.1827
 8692SOL    HW237710   4.013   0.638  15.290  0.5008 -0.7743 -0.7553
 8693SOL     OW37711   2.473   3.773   1.336 -0.3149 -0.0259 -0.3728
 8693SOL    HW137712   2.431   3.704   1.284  1.6136 -0.9069 -0.7546
 8693SOL    HW237713   2.550   3.735   1.378 -0.4636 -1.7462 -1.6694
 8694SOL     OW37714   1.108   4.357   4.118  0.2275  0.0734  0.0121
 8694SOL    HW137715   1.115   4.265   4.142  0.9224  0.0840 -0.1614
 8694SOL    HW237716   1.150   4.357   4.032  2.2284 -0.2299  0.9821
 8695SOL     OW37717   2.673   4.346  12.123 -0.3413  0.0200 -0.7784
 8695SOL    HW137718   2.656   4.279  12.057  1.0488  0.8577 -1.9810
 8695SOL    HW237719   2.689   4.280  12.191  0.2803 -0.8520 -1.7798
 8696SOL     OW37720   0.114   2.147   4.870 -0.4916 -0.1549 -0.0143
 8696SOL    HW137721   0.082   2.236   4.855  1.8504  0.9139  1.1903
 8696SOL    HW237722   0.206   2.158   4.896  1.2135 -4.9509 -4.1027
 8697SOL     OW37723   4.209   0.585   1.925  0.0608  0.4648  0.2584
 8697SOL    HW137724   4.255   0.638   1.860  0.6577 -1.1692 -0.6496
 8697SOL    HW237725   4.198   0.506   1.871  0.6225 -0.3214  1.2927
 8698SOL     OW37726   3.442   4.103  12.926 -0.0451 -0.0145 -0.1065
 8698SOL    HW137727   3.486   4.025  12.891 -0.9551  0.9606 -3.3526
 8698SOL    HW237728   3.521   4.157  12.918 -0.2388  0.6405  2.4044
 8699SOL     OW37729   0.927   4.627   4.799 -0.5205 -0.3747  0.0980
 8699SOL    HW137730   0.934   4.542   4.843  1.5240 -0.8413 -1.1039
 8699SOL    HW237731   1.003   4.661   4.846 -1.6024  2.5724 -0.2806
 8700SOL     OW37732   0.454   0.232   7.590 -0.5112 -0.4536  0.0795
 8700SOL    HW137733   0.375   0.246   7.643  0.7159  0.2074  1.7375
 8700SOL    HW237734   0.445   0.287   7.513  0.3055  1.1108  1.1003
 8701SOL     OW37735   1.226   3.491  15.020  0.0323 -0.2049  0.4591
 8701SOL    HW137736   1.225   3.585  14.998  1.5386 -0.2073  0.3286
 8701SOL    HW237737   1.145   3.451  14.990  0.1049  0.4534 -0.6018
 8702SOL     OW37738   4.719   2.485  11.113 -0.2073 -0.1339  0.1006
 8702SOL    HW137739   4.718   2.477  11.017  0.5816 -3.8692  0.3897
 8702SOL    HW237740   0.047   2.420  11.128 -1.2179 -0.9207  1.2892
 8703SOL     OW37741   4.189   0.403   5.111  0.1359  0.0313  0.5794
 8703SOL    HW137742   4.281   0.389   5.091  0.6137  1.0576  2.1136
 8703SOL    HW237743   4.179   0.497   5.096  1.8538 -0.0141 -0.8545
 8704SOL     OW37744   0.545   1.059   4.488 -0.2958 -0.0617  0.1519
 8704SOL    HW137745   0.580   0.975   4.461 -0.3031  0.2717 -0.8849
 8704SOL    HW237746   0.622   1.114   4.468  1.3195 -3.0211 -1.6662
 8705SOL     OW37747   1.931   2.898   6.279  0.3461  0.2949 -0.2719
 8705SOL    HW137748   1.838   2.878   6.268  0.3246  0.5767 -0.6107
 8705SOL    HW237749   1.954   2.816   6.324  0.4261  0.6818  0.3803
 8706SOL     OW37750   3.135   4.391  15.909  0.4794 -0.0189  0.1088
 8706SOL    HW137751   3.118   4.423  15.820 -1.1413  1.9085  1.1191
 8706SOL    HW237752   3.056   4.338  15.919  1.1079 -1.0009 -0.1612
 8707SOL     OW37753   1.668   2.558   6.328 -0.4253  0.3562  0.2159
 8707SOL    HW137754   1.718   2.592   6.254  1.6609 -0.8842  1.0446
 8707SOL    HW237755   1.729   2.563   6.402 -0.2977 -1.3004  0.2183
 8708SOL     OW37756   3.459   0.247   6.744 -0.0586 -0.3375 -0.1174
 8708SOL    HW137757   3.422   0.167   6.706  0.2060 -0.0816 -0.8934
 8708SOL    HW237758   3.446   0.227   6.837  0.7608 -0.3865 -0.0159
 8709SOL     OW37759   3.023   4.531   8.313 -0.7549 -0.3688 -0.4214
 8709SOL    HW137760   3.082   4.555   8.242 -1.9195  0.7745 -1.0017
 8709SOL    HW237761   2.937   4.567   8.290  0.3884  1.5386 -1.7042
 8710SOL     OW37762   2.542   3.786  15.038 -0.2596 -0.4519 -0.1976
 8710SOL    HW137763   2.598   3.709  15.027 -1.0285 -0.8664 -1.1861
 8710SOL    HW237764   2.593   3.832  15.104 -0.8528  0.7344 -0.5788
 8711SOL     OW37765   0.823   4.165  16.288  0.6450 -0.5099  0.0404
 8711SOL    HW137766   0.733   4.135  16.302  0.2097  0.2179 -1.2203
 8711SOL    HW237767   0.836   4.137  16.198  0.7740  1.9394 -0.7122
 8712SOL     OW37768   2.893   3.308   0.936  0.0516  0.1219  0.4600
 8712SOL    HW137769   2.823   3.369   0.959  0.5921  1.0524 -0.4056
 8712SOL    HW237770   2.868   3.235   0.993  1.0014 -0.5756 -0.0367
 8713SOL     OW37771   3.155   2.660   6.174 -0.3176  0.5860  0.5695
 8713SOL    HW137772   3.061   2.678   6.169 -0.3407  0.5794  1.0164
 8713SOL    HW237773   3.187   2.696   6.091  1.7636 -0.2964  0.9855
 8714SOL     OW37774   1.023   4.291  14.928  0.3103 -0.3534  0.5517
 8714SOL    HW137775   0.927   4.296  14.926  0.2950 -1.6920 -2.5817
 8714SOL    HW237776   1.042   4.227  14.859  1.3616 -0.9414  1.3991
 8715SOL     OW37777   0.605   3.241   9.255  0.5933 -0.1126  0.7433
 8715SOL    HW137778   0.600   3.191   9.337 -0.6883  1.1083  1.3938
 8715SOL    HW237779   0.691   3.211   9.223 -1.3066 -2.4336 -2.2098
 8716SOL     OW37780   2.036   4.712  14.092 -0.0261  0.6036 -0.1537
 8716SOL    HW137781   1.946   4.698  14.065 -0.0073 -1.3719  0.7979
 8716SOL    HW237782   2.075   4.703  14.006 -1.0383  2.2976 -0.7916
 8717SOL     OW37783   2.321   1.959   8.182  0.4089  0.4092  0.3807
 8717SOL    HW137784   2.317   2.009   8.264  0.2299  1.6206 -0.3706
 8717SOL    HW237785   2.299   1.870   8.213 -0.5280  0.4813 -0.0774
 8718SOL     OW37786   1.799   1.081   4.288  0.5420 -0.0549 -0.4030
 8718SOL    HW137787   1.848   1.005   4.257 -0.2284 -0.9842  0.6405
 8718SOL    HW237788   1.800   1.137   4.211  1.4690 -0.1246 -0.4412
 8719SOL     OW37789   3.465   1.685   9.861 -0.1037  0.0097 -0.5340
 8719SOL    HW137790   3.548   1.728   9.840 -1.3310  2.1971 -0.8599
 8719SOL    HW237791   3.448   1.634   9.781 -0.9430  1.7893 -1.4820
 8720SOL     OW37792   4.268   1.440   7.579  0.7798 -0.3614 -0.7171
 8720SOL    HW137793   4.239   1.525   7.544 -0.5650 -0.8034 -0.6475
 8720SOL    HW237794   4.227   1.431   7.665  0.7649 -0.8668 -0.7789
 8721SOL     OW37795   2.422   0.627   1.891 -0.1713 -0.6726  0.0713
 8721SOL    HW137796   2.480   0.609   1.966  2.0680  0.5531 -1.3479
 8721SOL    HW237797   2.484   0.608   1.821 -0.8950  3.8160 -1.8105
 8722SOL     OW37798   2.514   1.397  16.385 -0.3577  0.6939  0.0363
 8722SOL    HW137799   2.463   1.379  16.306  1.6663 -0.5882 -0.9661
 8722SOL    HW237800   2.455   1.449  16.439 -1.5947 -0.1131 -0.5275
 8723SOL     OW37801   3.353   4.631  14.279 -0.1096  0.5198  0.3943
 8723SOL    HW137802   3.421   4.598  14.338 -0.1036  1.5080  0.9492
 8723SOL    HW237803   3.348   4.722  14.310  1.9469  0.7168  0.1477
 8724SOL     OW37804   1.355   2.815   1.388 -0.0843  0.1382  0.4431
 8724SOL    HW137805   1.353   2.739   1.329  0.5833  1.6112 -1.4786
 8724SOL    HW237806   1.289   2.872   1.348  0.7687  0.0740 -1.0601
 8725SOL     OW37807   2.791   1.918   6.638  0.1581 -0.2876  0.0847
 8725SOL    HW137808   2.755   1.993   6.685  1.9084  1.3306 -1.1282
 8725SOL    HW237809   2.881   1.940   6.611 -0.0410  1.7851  1.0998
 8726SOL     OW37810   1.515   2.783   7.717  0.8600 -0.9390 -0.1443
 8726SOL    HW137811   1.599   2.800   7.759 -0.6616  1.1043  2.1011
 8726SOL    HW237812   1.470   2.867   7.730 -0.6859 -1.7420 -0.2915
 8727SOL     OW37813   2.322   3.708   0.590  0.6939 -0.3079  0.1020
 8727SOL    HW137814   2.276   3.672   0.515 -0.9791 -1.1540  1.5174
 8727SOL    HW237815   2.306   3.647   0.662  0.6224  0.0763  0.4123
 8728SOL     OW37816   2.904   1.535   6.449 -0.2910 -0.0871 -0.0732
 8728SOL    HW137817   2.868   1.591   6.380  0.6449 -1.0265 -1.3310
 8728SOL    HW237818   2.830   1.477   6.465 -0.4069 -0.2788 -1.2958
 8729SOL     OW37819   1.323   3.951   9.622 -0.2036 -0.4027 -0.3225
 8729SOL    HW137820   1.325   3.951   9.526  0.3617 -3.0725 -0.3111
 8729SOL    HW237821   1.248   4.009   9.633  0.0293  0.1619 -1.7437
 8730SOL     OW37822   4.515   3.232   3.377 -0.7066 -0.2205 -0.1226
 8730SOL    HW137823   4.425   3.261   3.393 -0.0041  1.4426  0.7501
 8730SOL    HW237824   4.491   3.164   3.314  0.2931  0.5288 -1.3118
 8731SOL     OW37825   0.152   2.595   0.270  0.1240 -0.0924  0.2495
 8731SOL    HW137826   0.235   2.548   0.267 -0.9386 -1.8083 -2.2894
 8731SOL    HW237827   0.085   2.530   0.291  0.5327 -0.5992 -0.0179
 8732SOL     OW37828   1.693   0.818   9.343  0.3198 -0.5204  0.0385
 8732SOL    HW137829   1.648   0.785   9.265  0.2917  1.1928 -0.6742
 8732SOL    HW237830   1.625   0.788   9.404 -0.5901  1.3937 -0.0223
 8733SOL     OW37831   2.501   0.966   4.263 -0.4384 -0.3030 -0.6627
 8733SOL    HW137832   2.492   0.911   4.342 -0.5212 -1.1322 -1.2474
 8733SOL    HW237833   2.566   0.909   4.222  1.1865  2.6507 -2.1416
 8734SOL     OW37834   1.202   3.149  11.042 -0.9119  0.1102 -0.2489
 8734SOL    HW137835   1.160   3.212  11.100  2.2927  0.6051  1.5014
 8734SOL    HW237836   1.296   3.146  11.056 -1.2265 -1.9965  1.4672
 8735SOL     OW37837   1.440   1.155   4.947  0.0759 -0.4799 -0.1091
 8735SOL    HW137838   1.473   1.065   4.955 -0.0447 -0.4182  1.0867
 8735SOL    HW237839   1.517   1.212   4.940 -0.6103  0.3278 -1.0111
 8736SOL     OW37840   3.112   2.148  16.581  0.2208  0.2897 -0.2362
 8736SOL    HW137841   3.152   2.154  16.495  0.7462 -1.1713 -0.0856
 8736SOL    HW237842   3.030   2.103  16.563  0.2693  0.2653 -0.3957
 8737SOL     OW37843   2.877   3.678   2.194  0.0646 -0.2603  0.2286
 8737SOL    HW137844   2.824   3.599   2.184 -1.6030  0.9968 -0.9006
 8737SOL    HW237845   2.807   3.744   2.193  1.2923  1.0918  1.7781
 8738SOL     OW37846   1.773   4.248  13.687  0.5071 -0.2110  0.4864
 8738SOL    HW137847   1.860   4.237  13.725  0.6890 -1.3945 -0.2818
 8738SOL    HW237848   1.747   4.165  13.647  0.5943  1.2242 -2.5755
 8739SOL     OW37849   3.366   0.354   8.139 -0.0952  0.1158  0.8124
 8739SOL    HW137850   3.334   0.400   8.062  3.8820 -1.1211 -1.5948
 8739SOL    HW237851   3.339   0.411   8.211  1.5050  3.0875 -0.9527
 8740SOL     OW37852   3.746   3.610   6.203 -0.1465  0.1684  0.3629
 8740SOL    HW137853   3.727   3.581   6.292  0.9005 -0.2165  0.4613
 8740SOL    HW237854   3.842   3.617   6.202  0.0541 -2.0638  3.0852
 8741SOL     OW37855   3.751   2.481  13.389  0.3977 -0.1325  0.1473
 8741SOL    HW137856   3.710   2.567  13.402 -2.2052 -1.0146 -2.3169
 8741SOL    HW237857   3.815   2.504  13.322  1.8370  0.0056  1.5575
 8742SOL     OW37858   2.839   3.780   3.953 -0.8019  0.5055  0.6235
 8742SOL    HW137859   2.900   3.848   3.981 -0.0917  0.1015  0.0688
 8742SOL    HW237860   2.859   3.773   3.859 -1.8430  2.2366  0.2731
 8743SOL     OW37861   4.704   0.379  13.974 -1.0275  0.6271 -0.6079
 8743SOL    HW137862   4.717   0.289  14.004  0.0981  0.4040 -1.7881
 8743SOL    HW237863   0.055   0.393  13.953 -0.7586  1.1995  1.0259
 8744SOL     OW37864   0.789   1.296   0.951  0.6645 -0.1340 -0.5616
 8744SOL    HW137865   0.732   1.278   0.876  0.9245 -1.9091 -0.3265
 8744SOL    HW237866   0.846   1.220   0.951  1.0662  0.1597 -2.2341
 8745SOL     OW37867   3.432   4.165   5.477  0.5229  0.0448  0.2595
 8745SOL    HW137868   3.443   4.073   5.500 -1.3787 -0.2013  0.1372
 8745SOL    HW237869   3.353   4.180   5.528  1.3145  0.0786  1.4794
 8746SOL     OW37870   4.215   3.596   7.280  0.3777 -0.0637  0.9305
 8746SOL    HW137871   4.264   3.523   7.317  1.4968  1.0224  1.5793
 8746SOL    HW237872   4.245   3.596   7.189 -0.2312 -1.4469  0.7201
 8747SOL     OW37873   2.554   2.845  16.885 -0.7177 -0.9645 -0.0429
 8747SOL    HW137874   2.512   2.798  16.813 -1.2577 -1.0510  0.3223
 8747SOL    HW237875   2.574   2.937  16.869 -0.6790 -0.5053  2.5444
 8748SOL     OW37876   2.677   0.024  13.824 -0.7852 -0.3624 -0.2651
 8748SOL    HW137877   2.675   0.051  13.916 -0.6917 -2.5327  0.3907
 8748SOL    HW237878   2.624   0.099  13.797 -0.2928  0.2926  0.5891
 8749SOL     OW37879   2.635   0.041  13.496 -0.0215  0.4821  0.4734
 8749SOL    HW137880   2.572   0.096  13.542 -0.7745  0.4114 -0.4722
 8749SOL    HW237881   2.708   0.103  13.498 -0.2919  0.7397  2.1468
 8750SOL     OW37882   3.459   3.845  12.854  0.5091  0.7882  0.6507
 8750SOL    HW137883   3.495   3.854  12.766 -0.0817 -1.4666  0.1837
 8750SOL    HW237884   3.518   3.779  12.890 -0.2659 -1.2127 -1.6809
 8751SOL     OW37885   4.259   2.023   0.335 -1.1017 -0.0656 -0.0629
 8751SOL    HW137886   4.353   2.027   0.354 -1.2914  1.7119  0.5040
 8751SOL    HW237887   4.240   1.955   0.271  0.2322 -1.9405  1.5355
 8752SOL     OW37888   0.499   4.037  11.109  0.7983  0.1909  0.2820
 8752SOL    HW137889   0.531   4.097  11.042  3.2330  0.7917  1.9669
 8752SOL    HW237890   0.574   4.045  11.168  0.8047  0.4528  0.2355
 8753SOL     OW37891   0.679   1.899   7.165 -0.6743 -0.6895 -0.2057
 8753SOL    HW137892   0.730   1.942   7.233 -2.3650  0.9519  0.0304
 8753SOL    HW237893   0.602   1.887   7.221  0.1527  0.6480  1.2235
 8754SOL     OW37894   0.074   3.527   3.765  0.2439 -0.6762 -0.1858
 8754SOL    HW137895   0.023   3.536   3.684 -0.6136  0.8056  0.5266
 8754SOL    HW237896   0.012   3.566   3.826 -0.7529  0.2603 -1.8109
 8755SOL     OW37897   3.835   4.448   5.521 -0.3071 -0.2368  0.5726
 8755SOL    HW137898   3.905   4.494   5.566 -1.0005  1.6994 -0.3200
 8755SOL    HW237899   3.816   4.382   5.587  0.5180 -1.1038 -0.0484
 8756SOL     OW37900   2.699   3.033   0.938  0.4571 -0.2014  0.1363
 8756SOL    HW137901   2.782   3.038   0.986  0.0466  0.5938  0.7602
 8756SOL    HW237902   2.658   2.968   0.996  0.0539 -0.2897 -0.2447
 8757SOL     OW37903   0.910   4.722  14.493  0.4861 -0.2375 -0.0016
 8757SOL    HW137904   0.885   4.717  14.585 -1.1860  0.6355 -0.4164
 8757SOL    HW237905   0.917   0.076  14.479  0.0672 -0.1642  0.3047
 8758SOL     OW37906   2.335   3.077   5.171  0.2005 -0.2154 -0.1997
 8758SOL    HW137907   2.336   3.002   5.111  3.2022  2.3526 -3.3218
 8758SOL    HW237908   2.243   3.090   5.195  0.5936  0.8826  0.6767
 8759SOL     OW37909   2.209   2.946  11.459  0.6560  0.0615  0.1728
 8759SOL    HW137910   2.129   2.941  11.511 -0.5835  3.1664 -1.4325
 8759SOL    HW237911   2.212   3.026  11.406 -0.3130  0.9670  1.4872
 8760SOL     OW37912   0.135   4.000   4.343 -0.6374 -0.6803  0.0283
 8760SOL    HW137913   0.192   3.932   4.378 -2.1213 -2.0414 -0.2414
 8760SOL    HW237914   0.084   4.004   4.423 -1.3432  0.6735 -0.4911
 8761SOL     OW37915   1.251   4.238   7.799  0.0664 -0.2407 -0.0018
 8761SOL    HW137916   1.169   4.259   7.753  1.6387  1.6353 -1.9235
 8761SOL    HW237917   1.280   4.171   7.738 -1.6210 -0.8224 -0.1859
 8762SOL     OW37918   4.421   2.551   5.928  0.4553  0.4089 -0.2256
 8762SOL    HW137919   4.362   2.545   5.852  1.1496  3.9034 -1.0292
 8762SOL    HW237920   4.350   2.553   5.992 -0.0075  1.1277 -0.7578
 8763SOL     OW37921   2.597   2.784   6.105  0.0087 -0.3368  0.0840
 8763SOL    HW137922   2.541   2.716   6.067  0.3273 -1.2456  1.2374
 8763SOL    HW237923   2.581   2.765   6.197  0.2605 -1.4213 -0.1014
 8764SOL     OW37924   3.061   1.438   9.663 -0.0475  0.2891  0.4714
 8764SOL    HW137925   3.049   1.492   9.584 -0.7792 -1.0889 -0.3573
 8764SOL    HW237926   2.973   1.433   9.699 -0.6863  0.3881 -1.0691
 8765SOL     OW37927   1.362   1.922   9.105  0.2060 -0.2870 -0.3771
 8765SOL    HW137928   1.311   1.871   9.168 -1.9362  0.5174 -1.4491
 8765SOL    HW237929   1.446   1.925   9.150  0.1706 -0.1905 -0.3176
 8766SOL     OW37930   4.096   2.498   1.850 -0.5688  0.1377  0.5922
 8766SOL    HW137931   4.160   2.524   1.783 -1.4974 -1.1873 -0.8224
 8766SOL    HW237932   4.150   2.448   1.910  0.4546  0.2656 -0.2107
 8767SOL     OW37933   2.745   0.972   9.846 -0.6715 -0.1190  0.5364
 8767SOL    HW137934   2.665   0.944   9.801 -0.4180  0.7204 -0.4331
 8767SOL    HW237935   2.751   1.066   9.832  0.6652 -0.1828  0.6659
 8768SOL     OW37936   4.443   1.467   8.797  0.3300  0.0795  0.1651
 8768SOL    HW137937   4.499   1.397   8.764 -0.5284  1.1592 -3.5778
 8768SOL    HW237938   4.400   1.423   8.870  0.5769  0.3538  0.4787
 8769SOL     OW37939   4.390   1.696   8.648  0.4827  0.7859  0.7876
 8769SOL    HW137940   4.389   1.655   8.561 -0.9692  1.1341  0.6394
 8769SOL    HW237941   4.412   1.622   8.704  1.1650 -0.8186 -1.6013
 8770SOL     OW37942   0.188   0.329   4.083  0.1076  0.0410 -0.0072
 8770SOL    HW137943   0.110   0.369   4.045 -0.7851 -0.5831  1.1609
 8770SOL    HW237944   0.212   0.395   4.149  2.0745  0.9180 -1.5880
 8771SOL     OW37945   3.501   1.853   4.377 -0.1713  0.5731 -0.7362
 8771SOL    HW137946   3.575   1.803   4.412  0.2717  0.3395 -1.9782
 8771SOL    HW237947   3.462   1.804   4.305  0.7945 -1.4834  0.1298
 8772SOL     OW37948   1.114   3.692  11.360  0.3399  0.3132  1.0484
 8772SOL    HW137949   1.038   3.633  11.365 -0.5606  1.3931  0.1708
 8772SOL    HW237950   1.181   3.629  11.386 -1.6226 -3.0074 -1.9605
 8773SOL     OW37951   1.520   0.630   6.152  0.3649 -0.5223 -0.0648
 8773SOL    HW137952   1.523   0.538   6.181 -0.9471 -0.5753 -0.0915
 8773SOL    HW237953   1.570   0.639   6.071 -1.2354  0.4414 -0.9470
 8774SOL     OW37954   3.487   1.416  10.765  0.0155  0.9606  0.2015
 8774SOL    HW137955   3.492   1.484  10.832 -0.5923  0.3465  0.8692
 8774SOL    HW237956   3.516   1.463  10.687 -0.2231  1.3540  0.3447
 8775SOL     OW37957   1.852   3.047   1.390  0.5453 -0.0586  0.5846
 8775SOL    HW137958   1.823   3.088   1.471 -0.8705 -1.1707  0.6366
 8775SOL    HW237959   1.783   2.982   1.376 -2.5689  3.0477  1.7041
 8776SOL     OW37960   4.662   3.484   5.215  0.2254  0.3701 -0.3133
 8776SOL    HW137961   4.658   3.477   5.310  0.9490  1.9156 -0.1756
 8776SOL    HW237962   4.727   3.419   5.189 -0.0568 -0.8216  1.9804
 8777SOL     OW37963   4.118   2.432   4.387  0.0356 -0.9111 -0.1612
 8777SOL    HW137964   4.179   2.395   4.451  0.3684  2.4517  1.4640
 8777SOL    HW237965   4.053   2.362   4.384  1.0259 -1.7648 -1.4741
 8778SOL     OW37966   1.616   1.372   7.111  0.5846  0.2944 -0.4424
 8778SOL    HW137967   1.584   1.411   7.030  0.7285 -1.3696 -1.3031
 8778SOL    HW237968   1.650   1.446   7.160  0.4993  0.2250 -0.2778
 8779SOL     OW37969   4.570   0.040   5.878 -0.3022 -0.2226  0.0190
 8779SOL    HW137970   4.584   0.128   5.841  0.3044 -0.8703 -1.2686
 8779SOL    HW237971   4.521   0.049   5.960 -0.1593 -0.5888  0.1439
 8780SOL     OW37972   4.396   2.750   6.633  0.3013 -0.3991  0.5829
 8780SOL    HW137973   4.485   2.713   6.639  1.0817  1.3843 -0.1416
 8780SOL    HW237974   4.390   2.797   6.551  3.1644  0.3560  0.7861
 8781SOL     OW37975   4.538   0.781   7.102  0.6711  0.4028 -0.0361
 8781SOL    HW137976   4.453   0.824   7.098  0.7404  0.6809  1.5372
 8781SOL    HW237977   4.584   0.822   7.029 -0.8619  0.3931 -1.0141
 8782SOL     OW37978   0.029   2.201  13.260 -0.1925  0.1627 -0.0057
 8782SOL    HW137979   0.077   2.268  13.309 -0.5719 -0.9482  1.9010
 8782SOL    HW237980   0.072   2.189  13.175  0.1404 -1.3542  0.3688
 8783SOL     OW37981   3.562   4.113  11.494  0.3175  0.4073  0.4836
 8783SOL    HW137982   3.499   4.045  11.470 -1.0376  1.8897 -0.1673
 8783SOL    HW237983   3.599   4.071  11.572 -1.4581  0.0028  1.1050
 8784SOL     OW37984   3.487   2.214   1.540  0.0264  0.4956  0.4676
 8784SOL    HW137985   3.513   2.301   1.509  1.4999 -1.0383 -2.5449
 8784SOL    HW237986   3.392   2.218   1.531 -0.0432 -2.7376 -0.3033
 8785SOL     OW37987   1.260   0.450   1.369  0.5153  0.4671  0.7909
 8785SOL    HW137988   1.323   0.386   1.401  0.3723  1.6394  3.4111
 8785SOL    HW237989   1.261   0.524   1.431  0.3219  0.3051  0.9865
 8786SOL     OW37990   0.957   3.529   2.458  0.6493 -0.1799 -0.3456
 8786SOL    HW137991   0.880   3.491   2.500 -1.5998  3.0054 -1.5777
 8786SOL    HW237992   0.920   3.565   2.377  1.6302  1.7330  0.0602
 8787SOL     OW37993   2.161   3.748   2.199  0.3986  0.2364 -0.1618
 8787SOL    HW137994   2.236   3.763   2.256  0.4380  0.2026 -0.2052
 8787SOL    HW237995   2.090   3.801   2.236 -0.4733 -0.9430 -0.1279
 8788SOL     OW37996   0.500   4.676   5.122 -0.0447  0.1957 -0.3340
 8788SOL    HW137997   0.477   4.719   5.204  0.7887  1.8125 -0.9474
 8788SOL    HW237998   0.521   0.015   5.074  0.5501 -0.7851 -1.7090
 8789SOL     OW37999   4.250   2.251   9.261  0.5525 -0.3012 -0.4788
 8789SOL    HW138000   4.254   2.333   9.309 -1.8251  0.6108 -1.8425
 8789SOL    HW238001   4.158   2.226   9.272  0.1582  0.8369 -1.1751
 8790SOL     OW38002   1.855   2.041   2.399 -0.1447  0.1329 -0.1843
 8790SOL    HW138003   1.885   2.079   2.317 -0.7851  1.2500  0.0971
 8790SOL    HW238004   1.913   2.084   2.462  1.2807 -2.6321  0.3689
 8791SOL     OW38005   3.408   2.766   1.956 -0.7458  0.2133 -0.1343
 8791SOL    HW138006   3.466   2.763   1.881 -0.4282  2.1133  0.0286
 8791SOL    HW238007   3.460   2.725   2.025 -0.9462 -0.3795 -0.3295
 8792SOL     OW38008   2.865   0.019   9.144  0.5581  0.9067 -0.7648
 8792SOL    HW138009   2.907   4.684   9.104  1.1943  0.9070 -0.0816
 8792SOL    HW238010   2.813   0.047   9.069 -0.2143 -0.9345 -0.9203
 8793SOL     OW38011   1.112   3.463   5.578 -0.0255 -0.8389  0.2292
 8793SOL    HW138012   1.119   3.454   5.673  0.3030 -1.2315  0.1677
 8793SOL    HW238013   1.134   3.375   5.548 -0.1723 -1.3618  1.6425
 8794SOL     OW38014   0.306   0.760   8.842 -0.4140  0.2602 -0.0889
 8794SOL    HW138015   0.400   0.763   8.858 -0.5833  0.5383  0.8526
 8794SOL    HW238016   0.281   0.725   8.928  0.0103  0.6646  0.1992
 8795SOL     OW38017   3.173   4.684   5.751  0.0034 -0.1398 -0.7083
 8795SOL    HW138018   3.165   4.651   5.661  0.6969 -0.8262 -0.5194
 8795SOL    HW238019   3.146   0.033   5.734  1.0541  0.8710  2.8927
 8796SOL     OW38020   1.479   1.479   6.158  0.1647  0.2167  0.0063
 8796SOL    HW138021   1.412   1.541   6.128 -0.9464  0.1080  2.2561
 8796SOL    HW238022   1.554   1.530   6.128  0.2931 -0.2387 -0.4412
 8797SOL     OW38023   3.430   1.046  13.736  0.3010 -0.4784 -0.3834
 8797SOL    HW138024   3.404   1.057  13.828  1.5352 -1.3412  0.0683
 8797SOL    HW238025   3.487   0.969  13.735 -1.8800 -2.1787  3.5158
 8798SOL     OW38026   4.242   4.722   0.069  0.3626 -0.5717 -0.1313
 8798SOL    HW138027   4.300   4.656   0.029  0.4794 -0.5636  0.0238
 8798SOL    HW238028   4.248   4.697   0.161  0.4551  0.5733  0.1699
 8799SOL     OW38029   0.195   2.993   0.100  0.0148  0.3669 -0.4818
 8799SOL    HW138030   0.125   3.020   0.041 -0.6249  1.0551  0.5760
 8799SOL    HW238031   0.269   3.019   0.045  1.3994 -0.4335  0.9813
 8800SOL     OW38032   2.964   4.018  12.335 -0.0271  0.1755  0.4522
 8800SOL    HW138033   2.975   4.097  12.388 -4.4033 -0.8353  2.8384
 8800SOL    HW238034   2.891   3.985  12.387  0.2022 -0.1013  0.6028
 8801SOL     OW38035   4.418   4.126   7.763  0.1011  0.3554  0.1970
 8801SOL    HW138036   4.444   4.100   7.852  0.7035 -0.8803 -0.3431
 8801SOL    HW238037   4.391   4.037   7.739  0.6390  0.4041 -0.5838
 8802SOL     OW38038   4.188   2.638  16.723  0.6232 -0.1751  0.0564
 8802SOL    HW138039   4.166   2.586  16.646  3.5012  0.4242 -1.1514
 8802SOL    HW238040   4.203   2.567  16.786  2.6880  0.6875  0.5225
 8803SOL     OW38041   0.121   4.193  15.223 -0.2233 -0.2613  0.0977
 8803SOL    HW138042   0.032   4.223  15.210 -0.3547  0.0992  1.8653
 8803SOL    HW238043   0.172   4.274  15.223 -0.4483 -0.1195 -0.9450
 8804SOL     OW38044   3.972   3.580   8.150 -0.1984 -0.0754  0.2109
 8804SOL    HW138045   3.959   3.632   8.229  0.9245  1.3951 -0.5614
 8804SOL    HW238046   3.882   3.548   8.145  0.1601 -0.9023 -0.9425
 8805SOL     OW38047   4.109   3.356   1.603  0.3243 -0.3758 -0.1701
 8805SOL    HW138048   4.051   3.431   1.585  3.0490  1.9596  0.7694
 8805SOL    HW238049   4.056   3.315   1.671  0.3856  0.8734  0.6371
 8806SOL     OW38050   3.703   1.567   9.590 -0.1248  0.0919 -0.4658
 8806SOL    HW138051   3.740   1.655   9.596  0.5476 -0.0529 -2.5213
 8806SOL    HW238052   3.776   1.519   9.629  1.6191  0.3138 -3.4742
 8807SOL     OW38053   3.463   2.664   3.028 -0.0254 -0.3827  0.0477
 8807SOL    HW138054   3.476   2.662   2.934  0.1391 -1.0859  0.0817
 8807SOL    HW238055   3.548   2.705   3.045 -0.9386  2.2457 -1.7650
 8808SOL     OW38056   1.071   0.070   3.521  0.4938  0.7668  0.1250
 8808SOL    HW138057   1.014   0.056   3.597 -0.0893 -0.9916 -0.6555
 8808SOL    HW238058   1.160   0.063   3.556 -0.1153  1.2658  1.7913
 8809SOL     OW38059   4.058   3.436   3.217  0.4213  0.5763 -0.1692
 8809SOL    HW138060   4.110   3.375   3.270  1.5830  2.4485  0.8302
 8809SOL    HW238061   4.032   3.500   3.283  2.3916  1.0411  0.1514
 8810SOL     OW38062   1.473   3.796   5.595 -0.0061 -0.1847 -0.3063
 8810SOL    HW138063   1.387   3.777   5.558 -0.1585  2.5436 -1.4326
 8810SOL    HW238064   1.491   3.729   5.661 -1.3949 -0.2783 -0.0189
 8811SOL     OW38065   3.608   4.591   4.384  0.5650 -0.0662 -0.3405
 8811SOL    HW138066   3.593   4.513   4.438 -2.0520  0.0958 -0.8225
 8811SOL    HW238067   3.520   4.620   4.360  0.7558  0.6680 -0.1368
 8812SOL     OW38068   0.788   3.858   7.858 -0.1872 -0.2607 -0.1508
 8812SOL    HW138069   0.724   3.796   7.894 -1.2020  1.7889  1.5478
 8812SOL    HW238070   0.859   3.794   7.846 -0.0942 -0.2373  0.2860
 8813SOL     OW38071   0.022   1.477   7.816 -0.0812 -0.4674 -0.0026
 8813SOL    HW138072   0.006   1.437   7.902  2.2341 -0.4617  0.4346
 8813SOL    HW238073   0.093   1.527   7.855 -2.1727  1.5672  1.1407
 8814SOL     OW38074   2.971   2.872   8.456 -0.1602 -0.1868  0.1188
 8814SOL    HW138075   2.980   2.937   8.526  1.7125  2.0356 -2.1994
 8814SOL    HW238076   2.889   2.828   8.483 -0.3809 -1.4854 -2.7405
 8815SOL     OW38077   4.262   1.707   2.011 -0.2423  0.4476  0.2286
 8815SOL    HW138078   4.302   1.697   2.098 -2.4049 -1.0922  1.0404
 8815SOL    HW238079   4.223   1.621   1.997  1.1764 -0.3662  1.3519
 8816SOL     OW38080   0.098   0.235  11.915 -0.3279 -0.4672  0.5560
 8816SOL    HW138081   0.104   0.330  11.921  3.3992 -0.6737  0.5018
 8816SOL    HW238082   0.013   0.227  11.956 -0.3467  2.4190  1.0656
 8817SOL     OW38083   0.999   2.119   6.306  0.0826  0.0254  0.0117
 8817SOL    HW138084   0.913   2.136   6.268  0.4864  0.9519 -0.4804
 8817SOL    HW238085   0.998   2.024   6.295  0.3658 -0.1198  1.2490
 8818SOL     OW38086   4.273   3.074   5.072 -0.3358  0.0602  0.3997
 8818SOL    HW138087   4.226   3.093   5.153  0.5929 -2.5031  1.5221
 8818SOL    HW238088   4.358   3.117   5.081 -1.0824  1.5830  0.0606
 8819SOL     OW38089   0.085   4.071   7.521 -0.0180  0.2416  0.5609
 8819SOL    HW138090   0.138   4.117   7.586  0.5856  1.2453 -0.6405
 8819SOL    HW238091   0.002   4.044   7.559 -0.2068  0.2481  0.1599
 8820SOL     OW38092   1.066   2.931   8.242  0.1150  0.1125 -0.5153
 8820SOL    HW138093   1.035   2.988   8.312 -1.2661  1.2660 -2.0554
 8820SOL    HW238094   1.158   2.956   8.235 -0.4636  2.1166 -0.8298
 8821SOL     OW38095   3.075   0.984  17.121 -0.1429 -0.0401  0.1630
 8821SOL    HW138096   3.167   1.006  17.107 -0.3871  0.1994 -1.0597
 8821SOL    HW238097   3.045   0.972  17.031  0.4563  0.0571 -0.0444
 8822SOL     OW38098   2.229   1.216   3.388 -0.1354 -0.0916 -0.3290
 8822SOL    HW138099   2.257   1.307   3.375  0.7237 -0.2223  0.6139
 8822SOL    HW238100   2.172   1.202   3.312 -0.8314 -1.0510  0.3769
 8823SOL     OW38101   2.419   1.178  15.843 -0.1659  0.5354  0.0173
 8823SOL    HW138102   2.479   1.108  15.868 -0.1750  1.0032  1.4021
 8823SOL    HW238103   2.438   1.237  15.916 -0.9209  0.0153  0.6305
 8824SOL     OW38104   3.434   3.441   1.714 -0.3855 -0.4030 -0.3473
 8824SOL    HW138105   3.377   3.380   1.762  1.3999 -2.1428 -0.4341
 8824SOL    HW238106   3.382   3.514   1.682  0.3394 -0.5565 -1.8503
 8825SOL     OW38107   1.635   0.093  15.850  0.5263  0.7352  0.7972
 8825SOL    HW138108   1.564   0.030  15.840 -0.0430  1.4191  0.5510
 8825SOL    HW238109   1.590   0.173  15.822 -0.8820 -0.2710  0.2245
 8826SOL     OW38110   3.190   3.481   6.786 -0.0922 -0.3784  1.4402
 8826SOL    HW138111   3.194   3.499   6.880  1.4324  2.0256  0.9320
 8826SOL    HW238112   3.197   3.387   6.771  1.6864  0.2879 -1.9759
 8827SOL     OW38113   0.619   4.268   8.598 -0.3334 -0.3302  0.0784
 8827SOL    HW138114   0.680   4.209   8.643 -0.2613 -0.0203  0.3872
 8827SOL    HW238115   0.543   4.211   8.590 -0.5997  0.1867 -1.1088
 8828SOL     OW38116   2.501   1.826   3.057 -0.0348  0.6872 -0.1151
 8828SOL    HW138117   2.579   1.882   3.057  1.0410 -0.8316  0.6340
 8828SOL    HW238118   2.491   1.812   3.151  2.1744  0.1803  0.0472
 8829SOL     OW38119   3.965   3.577  13.229 -0.9700  0.4598  0.3584
 8829SOL    HW138120   3.875   3.552  13.206 -1.0932  1.9653 -0.8491
 8829SOL    HW238121   3.982   3.507  13.291  0.4065  0.0046 -0.5470
 8830SOL     OW38122   0.413   0.506   7.937 -0.2682 -0.1073  0.3358
 8830SOL    HW138123   0.462   0.587   7.934 -2.0532  0.9891  0.6578
 8830SOL    HW238124   0.400   0.480   7.846  1.8527  2.6974 -0.7423
 8831SOL     OW38125   3.725   0.790   9.081 -0.0698 -0.0486  0.2436
 8831SOL    HW138126   3.770   0.729   9.023 -1.8603  1.4981 -2.7260
 8831SOL    HW238127   3.667   0.726   9.123 -1.3547  1.7545  1.2393
 8832SOL     OW38128   4.197   2.942   3.660 -0.0526  0.1753  0.3097
 8832SOL    HW138129   4.116   2.891   3.653  0.2794 -0.1190 -1.3852
 8832SOL    HW238130   4.268   2.894   3.619 -1.9005 -0.8813 -1.6739
 8833SOL     OW38131   3.759   2.087   8.482  0.7470  0.3662  0.3475
 8833SOL    HW138132   3.827   2.059   8.421  0.1779 -0.7852  0.2578
 8833SOL    HW238133   3.687   2.065   8.423 -0.6113  0.1810  2.0495
 8834SOL     OW38134   3.924   2.044   9.082  0.6685 -0.5184 -0.1491
 8834SOL    HW138135   3.861   1.992   9.132  2.1605 -1.2856  0.9100
 8834SOL    HW238136   3.982   1.977   9.047  1.0521 -0.3944  0.2519
 8835SOL     OW38137   4.594   2.833   5.193  0.1547  0.0763  0.5372
 8835SOL    HW138138   4.655   2.889   5.242  0.8301  0.7375 -1.0697
 8835SOL    HW238139   4.656   2.820   5.122 -0.8316  1.2333 -0.5479
 8836SOL     OW38140   1.289   0.258   0.478  0.0736  0.5401  0.6614
 8836SOL    HW138141   1.301   0.213   0.395  1.3130  3.0801 -0.5427
 8836SOL    HW238142   1.335   0.339   0.453  0.6086 -0.3015 -1.0342
 8837SOL     OW38143   2.156   1.524   0.179 -0.2448 -0.5618 -0.0894
 8837SOL    HW138144   2.214   1.468   0.127 -1.5775 -2.8319  0.8817
 8837SOL    HW238145   2.207   1.605   0.173 -0.0043 -0.8020 -1.4773
 8838SOL     OW38146   3.488   2.626  10.405 -0.3404 -0.1295  0.1512
 8838SOL    HW138147   3.501   2.684  10.329  0.0343 -1.5695 -0.8811
 8838SOL    HW238148   3.393   2.623  10.412 -0.6525  1.7198 -3.4756
 8839SOL     OW38149   2.839   1.725   1.944 -0.5237  0.2263 -0.4922
 8839SOL    HW138150   2.876   1.811   1.969  0.4244 -0.9438  2.1833
 8839SOL    HW238151   2.799   1.751   1.861 -0.1369  0.0664 -0.7283
 8840SOL     OW38152   0.596   2.466   5.775  0.2261 -0.2710 -0.2253
 8840SOL    HW138153   0.525   2.511   5.729  1.4963  1.6897 -0.2533
 8840SOL    HW238154   0.558   2.478   5.862 -2.5875 -1.0153 -1.3581
 8841SOL     OW38155   0.108   0.341   9.049 -0.4647  0.0920  0.1560
 8841SOL    HW138156   0.056   0.400   8.995  0.8955  0.1000 -1.1641
 8841SOL    HW238157   0.088   0.260   9.003 -1.0066  0.1309  0.3275
 8842SOL     OW38158   0.805   1.937   8.290  0.3780  0.1867 -0.3737
 8842SOL    HW138159   0.770   1.979   8.369 -0.8683 -0.6266 -0.4876
 8842SOL    HW238160   0.813   1.856   8.341 -0.5273 -0.3193 -1.0450
 8843SOL     OW38161   4.175   2.779   3.203  0.4267  0.0406 -0.3079
 8843SOL    HW138162   4.200   2.764   3.112  3.3027 -0.1452  0.5263
 8843SOL    HW238163   4.094   2.829   3.190 -0.2805 -1.0119  0.1234
 8844SOL     OW38164   3.395   3.248   7.286 -0.1609  0.1826  0.7105
 8844SOL    HW138165   3.350   3.317   7.334  0.0505  0.9344 -0.1664
 8844SOL    HW238166   3.353   3.173   7.328 -1.2185  0.7042  0.6098
 8845SOL     OW38167   3.498   2.599   6.781 -0.1131 -0.0563 -0.0861
 8845SOL    HW138168   3.500   2.655   6.704 -1.4111 -0.9861 -0.7874
 8845SOL    HW238169   3.472   2.666   6.845 -2.2530  0.7063 -1.7777
 8846SOL     OW38170   0.838   3.563   8.395  0.1619 -0.3203  0.3385
 8846SOL    HW138171   0.921   3.605   8.375 -0.1992  0.2000 -0.0721
 8846SOL    HW238172   0.769   3.624   8.369 -0.5372 -0.6405  1.4183
 8847SOL     OW38173   4.065   0.103   6.838 -0.5394  0.1282 -0.6402
 8847SOL    HW138174   4.053   0.063   6.925  3.8289  0.2290  0.0126
 8847SOL    HW238175   4.110   0.182   6.869  0.8696 -0.5489 -0.9204
 8848SOL     OW38176   1.154   3.411   1.585 -0.0575 -0.1612 -0.1701
 8848SOL    HW138177   1.121   3.501   1.591  0.6578  0.1985 -1.6661
 8848SOL    HW238178   1.100   3.365   1.521  0.0696 -0.2412 -0.2212
 8849SOL     OW38179   3.957   1.532  14.887  0.5750  0.1278 -0.4381
 8849SOL    HW138180   3.957   1.571  14.974 -0.0838  2.4180 -1.4479
 8849SOL    HW238181   4.048   1.521  14.862  0.3717  1.2218 -1.6498
 8850SOL     OW38182   0.184   3.098   1.097  0.0731  0.5266  0.1469
 8850SOL    HW138183   0.210   3.160   1.029 -0.7832 -0.6594 -1.2645
 8850SOL    HW238184   0.100   3.137   1.122  0.8879  0.6246  2.6851
 8851SOL     OW38185   2.494   1.534  15.874  0.1730 -0.1552  0.3238
 8851SOL    HW138186   2.569   1.512  15.818 -0.1207 -0.8178  0.1873
 8851SOL    HW238187   2.422   1.535  15.811 -1.1144 -0.1187  1.8129
 8852SOL     OW38188   0.615   1.395   5.064  0.1712 -0.2249  0.1769
 8852SOL    HW138189   0.571   1.477   5.086  0.4650  0.8505 -3.2015
 8852SOL    HW238190   0.557   1.371   4.992 -1.2325  0.0357  1.2177
 8853SOL     OW38191   0.616   3.227   2.221  0.0592 -0.2444 -0.2101
 8853SOL    HW138192   0.599   3.280   2.143 -2.9461 -1.4064 -0.3482
 8853SOL    HW238193   0.711   3.224   2.229  0.0344  3.8248  1.2859
 8854SOL     OW38194   0.089   4.432  14.418  0.1400 -0.2238  1.0333
 8854SOL    HW138195   0.017   4.382  14.379  1.0904  1.0655 -2.4593
 8854SOL    HW238196   0.090   4.393  14.505 -2.2664  0.4280  1.3573
 8855SOL     OW38197   0.016   0.416   6.408 -0.2712 -0.2178 -0.1939
 8855SOL    HW138198   0.024   0.508   6.384 -2.0644 -0.5607 -2.0507
 8855SOL    HW238199   4.662   0.409   6.417 -0.5692  0.4983 -2.7984
 8856SOL     OW38200   0.193   4.133   6.447 -0.4394 -0.6894 -0.4091
 8856SOL    HW138201   0.154   4.078   6.379 -0.3866  0.9688 -1.7880
 8856SOL    HW238202   0.133   4.206   6.434  1.1167  0.5343 -0.6641
 8857SOL     OW38203   3.554   2.025   2.845 -0.2410  0.1041 -0.0644
 8857SOL    HW138204   3.608   1.954   2.879  0.6621  1.1855  0.8095
 8857SOL    HW238205   3.523   1.989   2.762  4.2858 -1.2346 -1.1651
 8858SOL     OW38206   0.600   3.700  15.741  0.0664  0.0102 -0.0774
 8858SOL    HW138207   0.530   3.648  15.703  0.2368  0.9995 -1.7428
 8858SOL    HW238208   0.663   3.634  15.769 -0.5331  0.1109  1.5086
 8859SOL     OW38209   1.117   2.163  16.008 -0.8169 -0.1710  0.2937
 8859SOL    HW138210   1.169   2.083  16.012 -2.0531 -0.9443  1.0818
 8859SOL    HW238211   1.078   2.169  15.921 -0.5117  2.3409  0.3132
 8860SOL     OW38212   4.494   0.460   5.468  0.4600  1.0922  0.3279
 8860SOL    HW138213   4.590   0.454   5.468  0.4112  0.3225 -2.6566
 8860SOL    HW238214   4.486   0.377   5.422  1.6472  2.7140 -2.8228
 8861SOL     OW38215   1.737   2.675   7.238  0.5615  0.2125  1.1339
 8861SOL    HW138216   1.697   2.737   7.177 -1.1171 -2.2922 -0.3157
 8861SOL    HW238217   1.704   2.714   7.319  1.3029  1.9618  0.5758
 8862SOL     OW38218   0.640   0.152   5.023  0.5257  0.6918  0.2296
 8862SOL    HW138219   0.718   0.105   5.055 -1.5684  0.2098  4.5237
 8862SOL    HW238220   0.668   0.157   4.931  2.5564 -2.3718  0.6883
 8863SOL     OW38221   2.947   4.267   8.099 -0.0839  0.3775  0.7689
 8863SOL    HW138222   2.994   4.207   8.040  0.6436  0.3496  1.3800
 8863SOL    HW238223   2.938   4.355   8.062 -1.3904 -0.6702 -1.4347
 8864SOL     OW38224   4.371   1.011   9.970 -0.6114  0.2233 -0.1988
 8864SOL    HW138225   4.401   0.937  10.023  0.7659  0.1012 -1.1588
 8864SOL    HW238226   4.445   1.013   9.909 -1.1191 -0.8324 -0.8449
 8865SOL     OW38227   4.125   2.493   3.542 -0.0191  0.6350 -0.3109
 8865SOL    HW138228   4.097   2.584   3.552  0.8040  0.7059  1.4256
 8865SOL    HW238229   4.166   2.495   3.456 -1.0948  2.1067 -0.8005
 8866SOL     OW38230   3.274   3.347   0.006  0.2633 -0.1937 -0.2711
 8866SOL    HW138231   3.316   3.339  17.682 -0.7055 -1.3640 -0.6371
 8866SOL    HW238232   3.183   3.343  17.738 -0.2509  1.6172  1.0094
 8867SOL     OW38233   2.795   4.283   9.639 -0.1417 -0.2458  0.2745
 8867SOL    HW138234   2.885   4.309   9.622 -0.7527  1.1161 -0.9130
 8867SOL    HW238235   2.793   4.260   9.731 -2.7655 -1.5245 -0.0897
 8868SOL     OW38236   3.598   4.199   8.953  0.1711  0.0170  0.5243
 8868SOL    HW138237   3.626   4.152   8.874  0.0594  1.8414 -0.5852
 8868SOL    HW238238   3.683   4.201   8.996 -0.2543  1.6405  1.2768
 8869SOL     OW38239   0.150   1.907   1.796 -0.2859 -0.1922  0.6375
 8869SOL    HW138240   0.193   1.836   1.749 -0.1444  0.4577 -0.2033
 8869SOL    HW238241   0.059   1.878   1.796  0.6492 -3.1041 -1.0704
 8870SOL     OW38242   2.871   3.581  12.389  0.1140  0.2043 -0.3661
 8870SOL    HW138243   2.872   3.629  12.306  1.3607  1.1245  0.1806
 8870SOL    HW238244   2.810   3.510  12.368  2.8545 -1.8047 -1.4026
 8871SOL     OW38245   2.568   0.961   1.456 -0.0533  0.7414 -0.0333
 8871SOL    HW138246   2.640   0.970   1.393  0.5674  1.0942  0.7172
 8871SOL    HW238247   2.553   0.867   1.451 -1.8321  1.0321 -0.0408
 8872SOL     OW38248   1.582   0.362   6.192 -0.3075  0.1186  0.1288
 8872SOL    HW138249   1.578   0.365   6.288  2.2313 -0.1883  0.2512
 8872SOL    HW238250   1.671   0.329   6.185 -0.2607  0.2947 -0.0997
 8873SOL     OW38251   3.048   0.021   1.928  0.0469  0.1003  0.0882
 8873SOL    HW138252   3.141   0.017   1.903 -0.1665 -2.8685 -0.2499
 8873SOL    HW238253   3.034   4.673   1.962  1.6312 -0.6957 -1.2973
 8874SOL     OW38254   3.812   0.065  14.173  0.2098  0.7060  0.2384
 8874SOL    HW138255   3.766   0.049  14.256 -3.2845  3.5731 -1.1499
 8874SOL    HW238256   3.736   0.067  14.114  1.0965  1.4261 -0.8743
 8875SOL     OW38257   0.536   0.061   4.553 -0.0025  0.6687  0.8143
 8875SOL    HW138258   0.488   0.050   4.471  3.9291 -2.4704 -1.1183
 8875SOL    HW238259   0.480   0.008   4.610  0.7224  0.9791  1.8092
 8876SOL     OW38260   2.894   0.330   5.561 -0.3936  0.0102  0.6192
 8876SOL    HW138261   2.883   0.419   5.526  0.1584 -0.4590 -0.7636
 8876SOL    HW238262   2.803   0.301   5.547  0.0338 -0.5960 -0.9883
 8877SOL     OW38263   4.459   2.924   5.925  0.3605 -0.5646 -0.0748
 8877SOL    HW138264   4.390   2.884   5.977 -1.2196  2.2606 -0.0489
 8877SOL    HW238265   4.447   2.890   5.837  1.0299 -0.5496 -0.1757
 8878SOL     OW38266   3.324   0.325   4.332  0.4378  0.1973  0.0527
 8878SOL    HW138267   3.384   0.395   4.358  1.6498 -1.6489  2.1872
 8878SOL    HW238268   3.297   0.285   4.414 -0.1362 -1.8358 -1.1089
 8879SOL     OW38269   2.306   2.711   3.554  0.2859  0.3285  0.6579
 8879SOL    HW138270   2.270   2.623   3.543 -0.3261  0.4796  1.4518
 8879SOL    HW238271   2.227   2.766   3.557 -0.9769 -1.4434 -0.0808
 8880SOL     OW38272   2.525   2.823   5.183 -0.1617 -0.2365  0.7584
 8880SOL    HW138273   2.507   2.730   5.170 -1.5597  0.4402 -2.2375
 8880SOL    HW238274   2.527   2.850   5.091 -2.6157 -1.5428  0.3066
 8881SOL     OW38275   0.194   4.589   2.423  0.5834  0.6266 -0.5035
 8881SOL    HW138276   0.137   4.660   2.452  0.2374 -0.0322  0.4148
 8881SOL    HW238277   0.146   4.509   2.442 -2.0558  2.4370  0.4501
 8882SOL     OW38278   1.792   1.399   7.921 -0.0837 -0.6570 -0.2936
 8882SOL    HW138279   1.707   1.380   7.882  0.1761 -1.0669 -0.6661
 8882SOL    HW238280   1.786   1.494   7.924 -2.4268 -0.8114 -0.5357
 8883SOL     OW38281   4.322   3.210   8.888  0.4482 -0.1396  0.2408
 8883SOL    HW138282   4.307   3.223   8.981  0.9904  1.1685  0.1521
 8883SOL    HW238283   4.273   3.130   8.872 -0.3840  0.3884  0.1466
 8884SOL     OW38284   3.186   3.939   6.602  0.1925  0.0153  0.1906
 8884SOL    HW138285   3.126   3.871   6.635  2.6045 -3.5512 -2.8165
 8884SOL    HW238286   3.142   3.996   6.540  0.0684 -0.6415 -0.3297
 8885SOL     OW38287   3.871   1.349   2.404  0.1583 -0.6572  0.1567
 8885SOL    HW138288   3.888   1.359   2.310  1.7203  2.2112  0.7648
 8885SOL    HW238289   3.901   1.432   2.441 -3.6039  1.7061 -2.0162
 8886SOL     OW38290   2.286   0.111   1.753 -0.3465 -0.0207 -0.0568
 8886SOL    HW138291   2.204   0.161   1.753 -0.3844 -0.0929  1.9885
 8886SOL    HW238292   2.317   0.127   1.842 -4.2849 -4.2089  2.0820
 8887SOL     OW38293   3.898   0.065   9.885  0.3200  0.1395  0.1784
 8887SOL    HW138294   3.957   0.036   9.954  0.7715  0.5786 -0.0210
 8887SOL    HW238295   3.956   0.057   9.809  0.8148 -2.2866  0.8129
 8888SOL     OW38296   0.285   4.312   6.726 -0.4774 -0.0288  0.5634
 8888SOL    HW138297   0.273   4.230   6.678  1.1211 -0.2019  0.4479
 8888SOL    HW238298   0.287   4.287   6.818 -0.1768 -1.7521  0.0838
 8889SOL     OW38299   2.516   1.195   9.124  0.3955  0.2768  0.0082
 8889SOL    HW138300   2.528   1.114   9.174  0.7987 -0.2017 -0.8637
 8889SOL    HW238301   2.514   1.262   9.193 -0.2158 -0.7989  1.0327
 8890SOL     OW38302   0.702   2.339  16.154 -0.1846  0.2060  0.4463
 8890SOL    HW138303   0.674   2.273  16.091 -1.7814  0.9948  0.3397
 8890SOL    HW238304   0.787   2.311  16.189  0.0313 -0.1140 -0.3303
 8891SOL     OW38305   4.404   1.449   7.861 -0.2679 -0.1388 -0.2626
 8891SOL    HW138306   4.320   1.408   7.843 -0.1993 -0.2224 -0.3887
 8891SOL    HW238307   4.374   1.540   7.859  1.3946  0.4020 -0.5503
 8892SOL     OW38308   0.792   3.291   3.952  0.5136  0.3587  0.2279
 8892SOL    HW138309   0.804   3.238   3.873  0.8070  1.8164 -0.7152
 8892SOL    HW238310   0.698   3.308   3.960  0.4295 -1.0060  1.9867
 8893SOL     OW38311   0.864   4.099  16.026 -0.3637 -0.1646  0.2315
 8893SOL    HW138312   0.853   4.186  15.989 -0.5547 -0.0359  0.5995
 8893SOL    HW238313   0.801   4.043  15.981 -1.3218  0.4380  0.8314
 8894SOL     OW38314   3.500   3.971   1.717  0.0192 -0.2647 -0.0547
 8894SOL    HW138315   3.576   3.928   1.757 -0.1503  0.5928  1.1678
 8894SOL    HW238316   3.534   4.005   1.634 -4.1634 -1.8677 -2.4170
 8895SOL     OW38317   0.561   3.033   4.556 -0.9536  0.2582  0.5605
 8895SOL    HW138318   0.585   2.965   4.494 -1.8105  0.4159  0.0513
 8895SOL    HW238319   0.529   3.097   4.493 -1.3083  0.1283  0.6056
 8896SOL     OW38320   3.277   3.286  11.201  0.3600  0.3497 -0.2444
 8896SOL    HW138321   3.242   3.217  11.144 -1.0823  0.9444 -0.0550
 8896SOL    HW238322   3.285   3.358  11.139  0.6490  0.8265  0.3464
 8897SOL     OW38323   1.872   4.349   6.895 -0.2170 -0.4097 -0.3645
 8897SOL    HW138324   1.878   4.286   6.967  2.0330 -0.8286 -0.9090
 8897SOL    HW238325   1.826   4.414   6.948 -1.5060 -1.1092 -0.6305
 8898SOL     OW38326   0.166   1.436   6.887 -0.1273 -0.4784  0.2685
 8898SOL    HW138327   0.142   1.483   6.808  0.4161 -0.3164  0.1977
 8898SOL    HW238328   0.131   1.349   6.866 -1.5914 -0.0244  0.8438
 8899SOL     OW38329   2.101   3.326   8.685  0.6110 -0.1946 -0.4330
 8899SOL    HW138330   2.039   3.271   8.732  0.1000  1.8962  1.3344
 8899SOL    HW238331   2.119   3.267   8.611 -0.4066 -0.0791 -0.7717
 8900SOL     OW38332   2.085   3.191   0.500 -0.0242  0.5789  0.4431
 8900SOL    HW138333   2.032   3.210   0.577 -0.2864 -0.4851  0.5361
 8900SOL    HW238334   2.030   3.226   0.430  0.2820 -0.3552 -0.2732
 8901SOL     OW38335   0.848   2.647   6.201  0.3245  0.3627 -0.1065
 8901SOL    HW138336   0.876   2.673   6.289  2.2716 -1.7020 -0.1244
 8901SOL    HW238337   0.773   2.705   6.188  0.3458  0.6415  0.9696
 8902SOL     OW38338   2.142   4.157   3.200  0.2273  0.0354 -0.2295
 8902SOL    HW138339   2.089   4.234   3.219 -3.3220 -2.7126  1.0359
 8902SOL    HW238340   2.128   4.105   3.279  0.3285 -0.1884 -0.3578
 8903SOL     OW38341   4.041   2.091   2.541 -0.3000 -0.0511  0.3269
 8903SOL    HW138342   4.091   2.161   2.583  0.0123 -0.2916  0.3539
 8903SOL    HW238343   4.098   2.017   2.560 -0.3878 -0.7116 -1.9708
 8904SOL     OW38344   2.309   0.743  15.817 -0.2890  0.1912  0.1729
 8904SOL    HW138345   2.393   0.788  15.806 -0.1441 -0.6696 -2.2469
 8904SOL    HW238346   2.345   0.655  15.827 -1.6338 -0.3387  0.3207
 8905SOL     OW38347   2.673   2.698   0.834 -0.2235  0.3723  0.0290
 8905SOL    HW138348   2.670   2.650   0.752  0.1152  0.8465 -0.2589
 8905SOL    HW238349   2.694   2.623   0.890 -2.5124 -0.3387 -0.0866
 8906SOL     OW38350   4.569   2.591   0.201  0.3998 -0.4263 -0.1093
 8906SOL    HW138351   4.527   2.513   0.239 -0.1597  1.1880  2.5404
 8906SOL    HW238352   4.608   2.554   0.122  0.5646 -2.3439  0.8400
 8907SOL     OW38353   4.205   1.991   6.366 -0.1305 -0.0080  0.4219
 8907SOL    HW138354   4.161   2.068   6.402 -3.0260 -0.9649 -1.0747
 8907SOL    HW238355   4.262   2.030   6.299  0.0659 -1.9427 -0.5237
 8908SOL     OW38356   2.098   1.362  17.578  0.1061  0.4817 -0.3638
 8908SOL    HW138357   2.174   1.318  17.540  0.9619  1.7516 -0.1307
 8908SOL    HW238358   2.149   1.389  17.654 -1.3658 -0.5777  0.9912
 8909SOL     OW38359   4.557   0.152   8.243  0.3516 -0.0007 -0.3830
 8909SOL    HW138360   4.614   0.191   8.177 -0.4230  0.6868 -0.6404
 8909SOL    HW238361   4.514   0.232   8.273  1.4574 -0.2805  1.9635
 8910SOL     OW38362   3.226   2.917  12.935  0.0303 -0.0041 -0.3500
 8910SOL    HW138363   3.283   2.939  13.008  0.7586 -1.0855 -0.5900
 8910SOL    HW238364   3.255   2.833  12.901  0.7516 -0.3686  1.1530
 8911SOL     OW38365   2.925   4.320   5.991 -0.0521  0.0529  0.0492
 8911SOL    HW138366   2.969   4.268   6.058 -1.3266  2.1031  2.4329
 8911SOL    HW238367   2.906   4.253   5.925  1.1475  0.4263 -0.6750
 8912SOL     OW38368   3.446   0.540   5.052 -0.4953 -0.6485  0.4072
 8912SOL    HW138369   3.416   0.493   5.130  0.5131 -1.2318  0.4373
 8912SOL    HW238370   3.443   0.630   5.085  0.9926 -0.5426  0.2346
 8913SOL     OW38371   0.060   0.847   2.489  0.0019  0.2811 -0.5953
 8913SOL    HW138372   0.080   0.759   2.520  0.1946  1.3672  2.3829
 8913SOL    HW238373   4.712   0.824   2.466  0.4514 -0.0762 -1.9378
 8914SOL     OW38374   3.633   1.085   7.603  0.5971  0.2001 -0.1435
 8914SOL    HW138375   3.694   1.152   7.572 -0.8533  0.6859 -1.9233
 8914SOL    HW238376   3.599   1.134   7.678  0.8438 -0.2520  0.2686
 8915SOL     OW38377   0.410   2.789  11.821 -0.5737 -0.1071 -0.1541
 8915SOL    HW138378   0.416   2.703  11.780  0.7482 -1.7732  3.6165
 8915SOL    HW238379   0.358   2.836  11.754  0.3571  0.2399 -0.6300
 8916SOL     OW38380   2.454   3.244  14.823  0.3891  0.1666  0.2035
 8916SOL    HW138381   2.482   3.207  14.739 -2.5329  0.3803 -0.9021
 8916SOL    HW238382   2.491   3.332  14.828 -2.5193  1.4426 -0.2231
 8917SOL     OW38383   3.682   0.327   8.287  0.1352  0.4239  0.7315
 8917SOL    HW138384   3.677   0.231   8.293  1.2710  0.5722  4.2633
 8917SOL    HW238385   3.662   0.352   8.377 -2.3635  0.7360  0.0943
 8918SOL     OW38386   0.631   0.509   2.964 -0.4437 -0.3244 -0.7094
 8918SOL    HW138387   0.564   0.445   2.938 -2.2002  2.0716 -2.0357
 8918SOL    HW238388   0.705   0.453   2.988 -1.9825 -1.7097  0.7790
 8919SOL     OW38389   4.292   3.786   6.974 -0.3660 -0.4929  0.0422
 8919SOL    HW138390   4.333   3.872   6.964 -0.4940 -0.3402  0.8574
 8919SOL    HW238391   4.221   3.814   6.916 -2.2835 -1.6989  1.7975
 8920SOL     OW38392   4.009   0.942   0.274  0.0408  0.1476 -0.2543
 8920SOL    HW138393   3.997   0.854   0.312  0.5901  0.3235  0.3210
 8920SOL    HW238394   4.072   0.914   0.208 -0.8875 -0.6934 -0.7942
 8921SOL     OW38395   1.932   4.251   3.951 -0.1656  0.0947 -0.1306
 8921SOL    HW138396   1.969   4.261   4.039  2.0151 -0.0430 -1.0278
 8921SOL    HW238397   2.014   4.266   3.905  1.4571  0.7661  2.9662
 8922SOL     OW38398   1.524   0.005   5.824  0.6355  0.1848 -0.1845
 8922SOL    HW138399   1.490   4.722   5.910 -2.4062 -0.7109 -1.6398
 8922SOL    HW238400   1.595   4.684   5.808 -0.3907 -0.2745 -2.9411
 8923SOL     OW38401   4.161   4.442   3.088  0.1035 -0.3051  0.4189
 8923SOL    HW138402   4.148   4.517   3.030  0.4068  0.2372  1.0505
 8923SOL    HW238403   4.255   4.452   3.104  0.3383  0.8711 -1.7198
 8924SOL     OW38404   1.000   2.319  15.459 -0.6017 -0.0956  0.2957
 8924SOL    HW138405   1.058   2.302  15.533 -0.9718 -1.2200  0.3190
 8924SOL    HW238406   1.033   2.267  15.386  0.4101  1.5895 -0.4572
 8925SOL     OW38407   1.058   0.038   3.248  0.2900  0.0895  0.0082
 8925SOL    HW138408   0.963   0.025   3.251  0.1750  0.9138  0.0775
 8925SOL    HW238409   1.077   0.063   3.339  0.7342 -0.9253  0.1878
 8926SOL     OW38410   0.816   1.544   6.524 -0.5221 -0.0311  0.2154
 8926SOL    HW138411   0.858   1.529   6.608 -1.0939 -0.1736  0.4728
 8926SOL    HW238412   0.726   1.516   6.541 -0.5944  0.6075  0.8853
 8927SOL     OW38413   2.217   3.868   9.336  0.4252  0.2912  0.1812
 8927SOL    HW138414   2.196   3.839   9.247 -1.2927 -1.1774  1.0878
 8927SOL    HW238415   2.183   3.799   9.392  4.4190 -0.0584  2.1568
 8928SOL     OW38416   1.600   1.601   1.698  0.2215  0.7259  0.0731
 8928SOL    HW138417   1.600   1.682   1.750 -0.8217  1.6943 -1.4115
 8928SOL    HW238418   1.558   1.631   1.617  0.5688  2.0203  0.3639
 8929SOL     OW38419   4.489   0.190   9.514 -0.2000 -0.4443 -0.1677
 8929SOL    HW138420   4.474   0.248   9.589 -0.9023 -1.5280  0.5274
 8929SOL    HW238421   4.420   0.216   9.454 -0.4333  1.7402  1.0288
 8930SOL     OW38422   2.728   4.549   3.817 -0.6427 -0.1568  0.0728
 8930SOL    HW138423   2.706   4.487   3.747 -3.2964  1.0937 -0.2146
 8930SOL    HW238424   2.700   4.624   3.764 -0.5703  1.4239  2.2921
 8931SOL     OW38425   1.283   1.530  12.226  0.3380 -0.1616 -0.2908
 8931SOL    HW138426   1.282   1.519  12.131 -0.2597 -1.3714 -0.1416
 8931SOL    HW238427   1.363   1.478  12.236  1.3750  1.5869  0.5747
 8932SOL     OW38428   3.194   4.448   8.670 -0.1718 -0.0330  0.3825
 8932SOL    HW138429   3.224   4.432   8.760 -1.5057 -2.1416  0.4304
 8932SOL    HW238430   3.210   4.360   8.636 -1.8670  0.2028 -0.9991
 8933SOL     OW38431   0.602   1.535  16.271  0.0610  0.6714 -0.3655
 8933SOL    HW138432   0.509   1.523  16.254  0.2726  0.0034 -1.0550
 8933SOL    HW238433   0.613   1.531  16.366 -3.9721  1.1715  0.1096
 8934SOL     OW38434   0.039   0.609   5.419 -0.7756  0.2135 -0.2580
 8934SOL    HW138435   0.112   0.661   5.386  0.5994 -0.5713  1.5784
 8934SOL    HW238436   4.710   0.675   5.415 -1.8984 -1.0858 -2.1134
 8935SOL     OW38437   0.249   0.467   1.828  0.1379  0.0668  0.0697
 8935SOL    HW138438   0.255   0.547   1.880  0.8480  0.5155 -0.7037
 8935SOL    HW238439   0.342   0.453   1.810 -0.0502  0.6271 -1.3564
 8936SOL     OW38440   4.594   3.293  11.088  0.3646 -0.2805  0.1086
 8936SOL    HW138441   4.598   3.375  11.138 -2.7897 -0.3793  0.5503
 8936SOL    HW238442   4.617   3.320  11.000 -2.1170 -2.4811 -1.2342
 8937SOL     OW38443   3.013   4.049   8.463  0.8160  0.4440 -0.2850
 8937SOL    HW138444   2.918   4.056   8.452  0.7506  2.0473  1.1807
 8937SOL    HW238445   3.032   4.136   8.427 -1.8112 -0.1017 -2.9303
 8938SOL     OW38446   0.934   1.699   2.483 -0.4230  0.0191 -0.3231
 8938SOL    HW138447   0.924   1.650   2.401 -1.2126  0.1742 -0.3201
 8938SOL    HW238448   1.025   1.726   2.472  0.0123 -1.0353  0.5962
 8939SOL     OW38449   4.010   4.688  17.506 -0.5628 -0.1582  0.3474
 8939SOL    HW138450   3.927   4.670  17.461 -1.1040  3.7397 -0.2480
 8939SOL    HW238451   4.010   4.613  17.564 -1.9537 -1.0710 -0.8134
 8940SOL     OW38452   2.946   3.600   4.533 -0.3490  0.0110 -0.5756
 8940SOL    HW138453   2.931   3.694   4.538 -1.6961 -0.3177  1.4815
 8940SOL    HW238454   2.860   3.586   4.494 -0.2618  0.8595 -1.0644
 8941SOL     OW38455   3.125   1.519   5.906 -0.3195  0.3476 -0.1017
 8941SOL    HW138456   3.178   1.589   5.944 -1.9353  0.7659  1.3908
 8941SOL    HW238457   3.051   1.562   5.863 -0.8530 -1.0476 -0.5924
 8942SOL     OW38458   0.524   0.102   6.534 -0.0631  0.8734  0.4416
 8942SOL    HW138459   0.497   0.194   6.542  0.3384  1.1766 -1.6605
 8942SOL    HW238460   0.538   0.074   6.624 -1.3690  0.7886  0.6280
 8943SOL     OW38461   2.746   2.193   3.202  0.3858  0.1022  0.1872
 8943SOL    HW138462   2.670   2.232   3.245 -0.1042 -1.9884  1.2131
 8943SOL    HW238463   2.771   2.127   3.267 -0.6275  1.2217  1.7248
 8944SOL     OW38464   2.748   0.064   6.039  0.4170  0.1331  0.2416
 8944SOL    HW138465   2.816   0.011   5.997  0.3114  1.2653 -1.3451
 8944SOL    HW238466   2.738   0.140   5.983 -2.0460 -1.0010 -0.8553
 8945SOL     OW38467   1.906   3.185   7.383  0.1070  0.7154  0.0175
 8945SOL    HW138468   1.969   3.134   7.433 -0.1558 -0.9187 -1.3240
 8945SOL    HW238469   1.972   3.248   7.352 -1.4037  2.8073  1.0637
 8946SOL     OW38470   1.057   2.138   4.659  0.0571 -0.0879  0.1793
 8946SOL    HW138471   1.074   2.081   4.584 -0.6274 -2.2939  1.6690
 8946SOL    HW238472   1.020   2.217   4.620 -0.3986 -0.3808  0.0220
 8947SOL     OW38473   2.585   0.549   2.537  0.2582  0.4341  0.5014
 8947SOL    HW138474   2.651   0.559   2.469 -1.5013 -1.0109 -1.4037
 8947SOL    HW238475   2.595   0.625   2.595  0.2118  0.4597  0.4756
 8948SOL     OW38476   0.177   3.672  14.198 -0.4576  0.1055 -0.4274
 8948SOL    HW138477   0.185   3.613  14.123 -2.5432 -2.4412  1.3544
 8948SOL    HW238478   0.215   3.755  14.167 -1.1243  0.4982 -0.1961
 8949SOL     OW38479   1.297   0.894   8.520  0.2898 -0.4258 -0.6710
 8949SOL    HW138480   1.253   0.832   8.463  0.4231  0.1880 -1.4470
 8949SOL    HW238481   1.358   0.837   8.567  0.3144  2.7545  3.2885
 8950SOL     OW38482   3.673   3.639   8.832 -0.0642 -0.3014 -0.1859
 8950SOL    HW138483   3.589   3.595   8.819 -1.2632  2.6052 -2.1083
 8950SOL    HW238484   3.675   3.687   8.750 -1.3434  0.3906  0.1914
 8951SOL     OW38485   1.698   0.236   4.604 -0.2769 -0.6183  0.3064
 8951SOL    HW138486   1.779   0.223   4.654  1.4087  2.5141 -1.5820
 8951SOL    HW238487   1.640   0.180   4.654  0.2936 -0.3112  1.3138
 8952SOL     OW38488   0.528   1.286  12.335  0.3246  0.6118  0.2691
 8952SOL    HW138489   0.565   1.352  12.394  1.5763  0.9092 -0.8308
 8952SOL    HW238490   0.509   1.222  12.404  2.4104 -0.3085  0.0034
 8953SOL     OW38491   0.220   2.496   6.362 -0.6147 -0.5206 -0.0801
 8953SOL    HW138492   0.150   2.495   6.296 -2.8391 -0.8270  2.2879
 8953SOL    HW238493   0.225   2.403   6.382  1.0827 -0.1506  1.1421
 8954SOL     OW38494   4.719   4.736  13.543 -0.2189  0.0841  0.1929
 8954SOL    HW138495   4.709   4.701  13.631 -1.4766  0.9399  0.3837
 8954SOL    HW238496   4.723   0.089  13.560  0.9019  0.1873 -0.6356
 8955SOL     OW38497   0.898   1.440   6.760  0.3469 -0.3885  0.6648
 8955SOL    HW138498   0.980   1.394   6.743 -0.6207 -1.3323 -1.3976
 8955SOL    HW238499   0.828   1.375   6.769 -0.2536  0.1841  0.1362
 8956SOL     OW38500   2.217   1.259   3.720 -0.2779 -0.2689 -0.4318
 8956SOL    HW138501   2.258   1.268   3.634 -0.5244  1.9577 -0.3197
 8956SOL    HW238502   2.295   1.252   3.775 -0.3981  1.0098 -0.0790
 8957SOL     OW38503   1.716   3.871  11.386 -0.8307  0.6210 -0.2633
 8957SOL    HW138504   1.641   3.868  11.327 -0.7633 -0.4773 -0.2820
 8957SOL    HW238505   1.668   3.929  11.445 -0.4766 -0.1830  0.8029
 8958SOL     OW38506   3.283   1.538   6.659  0.3620  0.2224  0.1457
 8958SOL    HW138507   3.355   1.485   6.692  1.2818  0.5609 -1.3565
 8958SOL    HW238508   3.333   1.618   6.643  0.3346 -0.0774 -1.4024
 8959SOL     OW38509   1.094   1.610   8.686  0.1778  0.5412 -0.3488
 8959SOL    HW138510   1.087   1.697   8.725 -1.6401  0.4251 -0.4100
 8959SOL    HW238511   1.181   1.581   8.712 -0.2727 -2.2405 -1.9576
 8960SOL     OW38512   2.739   1.227   5.855  0.0576  0.4237  0.0941
 8960SOL    HW138513   2.664   1.198   5.907  0.0943 -0.5849 -0.4199
 8960SOL    HW238514   2.744   1.321   5.871  2.0143  0.5821 -1.3604
 8961SOL     OW38515   4.370   0.067  11.036  0.3196  0.6794  0.1715
 8961SOL    HW138516   4.443   0.085  10.977  0.3058 -0.6615 -0.2546
 8961SOL    HW238517   4.404   0.007  11.103 -1.2326 -1.8107 -1.2805
 8962SOL     OW38518   3.492   1.790   6.969 -0.3241 -0.0672  0.0258
 8962SOL    HW138519   3.440   1.771   7.047 -0.8715 -1.8702 -0.7789
 8962SOL    HW238520   3.478   1.884   6.975 -2.6087 -0.3913 -0.3078
 8963SOL     OW38521   1.999   0.141   2.454  0.0016  0.6528  0.1008
 8963SOL    HW138522   1.911   0.152   2.419  0.9896 -1.6901 -3.1455
 8963SOL    HW238523   2.058   0.167   2.383  1.4403 -0.3151  0.9315
 8964SOL     OW38524   3.484   0.337   0.112 -0.4632 -0.3023  0.1064
 8964SOL    HW138525   3.569   0.367   0.081 -1.1590  0.4593 -1.0939
 8964SOL    HW238526   3.503   0.246   0.134  0.9893 -0.1221 -0.4429
 8965SOL     OW38527   4.197   3.297   2.445 -0.1576  0.2890 -0.1843
 8965SOL    HW138528   4.244   3.368   2.487  1.2957 -0.3315 -0.7530
 8965SOL    HW238529   4.123   3.298   2.506 -1.2406  0.1842 -1.4795
 8966SOL     OW38530   1.168   3.892  12.050 -0.2732 -0.4809 -0.3430
 8966SOL    HW138531   1.133   3.804  12.037  1.6249 -1.2129 -0.4990
 8966SOL    HW238532   1.090   3.945  12.061  1.6199  2.1214  0.6177
 8967SOL     OW38533   0.792   0.923   3.343 -0.1035 -0.3834 -0.4944
 8967SOL    HW138534   0.752   0.853   3.395 -1.5963  0.7487 -0.1005
 8967SOL    HW238535   0.776   0.893   3.254 -2.4637 -1.0230  0.1374
 8968SOL     OW38536   0.026   3.668   8.432 -0.3256 -0.0312 -0.1063
 8968SOL    HW138537   4.672   3.684   8.433 -0.2680  0.3724 -1.8520
 8968SOL    HW238538   0.030   3.618   8.351  0.0555  1.2800 -0.8961
 8969SOL     OW38539   0.456   1.004   5.105 -0.0193 -0.6355 -0.5394
 8969SOL    HW138540   0.528   0.951   5.071  2.1866  0.8111  1.8219
 8969SOL    HW238541   0.424   1.065   5.038  0.6496  1.6204  1.1854
 8970SOL     OW38542   3.914   3.531   8.824  0.2613 -0.9314  0.0865
 8970SOL    HW138543   3.954   3.518   8.910  0.6237  0.6225  0.1539
 8970SOL    HW238544   3.820   3.539   8.841  0.2814 -4.8663  1.8414
 8971SOL     OW38545   0.064   2.142   5.598  0.8800  0.3516 -0.0118
 8971SOL    HW138546   0.010   2.154   5.676  1.9743  1.2255  0.6105
 8971SOL    HW238547   0.149   2.163   5.636 -0.5300  2.6586  1.8981
 8972SOL     OW38548   3.863   2.786   6.167 -0.2861  0.1484 -0.1313
 8972SOL    HW138549   3.930   2.855   6.161  0.3742 -0.4780  0.0455
 8972SOL    HW238550   3.879   2.743   6.251 -0.9143 -0.6105 -0.4115
 8973SOL     OW38551   0.945   3.442   3.535 -0.1816  0.1196  0.0740
 8973SOL    HW138552   1.017   3.471   3.478 -1.3517 -0.7350 -1.8451
 8973SOL    HW238553   0.899   3.372   3.488  1.1753  1.0263 -2.6518
 8974SOL     OW38554   3.245   2.677   0.487 -0.0898  0.1143  0.5329
 8974SOL    HW138555   3.200   2.729   0.554 -2.6773 -1.3875 -0.0601
 8974SOL    HW238556   3.182   2.607   0.471  1.8877 -1.1283 -1.8733
 8975SOL     OW38557   3.788   3.096  14.924 -0.0459 -0.3364 -0.4384
 8975SOL    HW138558   3.852   3.077  14.855  1.0633 -0.0120  0.4984
 8975SOL    HW238559   3.742   3.174  14.895  0.2900 -0.0986 -0.3339
 8976SOL     OW38560   0.724   0.199   9.129 -0.0983  0.0080  0.1753
 8976SOL    HW138561   0.670   0.160   9.060 -0.9956 -1.8835  1.9262
 8976SOL    HW238562   0.791   0.131   9.135 -0.4867 -0.8151 -4.6407
 8977SOL     OW38563   1.333   0.845   6.429 -0.4742 -0.1956  0.8766
 8977SOL    HW138564   1.390   0.842   6.506 -1.3882 -1.6319  1.4957
 8977SOL    HW238565   1.402   0.878   6.371 -0.0967 -1.1042  0.7901
 8978SOL     OW38566   1.292   0.844  11.632 -0.4093  0.0742  0.5498
 8978SOL    HW138567   1.210   0.795  11.631 -0.3297 -0.0545 -0.4849
 8978SOL    HW238568   1.294   0.901  11.554 -0.8058 -1.4537 -0.5840
 8979SOL     OW38569   3.929   2.721  13.460  0.0831 -0.3669  0.7733
 8979SOL    HW138570   3.989   2.657  13.498  1.0195  0.1759  0.2270
 8979SOL    HW238571   3.987   2.739  13.385 -2.1430  0.3604 -0.7627
 8980SOL     OW38572   1.627   3.866  15.524 -0.0733 -0.0234  0.8241
 8980SOL    HW138573   1.608   3.815  15.602  0.2090 -1.8236 -0.2729
 8980SOL    HW238574   1.617   3.959  15.545  3.9932  0.4948  0.5845
 8981SOL     OW38575   4.594   2.069   6.186 -0.0232 -0.1292 -0.8949
 8981SOL    HW138576   4.567   2.125   6.260 -0.9580 -0.8127 -0.7233
 8981SOL    HW238577   4.511   2.050   6.141 -0.2047 -1.6078  0.0657
 8982SOL     OW38578   1.782   2.487   9.334 -0.2921 -0.3887  0.5388
 8982SOL    HW138579   1.709   2.426   9.342 -0.8923  0.6126  2.6444
 8982SOL    HW238580   1.866   2.445   9.350  0.1195  0.6950  1.2239
 8983SOL     OW38581   2.557   3.389   4.977  1.0572 -0.3271  0.4201
 8983SOL    HW138582   2.464   3.407   4.989  1.7305  0.6609  4.1997
 8983SOL    HW238583   2.548   3.358   4.887  2.1746  0.0953  0.1602
 8984SOL     OW38584   0.568   0.381   1.027 -0.2691  0.2343 -0.5615
 8984SOL    HW138585   0.553   0.435   0.949  1.0687  0.2302 -0.8283
 8984SOL    HW238586   0.562   0.299   0.979  0.4854  0.3035 -0.7843
 8985SOL     OW38587   0.745   2.360  12.462 -0.0395  0.7693 -0.2256
 8985SOL    HW138588   0.716   2.284  12.412 -1.9790  2.1144 -1.1208
 8985SOL    HW238589   0.802   2.401  12.396  0.8249  1.0865  0.7093
 8986SOL     OW38590   2.960   4.328  10.819 -0.7515  0.6729  0.3746
 8986SOL    HW138591   3.052   4.343  10.840 -0.4945  1.9261 -1.6986
 8986SOL    HW238592   2.962   4.326  10.723 -0.6541 -0.3019  0.3987
 8987SOL     OW38593   0.929   0.970   0.454 -0.0053  0.0283 -0.4149
 8987SOL    HW138594   0.973   0.953   0.370 -0.0086 -0.7333 -0.2558
 8987SOL    HW238595   0.869   1.038   0.421 -1.6104 -1.7636 -1.2201
 8988SOL     OW38596   4.552   4.243   4.360  0.3188 -0.8474  0.0447
 8988SOL    HW138597   4.619   4.286   4.412 -0.1498 -1.3804  1.0786
 8988SOL    HW238598   4.587   4.272   4.275  1.6730 -0.6207  0.6884
 8989SOL     OW38599   0.683   1.555   2.648 -0.1377  0.4902  0.0054
 8989SOL    HW138600   0.649   1.486   2.590  0.3390  1.1047 -1.0039
 8989SOL    HW238601   0.703   1.502   2.725 -0.7395 -0.6060 -0.5927
 8990SOL     OW38602   3.013   3.400   4.308  0.0975 -0.1281 -0.1014
 8990SOL    HW138603   3.090   3.344   4.298  0.0229 -0.1478 -0.5926
 8990SOL    HW238604   3.039   3.490   4.289  1.8753 -1.1061 -2.2642
 8991SOL     OW38605   2.256   1.304   7.260 -0.0149 -0.0866  0.0642
 8991SOL    HW138606   2.203   1.367   7.212 -1.4137 -0.1621  1.5185
 8991SOL    HW238607   2.189   1.260   7.313 -0.5268 -0.1181 -0.6019
 8992SOL     OW38608   0.531   0.247  12.250  0.2816  0.0914  0.2025
 8992SOL    HW138609   0.449   0.201  12.231  0.2575  1.1725 -2.2543
 8992SOL    HW238610   0.541   0.291  12.166  0.3270  0.4977  0.4235
 8993SOL     OW38611   3.725   4.716   5.396 -0.1570 -0.8691  0.5370
 8993SOL    HW138612   3.671   4.731   5.474  1.1432 -2.7458  1.7824
 8993SOL    HW238613   3.746   4.623   5.393 -1.6401 -1.1743 -0.5741
 8994SOL     OW38614   1.578   1.295   2.733  0.4001  0.2189 -0.2772
 8994SOL    HW138615   1.619   1.225   2.784 -1.8833 -1.3698 -0.6401
 8994SOL    HW238616   1.494   1.256   2.708  1.1864 -1.4501 -0.2665
 8995SOL     OW38617   3.107   1.963   6.786  0.0604 -0.0634  0.1421
 8995SOL    HW138618   3.161   1.947   6.863  0.1033 -0.2806  0.0694
 8995SOL    HW238619   3.084   1.876   6.753  0.7084 -1.2662  2.8692
 8996SOL     OW38620   0.978   0.032   5.983  0.2144  0.4411 -0.0164
 8996SOL    HW138621   0.975   0.045   6.078  0.8200 -3.5929  0.5738
 8996SOL    HW238622   1.016   4.685   5.984 -1.4639 -0.2511  1.3448
 8997SOL     OW38623   0.495   0.240   0.800  0.1472 -0.2743 -0.2666
 8997SOL    HW138624   0.426   0.303   0.782  1.5690  2.0554  2.5260
 8997SOL    HW238625   0.536   0.231   0.713 -1.9782 -0.3665 -1.2616
 8998SOL     OW38626   3.498   4.682   3.445  0.0993  0.4525 -0.2219
 8998SOL    HW138627   3.549   4.641   3.374  1.3474  0.4875  0.6530
 8998SOL    HW238628   3.429   4.616   3.453 -0.1713  0.7622 -0.0332
 8999SOL     OW38629   0.875   0.667  15.604 -0.4952 -0.2882 -0.0110
 8999SOL    HW138630   0.864   0.756  15.635  0.1641 -1.3382  3.2904
 8999SOL    HW238631   0.883   0.672  15.509  2.1673 -2.7311  0.0563
 9000SOL     OW38632   4.079   0.434  12.722  0.0842  0.0920 -0.0690
 9000SOL    HW138633   4.039   0.495  12.660  1.2578 -0.0470 -0.9674
 9000SOL    HW238634   4.152   0.401  12.669  0.7881 -1.2863  1.7511
 9001SOL     OW38635   0.298   3.515   5.112  0.5361  0.2735 -0.1736
 9001SOL    HW138636   0.222   3.572   5.111  0.8510  0.6437 -2.7395
 9001SOL    HW238637   0.266   3.447   5.053 -0.8184  2.9561 -2.4853
 9002SOL     OW38638   2.505   2.312   6.584 -0.0971 -0.2570  0.0555
 9002SOL    HW138639   2.590   2.315   6.540 -0.8772 -1.1861 -1.5369
 9002SOL    HW238640   2.486   2.402   6.610 -1.0720  0.1450 -2.0006
 9003SOL     OW38641   1.961   1.274  15.913  0.3612 -0.1823  0.0838
 9003SOL    HW138642   1.923   1.324  15.841  1.6874 -0.3143 -0.7145
 9003SOL    HW238643   1.969   1.187  15.874  1.1638 -1.3483  2.8112
 9004SOL     OW38644   4.392   2.514   7.781 -0.0394 -0.7339  0.1267
 9004SOL    HW138645   4.431   2.554   7.859  1.7177 -0.2796 -0.9876
 9004SOL    HW238646   4.311   2.561   7.764 -0.4932 -0.7310  2.2606
 9005SOL     OW38647   0.003   4.593   9.057 -0.2725 -0.2004 -0.1390
 9005SOL    HW138648   0.068   4.615   9.123 -1.3392 -0.0767  0.8636
 9005SOL    HW238649   0.061   4.547   8.996 -1.0408 -0.4113 -0.7184
 9006SOL     OW38650   4.252   1.478  10.826  0.5294 -0.2462 -0.3113
 9006SOL    HW138651   4.310   1.406  10.805 -0.8398 -1.1084 -1.1390
 9006SOL    HW238652   4.295   1.555  10.789  0.5429  0.3611  0.9739
 9007SOL     OW38653   4.540   1.598   5.953 -0.1515 -0.5336  0.9022
 9007SOL    HW138654   4.560   1.685   5.920 -0.6617 -0.6849  0.1773
 9007SOL    HW238655   4.454   1.598   5.909  0.9342 -0.0487 -1.2387
 9008SOL     OW38656   3.769   3.776   7.800  0.2368  0.4840 -0.0928
 9008SOL    HW138657   3.732   3.745   7.883  3.3053  0.4855  1.2713
 9008SOL    HW238658   3.688   3.775   7.748  0.3179  0.1167 -0.2080
 9009SOL     OW38659   4.676   1.505   5.130  0.3457 -0.3373 -0.4548
 9009SOL    HW138660   4.695   1.591   5.169  1.6889 -0.7619 -0.2090
 9009SOL    HW238661   0.002   1.495   5.063  2.0573  0.8711  1.0681
 9010SOL     OW38662   3.136   2.394  17.255 -0.1574 -0.0981  0.1155
 9010SOL    HW138663   3.118   2.327  17.189 -3.1612 -0.1068  0.9213
 9010SOL    HW238664   3.042   2.415  17.254 -0.3531 -0.9537  1.4137
 9011SOL     OW38665   2.664   0.370   8.065 -0.2942 -0.3541  0.3989
 9011SOL    HW138666   2.746   0.406   8.099 -1.5837  0.2392  2.9053
 9011SOL    HW238667   2.689   0.340   7.977 -0.2863  1.0525 -0.0716
 9012SOL     OW38668   4.265   0.004   4.779 -0.9760  0.3424 -0.2409
 9012SOL    HW138669   4.346   4.706   4.746 -0.0507  0.2607  2.1485
 9012SOL    HW238670   4.282   0.098   4.781  2.1325 -0.2453 -0.2953
 9013SOL     OW38671   0.471   4.222   3.161 -0.0486 -0.0538 -0.4039
 9013SOL    HW138672   0.556   4.191   3.130  0.1722 -0.3379  0.4679
 9013SOL    HW238673   0.463   4.185   3.249  1.9028 -0.6930 -0.4949
 9014SOL     OW38674   4.112   4.656   2.927  0.7099  0.6383  0.4291
 9014SOL    HW138675   4.168   4.684   2.855 -0.8548  3.9641  0.5282
 9014SOL    HW238676   4.034   4.698   2.892 -1.2143 -3.0492  0.2478
 9015SOL     OW38677   2.964   4.602  10.569  0.1464  0.1403  0.0827
 9015SOL    HW138678   2.967   4.616  10.474 -2.2756 -1.3886 -0.2228
 9015SOL    HW238679   2.996   4.513  10.580 -0.3535 -0.1634 -0.9269
 9016SOL     OW38680   1.031   3.337  14.091  0.1890 -0.0731  0.3930
 9016SOL    HW138681   1.106   3.388  14.061 -0.5882  1.1738  0.5952
 9016SOL    HW238682   0.964   3.386  14.044 -0.4402 -0.5186  0.8262
 9017SOL     OW38683   1.121   2.767   8.007  0.3885  0.7550 -0.0068
 9017SOL    HW138684   1.077   2.800   8.085  3.4868  2.7176  0.9103
 9017SOL    HW238685   1.212   2.757   8.035  0.6784 -1.2440 -1.6677
 9018SOL     OW38686   2.551   0.631   5.539  0.2916  0.0591  0.1981
 9018SOL    HW138687   2.514   0.596   5.458 -1.3661 -1.2530  1.5222
 9018SOL    HW238688   2.630   0.673   5.505 -0.3503  0.5972 -0.6394
 9019SOL     OW38689   3.459   4.176   6.432  0.1652  0.1894  0.0670
 9019SOL    HW138690   3.465   4.234   6.357 -0.2923 -1.0977 -0.9736
 9019SOL    HW238691   3.449   4.090   6.391  0.3302  0.1171  0.1741
 9020SOL     OW38692   3.244   1.570   9.362  0.4467  0.5940 -0.4495
 9020SOL    HW138693   3.283   1.484   9.378  0.3784  0.5957 -0.2709
 9020SOL    HW238694   3.154   1.544   9.382  0.1127  3.5676  1.8319
 9021SOL     OW38695   3.019   4.434  11.847 -0.5478 -0.0209  0.0107
 9021SOL    HW138696   2.951   4.378  11.885  0.3517 -2.1268 -1.4879
 9021SOL    HW238697   3.082   4.433  11.920 -0.0948 -0.3653 -0.3907
 9022SOL     OW38698   1.144   4.326   4.417 -0.2003  0.2681  0.2020
 9022SOL    HW138699   1.084   4.363   4.352  3.9078  3.4848 -1.7373
 9022SOL    HW238700   1.226   4.338   4.369  1.6064 -1.3653  2.9117
 9023SOL     OW38701   4.401   1.071  17.187  0.0634  0.2276  0.0259
 9023SOL    HW138702   4.374   1.113  17.105 -1.0112  0.4752  0.5056
 9023SOL    HW238703   4.492   1.047  17.169 -0.3780  0.4656 -2.4126
 9024SOL     OW38704   1.446   2.723   8.018 -0.0245 -0.0362  0.1407
 9024SOL    HW138705   1.468   2.696   7.929  0.7183 -1.4506  0.7657
 9024SOL    HW238706   1.446   2.642   8.069  2.8456 -1.8400 -2.6885
 9025SOL     OW38707   4.592   3.071   0.867 -0.2761  0.2077  0.6198
 9025SOL    HW138708   4.497   3.063   0.859 -0.1648  0.1974 -0.7395
 9025SOL    HW238709   4.607   3.161   0.894  0.6035  0.2064  0.1285
 9026SOL     OW38710   2.580   4.462  15.323  0.9107  0.1318  0.4639
 9026SOL    HW138711   2.629   4.515  15.260 -0.0984  1.4362  0.7626
 9026SOL    HW238712   2.488   4.483  15.304  0.9737  1.9191  2.0646
 9027SOL     OW38713   2.109   0.292   6.221 -0.2710  0.1894 -0.0570
 9027SOL    HW138714   2.201   0.321   6.216 -0.1203 -0.0191  1.4790
 9027SOL    HW238715   2.109   0.274   6.315 -0.0601  0.5653  0.0157
 9028SOL     OW38716   1.743   4.494  12.288 -0.1523  0.0383 -0.0937
 9028SOL    HW138717   1.759   4.555  12.217  0.4881  0.8416  0.7388
 9028SOL    HW238718   1.766   4.415  12.238  0.2066  0.3734 -0.4521
 9029SOL     OW38719   3.070   2.591   5.191  0.3115 -0.1724  0.1765
 9029SOL    HW138720   3.090   2.543   5.272  0.1603 -1.1136 -0.3505
 9029SOL    HW238721   3.026   2.516   5.152  1.9323 -1.2176  0.3829
 9030SOL     OW38722   1.303   3.575   0.751 -1.0684 -0.3250 -0.2713
 9030SOL    HW138723   1.259   3.494   0.777  0.2643 -0.6395  0.9990
 9030SOL    HW238724   1.310   3.551   0.659  0.1203 -0.4880 -0.1429
 9031SOL     OW38725   4.155   2.728   4.243  0.0572 -0.2539  0.4385
 9031SOL    HW138726   4.113   2.645   4.268 -0.6638  0.1339  0.5074
 9031SOL    HW238727   4.198   2.692   4.166  1.5181 -0.7718  1.4988
 9032SOL     OW38728   2.199   1.247   1.206  0.3428 -0.3565  0.1061
 9032SOL    HW138729   2.219   1.206   1.290  0.1934 -0.0531  0.2887
 9032SOL    HW238730   2.218   1.175   1.145  0.4860  0.0952 -0.3797
 9033SOL     OW38731   1.794   3.795   6.451  0.2618  0.6079 -0.3684
 9033SOL    HW138732   1.771   3.788   6.543  1.8116 -0.4113 -0.0589
 9033SOL    HW238733   1.724   3.759   6.397  1.6676 -1.4488 -0.8445
 9034SOL     OW38734   3.899   1.040   1.066  0.7359  0.1064  0.1887
 9034SOL    HW138735   3.897   1.130   1.033  0.0727  0.3972  1.0238
 9034SOL    HW238736   3.864   1.049   1.155  1.1025 -1.6400  0.5143
 9035SOL     OW38737   3.414   4.145   7.818 -0.1594 -0.8051  0.0642
 9035SOL    HW138738   3.446   4.136   7.728  2.0623  0.0914  0.7663
 9035SOL    HW238739   3.467   4.077   7.859  1.4497  1.1941  1.2916
 9036SOL     OW38740   2.787   1.634   4.957 -0.1351 -0.2733 -0.0782
 9036SOL    HW138741   2.861   1.683   4.994 -1.0660  0.5685  0.6689
 9036SOL    HW238742   2.783   1.693   4.882  2.2752  0.6995  0.5538
 9037SOL     OW38743   4.699   0.133   6.511 -0.1323 -0.5979  0.9221
 9037SOL    HW138744   4.631   0.196   6.486 -1.4033 -1.0689  3.1953
 9037SOL    HW238745   0.034   0.183   6.482 -0.3638 -0.8158 -0.0633
 9038SOL     OW38746   1.803   1.747  14.089 -0.3023 -0.1942  0.0961
 9038SOL    HW138747   1.722   1.787  14.120  0.9006  2.2243  0.0988
 9038SOL    HW238748   1.865   1.774  14.157 -0.1060  2.2047 -1.0419
 9039SOL     OW38749   1.646   1.823   0.615  0.2935 -0.2179  0.2546
 9039SOL    HW138750   1.724   1.788   0.572 -1.2321 -3.4492  0.0947
 9039SOL    HW238751   1.642   1.759   0.686 -0.8377 -0.9491 -0.4721
 9040SOL     OW38752   4.093   3.646  17.192  0.0106  0.1069  0.6729
 9040SOL    HW138753   4.118   3.582  17.259  2.4802  1.2720  0.8818
 9040SOL    HW238754   3.997   3.644  17.188  0.0819 -2.6731  0.5074
 9041SOL     OW38755   1.261   1.480   8.104  0.2210  0.2684 -0.1131
 9041SOL    HW138756   1.284   1.392   8.073 -1.2709 -0.1223 -0.1040
 9041SOL    HW238757   1.308   1.536   8.042  0.3275 -1.1607 -1.3398
 9042SOL     OW38758   4.562   0.354   1.072 -0.3562  0.2491 -0.5255
 9042SOL    HW138759   4.469   0.333   1.063 -0.5825  0.9139  0.2009
 9042SOL    HW238760   4.582   0.340   1.165 -0.3697 -0.5412 -0.6445
 9043SOL     OW38761   2.189   2.369   2.550 -0.4200 -0.1442  0.1443
 9043SOL    HW138762   2.253   2.425   2.592 -0.2774  0.3275 -0.6908
 9043SOL    HW238763   2.186   2.415   2.465 -2.2924 -2.2936 -0.9645
 9044SOL     OW38764   3.578   3.121  11.705  0.1767 -0.2498 -0.3229
 9044SOL    HW138765   3.646   3.172  11.749 -0.0786  1.4618 -1.9264
 9044SOL    HW238766   3.617   3.034  11.714  1.9121  0.5972  0.3833
 9045SOL     OW38767   1.038   4.542   2.122 -0.1579 -0.5200  0.2781
 9045SOL    HW138768   1.121   4.555   2.169  1.1753 -0.5031 -2.0608
 9045SOL    HW238769   0.995   4.625   2.139  0.2996 -0.2633  0.1746
 9046SOL     OW38770   0.702   1.320  13.855  0.8384  0.2176  0.3037
 9046SOL    HW138771   0.643   1.258  13.813  1.5747  0.0347 -0.4505
 9046SOL    HW238772   0.641   1.389  13.880  0.5249  0.3332 -0.7515
 9047SOL     OW38773   3.632   0.101  10.814  0.2231 -0.2909  0.1839
 9047SOL    HW138774   3.663   0.076  10.726 -0.1026 -1.1461  0.3092
 9047SOL    HW238775   3.681   0.180  10.834  0.2501 -0.4652  0.8012
 9048SOL     OW38776   0.051   1.874   6.885 -0.1942  0.1000  0.3470
 9048SOL    HW138777   0.031   1.786   6.917 -0.6903  0.0245 -0.1683
 9048SOL    HW238778   0.022   1.931   6.956  0.8133 -0.6402  1.3618
 9049SOL     OW38779   0.061   1.161   4.660 -0.7066  0.0282  0.6432
 9049SOL    HW138780   4.718   1.124   4.686 -1.3244 -0.0853 -1.4636
 9049SOL    HW238781   0.049   1.256   4.656 -1.9785 -0.1348  0.5014
 9050SOL     OW38782   3.682   1.240   3.030  0.0767  0.7906 -0.1849
 9050SOL    HW138783   3.640   1.255   3.115 -1.4154 -1.0657 -0.5838
 9050SOL    HW238784   3.764   1.227   3.077  0.7361 -2.6430 -2.3365
 9051SOL     OW38785   4.068   2.919   6.785  0.3472  0.1343 -0.5084
 9051SOL    HW138786   4.131   2.975   6.831 -0.7254 -0.5058  1.7175
 9051SOL    HW238787   3.996   2.916   6.847  0.2334  0.8180 -0.6070
 9052SOL     OW38788   2.896   1.396   8.233  0.0421  0.7260 -0.2596
 9052SOL    HW138789   2.910   1.437   8.148 -0.5856 -1.0867 -1.2215
 9052SOL    HW238790   2.945   1.457   8.289  0.0942  2.0448 -1.7421
 9053SOL     OW38791   4.478   4.606   4.687  0.6002 -0.1064 -0.0372
 9053SOL    HW138792   4.439   4.522   4.714 -0.6435  0.0786 -1.2769
 9053SOL    HW238793   4.567   4.576   4.669  0.0850 -1.0995 -0.9192
 9054SOL     OW38794   2.610   0.889   6.955  0.0064  0.0677  0.3043
 9054SOL    HW138795   2.659   0.807   6.945 -0.4126 -0.0254 -0.9954
 9054SOL    HW238796   2.669   0.946   6.905 -0.1386 -1.9004 -2.1462
 9055SOL     OW38797   0.227   3.312   3.075  0.0517  0.5600  0.1162
 9055SOL    HW138798   0.234   3.403   3.048  0.9440  0.5380  0.2806
 9055SOL    HW238799   0.148   3.296   3.127 -0.3556  0.4528 -0.5485
 9056SOL     OW38800   3.082   1.933   7.107  0.3048 -0.2604 -0.0026
 9056SOL    HW138801   3.003   1.883   7.089  0.2530 -0.1719 -0.0197
 9056SOL    HW238802   3.044   1.997   7.167  0.5997  0.6907 -0.8354
 9057SOL     OW38803   0.365   4.736   3.305 -0.3206  0.0300 -0.0690
 9057SOL    HW138804   0.308   4.709   3.232  0.7115 -0.3524 -0.7289
 9057SOL    HW238805   0.336   4.677   3.374 -4.4896 -0.1002 -1.8852
 9058SOL     OW38806   4.632   3.424   6.094 -0.6836  0.2070 -0.8055
 9058SOL    HW138807   4.633   3.336   6.132  0.8946 -0.6119 -2.7136
 9058SOL    HW238808   4.556   3.419   6.037 -2.3095  1.8116  1.2319
 9059SOL     OW38809   0.083   3.875   2.763 -0.1334  0.1484 -0.1200
 9059SOL    HW138810   0.024   3.889   2.837 -0.8566 -1.2042 -0.4343
 9059SOL    HW238811   0.017   3.875   2.694 -2.4054  0.0501  2.0622
 9060SOL     OW38812   2.764   0.689   8.130  0.1477 -0.2386 -0.4201
 9060SOL    HW138813   2.822   0.695   8.055 -0.6565  3.0961 -0.7927
 9060SOL    HW238814   2.683   0.665   8.086 -0.3262  1.6091 -0.5684
 9061SOL     OW38815   0.109   0.752   6.892 -0.6177  0.0414  0.1212
 9061SOL    HW138816   0.187   0.782   6.939  2.1531 -2.3915 -2.9017
 9061SOL    HW238817   0.136   0.755   6.800  0.5634 -1.2389  0.4294
 9062SOL     OW38818   2.292   3.515   5.998  0.1603  0.3930 -0.1310
 9062SOL    HW138819   2.211   3.480   5.961 -0.0524 -0.3102  1.0062
 9062SOL    HW238820   2.340   3.432   6.007  0.4007  0.5915  0.4092
 9063SOL     OW38821   3.424   4.484   6.005  0.1198  0.1358  0.1368
 9063SOL    HW138822   3.441   4.432   5.927 -1.3354 -0.2633  0.0839
 9063SOL    HW238823   3.483   4.560   6.004 -1.7448  1.5950  0.1618
 9064SOL     OW38824   4.140   2.541   3.828 -0.6140  0.1646 -0.5109
 9064SOL    HW138825   4.159   2.534   3.735  2.4947  0.2911  0.1298
 9064SOL    HW238826   4.213   2.596   3.857  0.3093 -1.3330 -0.0300
 9065SOL     OW38827   3.524   3.092   2.891 -0.0905  0.2173 -0.9121
 9065SOL    HW138828   3.438   3.050   2.902  0.0095 -0.0489 -1.1550
 9065SOL    HW238829   3.577   3.017   2.864  0.3185  0.4567 -0.7676
 9066SOL     OW38830   1.155   0.200   7.271 -0.0113 -0.5445 -0.4247
 9066SOL    HW138831   1.181   0.136   7.337  1.3230  1.1224  0.6864
 9066SOL    HW238832   1.060   0.189   7.279  0.0513 -0.5265  0.3257
 9067SOL     OW38833   0.550   3.125   4.034 -0.1195 -0.5469  0.5354
 9067SOL    HW138834   0.488   3.188   3.997 -0.8113 -0.6622  1.5064
 9067SOL    HW238835   0.527   3.056   3.972 -1.6849  1.0401 -0.6592
 9068SOL     OW38836   4.622   2.112   2.300 -0.2164  0.3988  0.1307
 9068SOL    HW138837   4.544   2.055   2.303 -1.5475  2.1092 -1.7054
 9068SOL    HW238838   4.683   2.039   2.307 -0.9379 -0.0377  1.8865
 9069SOL     OW38839   2.835   2.266   2.431 -0.1870 -0.1902  0.0359
 9069SOL    HW138840   2.884   2.345   2.410 -1.4626  0.1287 -1.7684
 9069SOL    HW238841   2.758   2.306   2.472 -1.1522 -1.7184 -0.2667
 9070SOL     OW38842   2.350   2.716   5.797 -0.1125  0.2048 -0.4172
 9070SOL    HW138843   2.365   2.622   5.785  0.1406  0.0932  0.8520
 9070SOL    HW238844   2.259   2.719   5.826 -0.1088  1.4243 -0.5170
 9071SOL     OW38845   3.383   0.236  12.544 -0.1540 -0.1532  0.6283
 9071SOL    HW138846   3.459   0.234  12.601  0.6333  0.2188 -0.4192
 9071SOL    HW238847   3.321   0.292  12.592 -1.4116 -1.2807  0.3291
 9072SOL     OW38848   3.907   3.546   1.611 -0.0626  0.0283 -0.3206
 9072SOL    HW138849   3.898   3.640   1.596 -1.3702  0.1506  1.2048
 9072SOL    HW238850   3.821   3.507   1.599  1.0241 -1.8333 -2.0220
 9073SOL     OW38851   1.945   2.503   5.241  0.3050  0.1784  0.1344
 9073SOL    HW138852   1.860   2.546   5.247 -0.2950 -1.1364  1.1030
 9073SOL    HW238853   1.987   2.534   5.322  1.5387  0.7403 -0.7127
 9074SOL     OW38854   2.729   2.542   9.270  0.4368 -0.2904  0.1986
 9074SOL    HW138855   2.709   2.568   9.359  4.6920 -0.8766  1.3233
 9074SOL    HW238856   2.662   2.601   9.235  2.0322  1.1525 -0.3806
 9075SOL     OW38857   4.405   0.134   4.186 -0.4550 -0.9432  0.1814
 9075SOL    HW138858   4.310   0.122   4.177 -0.6013  0.8437 -0.7654
 9075SOL    HW238859   4.440   0.114   4.100  1.3064  0.0519  0.6714
 9076SOL     OW38860   4.517   3.993  11.225 -0.0338 -0.1843  0.4324
 9076SOL    HW138861   4.541   4.085  11.215  0.0297 -0.2349  0.1476
 9076SOL    HW238862   4.512   3.973  11.132  3.1616  0.9647  0.0124
 9077SOL     OW38863   2.859   1.075   4.290  0.1560 -0.0717  0.2192
 9077SOL    HW138864   2.815   1.025   4.222 -0.2341 -0.6364  0.8836
 9077SOL    HW238865   2.894   0.999   4.337  0.0718  0.3252  0.9329
 9078SOL     OW38866   3.411   2.766   3.308 -0.1193  0.0694  0.0531
 9078SOL    HW138867   3.408   2.699   3.239 -3.8442  0.5879 -0.2915
 9078SOL    HW238868   3.321   2.798   3.313 -0.1588  0.1956 -1.2746
 9079SOL     OW38869   3.501   3.453   5.327  0.1041 -0.5895  0.6424
 9079SOL    HW138870   3.511   3.538   5.286  1.1565 -1.2907 -0.5410
 9079SOL    HW238871   3.408   3.456   5.350 -0.1414  1.0425 -0.5808
 9080SOL     OW38872   1.548   2.278   5.896  0.1775 -0.4896 -0.5532
 9080SOL    HW138873   1.494   2.343   5.941 -0.3288 -0.2990 -1.4366
 9080SOL    HW238874   1.546   2.214   5.967  2.5047 -0.9015 -0.8559
 9081SOL     OW38875   3.702   4.537   0.112  0.3179  0.1752 -0.0825
 9081SOL    HW138876   3.615   4.538   0.151 -0.0654 -0.8205 -0.9068
 9081SOL    HW238877   3.748   4.578   0.185 -1.2745 -0.0769  1.0613
 9082SOL     OW38878   2.394   0.109  14.394  0.6719 -0.1397  0.2393
 9082SOL    HW138879   2.377   0.072  14.481 -0.7047 -1.0347 -0.4137
 9082SOL    HW238880   2.473   0.067  14.361 -0.2795 -0.8366 -1.1620
 9083SOL     OW38881   3.010   0.220   5.786  0.1257 -0.4771  0.6515
 9083SOL    HW138882   2.975   0.254   5.704 -2.0524 -1.9086  0.9855
 9083SOL    HW238883   2.997   0.293   5.846 -1.9414 -0.5518  0.3200
 9084SOL     OW38884   3.081   3.699   5.245 -0.4542 -0.2256  0.0885
 9084SOL    HW138885   3.139   3.774   5.236 -0.0342 -0.5602 -0.0033
 9084SOL    HW238886   2.999   3.740   5.273 -0.4352 -0.4362  0.4511
 9085SOL     OW38887   3.702   0.657   2.402 -0.0240  0.5786 -0.5830
 9085SOL    HW138888   3.660   0.645   2.317  0.7255 -0.1043 -0.8627
 9085SOL    HW238889   3.622   0.653   2.455 -0.1117 -1.6026 -0.8707
 9086SOL     OW38890   1.082   0.800   1.932  0.4994  0.2031  0.6977
 9086SOL    HW138891   1.071   0.718   1.884 -1.0293 -0.7157  2.6192
 9086SOL    HW238892   1.175   0.799   1.955  0.4118 -1.7947  0.9799
 9087SOL     OW38893   4.358   1.293   9.107  0.0010 -0.0883  0.0158
 9087SOL    HW138894   4.341   1.313   9.199 -0.9367  2.0582 -0.6188
 9087SOL    HW238895   4.454   1.293   9.104 -0.0394  1.0080 -1.6103
 9088SOL     OW38896   3.235   0.719   8.845  0.2157  0.1807  0.3909
 9088SOL    HW138897   3.263   0.811   8.847  1.6326 -0.2137 -1.4115
 9088SOL    HW238898   3.144   0.731   8.816 -0.3738 -0.7125  1.9120
 9089SOL     OW38899   3.455   0.325   5.559  0.0512  0.5130 -0.5764
 9089SOL    HW138900   3.367   0.348   5.527  0.1414  0.5460 -0.7997
 9089SOL    HW238901   3.447   0.233   5.583  4.0420  0.5161  0.6508
 9090SOL     OW38902   4.604   0.412  16.083 -0.6361 -0.1814 -0.3124
 9090SOL    HW138903   4.553   0.410  16.002  1.3437  2.5363 -1.6139
 9090SOL    HW238904   4.663   0.486  16.069 -0.2136 -0.4795 -0.0855
 9091SOL     OW38905   0.321   0.708   5.346  0.1814 -0.0165 -0.1836
 9091SOL    HW138906   0.323   0.802   5.362  1.1710  0.0221 -0.5195
 9091SOL    HW238907   0.413   0.693   5.324 -0.3607 -0.5624 -2.0680
 9092SOL     OW38908   2.962   0.873  16.369 -0.0731  0.5350 -0.0169
 9092SOL    HW138909   2.925   0.836  16.289  0.8784 -0.5854  0.0654
 9092SOL    HW238910   3.031   0.810  16.391 -1.7638 -1.2669  0.1190
 9093SOL     OW38911   2.873   3.423   6.856 -0.2250  0.0250 -0.1981
 9093SOL    HW138912   2.932   3.455   6.787  1.0727 -0.8561  0.5032
 9093SOL    HW238913   2.785   3.429   6.819  0.3174  0.9750 -1.3538
 9094SOL     OW38914   0.694   2.935   6.828  0.2066 -0.1535 -0.0312
 9094SOL    HW138915   0.724   2.851   6.862 -0.2679  0.3683  1.6858
 9094SOL    HW238916   0.776   2.960   6.787 -0.2623  1.4601  0.0062
 9095SOL     OW38917   3.833   3.496  12.459 -0.3359 -0.6986  0.0260
 9095SOL    HW138918   3.761   3.443  12.491 -0.0331 -1.6682 -0.8998
 9095SOL    HW238919   3.815   3.467  12.369  2.2362  1.7534 -1.3211
 9096SOL     OW38920   2.476   2.412   3.746 -0.7617 -0.3108  0.1510
 9096SOL    HW138921   2.529   2.368   3.679  1.8863  1.5524  1.0151
 9096SOL    HW238922   2.406   2.348   3.756 -0.6955 -0.0072  2.5623
 9097SOL     OW38923   3.661   3.469   1.570  0.2527 -0.1478 -0.2313
 9097SOL    HW138924   3.634   3.528   1.499  0.7275  0.1099 -0.1953
 9097SOL    HW238925   3.579   3.470   1.619 -0.3116 -1.0234 -1.1573
 9098SOL     OW38926   1.214   1.444   5.046 -0.1775  0.1806  0.0785
 9098SOL    HW138927   1.175   1.459   4.960 -3.5281  3.2709  2.1417
 9098SOL    HW238928   1.135   1.461   5.098 -1.1654 -3.1738 -0.2884
 9099SOL     OW38929   1.802   1.288  10.282  0.3182  0.3226 -0.5344
 9099SOL    HW138930   1.814   1.233  10.205  0.9608  0.8671 -0.8176
 9099SOL    HW238931   1.845   1.237  10.351 -1.2392 -2.3163 -1.4854
 9100SOL     OW38932   0.473   3.592  10.536 -0.1498  0.0572  0.1984
 9100SOL    HW138933   0.451   3.505  10.567  2.0013 -0.9451 -1.0663
 9100SOL    HW238934   0.389   3.635  10.549 -1.2935 -1.6472 -1.5985
 9101SOL     OW38935   2.558   1.094   4.624 -0.1436 -0.5688  0.8084
 9101SOL    HW138936   2.481   1.114   4.677 -0.9083  2.0928 -1.2872
 9101SOL    HW238937   2.586   1.005   4.645  0.4274 -0.9256 -1.4247
 9102SOL     OW38938   0.296   2.107  15.083 -0.0222 -0.0518  0.1368
 9102SOL    HW138939   0.294   2.201  15.102 -1.1889  0.1749 -1.1319
 9102SOL    HW238940   0.374   2.098  15.028  0.0431  1.6708 -0.0565
 9103SOL     OW38941   2.260   1.392   3.104  0.6949  0.2097 -0.7243
 9103SOL    HW138942   2.336   1.424   3.153  1.5872 -0.7764 -1.4509
 9103SOL    HW238943   2.315   1.368   3.030  0.0829  1.0286 -1.4343
 9104SOL     OW38944   3.279   3.290   4.368  0.3333  0.0340  0.8693
 9104SOL    HW138945   3.228   3.240   4.433 -0.6487 -0.3858 -0.2273
 9104SOL    HW238946   3.303   3.368   4.417 -0.4204  0.5337  0.4388
 9105SOL     OW38947   0.395   0.502   0.556  0.0718  0.3266 -0.1098
 9105SOL    HW138948   0.463   0.441   0.528 -0.5071  0.7234 -2.3316
 9105SOL    HW238949   0.348   0.452   0.622 -0.9477 -0.8635 -1.7630
 9106SOL     OW38950   4.265   1.862   2.980 -0.8642 -0.3137  0.5420
 9106SOL    HW138951   4.275   1.772   3.012 -0.4575  0.2603  2.0485
 9106SOL    HW238952   4.198   1.901   3.036 -2.2661 -0.0579 -1.3202
 9107SOL     OW38953   4.409   0.844   2.106 -0.1261  0.0338 -0.3442
 9107SOL    HW138954   4.400   0.750   2.121 -2.6425 -0.2002 -3.1985
 9107SOL    HW238955   4.323   0.886   2.105 -0.3024 -0.3459 -1.1569
 9108SOL     OW38956   0.338   0.187   2.418  0.5854  0.5630  0.2800
 9108SOL    HW138957   0.313   0.160   2.330 -0.9688  1.5753  0.4061
 9108SOL    HW238958   0.391   0.113   2.448  0.5510  0.6378  0.5270
 9109SOL     OW38959   3.229   4.501  10.066  0.3203 -0.0880  0.3923
 9109SOL    HW138960   3.322   4.492  10.088  0.5224  1.5163  0.2053
 9109SOL    HW238961   3.221   4.594  10.043  0.1146 -0.0799  0.4985
 9110SOL     OW38962   0.808   2.660   8.086 -0.2779 -0.1614 -0.0407
 9110SOL    HW138963   0.844   2.649   8.174 -1.8734 -1.4699  0.4599
 9110SOL    HW238964   0.732   2.607   8.111 -0.8510  0.5027 -0.3632
 9111SOL     OW38965   2.813   1.053  17.094  0.0605  0.6266 -0.0330
 9111SOL    HW138966   2.779   1.081  17.179 -3.5503 -0.2412 -1.1785
 9111SOL    HW238967   2.892   1.007  17.121 -0.6686  0.3283  1.6481
 9112SOL     OW38968   0.402   3.566   0.842 -0.3513 -0.0111 -0.1852
 9112SOL    HW138969   0.358   3.651   0.833  0.5681  0.5168  0.2804
 9112SOL    HW238970   0.475   3.607   0.890  0.2508 -2.5699  1.0907
 9113SOL     OW38971   1.395   0.444  11.972 -0.0555 -0.4195 -0.0181
 9113SOL    HW138972   1.474   0.414  11.927 -0.0638 -1.1052  0.4268
 9113SOL    HW238973   1.396   0.525  11.921 -0.7122 -0.2732  0.2095
 9114SOL     OW38974   4.175   3.999   8.974  0.2158 -0.3984 -0.2689
 9114SOL    HW138975   4.124   3.918   8.972  0.0228 -0.3397  1.7333
 9114SOL    HW238976   4.120   4.068   8.938  0.0280 -1.0785 -1.2841
 9115SOL     OW38977   1.378   0.101  15.562 -0.4123 -0.0334  0.3212
 9115SOL    HW138978   1.389   0.018  15.609  1.3445 -0.1688 -0.3500
 9115SOL    HW238979   1.462   0.113  15.517 -0.7685 -0.1700 -0.3792
 9116SOL     OW38980   0.784   3.011   9.935  0.2159  0.1069  0.5418
 9116SOL    HW138981   0.828   2.972  10.011 -1.7610 -0.8246  1.2066
 9116SOL    HW238982   0.826   3.097   9.929 -0.0333  0.2490  0.8381
 9117SOL     OW38983   2.026   0.610   6.923 -0.5324  0.0307 -0.1824
 9117SOL    HW138984   1.933   0.588   6.925 -0.1702 -1.5187 -0.3313
 9117SOL    HW238985   2.051   0.576   7.009 -2.2910  0.8551  0.6459
 9118SOL     OW38986   1.722   4.130   5.015  0.1120  1.0641  0.1667
 9118SOL    HW138987   1.741   4.146   5.107  0.6686  1.0150  0.0622
 9118SOL    HW238988   1.681   4.213   4.992  0.1636  1.0028 -0.1584
 9119SOL     OW38989   2.772   1.703   4.378 -0.2101 -0.3091  0.1278
 9119SOL    HW138990   2.731   1.618   4.367  3.0005 -1.6669 -1.3115
 9119SOL    HW238991   2.861   1.682   4.404  0.0236  0.1734 -0.2838
 9120SOL     OW38992   2.096   0.824   9.719  0.2299  0.5030 -0.2537
 9120SOL    HW138993   2.159   0.881   9.764 -1.0479 -0.9482  3.3447
 9120SOL    HW238994   2.071   0.868   9.638 -1.0090  0.8798  0.3270
 9121SOL     OW38995   3.054   2.480   0.426 -0.3531  0.0876 -0.3777
 9121SOL    HW138996   3.023   2.429   0.501 -0.1004  0.1860 -0.2054
 9121SOL    HW238997   2.981   2.501   0.368 -0.0644 -1.0185 -1.1355
 9122SOL     OW38998   3.799   0.457   9.157 -0.2277 -0.0017 -0.1363
 9122SOL    HW138999   3.814   0.481   9.066 -0.9730  2.7471  0.4851
 9122SOL    HW239000   3.720   0.504   9.182 -0.0501  0.7189 -0.9192
 9123SOL     OW39001   1.660   0.387   3.145  0.0606 -0.4934  0.1077
 9123SOL    HW139002   1.749   0.357   3.124 -1.0292 -2.4496 -1.6218
 9123SOL    HW239003   1.647   0.373   3.239  2.5027  1.7804  0.8117
 9124SOL     OW39004   4.729   4.231  10.782 -0.6101 -0.2760 -0.3899
 9124SOL    HW139005   4.654   4.202  10.730 -0.2478 -2.3838  0.2554
 9124SOL    HW239006   0.058   4.174  10.750  0.5461 -0.3508  2.2649
 9125SOL     OW39007   2.238   2.600   6.158  0.4500 -0.1425 -0.5643
 9125SOL    HW139008   2.282   2.595   6.074  1.0278 -2.1760 -0.1558
 9125SOL    HW239009   2.244   2.694   6.175 -2.6235  0.3016 -1.8300
 9126SOL     OW39010   1.029   1.009   3.544 -0.0714  0.4335  0.2497
 9126SOL    HW139011   0.980   0.943   3.495  1.9145 -0.1252 -0.9769
 9126SOL    HW239012   0.955   1.058   3.581  0.7427  0.3762  1.9803
 9127SOL     OW39013   1.334   0.043   1.296 -0.2588  0.4120 -0.4352
 9127SOL    HW139014   1.313   0.077   1.209  3.5557  1.8496 -0.8386
 9127SOL    HW239015   1.429   0.054   1.292 -0.3797  2.5093  2.9015
 9128SOL     OW39016   3.294   3.876   1.847 -0.4542  0.6286 -0.6963
 9128SOL    HW139017   3.362   3.914   1.792  2.3858 -1.7506  1.1317
 9128SOL    HW239018   3.218   3.928   1.822 -1.0049  0.9666  1.6591
 9129SOL     OW39019   1.018   3.101   7.437 -0.0907 -0.3055 -0.2530
 9129SOL    HW139020   0.975   3.168   7.383  2.0140  0.7147 -0.7076
 9129SOL    HW239021   0.983   3.020   7.400  1.0577  0.1298 -2.3615
 9130SOL     OW39022   1.132   0.009   9.362  0.0267 -0.5682  0.2765
 9130SOL    HW139023   1.057   0.041   9.413 -0.2107  0.5530 -0.7848
 9130SOL    HW239024   1.116   4.658   9.340 -1.1363  0.3075 -2.4900
 9131SOL     OW39025   3.286   0.168   3.661  0.1947 -0.3128  0.5029
 9131SOL    HW139026   3.354   0.223   3.701  2.5080 -2.5013 -0.4490
 9131SOL    HW239027   3.246   0.133   3.741 -1.1371 -2.4216 -1.0830
 9132SOL     OW39028   2.834   4.036  11.520 -0.4837  0.0300 -0.1461
 9132SOL    HW139029   2.817   3.992  11.437 -0.4067 -1.5027  0.6534
 9132SOL    HW239030   2.788   3.980  11.584  1.0411 -0.9785  0.0587
 9133SOL     OW39031   0.343   2.462   3.474 -0.3580 -0.0805  0.7364
 9133SOL    HW139032   0.283   2.387   3.476 -0.8993  0.3218 -0.7349
 9133SOL    HW239033   0.418   2.434   3.421 -1.8292  1.1626 -1.9656
 9134SOL     OW39034   3.057   3.537   3.628 -0.5440  0.1615 -0.0640
 9134SOL    HW139035   3.020   3.504   3.710 -1.5721  0.7335 -0.2960
 9134SOL    HW239036   3.129   3.475   3.630 -1.0786 -0.5005 -1.1725
 9135SOL     OW39037   0.618   1.793  17.128  0.3880  0.1664  0.1955
 9135SOL    HW139038   0.546   1.746  17.086  2.5318 -1.7655 -1.3421
 9135SOL    HW239039   0.572   1.833  17.201 -0.2597  0.8563 -0.5861
 9136SOL     OW39040   1.869   4.028   4.834  0.1238 -0.1482 -0.1717
 9136SOL    HW139041   1.948   4.023   4.889  0.9327 -0.3252 -1.3557
 9136SOL    HW239042   1.808   4.065   4.898  0.7401  1.1911 -0.3735
 9137SOL     OW39043   0.327   1.712   1.391  0.2705 -0.4201 -0.1271
 9137SOL    HW139044   0.400   1.658   1.418  0.4834 -0.1627 -0.1914
 9137SOL    HW239045   0.328   1.685   1.299  0.0350 -0.7634 -0.0327
 9138SOL     OW39046   1.221   1.177   0.240  0.3321 -0.5812  0.1442
 9138SOL    HW139047   1.312   1.149   0.230  0.2721 -0.3465 -0.9808
 9138SOL    HW239048   1.169   1.106   0.203  0.0527 -1.1975  1.7245
 9139SOL     OW39049   2.201   4.536   7.285 -0.2014  0.1559 -0.1319
 9139SOL    HW139050   2.287   4.567   7.315 -1.0331  1.6690  0.6863
 9139SOL    HW239051   2.144   4.610   7.304 -0.2179  0.1899 -0.3160
 9140SOL     OW39052   2.647   3.810  15.419 -0.2955 -0.3303 -0.0449
 9140SOL    HW139053   2.714   3.777  15.480 -0.4049  1.1115  0.8474
 9140SOL    HW239054   2.705   3.846  15.351 -1.1271 -0.7019 -0.9482
 9141SOL     OW39055   4.081   2.802   8.525 -0.1076 -0.4968 -0.0072
 9141SOL    HW139056   4.048   2.757   8.602 -1.2547 -0.1406 -0.2910
 9141SOL    HW239057   4.041   2.758   8.449 -0.4960 -1.3549  0.7002
 9142SOL     OW39058   0.804   0.776  11.495  0.1092 -0.0220  0.1761
 9142SOL    HW139059   0.801   0.768  11.399 -1.6954 -0.2325  0.2472
 9142SOL    HW239060   0.753   0.699  11.520  1.2692 -0.4611  1.1665
 9143SOL     OW39061   4.283   0.731   4.926  0.4635  0.4313  0.3089
 9143SOL    HW139062   4.232   0.713   5.005  0.3346 -1.7716 -0.2852
 9143SOL    HW239063   4.217   0.706   4.862 -0.9999  0.2445  1.8991
 9144SOL     OW39064   1.935   3.522   8.928  0.1019  0.1016  0.3726
 9144SOL    HW139065   1.878   3.449   8.904 -2.0867  1.1911  2.3686
 9144SOL    HW239066   1.946   3.554   8.838 -3.0718  0.1053 -0.0014
 9145SOL     OW39067   3.482   2.763  10.174  0.1701  0.6393 -0.2655
 9145SOL    HW139068   3.561   2.806  10.141 -1.5542  2.2196 -2.3495
 9145SOL    HW239069   3.422   2.785  10.103 -0.6545  0.5581  0.4161
 9146SOL     OW39070   2.147   0.639   1.538 -0.2489 -0.0639  0.3406
 9146SOL    HW139071   2.068   0.612   1.585  0.2245 -0.0479  1.1484
 9146SOL    HW239072   2.162   0.728   1.569  0.3701  0.2333 -0.8130
 9147SOL     OW39073   3.220   3.804  11.024 -0.0668 -0.5639  0.0724
 9147SOL    HW139074   3.161   3.869  10.986 -0.3088 -1.4076 -0.9828
 9147SOL    HW239075   3.216   3.834  11.115 -1.9106 -1.1106  0.1753
 9148SOL     OW39076   0.250   0.552   4.263 -0.2667  0.0386 -0.3689
 9148SOL    HW139077   0.291   0.606   4.331  0.9035 -0.1814 -0.8992
 9148SOL    HW239078   0.206   0.617   4.210 -0.0712 -0.1343 -0.7434
 9149SOL     OW39079   3.486   3.709   5.199 -0.1533 -0.2947 -0.4134
 9149SOL    HW139080   3.542   3.764   5.145  0.5136 -1.2704 -0.7295
 9149SOL    HW239081   3.410   3.690   5.144  0.3462 -2.8171 -0.2480
 9150SOL     OW39082   3.469   2.803   6.965  0.6750 -0.7514  0.6571
 9150SOL    HW139083   3.513   2.838   7.042  1.1401 -0.0613  0.0655
 9150SOL    HW239084   3.379   2.831   6.984 -0.2177 -2.3966 -1.1039
 9151SOL     OW39085   1.795   3.643  11.733  0.1350 -0.3208  0.2303
 9151SOL    HW139086   1.859   3.676  11.671 -1.0884  0.3920 -0.6502
 9151SOL    HW239087   1.770   3.709  11.798 -1.1457  0.7537 -1.3712
 9152SOL     OW39088   4.267   4.232   4.928  0.8058 -0.4585  0.1350
 9152SOL    HW139089   4.230   4.313   4.892 -1.2201 -1.1310  0.7244
 9152SOL    HW239090   4.338   4.265   4.983  2.1351 -1.6092 -0.8610
 9153SOL     OW39091   3.258   4.420   7.104 -0.3832  0.0231  0.2017
 9153SOL    HW139092   3.170   4.389   7.083 -0.9827  0.8612  1.5799
 9153SOL    HW239093   3.309   4.345   7.073 -1.3496 -0.0635 -1.1930
 9154SOL     OW39094   0.057   1.975   5.387 -0.0879  0.2648 -0.7433
 9154SOL    HW139095   4.715   1.942   5.421  2.4119 -2.8697  2.2289
 9154SOL    HW239096   0.083   2.044   5.448  1.0818  0.7367 -1.7608
 9155SOL     OW39097   2.277   4.417   1.320 -0.0558  0.1244  0.1881
 9155SOL    HW139098   2.372   4.412   1.332 -0.0997  1.5387  1.1328
 9155SOL    HW239099   2.255   4.457   1.236 -0.7247  1.0611  0.7999
 9156SOL     OW39100   2.453   3.049  15.503  0.6856  0.1386  0.1293
 9156SOL    HW139101   2.434   3.019  15.414  0.1096 -2.8325  1.2479
 9156SOL    HW239102   2.461   3.143  15.489  0.5886 -0.3016 -2.8076
 9157SOL     OW39103   4.100   1.760   8.803  0.6446  0.1043  0.4047
 9157SOL    HW139104   4.014   1.739   8.768  0.7129 -1.6230  1.3078
 9157SOL    HW239105   4.149   1.750   8.721  0.0911 -0.1833  0.1144
 9158SOL     OW39106   1.408   0.504   9.414  0.1479  0.5267  0.7762
 9158SOL    HW139107   1.489   0.502   9.363 -1.2733  1.6870 -1.5504
 9158SOL    HW239108   1.336   0.483   9.354  2.1188  0.6533 -1.6539
 9159SOL     OW39109   2.343   0.823   2.437 -0.4613  0.3420  0.7038
 9159SOL    HW139110   2.357   0.837   2.344 -1.4400 -0.2511  0.4669
 9159SOL    HW239111   2.348   0.728   2.449  1.2235  0.1832 -1.4594
 9160SOL     OW39112   0.720   3.533   5.679 -0.4266 -0.0742  0.4871
 9160SOL    HW139113   0.732   3.575   5.765 -0.0258  1.3004 -0.2355
 9160SOL    HW239114   0.785   3.576   5.623  0.3020 -2.1904 -0.2882
 9161SOL     OW39115   4.631   4.112  13.514  0.7466 -0.3903 -0.6284
 9161SOL    HW139116   4.723   4.120  13.539  0.5632 -0.7693  0.1583
 9161SOL    HW239117   4.631   4.028  13.468  0.6237  0.5384 -2.3404
 9162SOL     OW39118   2.382   2.435   1.504  0.3776  0.3382 -0.4448
 9162SOL    HW139119   2.409   2.390   1.425  0.6275 -1.7222  0.8156
 9162SOL    HW239120   2.313   2.376   1.536  3.1840 -1.6647  1.8963
 9163SOL     OW39121   0.829   0.364   0.024 -0.0178  0.1471  0.0295
 9163SOL    HW139122   0.772   0.310  17.730  1.2077 -0.8889 -0.2410
 9163SOL    HW239123   0.763   0.421   0.062 -0.0153 -1.5242  2.5252
 9164SOL     OW39124   2.456   2.525   0.088 -0.8491  0.0729 -0.3921
 9164SOL    HW139125   2.378   2.472   0.075 -0.5768 -0.0299 -1.6026
 9164SOL    HW239126   2.492   2.505   0.002  0.6123 -1.3497  0.5542
 9165SOL     OW39127   4.471   0.566  16.591 -0.0741  0.2706 -0.5274
 9165SOL    HW139128   4.462   0.577  16.496  0.0066 -1.0561 -0.6959
 9165SOL    HW239129   4.421   0.486  16.608  1.9601 -0.7392  0.7318
 9166SOL     OW39130   4.069   0.140  17.685 -0.2003 -0.0893 -0.6447
 9166SOL    HW139131   4.125   0.103  17.754 -1.1826 -1.1417 -0.4201
 9166SOL    HW239132   4.043   0.065  17.632 -0.5067 -0.1521 -0.4044
 9167SOL     OW39133   3.205   1.784   3.924 -0.8247 -0.3121 -0.3745
 9167SOL    HW139134   3.279   1.824   3.878 -0.1812 -1.1030 -0.0149
 9167SOL    HW239135   3.178   1.853   3.985  1.4073 -1.5245  1.9583
 9168SOL     OW39136   1.504   0.632   3.375 -0.2256  0.4066  0.0445
 9168SOL    HW139137   1.518   0.672   3.461  0.7638 -1.2144  0.6201
 9168SOL    HW239138   1.461   0.550   3.397 -0.5022  0.1747 -1.3572
 9169SOL     OW39139   4.568   2.705   0.945  0.3770 -0.5009  0.1674
 9169SOL    HW139140   4.583   2.784   0.893 -2.0829 -0.2214 -0.1190
 9169SOL    HW239141   4.598   2.636   0.886  1.8111  0.7887 -0.5921
 9170SOL     OW39142   1.833   1.033   2.467 -0.0004  0.0886  0.5444
 9170SOL    HW139143   1.782   0.961   2.505  2.7065 -0.8960  2.2707
 9170SOL    HW239144   1.910   0.978   2.452 -0.6067 -1.2093  2.1246
 9171SOL     OW39145   4.105   2.833   5.604  0.4416  0.1036  0.2679
 9171SOL    HW139146   4.070   2.804   5.519 -3.8669  0.7228  1.8117
 9171SOL    HW239147   4.047   2.777   5.656  1.1627 -1.2474 -0.4011
 9172SOL     OW39148   4.356   2.215   7.083  0.6474 -0.0703 -0.8572
 9172SOL    HW139149   4.347   2.172   6.998 -2.5925 -2.9089  0.9270
 9172SOL    HW239150   4.263   2.238   7.090  0.8359  0.7280 -0.9133
 9173SOL     OW39151   3.009   4.595   2.782 -0.1231  0.5399  0.4112
 9173SOL    HW139152   3.075   4.532   2.752 -1.2734  0.1482 -1.2597
 9173SOL    HW239153   2.935   4.537   2.803  0.2017  0.2118  0.6479
 9174SOL     OW39154   2.857   2.266  10.724  0.0293 -0.0393 -0.2872
 9174SOL    HW139155   2.815   2.219  10.796  1.2797 -0.4024  0.2049
 9174SOL    HW239156   2.816   2.352  10.721  0.5170  0.1451 -2.1758
 9175SOL     OW39157   2.174   4.312   8.244 -0.5211 -0.3423  0.0150
 9175SOL    HW139158   2.173   4.231   8.294  0.4464  0.1858  0.8853
 9175SOL    HW239159   2.268   4.322   8.228 -1.0149  1.5307 -1.7690
 9176SOL     OW39160   2.314   2.948   4.928 -0.8105 -0.1135  0.0881
 9176SOL    HW139161   2.225   2.913   4.923 -0.4235 -0.9095 -1.3470
 9176SOL    HW239162   2.305   3.039   4.902 -1.1645  0.0149  0.6574
 9177SOL     OW39163   4.616   1.636   4.416 -0.1034  0.3062  0.5205
 9177SOL    HW139164   4.648   1.726   4.408 -0.2547  0.2827 -0.3706
 9177SOL    HW239165   4.629   1.625   4.510  0.3043  1.0244  0.5486
 9178SOL     OW39166   3.241   3.651   1.692 -0.1100 -0.9192 -0.0336
 9178SOL    HW139167   3.161   3.626   1.740 -0.5626  0.7362  0.1076
 9178SOL    HW239168   3.266   3.724   1.750 -0.3515  0.0362 -1.1306
 9179SOL     OW39169   1.547   1.718   2.700 -0.7089 -0.1030  0.5478
 9179SOL    HW139170   1.582   1.790   2.649 -0.0810 -0.0350  1.0769
 9179SOL    HW239171   1.563   1.638   2.649 -1.4969 -0.6781  1.1907
 9180SOL     OW39172   2.977   4.079   1.211  0.2367  0.3149  0.0111
 9180SOL    HW139173   2.960   4.056   1.119  0.0220 -0.0272  0.1350
 9180SOL    HW239174   2.896   4.115   1.246  0.3505  0.1946  0.4022
 9181SOL     OW39175   3.297   2.951  10.341  0.1786 -0.1070  0.1222
 9181SOL    HW139176   3.302   2.921  10.431 -2.2156 -1.9195 -0.3573
 9181SOL    HW239177   3.327   2.873  10.295  1.4153  0.1375  0.5126
 9182SOL     OW39178   0.813   4.631   5.613  0.3922 -0.8319  0.0178
 9182SOL    HW139179   0.840   4.635   5.522  0.2557 -1.2864 -0.0423
 9182SOL    HW239180   0.881   4.679   5.661  2.1563 -1.0100 -2.3609
 9183SOL     OW39181   0.860   4.620   1.546  0.1685  0.4206 -0.2714
 9183SOL    HW139182   0.877   4.701   1.499 -1.5128  0.2785 -1.1198
 9183SOL    HW239183   0.784   4.646   1.599  0.7089  0.1326  0.6560
 9184SOL     OW39184   4.373   2.127   2.651  0.6782 -0.7584  0.2672
 9184SOL    HW139185   4.358   2.043   2.607 -1.5818  0.0112 -0.4461
 9184SOL    HW239186   4.412   2.086   2.728 -0.2978 -1.4317  0.3987
 9185SOL     OW39187   3.784   3.809   7.010 -0.7126  0.2704  0.1138
 9185SOL    HW139188   3.725   3.775   6.944  0.3182  1.3869 -1.3820
 9185SOL    HW239189   3.819   3.889   6.969 -0.5857 -0.3255 -0.9438
 9186SOL     OW39190   3.160   2.523   5.772 -0.0785 -0.4549  0.6666
 9186SOL    HW139191   3.069   2.513   5.799 -0.6644  0.6904 -0.8939
 9186SOL    HW239192   3.200   2.437   5.786 -1.8516 -1.5792 -1.1801
 9187SOL     OW39193   1.898   4.489   8.639  0.2856  0.2656 -0.0716
 9187SOL    HW139194   1.922   4.566   8.589  1.4187  0.0733  0.1669
 9187SOL    HW239195   1.910   4.415   8.579 -0.4806 -1.3184  1.6956
 9188SOL     OW39196   4.396   0.031   2.302  0.2593  0.4539  0.3178
 9188SOL    HW139197   4.315   0.055   2.256 -0.0953 -0.5235  0.4370
 9188SOL    HW239198   4.426   0.113   2.341  0.4846  0.1152  0.8435
 9189SOL     OW39199   2.572   2.381   9.470 -0.6775  0.4392 -0.4206
 9189SOL    HW139200   2.488   2.335   9.476  1.3940 -2.9505  2.6488
 9189SOL    HW239201   2.616   2.315   9.416 -0.9969 -0.4884  0.4444
 9190SOL     OW39202   4.562   3.372   0.574  0.1170  0.6196  0.1078
 9190SOL    HW139203   4.594   3.388   0.485  0.0682  1.4607  0.2469
 9190SOL    HW239204   4.553   3.277   0.577 -3.0967  0.9000 -0.5196
 9191SOL     OW39205   0.042   1.372   2.531  0.6380  0.0709  0.2536
 9191SOL    HW139206   4.739   1.288   2.515  0.5735  0.0039  0.7904
 9191SOL    HW239207   0.107   1.341   2.593 -0.1925  1.4266  1.7995
 9192SOL     OW39208   0.291   4.392   7.972  0.1728 -0.4887 -0.1643
 9192SOL    HW139209   0.215   4.364   7.922  0.0969  0.1619 -0.4199
 9192SOL    HW239210   0.251   4.447   8.039  0.3629  1.6910 -1.8324
 9193SOL     OW39211   1.955   3.776  16.884  0.0553  0.0596 -0.9017
 9193SOL    HW139212   1.969   3.791  16.791 -0.3564  2.3414 -0.6089
 9193SOL    HW239213   2.042   3.779  16.924  0.2518 -0.0985 -1.3286
 9194SOL     OW39214   0.658   0.386   1.273 -0.5243 -0.0266 -0.2019
 9194SOL    HW139215   0.723   0.380   1.203 -0.6853 -3.0496 -0.0957
 9194SOL    HW239216   0.574   0.386   1.228  0.3178 -0.4736 -1.7939
 9195SOL     OW39217   3.161   0.543   6.821  0.0666  0.0604  0.2085
 9195SOL    HW139218   3.222   0.493   6.875  0.1640 -2.2968 -2.0938
 9195SOL    HW239219   3.106   0.471   6.791 -1.0270  1.5323 -1.2677
 9196SOL     OW39220   3.261   1.250  16.028  0.0684  0.2459 -0.5303
 9196SOL    HW139221   3.278   1.220  15.939  0.1565 -0.2143 -0.3585
 9196SOL    HW239222   3.258   1.164  16.070 -2.7014  0.0017 -1.2340
 9197SOL     OW39223   2.639   1.303   7.890  0.2812 -0.0086  0.4975
 9197SOL    HW139224   2.660   1.210   7.878  0.1816 -0.2140  1.9065
 9197SOL    HW239225   2.643   1.332   7.799  0.3254  0.1272  0.5418
 9198SOL     OW39226   4.090   0.334   9.128 -0.3945  0.1746  0.1218
 9198SOL    HW139227   4.000   0.357   9.151 -0.5666 -0.0607 -0.3172
 9198SOL    HW239228   4.077   0.314   9.035  0.5007 -0.7216  0.1992
 9199SOL     OW39229   3.735   2.653  17.357  0.1290  0.4630  0.3327
 9199SOL    HW139230   3.709   2.564  17.378  0.0285  1.1830  3.2277
 9199SOL    HW239231   3.654   2.702  17.349 -1.2801 -1.9930 -0.2138
 9200SOL     OW39232   0.251   3.737   3.237 -0.2118  0.7383 -0.3203
 9200SOL    HW139233   0.170   3.758   3.282  1.1397  0.3650  2.3197
 9200SOL    HW239234   0.269   3.807   3.175  1.2595  0.3529 -0.3390
 9201SOL     OW39235   4.679   4.316   6.975  0.5018  0.2714  0.6456
 9201SOL    HW139236   0.010   4.353   6.924 -0.2612  0.2829 -0.4077
 9201SOL    HW239237   4.712   4.227   6.989 -0.4397 -0.0479  0.8457
 9202SOL     OW39238   3.368   4.084   7.209  0.1480 -0.1117  0.6639
 9202SOL    HW139239   3.445   4.029   7.190  0.3629  1.1638 -2.1326
 9202SOL    HW239240   3.352   4.102   7.116 -0.8664 -1.2904  0.6153
 9203SOL     OW39241   0.056   4.426  10.224 -0.2915  0.0245  0.0375
 9203SOL    HW139242   0.101   4.510  10.231 -0.4603  0.2220 -1.2908
 9203SOL    HW239243   0.048   4.401  10.132  1.0156 -1.7061  0.3900
 9204SOL     OW39244   3.683   0.814   1.240 -0.2115  0.0574 -0.1754
 9204SOL    HW139245   3.662   0.808   1.147 -0.3675 -0.6428 -0.0899
 9204SOL    HW239246   3.708   0.724   1.260  0.9902  0.9284  2.2807
 9205SOL     OW39247   3.427   1.991   4.863  0.2545 -0.7424  0.4478
 9205SOL    HW139248   3.377   1.989   4.781  2.2284 -0.7234 -0.7495
 9205SOL    HW239249   3.426   2.085   4.878  0.4964 -0.9443  1.7145
 9206SOL     OW39250   1.758   0.497   6.907  0.2676  0.2738  0.5117
 9206SOL    HW139251   1.709   0.452   6.976 -0.5749 -1.0589 -0.9498
 9206SOL    HW239252   1.742   0.436   6.835  0.9588  1.6207 -0.7740
 9207SOL     OW39253   2.024   2.469   5.921 -0.3892 -0.3460  0.2282
 9207SOL    HW139254   2.014   2.556   5.882 -0.1865  0.3618  1.7222
 9207SOL    HW239255   1.967   2.413   5.869 -0.6238  1.9634 -2.0358
 9208SOL     OW39256   2.249   4.402   0.439 -0.2135  0.3727  0.2467
 9208SOL    HW139257   2.343   4.386   0.430 -0.4228 -1.5141  1.4272
 9208SOL    HW239258   2.233   4.361   0.524 -0.0423 -0.8486 -0.3098
 9209SOL     OW39259   3.562   4.625   1.879 -0.1771  0.3738 -0.2089
 9209SOL    HW139260   3.601   4.702   1.839  0.5331  0.3196  0.3787
 9209SOL    HW239261   3.617   4.552   1.853  1.4508  1.0705  1.2844
 9210SOL     OW39262   3.937   4.319   5.996 -0.0194 -0.0733 -0.2587
 9210SOL    HW139263   3.940   4.225   5.975 -1.5176  0.2427 -1.9123
 9210SOL    HW239264   3.844   4.324   6.020 -0.3257  0.6213 -1.6150
 9211SOL     OW39265   4.139   4.545  10.811 -0.1512  0.0879  0.3411
 9211SOL    HW139266   4.178   4.501  10.887  2.8774  0.6651 -0.8904
 9211SOL    HW239267   4.090   4.469  10.780 -0.7367  0.0307  1.3879
 9212SOL     OW39268   1.357   0.731   8.170 -0.1547  1.4239 -0.4173
 9212SOL    HW139269   1.401   0.703   8.089  2.1634  2.9330  0.3413
 9212SOL    HW239270   1.425   0.733   8.237  0.4745  1.1960 -1.0474
 9213SOL     OW39271   0.661   0.644  11.925  0.0463  0.4113  0.3954
 9213SOL    HW139272   0.754   0.627  11.943  0.2103  0.3583 -0.5007
 9213SOL    HW239273   0.655   0.738  11.939  0.5790  0.4228  0.5255
 9214SOL     OW39274   0.542   1.548  14.226  0.0371 -0.8622 -0.1343
 9214SOL    HW139275   0.517   1.640  14.232  0.4588 -0.8700  1.6079
 9214SOL    HW239276   0.565   1.521  14.315  0.7997 -0.2171 -0.1411
 9215SOL     OW39277   2.119   0.715   3.936  0.0060  0.1865  0.0205
 9215SOL    HW139278   2.166   0.681   4.012 -3.3760  0.1311  2.0691
 9215SOL    HW239279   2.040   0.663   3.937  0.3658 -0.3554  0.1216
 9216SOL     OW39280   1.409   2.954   0.141  0.6993 -0.2815  0.1427
 9216SOL    HW139281   1.414   2.913   0.228  0.1929 -0.3982  0.1179
 9216SOL    HW239282   1.394   2.878   0.084  2.5132 -0.9915  0.6173
 9217SOL     OW39283   1.662   1.495   2.597 -0.3502 -0.5349  0.4349
 9217SOL    HW139284   1.637   1.410   2.632 -0.7860 -0.3286  0.6276
 9217SOL    HW239285   1.746   1.470   2.560 -0.2855  0.6980 -0.2438
 9218SOL     OW39286   0.272   2.071   2.104  0.2396  0.4241 -0.4349
 9218SOL    HW139287   0.178   2.076   2.123  0.5846  1.6255  0.9123
 9218SOL    HW239288   0.272   2.151   2.052  1.0987  0.3120 -0.6062
 9219SOL     OW39289   2.339   1.667   9.582  0.2614 -0.6690  0.3855
 9219SOL    HW139290   2.325   1.574   9.564 -0.8978 -0.3029 -0.6000
 9219SOL    HW239291   2.262   1.698   9.535  1.8687  1.4935 -0.8071
 9220SOL     OW39292   4.209   4.615   6.136 -0.0034  0.1857  0.2089
 9220SOL    HW139293   4.287   4.656   6.173  0.4473 -1.0787  0.6737
 9220SOL    HW239294   4.138   4.637   6.196 -0.1686 -0.1626  0.1393
 9221SOL     OW39295   0.606   0.019   1.360 -0.4476 -0.4424 -0.1465
 9221SOL    HW139296   0.551   0.093   1.335  1.0963  0.3938 -1.1046
 9221SOL    HW239297   0.692   0.061   1.359 -0.1495 -1.0515 -0.1064
 9222SOL     OW39298   2.608   3.588   8.528 -0.2829 -0.0098 -0.0956
 9222SOL    HW139299   2.518   3.574   8.500 -0.1250 -0.9807 -0.1260
 9222SOL    HW239300   2.644   3.499   8.532 -0.0240  0.0519 -0.9716
 9223SOL     OW39301   2.440   4.281   0.889  0.0711 -0.1751 -0.6942
 9223SOL    HW139302   2.450   4.376   0.884 -2.2556 -0.0136 -2.3031
 9223SOL    HW239303   2.479   4.265   0.975 -1.9948 -0.4331  0.1796
 9224SOL     OW39304   2.189   0.600   1.126  0.5128  0.0374  0.2661
 9224SOL    HW139305   2.141   0.536   1.179 -0.2833 -1.0051 -1.6998
 9224SOL    HW239306   2.258   0.632   1.183 -1.8562  1.6466  2.2380
 9225SOL     OW39307   1.408   0.672  11.819 -0.2011  0.2441 -0.2184
 9225SOL    HW139308   1.382   0.743  11.759 -0.8165 -0.9067 -1.3031
 9225SOL    HW239309   1.482   0.712  11.865 -0.2787  0.5637 -0.3719
 9226SOL     OW39310   0.204   0.957   8.111 -0.4084 -0.1510  0.0598
 9226SOL    HW139311   0.243   1.030   8.063 -0.7463 -0.3554 -0.5208
 9226SOL    HW239312   0.194   0.988   8.201 -0.9559  0.6534 -0.2766
 9227SOL     OW39313   1.827   4.093  14.897  0.1025 -0.5906  0.8876
 9227SOL    HW139314   1.788   4.006  14.908  0.1848 -0.5489  1.5050
 9227SOL    HW239315   1.895   4.086  14.965  0.5481  1.4375  0.6539
 9228SOL     OW39316   2.583   2.226  17.360  0.1083 -0.4351  0.0855
 9228SOL    HW139317   2.506   2.179  17.390 -0.0546 -0.5906 -0.5809
 9228SOL    HW239318   2.634   2.264  17.431  1.4558  1.9131 -2.1260
 9229SOL     OW39319   3.160   4.701   8.571  0.0248  0.0389 -0.2764
 9229SOL    HW139320   3.149   4.611   8.601  0.4240 -0.1998 -0.8547
 9229SOL    HW239321   3.171   4.683   8.478  1.7254 -0.2641 -0.0097
 9230SOL     OW39322   0.574   2.856   8.834 -0.4808  0.1649  0.2206
 9230SOL    HW139323   0.645   2.791   8.834  0.4203  1.1402  1.7057
 9230SOL    HW239324   0.523   2.816   8.765 -1.7374  1.1184  0.6074
 9231SOL     OW39325   3.583   3.662   3.310  0.1134 -0.5443 -0.4051
 9231SOL    HW139326   3.640   3.587   3.327  0.1447 -0.3188  0.5015
 9231SOL    HW239327   3.577   3.653   3.215 -0.2021 -0.4367 -0.3951
 9232SOL     OW39328   3.775   1.472  12.809  0.0986  0.5383 -0.0658
 9232SOL    HW139329   3.753   1.492  12.718 -1.3387  1.1489  0.4173
 9232SOL    HW239330   3.868   1.492  12.811  0.7301 -2.5321  0.8531
 9233SOL     OW39331   0.209   0.804   1.740 -0.0036  0.1795  0.3825
 9233SOL    HW139332   0.297   0.842   1.729  0.7299 -1.5219  0.4863
 9233SOL    HW239333   0.213   0.755   1.822 -2.0643  1.5055  1.2697
 9234SOL     OW39334   3.875   1.271  16.250 -0.1070 -0.5734 -0.9523
 9234SOL    HW139335   3.899   1.257  16.158 -0.2573 -1.0082 -0.9240
 9234SOL    HW239336   3.794   1.319  16.232 -0.3251 -0.6057 -0.0295
 9235SOL     OW39337   0.987   0.501   4.821 -0.3904  0.2409  0.0909
 9235SOL    HW139338   1.015   0.425   4.872 -1.1766  0.4749  0.8870
 9235SOL    HW239339   0.948   0.458   4.744  1.4817 -1.2811 -0.0083
 9236SOL     OW39340   4.660   1.443   8.091 -0.1652  0.2432  0.5737
 9236SOL    HW139341   4.652   1.481   8.178  1.7714 -1.4136  1.4724
 9236SOL    HW239342   4.661   1.349   8.106  1.2278 -0.4088 -3.5419
 9237SOL     OW39343   0.320   1.870   7.288 -0.5425  0.0888  0.0549
 9237SOL    HW139344   0.288   1.922   7.362 -2.8551  0.1787 -1.0270
 9237SOL    HW239345   0.296   1.928   7.215  1.0876 -0.4672 -0.9151
 9238SOL     OW39346   1.151   4.209  15.142  0.0065  0.8259  0.0300
 9238SOL    HW139347   1.242   4.213  15.113 -0.2610 -2.0087 -1.1772
 9238SOL    HW239348   1.108   4.252  15.068 -0.6747 -1.8312 -1.1099
 9239SOL     OW39349   0.027   2.893   0.284  1.3061 -0.1021  0.1494
 9239SOL    HW139350   0.098   2.928   0.230  0.4442  0.7229 -0.4598
 9239SOL    HW239351   0.022   2.803   0.251 -1.9424  0.4038 -0.7102
 9240SOL     OW39352   4.566   2.419   9.441 -0.1248 -0.4053 -0.1655
 9240SOL    HW139353   4.475   2.388   9.439 -1.0338  2.1435  1.5705
 9240SOL    HW239354   4.599   2.393   9.355  0.0357 -0.0330 -0.2121
 9241SOL     OW39355   3.329   3.197   4.776  0.1054  0.4263 -0.1335
 9241SOL    HW139356   3.401   3.257   4.756 -0.3526  1.0143 -0.0111
 9241SOL    HW239357   3.281   3.227   4.853  1.8447  0.3971  0.9535
 9242SOL     OW39358   0.941   2.548  13.214 -0.2440 -0.3122  0.4584
 9242SOL    HW139359   0.962   2.455  13.205 -1.1984 -0.6984  2.1329
 9242SOL    HW239360   0.881   2.553  13.139  0.8702 -1.2189 -0.4938
 9243SOL     OW39361   3.879   0.885  14.995  0.1636 -0.6475 -0.1080
 9243SOL    HW139362   3.873   0.891  15.090 -0.9418 -1.9463 -0.0993
 9243SOL    HW239363   3.788   0.879  14.966 -0.3412  1.1897  1.1257
 9244SOL     OW39364   3.836   3.822   1.565 -0.1152 -0.0897 -0.0242
 9244SOL    HW139365   3.774   3.878   1.517 -2.0018 -0.9521  1.4142
 9244SOL    HW239366   3.808   3.850   1.653  0.3646 -0.5975  0.2913
 9245SOL     OW39367   0.065   2.660   9.556  0.3972 -0.0402  0.0247
 9245SOL    HW139368   0.091   2.616   9.475 -0.7827 -1.2247  0.2860
 9245SOL    HW239369   0.141   2.644   9.612 -0.8809  3.3552  2.7074
 9246SOL     OW39370   1.379   1.695   0.827  0.0034 -0.0456  0.0051
 9246SOL    HW139371   1.474   1.704   0.829  0.1548 -1.6438  0.1831
 9246SOL    HW239372   1.334   1.766   0.873  0.2229 -1.3750  2.2867
 9247SOL     OW39373   1.671   0.386   3.437  0.2329 -0.2617 -0.2608
 9247SOL    HW139374   1.630   0.320   3.493 -0.7356  0.4586 -0.1285
 9247SOL    HW239375   1.646   0.457   3.496 -3.4452 -1.0134 -0.9524
 9248SOL     OW39376   3.375   4.649   9.253 -0.0436 -0.5020 -0.0694
 9248SOL    HW139377   3.366   4.705   9.176  0.0171 -0.4336 -0.0270
 9248SOL    HW239378   3.424   4.579   9.210  1.0516 -0.2978  0.8489
 9249SOL     OW39379   2.702   0.851  11.136 -0.2787  0.3446  0.0629
 9249SOL    HW139380   2.781   0.801  11.158 -0.1716 -0.2947 -1.7457
 9249SOL    HW239381   2.642   0.837  11.209  0.4380 -0.5513  0.4865
 9250SOL     OW39382   1.897   4.446   6.302  0.0035 -0.8428 -0.6876
 9250SOL    HW139383   1.900   4.462   6.207 -2.6310 -0.5212 -0.7317
 9250SOL    HW239384   1.802   4.448   6.313 -0.0006  0.8058 -0.9969
 9251SOL     OW39385   1.943   0.642   7.370 -0.0711 -0.4480 -0.1914
 9251SOL    HW139386   1.910   0.705   7.305  2.8085  0.2003 -0.9909
 9251SOL    HW239387   1.953   0.707   7.439  4.3203 -0.1965 -1.0658
 9252SOL     OW39388   2.906   3.591   3.037 -0.2109  0.1330  0.2636
 9252SOL    HW139389   2.952   3.546   3.108 -0.4540 -0.0391  0.3123
 9252SOL    HW239390   2.942   3.679   3.051 -3.8248  2.0467 -2.5243
 9253SOL     OW39391   2.861   3.736   1.001 -0.6608 -0.0519  0.1130
 9253SOL    HW139392   2.796   3.691   0.947 -1.1595 -1.1228  1.6062
 9253SOL    HW239393   2.804   3.803   1.039  0.0330  1.5379 -1.5984
 9254SOL     OW39394   1.471   3.706   3.570  0.0232 -0.1668 -0.0315
 9254SOL    HW139395   1.397   3.766   3.582  1.7796  1.6935  1.5572
 9254SOL    HW239396   1.485   3.682   3.662  0.3760 -2.0236 -0.5884
 9255SOL     OW39397   1.396   3.680  14.250 -0.5066 -0.1774 -0.4763
 9255SOL    HW139398   1.344   3.723  14.181 -1.2012  0.4331  0.4314
 9255SOL    HW239399   1.372   3.718  14.335 -0.1248  0.7558 -0.7834
 9256SOL     OW39400   0.214   0.084   5.178  1.0151 -0.2779 -0.2612
 9256SOL    HW139401   0.201   0.030   5.100 -0.3725  0.3406 -0.4735
 9256SOL    HW239402   0.161   0.162   5.159 -0.8451 -1.4013  0.3352
 9257SOL     OW39403   1.712   0.993   9.632  0.1496 -0.4842 -0.0461
 9257SOL    HW139404   1.617   0.988   9.623  0.1589 -0.5173 -0.1267
 9257SOL    HW239405   1.720   0.900   9.654 -0.0119 -0.5724 -0.3569
 9258SOL     OW39406   2.222   3.320   1.819  0.4872 -0.0359 -0.1410
 9258SOL    HW139407   2.202   3.412   1.839  0.3462 -0.5071  1.8585
 9258SOL    HW239408   2.155   3.268   1.864 -0.1973 -0.6399 -1.8176
 9259SOL     OW39409   0.831   3.271  11.222  0.2454  0.2617  0.3769
 9259SOL    HW139410   0.916   3.228  11.220 -0.2782 -0.6385 -2.2377
 9259SOL    HW239411   0.773   3.197  11.239  0.9939 -0.0711  1.4836
 9260SOL     OW39412   0.554   1.604   3.056 -0.5296  0.0356  0.3990
 9260SOL    HW139413   0.587   1.515   3.068 -1.4416 -0.3435  0.1027
 9260SOL    HW239414   0.629   1.658   3.081 -0.4618  0.5608 -0.9239
 9261SOL     OW39415   4.438   3.559   7.611  0.0910 -0.0636 -0.0454
 9261SOL    HW139416   4.455   3.512   7.692 -2.9193  1.6711  1.5703
 9261SOL    HW239417   4.527   3.594   7.604  0.7193 -1.4312  1.1391
 9262SOL     OW39418   0.807   2.323  15.762  0.1152 -0.1737 -0.0351
 9262SOL    HW139419   0.781   2.355  15.675  0.0473 -1.5015 -0.5114
 9262SOL    HW239420   0.736   2.262  15.781 -1.7378  1.8703 -0.4549
 9263SOL     OW39421   3.264   1.536   2.983  0.1640  0.0624 -0.3087
 9263SOL    HW139422   3.195   1.510   2.922  0.6799 -0.6729 -0.5747
 9263SOL    HW239423   3.320   1.589   2.926 -0.6189  0.8255 -0.3651
 9264SOL     OW39424   3.230   2.733   7.772  0.1170 -0.0923 -0.4305
 9264SOL    HW139425   3.319   2.743   7.805 -0.2853  0.6920  0.4488
 9264SOL    HW239426   3.193   2.813   7.809  2.0724  0.4700  0.3078
 9265SOL     OW39427   1.517   1.922   8.060  0.7873  0.1654 -0.7959
 9265SOL    HW139428   1.579   1.983   8.019  0.4537 -0.2836 -1.9749
 9265SOL    HW239429   1.585   1.869   8.103  0.1611 -0.5189 -0.6551
 9266SOL     OW39430   1.298   2.961  11.281  0.0150 -0.0615  0.3793
 9266SOL    HW139431   1.317   3.047  11.319 -0.9310  1.1502 -1.8582
 9266SOL    HW239432   1.359   2.963  11.207 -1.2932 -0.6618 -0.7126
 9267SOL     OW39433   4.043   1.176   7.008 -0.1022 -0.1280  0.3964
 9267SOL    HW139434   4.096   1.240   6.960 -1.7229  0.5245 -0.5168
 9267SOL    HW239435   3.973   1.171   6.943  2.6293  1.1259 -2.6475
 9268SOL     OW39436   1.029   0.451   2.569  0.0464 -0.1524 -0.4921
 9268SOL    HW139437   1.097   0.487   2.511  0.0847  0.0403 -0.3290
 9268SOL    HW239438   0.996   0.378   2.516  1.4079 -0.8375 -0.3946
 9269SOL     OW39439   1.371   2.095  15.274 -0.0514 -0.3886  0.3759
 9269SOL    HW139440   1.428   2.054  15.209 -0.3370  1.1730 -0.8513
 9269SOL    HW239441   1.381   2.040  15.351  0.6949  1.8979  1.9215
 9270SOL     OW39442   4.359   3.588   3.345  0.4987 -0.3001  0.4889
 9270SOL    HW139443   4.323   3.654   3.287  0.9907  1.5390  2.2689
 9270SOL    HW239444   4.341   3.508   3.297  4.2790 -0.8713  0.0459
 9271SOL     OW39445   3.519   2.207   9.621 -0.0925  0.5864 -0.0816
 9271SOL    HW139446   3.505   2.203   9.715 -0.8619  0.9071 -0.1782
 9271SOL    HW239447   3.577   2.283   9.613 -1.3376  1.7649  2.1340
 9272SOL     OW39448   4.080   2.212   4.729 -0.0627  0.0381 -0.5638
 9272SOL    HW139449   4.050   2.301   4.744  0.0519  0.0306 -0.2860
 9272SOL    HW239450   4.017   2.183   4.663 -0.1220  2.4230 -1.5221
 9273SOL     OW39451   4.271   3.093   3.889 -0.3039 -0.5268  0.3850
 9273SOL    HW139452   4.302   3.176   3.853 -0.2357 -0.2828  1.0002
 9273SOL    HW239453   4.256   3.047   3.807 -0.5506  0.0043  0.1382
 9274SOL     OW39454   0.964   3.278   1.889  0.3422  0.4325  0.3614
 9274SOL    HW139455   0.946   3.217   1.960 -0.6444  0.2553 -0.0365
 9274SOL    HW239456   0.941   3.220   1.816  1.6426  0.7319 -0.2817
 9275SOL     OW39457   2.248   4.131   5.710 -0.0915  0.1007  0.2178
 9275SOL    HW139458   2.271   4.127   5.803  0.0473 -1.0986  0.1233
 9275SOL    HW239459   2.313   4.075   5.668 -1.7109 -0.7026 -1.2243
 9276SOL     OW39460   3.473   0.037   6.098  0.0108 -0.8100  0.2667
 9276SOL    HW139461   3.530   0.078   6.163 -1.3582 -0.1891  1.0748
 9276SOL    HW239462   3.420   4.710   6.139 -2.8063  0.9377 -0.5074
 9277SOL     OW39463   0.082   4.348  10.502  0.0480 -0.1575 -0.0764
 9277SOL    HW139464   0.058   4.255  10.495 -1.0699  0.3035 -2.7609
 9277SOL    HW239465   0.097   4.366  10.409  0.5337 -1.4597 -0.2600
 9278SOL     OW39466   1.918   1.983   9.860 -0.5770 -0.1682 -0.6541
 9278SOL    HW139467   1.875   2.062   9.893 -0.9470 -0.0096 -1.5313
 9278SOL    HW239468   1.847   1.920   9.865 -0.5537 -0.2704 -1.6125
 9279SOL     OW39469   0.007   0.523   0.493  0.2729 -0.8358  0.7156
 9279SOL    HW139470   4.674   0.474   0.529 -0.7212  0.0862 -0.0927
 9279SOL    HW239471   0.038   0.576   0.567  1.0707 -0.5072  0.1449
 9280SOL     OW39472   3.184   1.223   9.782  0.0869 -0.3323 -0.5281
 9280SOL    HW139473   3.157   1.305   9.740  1.9486  0.3789 -0.3636
 9280SOL    HW239474   3.276   1.249   9.788 -0.7714  1.9931  2.6234
 9281SOL     OW39475   2.386   2.944   7.003 -0.3301  0.1360  0.7787
 9281SOL    HW139476   2.470   2.962   6.961  1.0343 -0.3655  3.2742
 9281SOL    HW239477   2.406   2.918   7.093 -0.6069 -1.7595  0.2928
 9282SOL     OW39478   2.999   4.146  10.127  0.2798  0.2024  0.0244
 9282SOL    HW139479   2.993   4.199  10.207 -3.2843 -1.5722  0.9274
 9282SOL    HW239480   3.021   4.215  10.064  1.3327  0.4462  0.6492
 9283SOL     OW39481   0.653   2.809   8.293  0.6759 -0.0017 -0.5208
 9283SOL    HW139482   0.626   2.890   8.338  1.7581 -0.1952  0.4898
 9283SOL    HW239483   0.711   2.777   8.362 -0.7522  0.6695  0.9936
 9284SOL     OW39484   3.880   1.505   2.056 -0.2782  0.2851  0.1105
 9284SOL    HW139485   3.822   1.446   2.008  0.6002 -2.4386  2.4053
 9284SOL    HW239486   3.823   1.575   2.088 -1.8106 -0.1904 -1.5578
 9285SOL     OW39487   3.378   4.614   6.977 -0.9847  0.2951 -0.2074
 9285SOL    HW139488   3.379   4.571   6.891 -3.1459 -1.4203  0.6303
 9285SOL    HW239489   3.359   4.543   7.038  1.0132 -0.9248 -0.9920
 9286SOL     OW39490   0.924   0.187  14.180  0.3544 -0.0123 -0.1710
 9286SOL    HW139491   0.854   0.230  14.130  0.9985  0.2644 -0.8417
 9286SOL    HW239492   0.892   0.101  14.206  0.6659 -0.2492 -0.5672
 9287SOL     OW39493   1.087   1.186   9.386  0.1627  0.3036  0.4935
 9287SOL    HW139494   1.129   1.237   9.455  0.9461 -0.8363  0.8523
 9287SOL    HW239495   1.095   1.098   9.423 -2.2710  0.3614  1.1664
 9288SOL     OW39496   1.719   4.417   3.420 -0.1360  0.7416 -0.7934
 9288SOL    HW139497   1.804   4.416   3.463 -0.6503  2.9662  0.3160
 9288SOL    HW239498   1.670   4.406   3.502  0.9821 -2.0401 -0.4937
 9289SOL     OW39499   1.183   2.740  15.353 -0.0612 -0.3596 -0.4956
 9289SOL    HW139500   1.276   2.762  15.348 -0.1483  0.3475  0.7328
 9289SOL    HW239501   1.191   2.646  15.368  0.5095 -0.3507 -0.7608
 9290SOL     OW39502   2.288   2.358  17.537  0.2850 -0.3338  0.2004
 9290SOL    HW139503   2.260   2.409  17.613  0.4557 -2.1770  1.5034
 9290SOL    HW239504   2.357   2.416  17.505  1.2154 -0.7629  1.4891
 9291SOL     OW39505   1.974   0.532  16.417  0.0753 -0.4567 -0.1529
 9291SOL    HW139506   1.941   0.588  16.487  0.4398 -0.8367  0.3209
 9291SOL    HW239507   1.917   0.537  16.340 -0.1647  1.1616  0.1320
 9292SOL     OW39508   4.206   3.536  13.540  0.5154 -0.0534  0.1332
 9292SOL    HW139509   4.261   3.606  13.504 -0.9530  1.2886  0.4680
 9292SOL    HW239510   4.139   3.522  13.472  1.3234  2.4910 -1.2126
 9293SOL     OW39511   3.389   1.596   8.477 -0.3114  0.0677 -0.0253
 9293SOL    HW139512   3.325   1.568   8.543 -0.9773  2.1264  0.2213
 9293SOL    HW239513   3.454   1.527   8.488 -0.2471  0.2254  0.5926
 9294SOL     OW39514   2.164   0.202   9.490 -0.2344 -0.1854  0.6487
 9294SOL    HW139515   2.170   0.169   9.580 -0.8150 -0.4235  0.5995
 9294SOL    HW239516   2.194   0.292   9.505  0.9460 -0.1607 -1.8345
 9295SOL     OW39517   1.648   4.334   4.442  0.1240  0.5370  0.3162
 9295SOL    HW139518   1.704   4.288   4.505 -0.0773 -1.1857 -0.7594
 9295SOL    HW239519   1.655   4.419   4.485 -0.2867  0.6864  0.0949
 9296SOL     OW39520   0.086   1.888   2.255 -0.1501  0.0398 -0.2919
 9296SOL    HW139521   0.174   1.860   2.231  0.8765  1.5591  1.7422
 9296SOL    HW239522   0.079   1.837   2.336 -1.2879 -0.8703 -0.9567
 9297SOL     OW39523   4.289   0.919   8.542 -0.4233  0.2536 -0.4489
 9297SOL    HW139524   4.238   0.877   8.473  0.4866  0.8261 -1.4663
 9297SOL    HW239525   4.367   0.954   8.499  0.9374 -0.5173  1.3426
 9298SOL     OW39526   1.235   4.521  16.922 -0.0281  0.0816  0.0956
 9298SOL    HW139527   1.275   4.594  16.875 -1.0758 -2.1971 -4.3240
 9298SOL    HW239528   1.164   4.489  16.866 -1.4306  0.8363  1.4631
 9299SOL     OW39529   3.425   0.576   4.388  0.0072  0.2482 -0.1341
 9299SOL    HW139530   3.356   0.619   4.337 -0.6963  1.4658  1.8433
 9299SOL    HW239531   3.398   0.607   4.475 -2.0010  2.6991 -1.6205
 9300SOL     OW39532   1.665   1.695   8.182 -0.4960  0.0786 -0.3528
 9300SOL    HW139533   1.647   1.743   8.263 -0.1698 -1.4527  0.6271
 9300SOL    HW239534   1.611   1.618   8.200 -0.3703 -0.3641 -1.8841
 9301SOL     OW39535   3.288   0.518   0.038 -0.0231  0.3377 -0.2056
 9301SOL    HW139536   3.254   0.555   0.119  0.7451 -4.8069  2.5044
 9301SOL    HW239537   3.347   0.450   0.069  1.2617  1.1152 -0.9436
 9302SOL     OW39538   1.112   2.659   5.090 -0.2768  0.0151 -0.7346
 9302SOL    HW139539   1.090   2.720   5.160  0.7501 -2.1207  1.4667
 9302SOL    HW239540   1.204   2.636   5.104  0.4844  3.1994 -0.5177
 9303SOL     OW39541   3.765   0.491  15.064 -0.5988  0.6406 -0.0612
 9303SOL    HW139542   3.797   0.532  14.983 -0.7240 -0.2292 -0.5547
 9303SOL    HW239543   3.804   0.537  15.138 -0.8292  0.8171 -0.0488
 9304SOL     OW39544   1.697   4.195   7.284 -0.3598  0.2884 -0.3661
 9304SOL    HW139545   1.649   4.274   7.257 -0.1919  0.9438  1.2879
 9304SOL    HW239546   1.635   4.122   7.283 -1.9493  1.6310  0.8834
 9305SOL     OW39547   0.257   2.299   4.277 -0.4152 -0.1771 -0.1229
 9305SOL    HW139548   0.251   2.310   4.183  0.4759  1.0517 -0.0338
 9305SOL    HW239549   0.214   2.377   4.314  0.4259  1.8493 -3.4070
 9306SOL     OW39550   2.611   3.070   6.039 -0.1106  1.1419  0.0864
 9306SOL    HW139551   2.636   2.985   6.075 -2.0808  0.4447 -0.2330
 9306SOL    HW239552   2.591   3.040   5.950 -0.2799  0.2273  0.4409
 9307SOL     OW39553   1.318   0.362   6.204  0.1001  0.1298 -0.3565
 9307SOL    HW139554   1.280   0.374   6.117  1.1158  1.5801 -0.5961
 9307SOL    HW239555   1.408   0.341   6.182 -0.9367 -3.0087 -1.5845
 9308SOL     OW39556   0.185   4.237  16.489 -0.0670  0.2512  0.0604
 9308SOL    HW139557   0.126   4.226  16.564  1.3475  2.1209  1.4547
 9308SOL    HW239558   0.186   4.330  16.467  2.6539 -0.3158 -2.2483
 9309SOL     OW39559   3.300   3.842   5.866 -0.1952 -0.0771  0.3403
 9309SOL    HW139560   3.273   3.914   5.923 -1.7776 -1.1842  0.9661
 9309SOL    HW239561   3.294   3.880   5.778  0.7110  2.3686  1.3390
 9310SOL     OW39562   1.109   0.776   8.100 -0.1075  0.2189  0.2415
 9310SOL    HW139563   1.200   0.764   8.126  0.6738  1.5282 -1.9252
 9310SOL    HW239564   1.079   0.838   8.166  3.0605 -0.2676  2.1212
 9311SOL     OW39565   3.208   0.448   7.929 -0.4099  0.3159 -0.6908
 9311SOL    HW139566   3.122   0.472   7.964 -0.5105 -0.1710 -0.6033
 9311SOL    HW239567   3.189   0.365   7.884 -2.0712 -0.9407  2.3263
 9312SOL     OW39568   3.139   2.572   1.854  0.5609  0.3585 -0.0003
 9312SOL    HW139569   3.089   2.542   1.930 -1.7030 -0.1691 -1.6696
 9312SOL    HW239570   3.145   2.664   1.880 -1.5545  0.4377  0.2281
 9313SOL     OW39571   4.487   2.572   2.323 -0.1594  0.6995 -0.8044
 9313SOL    HW139572   4.529   2.501   2.274 -1.2689 -0.3669 -0.2347
 9313SOL    HW239573   4.396   2.558   2.297 -0.4773  0.4025  0.4613
 9314SOL     OW39574   2.991   2.071   2.766 -0.7532  0.5508  0.1588
 9314SOL    HW139575   2.967   2.153   2.808  1.0663  1.2767 -0.2028
 9314SOL    HW239576   3.073   2.049   2.810 -1.3147  1.7162  1.7765
 9315SOL     OW39577   2.598   3.002  16.517  0.5924 -0.6476 -0.2036
 9315SOL    HW139578   2.655   3.054  16.460  0.3732  1.3362  1.3976
 9315SOL    HW239579   2.543   2.955  16.454  0.4476 -0.8891  0.1037
 9316SOL     OW39580   2.836   3.346   0.555  0.7329  0.5457 -0.0161
 9316SOL    HW139581   2.825   3.420   0.496 -1.0888  2.3866  2.6088
 9316SOL    HW239582   2.754   3.343   0.604 -0.7851 -1.8483 -2.7272
 9317SOL     OW39583   4.614   0.211   2.274  0.2059 -0.5454 -0.2936
 9317SOL    HW139584   4.680   0.263   2.320  0.4994 -0.6809 -0.5650
 9317SOL    HW239585   4.597   0.265   2.197  0.9196  0.5907  0.3425
 9318SOL     OW39586   4.017   0.608   2.143 -0.6017 -0.4567 -0.1484
 9318SOL    HW139587   3.937   0.630   2.096  0.1099  0.2119 -1.0555
 9318SOL    HW239588   4.074   0.599   2.067  0.8702  3.0545  0.5091
 9319SOL     OW39589   0.112   1.116  14.990  0.8743  0.1566 -0.6351
 9319SOL    HW139590   0.048   1.077  14.931 -0.0135  0.0765  0.3795
 9319SOL    HW239591   0.106   1.208  14.964  1.7216 -0.2722 -2.3124
 9320SOL     OW39592   3.435   1.970   0.275 -0.7426  0.3412 -0.3341
 9320SOL    HW139593   3.475   1.883   0.283  0.3323  0.9201  0.4968
 9320SOL    HW239594   3.342   1.947   0.272 -0.2604 -1.3555 -2.2809
 9321SOL     OW39595   3.076   3.671   4.213  0.3971 -0.2917  0.4286
 9321SOL    HW139596   3.026   3.738   4.258  0.4611  1.4993 -2.1472
 9321SOL    HW239597   3.082   3.702   4.122  0.3672 -2.5095 -0.3520
 9322SOL     OW39598   1.273   2.005   3.016  0.1907  0.3750  0.2808
 9322SOL    HW139599   1.309   1.994   3.104 -1.0461  0.1728  0.7591
 9322SOL    HW239600   1.351   1.972   2.971 -0.9078 -2.1864  0.2864
 9323SOL     OW39601   4.560   2.132   7.918  0.2675 -0.2680 -0.1849
 9323SOL    HW139602   4.654   2.116   7.906  0.3668  0.5220 -0.4681
 9323SOL    HW239603   4.534   2.069   7.984 -1.2579  1.3906  0.7920
 9324SOL     OW39604   4.337   4.108   2.648  0.3131  0.3932  0.6666
 9324SOL    HW139605   4.418   4.158   2.658  0.3652  0.7566 -1.3959
 9324SOL    HW239606   4.339   4.095   2.553  0.0988  1.3239  0.5358
 9325SOL     OW39607   3.423   0.692   5.556 -0.2975  0.0687 -0.2064
 9325SOL    HW139608   3.507   0.655   5.529  0.7685  0.1718  3.0460
 9325SOL    HW239609   3.427   0.672   5.649 -0.6524 -1.6990 -0.5638
 9326SOL     OW39610   2.138   2.205   0.981  0.1737 -0.3201 -0.0941
 9326SOL    HW139611   2.087   2.227   1.058  0.2615  0.9157 -0.3826
 9326SOL    HW239612   2.078   2.147   0.935  0.1496  1.6124 -2.5324
 9327SOL     OW39613   4.027   2.367  15.189 -0.1043  0.3001  0.1435
 9327SOL    HW139614   3.995   2.279  15.171  1.8941 -0.3372 -0.3067
 9327SOL    HW239615   3.979   2.392  15.268 -0.5648 -0.8365  0.2160
 9328SOL     OW39616   4.333   4.047  10.500 -0.5858 -0.0464 -0.3748
 9328SOL    HW139617   4.351   3.956  10.478  0.2106  0.3508 -1.3896
 9328SOL    HW239618   4.238   4.036  10.493 -0.4437 -0.5449 -1.4745
 9329SOL     OW39619   1.506   0.338   1.460 -0.2634  0.4798  0.4741
 9329SOL    HW139620   1.522   0.391   1.539  0.7673 -0.4864  0.9079
 9329SOL    HW239621   1.573   0.375   1.403 -1.6077 -0.8774 -1.9486
 9330SOL     OW39622   0.344   1.285  12.136 -0.4706  0.4022  0.0742
 9330SOL    HW139623   0.423   1.288  12.190  0.4475 -1.4144 -1.1560
 9330SOL    HW239624   0.286   1.352  12.173  1.5911  0.8938  2.4132
 9331SOL     OW39625   1.454   3.938   0.872  0.1046  0.2791 -0.1067
 9331SOL    HW139626   1.393   3.982   0.932 -1.0415 -1.0598 -0.2891
 9331SOL    HW239627   1.528   3.998   0.882  0.7529 -0.5455 -0.0511
 9332SOL     OW39628   0.875   3.498  16.573  0.1707 -0.4213  0.4486
 9332SOL    HW139629   0.937   3.569  16.589  1.8674 -1.6596 -0.6662
 9332SOL    HW239630   0.906   3.485  16.484 -0.4516 -1.5214  0.3845
 9333SOL     OW39631   3.994   3.557   2.431 -0.0955  0.4088  0.6065
 9333SOL    HW139632   3.997   3.573   2.337  0.0425  3.5169  1.1458
 9333SOL    HW239633   4.077   3.512   2.444  0.6400  1.3645 -0.7284
 9334SOL     OW39634   1.881   2.207   5.509 -0.5210 -0.3856 -0.2678
 9334SOL    HW139635   1.897   2.295   5.475  0.2455 -0.7237 -0.7843
 9334SOL    HW239636   1.967   2.199   5.552  0.2777  1.8196 -1.4641
 9335SOL     OW39637   1.097   4.671   6.498  0.9299  0.1288  0.2030
 9335SOL    HW139638   1.153   0.003   6.472  0.6474  1.1180  2.3758
 9335SOL    HW239639   1.015   4.714   6.523  2.3044  1.7529  1.9271
 9336SOL     OW39640   2.708   2.561   3.100  0.1605 -0.0617  0.3651
 9336SOL    HW139641   2.737   2.516   3.020  0.7847  1.4607 -0.2802
 9336SOL    HW239642   2.695   2.492   3.164  0.6925 -0.2842  0.2359
 9337SOL     OW39643   3.904   1.150   7.971  0.5808  0.2999  0.1386
 9337SOL    HW139644   3.917   1.157   8.065 -1.7190 -0.0832  0.4670
 9337SOL    HW239645   3.877   1.059   7.963  1.1492  0.3399 -2.5092
 9338SOL     OW39646   2.127   3.845   9.043  0.0476 -0.7958  0.4829
 9338SOL    HW139647   2.218   3.875   9.045 -0.7587  1.6601 -0.1977
 9338SOL    HW239648   2.083   3.911   8.991  1.2731 -0.5415 -0.2426
 9339SOL     OW39649   4.108   2.948   2.826  0.7485 -0.5397 -0.6923
 9339SOL    HW139650   4.175   2.932   2.759  0.6118 -0.2844 -0.8867
 9339SOL    HW239651   4.156   2.909   2.899  0.1137 -2.0594 -1.0895
 9340SOL     OW39652   3.006   4.036   7.371  0.0342 -0.1119  0.0392
 9340SOL    HW139653   3.027   3.949   7.336  2.6469  0.1813  0.8692
 9340SOL    HW239654   3.086   4.038   7.422 -0.7209 -2.0121  1.3122
 9341SOL     OW39655   3.491   3.500   2.642 -0.2139 -0.4724 -0.1984
 9341SOL    HW139656   3.515   3.560   2.712 -0.6117 -1.0346  0.4171
 9341SOL    HW239657   3.559   3.508   2.575  0.2879 -3.2471  0.0062
 9342SOL     OW39658   1.855   1.110   7.049  0.6885 -0.0354  0.1605
 9342SOL    HW139659   1.936   1.084   7.007  2.2382  3.6174  0.8785
 9342SOL    HW239660   1.871   1.066   7.132  1.9233  0.5254  0.2213
 9343SOL     OW39661   1.417   0.648   8.605  0.0639 -0.0697  0.0588
 9343SOL    HW139662   1.380   0.560   8.603  2.1943 -0.9070 -3.4298
 9343SOL    HW239663   1.508   0.619   8.601 -0.2416 -0.8632 -1.4631
 9344SOL     OW39664   1.062   1.468   5.301  0.1219  0.1930  0.3483
 9344SOL    HW139665   0.968   1.487   5.294  0.0406  0.4380  2.2232
 9344SOL    HW239666   1.097   1.544   5.349 -0.5036 -1.1767  2.9629
 9345SOL     OW39667   0.911   0.815   7.255  0.0056 -0.1249  0.0702
 9345SOL    HW139668   0.897   0.855   7.341  1.2748 -0.1633  0.3024
 9345SOL    HW239669   0.827   0.787   7.220  0.3180 -2.5458  1.2690
 9346SOL     OW39670   3.107   4.498  15.664  0.3014 -0.4621  0.4444
 9346SOL    HW139671   3.180   4.557  15.680 -0.3309  0.0239  1.5421
 9346SOL    HW239672   3.093   4.507  15.569  1.2733 -1.4021  0.2249
 9347SOL     OW39673   3.209   2.655  17.253 -0.7146  0.2567 -0.4247
 9347SOL    HW139674   3.188   2.562  17.257 -1.6183  0.4463 -0.7260
 9347SOL    HW239675   3.233   2.670  17.162 -2.2813  0.3415 -0.8278
 9348SOL     OW39676   0.167   0.694   4.759  0.0099  0.4973 -0.7826
 9348SOL    HW139677   0.128   0.753   4.694 -1.7832  0.6396  0.4366
 9348SOL    HW239678   0.097   0.630   4.749  2.2772 -2.3718  1.7020
 9349SOL     OW39679   2.429   1.071   8.884  0.3984  0.5571  0.2360
 9349SOL    HW139680   2.449   1.124   8.961 -1.8399  2.0181 -0.1754
 9349SOL    HW239681   2.523   1.066   8.865  0.2893  0.7762 -0.3646
 9350SOL     OW39682   0.848   1.764  12.476 -0.0961 -0.7337  0.1408
 9350SOL    HW139683   0.862   1.827  12.405 -0.6186 -0.9299 -0.1377
 9350SOL    HW239684   0.915   1.803  12.532 -2.1417  1.1982  1.2300
 9351SOL     OW39685   0.463   4.140   2.860 -0.2744 -0.8314 -0.0215
 9351SOL    HW139686   0.501   4.184   2.785  0.3660  0.9693  1.3535
 9351SOL    HW239687   0.446   4.055   2.820 -0.0179 -1.4967  1.2932
 9352SOL     OW39688   1.647   3.992   1.360 -0.4389 -0.4043  0.3398
 9352SOL    HW139689   1.738   3.965   1.368 -0.9443 -2.2260 -0.0372
 9352SOL    HW239690   1.603   3.908   1.376  2.0240 -1.7062  0.3343
 9353SOL     OW39691   1.329   1.712  16.152 -0.7473 -0.1516  0.6116
 9353SOL    HW139692   1.403   1.715  16.212  1.0263  0.3284 -1.6150
 9353SOL    HW239693   1.380   1.668  16.084 -0.9349 -1.7116  1.4737
 9354SOL     OW39694   2.280   3.886  17.359  0.0675  0.5412  0.1544
 9354SOL    HW139695   2.314   3.871  17.271  1.7631  0.7846  0.7573
 9354SOL    HW239696   2.365   3.892  17.404  0.5178  0.4591 -0.6838
 9355SOL     OW39697   3.004   1.911   5.174 -0.0481 -0.9375 -0.1192
 9355SOL    HW139698   3.099   1.920   5.165 -0.0010 -0.5552  0.8442
 9355SOL    HW239699   2.995   1.816   5.174  0.4524 -0.9691  3.9050
 9356SOL     OW39700   2.951   2.485   2.029 -0.1444  0.0807 -0.0300
 9356SOL    HW139701   2.881   2.488   2.095  0.6446  0.6059  0.7851
 9356SOL    HW239702   2.906   2.495   1.946 -0.5370 -1.0735  0.0371
 9357SOL     OW39703   4.033   4.494   9.796  0.3949 -0.3108  0.6530
 9357SOL    HW139704   4.091   4.421   9.819 -0.1409 -0.9356  0.0305
 9357SOL    HW239705   4.075   4.553   9.858 -0.0539 -0.8687  1.4827
 9358SOL     OW39706   1.712   3.139   1.983  0.2291 -0.1509 -0.2846
 9358SOL    HW139707   1.657   3.103   1.913  0.1570 -1.1405  0.2678
 9358SOL    HW239708   1.677   3.108   2.066  0.1042  0.1370 -0.2342
 9359SOL     OW39709   4.290   2.317   3.108 -0.2110  0.2316  0.3147
 9359SOL    HW139710   4.369   2.305   3.056 -0.9018 -0.1923 -0.6418
 9359SOL    HW239711   4.283   2.228   3.143  2.6522  0.1184  0.5788
 9360SOL     OW39712   2.367   2.381  11.047 -0.2920 -0.5818 -0.3093
 9360SOL    HW139713   2.316   2.337  10.979  1.3290 -2.8233 -0.0613
 9360SOL    HW239714   2.306   2.352  11.116  0.1921  0.7984  0.6980
 9361SOL     OW39715   1.294   0.608   6.939  0.4365  0.3122  0.3705
 9361SOL    HW139716   1.356   0.549   6.981 -0.0120  0.4954  1.2958
 9361SOL    HW239717   1.345   0.628   6.860  0.3898 -0.3124  0.1814
 9362SOL     OW39718   1.663   1.927   6.894 -0.2321 -0.1142  0.0082
 9362SOL    HW139719   1.654   1.887   6.807 -1.3067 -0.6090  0.3352
 9362SOL    HW239720   1.581   1.895   6.932 -1.3333  0.9422 -1.4803
 9363SOL     OW39721   1.300   0.803  10.116 -0.0010 -0.4411  0.0243
 9363SOL    HW139722   1.378   0.858  10.122 -1.0753  0.7737  2.4790
 9363SOL    HW239723   1.286   0.759  10.199 -1.2472 -1.6498 -0.8138
 9364SOL     OW39724   0.006   1.327   8.667  0.6973  0.1203 -0.0331
 9364SOL    HW139725   0.019   1.407   8.718 -1.3169  1.2323 -1.2565
 9364SOL    HW239726   4.687   1.275   8.721  0.3423 -0.9648 -1.4773
 9365SOL     OW39727   4.388   3.569  11.175  0.0569 -0.4187 -0.2364
 9365SOL    HW139728   4.331   3.497  11.148 -0.8741  0.8785 -1.6702
 9365SOL    HW239729   4.332   3.646  11.179  0.4099 -0.1491 -0.5177
 9366SOL     OW39730   2.682   1.930   3.643 -0.1577 -0.4599  0.3981
 9366SOL    HW139731   2.645   1.850   3.681 -0.7293 -0.0273  0.7458
 9366SOL    HW239732   2.762   1.933   3.695 -0.5354 -1.4018  1.0279
 9367SOL     OW39733   0.532   0.529   6.685 -0.0411  0.3479 -0.0602
 9367SOL    HW139734   0.554   0.499   6.773  0.3487  0.2348 -0.1932
 9367SOL    HW239735   0.488   0.451   6.650 -0.3209  0.4579  0.0539
 9368SOL     OW39736   1.129   4.077   4.610  0.0720 -0.5571  0.4585
 9368SOL    HW139737   1.105   4.111   4.523  1.0558  0.0865  0.4345
 9368SOL    HW239738   1.223   4.066   4.595  0.7067  1.1812  3.2297
 9369SOL     OW39739   2.944   2.035   4.689  0.6928  0.7538  0.5110
 9369SOL    HW139740   2.926   2.061   4.598  2.2581  3.2843  0.9242
 9369SOL    HW239741   2.972   1.943   4.681 -0.4098  0.4305  0.2943
 9370SOL     OW39742   4.133   1.754   7.055 -0.2505 -0.3537  0.1894
 9370SOL    HW139743   4.154   1.661   7.067  3.2550  0.2947 -0.9929
 9370SOL    HW239744   4.124   1.749   6.960  0.4692 -1.8899  0.2125
 9371SOL     OW39745   0.485   2.292   8.791  1.0366  0.2526 -0.0685
 9371SOL    HW139746   0.469   2.246   8.873  0.4302 -0.4281 -0.5639
 9371SOL    HW239747   0.575   2.267   8.772  0.8797 -0.6899  0.4329
 9372SOL     OW39748   3.989   2.489   6.259  0.1628 -0.3118  0.5553
 9372SOL    HW139749   3.896   2.495   6.281  0.0588  1.8735 -0.4727
 9372SOL    HW239750   4.023   2.495   6.348 -0.4684  1.0368  0.7068
 9373SOL     OW39751   1.836   2.076   8.243 -0.3930 -0.0229  0.1360
 9373SOL    HW139752   1.895   2.117   8.179  1.3624 -0.7691  1.2613
 9373SOL    HW239753   1.900   2.018   8.283 -0.5132  0.5038  1.0894
 9374SOL     OW39754   3.106   4.284   8.321 -0.3870  0.4942  0.0166
 9374SOL    HW139755   3.067   4.245   8.243 -3.0258 -0.1248  1.6403
 9374SOL    HW239756   3.059   4.367   8.329 -0.0955  0.7439 -0.9495
 9375SOL     OW39757   0.453   1.782   0.653 -0.2398  0.4469 -0.0194
 9375SOL    HW139758   0.533   1.759   0.606  0.5464  2.3018  0.3920
 9375SOL    HW239759   0.413   1.857   0.608 -0.6247 -0.3086 -0.9311
 9376SOL     OW39760   3.613   1.542   0.671 -0.2217 -0.1001 -0.1738
 9376SOL    HW139761   3.690   1.515   0.621 -0.8059  0.0454 -1.1443
 9376SOL    HW239762   3.547   1.480   0.639  1.5638 -1.6082 -0.9609
 9377SOL     OW39763   4.274   0.345   7.533 -0.5415 -0.2100 -0.4044
 9377SOL    HW139764   4.254   0.426   7.580  1.0816 -1.0519  1.7667
 9377SOL    HW239765   4.303   0.381   7.449 -1.3287  0.2959 -0.4608
 9378SOL     OW39766   1.255   1.452   3.737 -0.5090  0.2419 -0.2957
 9378SOL    HW139767   1.333   1.507   3.745 -0.1643 -0.2472 -0.2324
 9378SOL    HW239768   1.221   1.482   3.653 -1.6516  1.8594  0.7459
 9379SOL     OW39769   3.829   0.278   6.535  0.1720  0.0787  0.1370
 9379SOL    HW139770   3.835   0.213   6.605 -2.5294  1.2158  1.3978
 9379SOL    HW239771   3.736   0.301   6.529  0.9501  2.9594 -0.9732
 9380SOL     OW39772   1.501   4.580   9.105 -0.3702  0.0514 -0.1983
 9380SOL    HW139773   1.430   4.517   9.117  0.5589 -0.4974  2.5807
 9380SOL    HW239774   1.525   4.590   9.198 -1.3555  0.0478  0.0603
 9381SOL     OW39775   3.198   4.081  10.884  0.0899 -0.2534 -0.2776
 9381SOL    HW139776   3.176   4.174  10.883  0.4110 -0.1610  1.2177
 9381SOL    HW239777   3.292   4.076  10.899 -0.2465 -2.7700  0.9239
 9382SOL     OW39778   1.838   2.506   2.309 -0.2339 -0.0188  0.2490
 9382SOL    HW139779   1.875   2.547   2.387 -2.2820  2.0327  0.1243
 9382SOL    HW239780   1.752   2.472   2.333 -0.4779 -0.3379 -1.0879
 9383SOL     OW39781   3.053   2.549   7.886  0.4782  0.7059  0.4483
 9383SOL    HW139782   3.092   2.465   7.860  0.0460  0.0828  1.7933
 9383SOL    HW239783   3.100   2.614   7.834 -0.5290  1.9410  1.0777
 9384SOL     OW39784   2.101   2.335  11.842  0.3488 -0.1858 -0.2320
 9384SOL    HW139785   2.030   2.287  11.800 -0.3521 -0.8593  1.6961
 9384SOL    HW239786   2.079   2.425  11.821  2.4012  0.8467  2.0728
 9385SOL     OW39787   1.937   0.580  14.867  0.9570  0.6110 -0.2076
 9385SOL    HW139788   1.882   0.653  14.837  1.2959  1.4961  1.3015
 9385SOL    HW239789   2.022   0.611  14.832 -0.7380  0.9558 -4.0679
 9386SOL     OW39790   3.899   3.126   7.660 -0.4121 -0.2568 -0.2760
 9386SOL    HW139791   3.951   3.132   7.579  1.9102 -1.6350  1.1125
 9386SOL    HW239792   3.815   3.153   7.624  0.3259  0.7783 -1.2368
 9387SOL     OW39793   2.704   2.355   7.575  0.2091 -0.0942 -0.0088
 9387SOL    HW139794   2.783   2.371   7.525  0.1760 -2.7583 -0.9055
 9387SOL    HW239795   2.650   2.300   7.518 -0.0145 -0.1286  0.2319
 9388SOL     OW39796   2.605   0.833   4.770  0.2307  0.6329  0.1959
 9388SOL    HW139797   2.627   0.770   4.839 -0.5951  0.2568  0.1138
 9388SOL    HW239798   2.572   0.899   4.830 -2.7416 -1.2950  0.6909
 9389SOL     OW39799   3.161   0.753   5.067  0.4558 -0.8428  0.2332
 9389SOL    HW139800   3.234   0.810   5.043 -0.6684  0.3527 -0.3831
 9389SOL    HW239801   3.172   0.724   5.158 -1.3431 -0.1903  0.6506
 9390SOL     OW39802   0.222   2.884  17.273 -0.0492  0.6670 -0.1172
 9390SOL    HW139803   0.292   2.946  17.296  0.5258  0.0757 -0.2625
 9390SOL    HW239804   0.162   2.950  17.239 -1.4725 -0.6601 -0.2010
 9391SOL     OW39805   0.401   4.526  16.606 -0.0173  0.0109  0.4846
 9391SOL    HW139806   0.370   4.561  16.522  0.7018  1.9259  1.0177
 9391SOL    HW239807   0.448   4.449  16.576  0.1746 -0.0931  1.0692
 9392SOL     OW39808   2.907   1.716   4.062 -0.2569  0.6768  0.7077
 9392SOL    HW139809   2.901   1.809   4.086  0.3774  0.9578 -0.2137
 9392SOL    HW239810   2.991   1.683   4.093  0.2187  0.1025 -1.1668
 9393SOL     OW39811   2.706   2.671  14.976 -0.7402  0.1867  0.0741
 9393SOL    HW139812   2.691   2.749  15.030 -1.1316  0.5630 -0.5781
 9393SOL    HW239813   2.707   2.604  15.044  0.2343 -0.5257 -0.6455
 9394SOL     OW39814   1.394   4.452  10.312  0.8697 -0.3200 -0.1182
 9394SOL    HW139815   1.322   4.513  10.333  0.1152 -1.9733  2.0390
 9394SOL    HW239816   1.456   4.504  10.261 -0.5842  1.0081 -0.5521
 9395SOL     OW39817   2.816   3.366   7.269 -0.5842  0.0966  0.6302
 9395SOL    HW139818   2.760   3.416   7.208  0.1233  0.2528  0.1059
 9395SOL    HW239819   2.815   3.280   7.227  0.3499 -0.6526  2.1696
 9396SOL     OW39820   4.335   4.057  13.542  0.0045  0.7762 -0.1037
 9396SOL    HW139821   4.375   4.088  13.461  1.4307  1.5640  0.9010
 9396SOL    HW239822   4.275   4.130  13.556 -2.4136 -1.0092 -1.0097
 9397SOL     OW39823   1.859   0.862  10.986  0.0944  0.1140  0.0210
 9397SOL    HW139824   1.922   0.934  10.990 -2.0507  2.1292 -2.5550
 9397SOL    HW239825   1.855   0.849  10.891  1.1128  0.7094 -0.1042
 9398SOL     OW39826   4.657   4.696  10.254  0.0009 -0.4303  0.3835
 9398SOL    HW139827   4.645   4.648  10.337  1.5076 -0.6230  0.4825
 9398SOL    HW239828   0.004   4.732  10.249 -0.4022  0.6080  0.7601
 9399SOL     OW39829   1.684   4.357  16.323  0.2168  0.0521 -0.3527
 9399SOL    HW139830   1.753   4.420  16.345  1.3627 -1.7715  1.2725
 9399SOL    HW239831   1.653   4.323  16.407  2.2745 -0.9674  0.0044
 9400SOL     OW39832   3.071   0.138  16.394  0.0430 -0.3237  0.0756
 9400SOL    HW139833   3.136   0.206  16.414 -0.0258 -0.2697  0.1154
 9400SOL    HW239834   2.992   0.189  16.377  0.6179  0.8111  0.7714
 9401SOL     OW39835   1.661   4.043   6.253 -0.2649 -0.3862 -0.2451
 9401SOL    HW139836   1.682   4.046   6.159  0.1191 -2.4961 -0.2240
 9401SOL    HW239837   1.573   4.004   6.255 -0.5052  0.1072 -0.9095
 9402SOL     OW39838   4.637   0.006   2.743 -0.3483 -0.0537  0.0675
 9402SOL    HW139839   4.564   0.064   2.766  0.1401  0.8553 -0.6672
 9402SOL    HW239840   4.667   0.043   2.660 -2.6160  1.7741  0.0832
 9403SOL     OW39841   0.167   2.289   5.915  0.0529  0.2113  0.1451
 9403SOL    HW139842   0.078   2.267   5.889  0.1541  1.2820 -1.0739
 9403SOL    HW239843   0.220   2.252   5.845  0.2063  2.3155 -0.8473
 9404SOL     OW39844   0.606   1.607  17.502  0.6048 -0.0337 -0.1675
 9404SOL    HW139845   0.665   1.549  17.455  0.4078  0.0088 -0.4643
 9404SOL    HW239846   0.581   1.663  17.429  0.8922 -0.9468 -0.9785
 9405SOL     OW39847   1.240   0.097   7.773 -0.4639  0.1621 -0.0495
 9405SOL    HW139848   1.249   0.003   7.754 -0.6273  0.4829 -1.7263
 9405SOL    HW239849   1.248   0.093   7.868 -2.6967 -3.6246  0.0041
 9406SOL     OW39850   2.712   1.620  15.464  0.0165  0.1856  0.3310
 9406SOL    HW139851   2.653   1.550  15.435  1.4620 -0.5170 -0.8970
 9406SOL    HW239852   2.681   1.702  15.426  2.1300  1.3986  1.2166
 9407SOL     OW39853   0.698   3.710   2.507  0.3870  0.3619  0.0409
 9407SOL    HW139854   0.698   3.616   2.489 -1.6489 -0.3110  3.5960
 9407SOL    HW239855   0.611   3.730   2.540  0.6550  1.1795  0.2499
 9408SOL     OW39856   1.388   0.820   9.830  0.7474  0.0791 -0.5294
 9408SOL    HW139857   1.314   0.789   9.882  0.9151  1.5945  0.6198
 9408SOL    HW239858   1.446   0.854   9.899  1.2957 -1.7870 -0.0905
 9409SOL     OW39859   2.980   0.768  14.557 -0.1828 -0.8006 -0.5001
 9409SOL    HW139860   3.067   0.729  14.552  0.1557 -0.1166  0.1101
 9409SOL    HW239861   2.962   0.769  14.463 -2.8814  2.1120  0.0393
 9410SOL     OW39862   0.661   0.303   9.568 -0.7190  0.0653 -0.5323
 9410SOL    HW139863   0.599   0.254   9.514 -2.5556 -0.1135  1.7200
 9410SOL    HW239864   0.740   0.312   9.514  1.2497 -1.4749  2.0478
 9411SOL     OW39865   3.894   3.696  17.525  0.1085 -0.0394 -0.3646
 9411SOL    HW139866   3.931   3.762  17.466  1.5248  0.5409  1.1792
 9411SOL    HW239867   3.829   3.657  17.468  0.4307  0.5277 -1.1217
 9412SOL     OW39868   1.081   3.360   3.116 -0.2410 -0.5741 -0.4528
 9412SOL    HW139869   1.129   3.399   3.189  1.0585  0.3977 -1.8331
 9412SOL    HW239870   1.045   3.435   3.067  1.8042  0.3854 -0.4966
 9413SOL     OW39871   0.088   1.954  12.827 -0.8787 -0.3235 -0.2013
 9413SOL    HW139872   0.140   1.905  12.891  0.4113 -1.3161 -2.0216
 9413SOL    HW239873   0.019   1.893  12.801  0.2731 -1.1326 -1.3251
 9414SOL     OW39874   0.185   4.726  10.250  0.0217  0.3297  0.0430
 9414SOL    HW139875   0.223   0.050  10.191  2.0149 -0.7519  0.1258
 9414SOL    HW239876   0.256   4.712  10.312  1.0880  1.1467 -1.0021
 9415SOL     OW39877   1.195   1.189   5.838 -0.1482 -0.3384 -0.3334
 9415SOL    HW139878   1.223   1.098   5.825  0.7402  0.3022 -2.9419
 9415SOL    HW239879   1.105   1.182   5.805 -0.3729 -0.3337  0.2694
 9416SOL     OW39880   4.397   0.418   7.283 -0.1769  0.1932 -0.0180
 9416SOL    HW139881   4.485   0.382   7.273 -0.6634 -0.5537 -1.5840
 9416SOL    HW239882   4.352   0.346   7.241 -0.2206  0.4984 -0.4912
 9417SOL     OW39883   3.890   0.962  15.259 -0.1570 -0.1886 -0.0477
 9417SOL    HW139884   3.978   0.994  15.278  0.1087 -0.4959 -0.7239
 9417SOL    HW239885   3.821   1.016  15.298  0.2041  1.9284 -2.3337
 9418SOL     OW39886   0.273   3.562   6.886 -0.6601  0.9072 -0.3235
 9418SOL    HW139887   0.330   3.602   6.952 -0.1451 -1.4475  0.6803
 9418SOL    HW239888   0.224   3.636   6.852 -1.5450  0.1509 -0.7015
 9419SOL     OW39889   2.343   3.073   6.553 -0.2154  0.5648  0.4144
 9419SOL    HW139890   2.396   2.997   6.530 -0.9257  1.1323 -3.2307
 9419SOL    HW239891   2.269   3.073   6.492  1.0834  1.5062 -1.1577
 9420SOL     OW39892   1.843   3.285   4.433  0.3465  0.2488 -0.1936
 9420SOL    HW139893   1.875   3.240   4.355 -1.0598  1.4803 -1.4784
 9420SOL    HW239894   1.760   3.319   4.403 -0.1027  1.0361  1.9167
 9421SOL     OW39895   0.814   4.067   3.552 -0.4586 -0.2100  0.0492
 9421SOL    HW139896   0.869   3.989   3.559  0.0213  0.4726  3.8628
 9421SOL    HW239897   0.839   4.102   3.467 -0.6466  1.2922  0.6039
 9422SOL     OW39898   0.996   2.138   3.939  0.7418  0.3289 -0.4200
 9422SOL    HW139899   1.008   2.045   3.922  0.7490  0.4985 -1.3680
 9422SOL    HW239900   1.086   2.159   3.912  1.1707  0.7985  1.4160
 9423SOL     OW39901   1.976   4.236  16.599  0.1174 -0.2559  0.1111
 9423SOL    HW139902   2.027   4.273  16.526 -0.0524  1.4646  0.8749
 9423SOL    HW239903   1.957   4.147  16.571 -3.1154  1.0776 -1.8679
 9424SOL     OW39904   1.681   3.446   1.669  0.4543  0.0803 -0.2493
 9424SOL    HW139905   1.741   3.492   1.728 -2.0117 -2.0766  3.8833
 9424SOL    HW239906   1.595   3.469   1.705  0.2490  1.2063 -1.4346
 9425SOL     OW39907   2.885   3.301   1.586  0.6207  1.0343  0.3056
 9425SOL    HW139908   2.898   3.254   1.503 -1.7000 -0.8151  0.9923
 9425SOL    HW239909   2.819   3.368   1.568  2.1357  2.5292  0.3492
 9426SOL     OW39910   2.654   1.720   4.730 -0.0733 -0.0205 -0.4829
 9426SOL    HW139911   2.675   1.628   4.712  0.0064 -0.4221  1.7335
 9426SOL    HW239912   2.673   1.757   4.644 -1.2626  0.8697 -0.3571
 9427SOL     OW39913   1.870   4.411   1.900 -0.4313 -0.0898  0.4784
 9427SOL    HW139914   1.859   4.464   1.821  1.8274  0.2358  0.3605
 9427SOL    HW239915   1.814   4.337   1.878  1.2368 -0.8878 -1.0617
 9428SOL     OW39916   4.016   2.759   7.024  0.1176  0.2518  0.4319
 9428SOL    HW139917   3.954   2.686   7.023  0.2232  0.1757 -0.3038
 9428SOL    HW239918   4.094   2.705   7.010  0.4764  0.8535  0.1430
 9429SOL     OW39919   2.395   2.628   0.962  0.1709  0.9308  0.4755
 9429SOL    HW139920   2.421   2.709   1.006  1.3859  0.7077  0.1509
 9429SOL    HW239921   2.475   2.587   0.930 -1.2007 -1.1125 -0.3408
 9430SOL     OW39922   2.136   0.594   6.053 -0.0958 -0.0547 -0.0532
 9430SOL    HW139923   2.134   0.657   5.980  1.5848 -0.9501 -0.8716
 9430SOL    HW239924   2.204   0.540   6.013 -0.2971 -0.1200 -0.3130
 9431SOL     OW39925   0.252   2.670   3.608  0.3686 -0.8934  0.1875
 9431SOL    HW139926   0.264   2.599   3.545 -2.0703 -0.5757 -0.6483
 9431SOL    HW239927   0.229   2.731   3.538  0.9039 -1.2294 -0.2790
 9432SOL     OW39928   2.749   0.890  13.417  0.2792 -0.2755 -0.3756
 9432SOL    HW139929   2.690   0.817  13.437  1.8538 -0.7370  2.6730
 9432SOL    HW239930   2.693   0.967  13.424 -0.1835 -0.5710 -0.7647
 9433SOL     OW39931   1.194   2.575   1.582  0.2680 -0.0580  0.0310
 9433SOL    HW139932   1.165   2.484   1.582  0.8370 -0.2357 -0.8191
 9433SOL    HW239933   1.201   2.584   1.487 -0.7592 -0.4811 -0.0840
 9434SOL     OW39934   4.068   3.340  13.770  0.1827 -0.2455 -0.1229
 9434SOL    HW139935   4.025   3.289  13.839  1.3244  2.8906  2.8598
 9434SOL    HW239936   4.054   3.288  13.690 -0.1228 -0.2550 -0.0626
 9435SOL     OW39937   1.623   4.405  17.718  0.0325 -0.4351  0.1975
 9435SOL    HW139938   1.532   4.386  17.695 -0.3146 -0.2366  1.4107
 9435SOL    HW239939   1.646   4.316  17.743  0.8694 -0.2448  0.0864
 9436SOL     OW39940   0.237   3.268  16.933  0.3760  0.6017 -0.1039
 9436SOL    HW139941   0.176   3.284  16.861 -1.2795 -1.2991  0.8959
 9436SOL    HW239942   0.310   3.229  16.886  1.2005  1.6574  0.2858
 9437SOL     OW39943   4.068   2.556   8.957 -0.0062  0.7082 -0.1901
 9437SOL    HW139944   4.028   2.469   8.957 -1.8792  1.5736 -0.6275
 9437SOL    HW239945   4.147   2.536   9.008 -1.3746  0.1327  1.7140
 9438SOL     OW39946   0.462   0.408   4.171 -0.6794 -0.3087 -0.2993
 9438SOL    HW139947   0.399   0.479   4.166 -1.0318 -0.7971 -2.5703
 9438SOL    HW239948   0.529   0.444   4.114  0.8480  0.7839  2.1934
 9439SOL     OW39949   4.643   1.605  17.750 -0.6329 -0.2074  0.1732
 9439SOL    HW139950   4.551   1.621   0.008 -0.3807 -0.0053  1.2173
 9439SOL    HW239951   4.689   1.689  17.750 -0.4534 -0.3110 -1.7858
 9440SOL     OW39952   3.793   2.264   6.673 -0.2964  0.3984  0.2306
 9440SOL    HW139953   3.797   2.213   6.754  1.0297  2.1705  1.2765
 9440SOL    HW239954   3.814   2.347   6.716  3.1125 -0.7737  0.8019
 9441SOL     OW39955   4.024   2.283   2.889 -0.0868 -0.0820 -0.3742
 9441SOL    HW139956   4.010   2.328   2.806 -1.5403 -1.3115 -0.7854
 9441SOL    HW239957   3.943   2.233   2.886  0.5520 -1.1982  1.0228
 9442SOL     OW39958   4.620   0.064   7.910 -0.0742  0.5983 -0.0199
 9442SOL    HW139959   4.565   0.008   7.965  1.4002 -2.0276 -1.2090
 9442SOL    HW239960   4.579   0.150   7.912  0.2505  0.7567 -0.2380
 9443SOL     OW39961   4.646   0.586   5.826  0.3802  0.1605 -0.0094
 9443SOL    HW139962   4.687   0.647   5.764 -0.4989  0.5119 -0.2496
 9443SOL    HW239963   4.554   0.602   5.805  0.0395 -2.4406 -0.5732
 9444SOL     OW39964   0.630   1.955  10.194 -0.0582 -0.4758  0.6929
 9444SOL    HW139965   0.684   2.009  10.252 -0.5916 -1.2818  1.9368
 9444SOL    HW239966   0.646   2.002  10.112  2.1196  1.2298  2.0815
 9445SOL     OW39967   3.336   1.410   7.777  0.4480 -0.1467 -0.2862
 9445SOL    HW139968   3.282   1.427   7.854  3.3293 -0.6113  1.8492
 9445SOL    HW239969   3.262   1.391   7.720 -0.9753 -1.2361  1.9320
 9446SOL     OW39970   3.981   4.739  13.724 -0.0757  0.7978 -0.0278
 9446SOL    HW139971   3.954   0.025  13.636 -0.4671  0.8184  0.0967
 9446SOL    HW239972   3.903   4.709  13.772  0.1608 -0.1362 -0.2217
 9447SOL     OW39973   1.191   0.368  11.190  0.2533  0.6754  0.1662
 9447SOL    HW139974   1.146   0.451  11.176  2.2809  1.8664  0.6596
 9447SOL    HW239975   1.226   0.369  11.279  0.3458  1.7327  0.1087
 9448SOL     OW39976   3.411   3.030  17.598  0.0735  0.2367  0.2735
 9448SOL    HW139977   3.425   2.936  17.611  0.0374 -0.0410 -1.6654
 9448SOL    HW239978   3.372   3.057  17.682 -0.7579 -1.0183  0.2827
 9449SOL     OW39979   3.327   4.723   1.938  0.5110 -0.5188  0.2701
 9449SOL    HW139980   3.404   4.666   1.940  0.0237 -1.2744 -3.0504
 9449SOL    HW239981   3.362   0.052   1.994 -1.8301  0.7292  0.1881
 9450SOL     OW39982   1.488   1.579   4.086  0.3220  0.0483 -0.2333
 9450SOL    HW139983   1.410   1.531   4.112  0.0641 -0.2624 -1.5679
 9450SOL    HW239984   1.461   1.612   4.000 -0.0061  1.4621  0.4087
 9451SOL     OW39985   4.044   0.852   8.741 -0.0562 -0.3379 -0.1332
 9451SOL    HW139986   4.072   0.762   8.722  1.5686 -0.1738  1.4525
 9451SOL    HW239987   4.054   0.886   8.652 -2.7961  0.2030 -0.2339
 9452SOL     OW39988   0.340   3.159  15.893 -0.0782  0.0277  0.4736
 9452SOL    HW139989   0.247   3.155  15.867  0.5767  1.5699 -2.1107
 9452SOL    HW239990   0.349   3.253  15.906 -0.7028 -0.1382  2.0808
 9453SOL     OW39991   3.056   3.261   2.363  0.1693  0.5105 -0.0148
 9453SOL    HW139992   2.973   3.302   2.339 -0.0578  0.2942  0.3936
 9453SOL    HW239993   3.073   3.202   2.291 -1.3326 -0.7107  0.6243
 9454SOL     OW39994   0.511   0.990   1.190  0.3135  0.3452  0.2699
 9454SOL    HW139995   0.489   1.011   1.280 -2.0789 -2.0658  0.2404
 9454SOL    HW239996   0.543   1.070   1.148 -0.6735  0.4681 -0.2414
 9455SOL     OW39997   0.352   1.243   2.956 -0.1328 -0.2330 -0.8796
 9455SOL    HW139998   0.296   1.189   3.011 -0.9547  0.8123 -0.6974
 9455SOL    HW239999   0.423   1.180   2.946  1.6870  1.5594  0.6264
 9456SOL     OW40000   1.444   2.777   2.485 -0.4367 -0.1066 -0.5010
 9456SOL    HW140001   1.498   2.812   2.414 -0.6940  0.4081 -0.4403
 9456SOL    HW240002   1.358   2.758   2.449 -0.7092  2.0198 -0.9296
 9457SOL     OW40003   2.132   0.807   5.372  0.0512 -0.4041  0.2413
 9457SOL    HW140004   2.071   0.864   5.420 -1.7936 -2.2551  0.0879
 9457SOL    HW240005   2.074   0.763   5.310 -1.9921  0.8064  1.2662
 9458SOL     OW40006   2.472   3.710   7.389 -0.6561 -0.1575 -0.2210
 9458SOL    HW140007   2.426   3.747   7.465  2.6607  0.8074  1.3263
 9458SOL    HW240008   2.562   3.710   7.423 -0.5937 -0.2717 -0.3900
 9459SOL     OW40009   2.957   1.274   3.194 -0.4184  0.2260  0.2673
 9459SOL    HW140010   2.899   1.201   3.170 -0.0705 -0.7558  2.3791
 9459SOL    HW240011   3.044   1.262   3.156  0.2382 -0.5968  2.0052
 9460SOL     OW40012   1.022   0.539   3.045 -0.3614 -0.0926  0.2387
 9460SOL    HW140013   0.950   0.478   3.026  0.9368 -2.0998  1.8165
 9460SOL    HW240014   1.073   0.497   3.114 -0.8839  1.1302  1.3663
 9461SOL     OW40015   0.769   4.068   1.845  0.2480 -0.1312 -0.4938
 9461SOL    HW140016   0.760   4.023   1.761  0.6754  0.9865 -1.1387
 9461SOL    HW240017   0.701   4.135   1.842  0.9405  0.7829  3.4164
 9462SOL     OW40018   2.580   1.173  10.822  0.1032 -0.2143 -0.2143
 9462SOL    HW140019   2.581   1.085  10.860  0.0140 -0.1779 -0.1251
 9462SOL    HW240020   2.649   1.214  10.874  0.2098  0.2394 -0.7153
 9463SOL     OW40021   2.804   0.558   2.365  0.8728 -0.1305  0.1460
 9463SOL    HW140022   2.814   0.633   2.306  3.4357  0.5279  1.4507
 9463SOL    HW240023   2.870   0.499   2.330  0.1382  0.0366 -1.5427
 9464SOL     OW40024   2.472   4.544   0.752 -0.0150  0.0075 -0.0350
 9464SOL    HW140025   2.508   4.517   0.668 -0.7777  0.0164 -0.3625
 9464SOL    HW240026   2.522   4.622   0.776 -0.4936 -0.0469  1.1378
 9465SOL     OW40027   1.975   3.098   8.829  0.5637 -0.3408  0.1687
 9465SOL    HW140028   1.930   3.014   8.818 -0.4135  0.4311 -1.6591
 9465SOL    HW240029   2.032   3.077   8.903  0.4340 -2.1155 -0.2462
 9466SOL     OW40030   1.444   2.948   5.859 -0.3276 -0.1187  0.3047
 9466SOL    HW140031   1.489   2.878   5.906 -1.0584 -1.1063 -0.4662
 9466SOL    HW240032   1.362   2.900   5.848  1.1161 -2.7227  1.0486
 9467SOL     OW40033   0.988   0.669   9.694  0.1088  0.1247 -0.7128
 9467SOL    HW140034   0.990   0.584   9.652  1.4859 -1.0885  1.7803
 9467SOL    HW240035   0.938   0.730   9.640  2.4711  0.5906 -2.3600
 9468SOL     OW40036   0.687   3.521   6.006  0.1696 -0.4167  0.5196
 9468SOL    HW140037   0.748   3.447   6.000  1.4695  0.6335  0.7174
 9468SOL    HW240038   0.625   3.502   6.077 -1.3170  1.4891 -0.2980
 9469SOL     OW40039   0.518   1.317   4.226 -0.4441  0.5778 -0.5042
 9469SOL    HW140040   0.425   1.291   4.227  0.0849 -1.3204 -0.7330
 9469SOL    HW240041   0.531   1.374   4.151  3.8605  1.6472  1.0875
 9470SOL     OW40042   0.632   2.696   9.620  0.4889 -0.0936 -0.0337
 9470SOL    HW140043   0.615   2.789   9.636  0.7266 -0.0718  0.0848
 9470SOL    HW240044   0.711   2.710   9.568  1.0039 -1.0016  0.5081
 9471SOL     OW40045   2.502   1.071   1.120  0.2524  0.0105  0.2740
 9471SOL    HW140046   2.461   0.988   1.093  2.9964 -1.9624  2.1827
 9471SOL    HW240047   2.456   1.077   1.204  1.1042  1.0118  0.6577
 9472SOL     OW40048   3.199   1.090  13.595  0.1405  0.5495  0.5608
 9472SOL    HW140049   3.219   1.075  13.502 -0.8444 -0.2721  0.4754
 9472SOL    HW240050   3.283   1.065  13.633 -0.1508 -1.1744  0.0662
 9473SOL     OW40051   0.766   2.924  10.992  0.2482  0.7646 -0.4479
 9473SOL    HW140052   0.839   2.985  10.988 -2.3691  3.9137 -0.6538
 9473SOL    HW240053   0.733   2.938  10.903  0.1748 -0.4061 -0.6015
 9474SOL     OW40054   0.410   1.028   7.361 -0.0798  0.4819 -0.3000
 9474SOL    HW140055   0.486   1.007   7.307 -0.1958 -0.7867  0.0302
 9474SOL    HW240056   0.425   1.120   7.384  1.7017  0.4300 -1.2510
 9475SOL     OW40057   2.455   0.795   3.769 -1.2383 -0.2688 -0.3487
 9475SOL    HW140058   2.527   0.839   3.814 -0.6874  1.0138 -2.4959
 9475SOL    HW240059   2.379   0.844   3.799 -0.0054  1.2184  0.3490
 9476SOL     OW40060   0.305   3.860   5.278 -0.3944  0.4632 -0.1165
 9476SOL    HW140061   0.229   3.907   5.312 -0.4253 -1.6440  2.7259
 9476SOL    HW240062   0.368   3.914   5.326 -1.3384  0.8155  0.7380
 9477SOL     OW40063   3.717   2.018   1.986 -0.0032 -0.0618  0.3838
 9477SOL    HW140064   3.696   2.025   1.893  1.2256 -1.1478  0.0301
 9477SOL    HW240065   3.803   2.061   1.991 -0.5420  1.1028 -0.3311
 9478SOL     OW40066   2.584   2.557   7.730  0.2210 -0.7959  0.4186
 9478SOL    HW140067   2.652   2.586   7.790 -0.1709 -0.6150  0.7779
 9478SOL    HW240068   2.628   2.483   7.688 -0.5019  0.3325 -2.2966
 9479SOL     OW40069   4.352   3.787  13.395 -0.3177  0.3936  0.1530
 9479SOL    HW140070   4.339   3.834  13.477  0.5421  0.5188  0.2145
 9479SOL    HW240071   4.271   3.804  13.346 -0.9926  1.1776  1.5600
 9480SOL     OW40072   3.448   2.419   2.154  0.0496  0.5440 -0.3418
 9480SOL    HW140073   3.357   2.406   2.127 -0.4912 -0.3891  2.0104
 9480SOL    HW240074   3.452   2.416   2.249  0.2796  2.2471 -0.3004
 9481SOL     OW40075   0.785   2.843   5.105 -0.5854  0.0197 -0.7804
 9481SOL    HW140076   0.750   2.758   5.077  0.3756  0.4193 -3.1545
 9481SOL    HW240077   0.704   2.890   5.088 -1.7273 -0.8342  2.2308
 9482SOL     OW40078   1.733   2.841   4.847 -0.0435  0.0460 -0.0660
 9482SOL    HW140079   1.790   2.776   4.807 -0.8974  0.3732 -1.8586
 9482SOL    HW240080   1.652   2.791   4.855  0.7473 -1.5166 -1.8616
 9483SOL     OW40081   3.443   1.103   8.776  0.0094 -0.3353  0.1253
 9483SOL    HW140082   3.537   1.087   8.779 -0.3315 -2.4930 -0.1456
 9483SOL    HW240083   3.429   1.134   8.686 -2.7628 -0.7979  0.3870
 9484SOL     OW40084   1.282   1.835   4.274 -0.4626  0.1128 -0.0007
 9484SOL    HW140085   1.333   1.885   4.210  0.2880  0.7270  1.0960
 9484SOL    HW240086   1.337   1.759   4.294 -0.4458  0.3883  0.9713
 9485SOL     OW40087   4.198   4.355  10.448 -0.7940 -0.4121  0.4304
 9485SOL    HW140088   4.253   4.411  10.502 -0.4812 -0.8438  0.5609
 9485SOL    HW240089   4.253   4.282  10.417 -1.1822 -1.0309  1.1942
 9486SOL     OW40090   0.497   1.958   4.142  0.0575 -0.8646  0.1945
 9486SOL    HW140091   0.533   1.870   4.151  1.4586 -0.1960  1.1583
 9486SOL    HW240092   0.553   2.008   4.083  1.1912 -0.6123  1.4949
 9487SOL     OW40093   2.751   2.366   0.725 -0.0105 -0.8979 -0.6386
 9487SOL    HW140094   2.841   2.351   0.699 -0.2091  0.2397 -1.9327
 9487SOL    HW240095   2.718   2.288   0.680  0.9211 -1.9740  0.5446
 9488SOL     OW40096   3.183   2.496  12.654  0.1843 -0.2130  0.3004
 9488SOL    HW140097   3.199   2.451  12.737  2.3824  0.5788  0.3234
 9488SOL    HW240098   3.118   2.557  12.688  1.0730  3.1947 -4.0754
 9489SOL     OW40099   0.783   3.551  14.939 -0.0151 -0.3432 -0.4223
 9489SOL    HW140100   0.740   3.535  14.855  2.4446  1.0667 -1.9608
 9489SOL    HW240101   0.875   3.535  14.920  0.3646  0.0129  1.0737
 9490SOL     OW40102   0.851   0.582   7.449 -0.4063  0.3969 -0.3086
 9490SOL    HW140103   0.883   0.498   7.481 -0.7086  1.0543  1.6886
 9490SOL    HW240104   0.895   0.589   7.364 -0.3067  2.4239 -0.0837
 9491SOL     OW40105   1.394   4.224  14.998  0.8746  0.7820  0.8020
 9491SOL    HW140106   1.475   4.198  15.042 -0.2553 -3.4825  0.4027
 9491SOL    HW240107   1.413   4.315  14.978  0.9271  1.1803  2.6165
 9492SOL     OW40108   1.539   2.051  17.116 -0.2664 -0.1846 -0.0668
 9492SOL    HW140109   1.486   2.053  17.036  0.6096  1.8634 -0.6018
 9492SOL    HW240110   1.514   1.965  17.150 -1.7516  0.4209  0.4071
 9493SOL     OW40111   2.145   0.241   5.840  0.0354  0.0683 -0.1109
 9493SOL    HW140112   2.058   0.281   5.845  1.2044  2.3701  1.6202
 9493SOL    HW240113   2.138   0.186   5.918  0.4020  1.9609  1.2718
 9494SOL     OW40114   4.666   3.413  14.085 -0.4100  0.4164  0.2012
 9494SOL    HW140115   0.019   3.417  14.066 -0.3380 -1.4597  0.2101
 9494SOL    HW240116   4.633   3.329  14.052 -0.8716 -0.3541  2.6542
 9495SOL     OW40117   2.934   2.204  15.510 -0.0362 -0.7763 -0.5948
 9495SOL    HW140118   2.930   2.242  15.422  0.8981 -1.6280 -0.9956
 9495SOL    HW240119   3.015   2.154  15.509  1.1426  1.1549 -2.4962
 9496SOL     OW40120   1.485   2.356   8.830 -0.3479  0.2910 -0.4416
 9496SOL    HW140121   1.496   2.423   8.762  0.2652  0.8531  0.2180
 9496SOL    HW240122   1.495   2.274   8.783  1.1175 -0.1103  0.5991
 9497SOL     OW40123   0.757   1.850   8.793 -0.4782  0.3662 -0.6599
 9497SOL    HW140124   0.848   1.844   8.824 -0.6748  1.3880  0.1026
 9497SOL    HW240125   0.716   1.813   8.871  3.0089  0.0863  1.0517
 9498SOL     OW40126   2.076   3.933  10.338 -0.2784 -0.0606  0.4192
 9498SOL    HW140127   2.082   3.842  10.309 -3.3756 -1.0560  2.9192
 9498SOL    HW240128   2.027   3.911  10.417  0.1625 -1.5598  0.2584
 9499SOL     OW40129   3.408   2.154   1.867  0.6370  0.2376 -0.5472
 9499SOL    HW140130   3.493   2.191   1.842  0.1413  1.7141 -0.0621
 9499SOL    HW240131   3.427   2.126   1.957 -0.1957 -0.8712 -0.7135
 9500SOL     OW40132   3.211   0.803   4.344 -0.1233  0.3392  0.1615
 9500SOL    HW140133   3.129   0.815   4.393 -0.4902 -0.7216 -0.1812
 9500SOL    HW240134   3.255   0.884   4.368 -1.3838  1.1908 -0.4062
 9501SOL     OW40135   0.756   2.175   7.542 -0.0916 -0.5136 -0.2120
 9501SOL    HW140136   0.686   2.206   7.485 -0.8782  1.5652  1.8744
 9501SOL    HW240137   0.830   2.228   7.513  1.0969 -1.2610  1.4316
 9502SOL     OW40138   2.262   1.998  11.602 -0.5940  0.0321  0.2275
 9502SOL    HW140139   2.353   1.968  11.599 -0.7504 -0.0381 -3.4554
 9502SOL    HW240140   2.264   2.088  11.569  0.6591 -0.2236 -0.3682
 9503SOL     OW40141   2.662   4.143   7.231 -0.2212  0.1987 -0.0694
 9503SOL    HW140142   2.621   4.075   7.179 -2.0461  0.7408  0.6756
 9503SOL    HW240143   2.718   4.096   7.294 -0.5241  1.1750  0.9393
 9504SOL     OW40144   0.208   1.623   7.957 -0.1756  0.4973  0.3688
 9504SOL    HW140145   0.251   1.594   8.037 -1.2767  0.0454  0.7968
 9504SOL    HW240146   0.191   1.712   7.989 -1.1632  0.2639  0.4977
 9505SOL     OW40147   1.880   0.121   6.835 -0.2733  0.2666 -0.1175
 9505SOL    HW140148   1.876   0.035   6.793 -1.9561  0.8586 -1.1515
 9505SOL    HW240149   1.940   0.107   6.909 -1.4489 -0.8139  0.6538
 9506SOL     OW40150   4.047   3.658   4.485 -0.0699  0.2615 -0.1317
 9506SOL    HW140151   4.084   3.712   4.555 -0.8395 -0.0325  0.4977
 9506SOL    HW240152   4.034   3.581   4.539 -0.8075  0.8228  0.4966
 9507SOL     OW40153   1.781   4.639   3.283  0.0797  0.4378  0.0789
 9507SOL    HW140154   1.753   4.573   3.347 -0.9840  2.2196  1.4538
 9507SOL    HW240155   1.812   4.712   3.335  0.1527  0.8204 -0.5009
 9508SOL     OW40156   0.474   1.031  12.465 -0.3214 -0.4613 -0.5248
 9508SOL    HW140157   0.565   1.030  12.493 -0.8650 -1.5501  1.2382
 9508SOL    HW240158   0.429   1.053  12.547  1.3045  3.1620 -0.6279
 9509SOL     OW40159   0.342   0.180   5.950 -0.1604  0.4381  0.4744
 9509SOL    HW140160   0.381   0.242   5.888 -0.3440  0.7225  0.6397
 9509SOL    HW240161   0.255   0.216   5.970 -0.0847  0.6895  0.3535
 9510SOL     OW40162   0.724   3.820   8.832 -0.3746  0.0070  0.2915
 9510SOL    HW140163   0.735   3.730   8.800  0.8365  0.5959 -0.9306
 9510SOL    HW240164   0.643   3.850   8.791  0.5874 -0.0658 -1.6604
 9511SOL     OW40165   2.376   3.246   7.283 -0.0592  0.4037  0.5171
 9511SOL    HW140166   2.412   3.167   7.322  1.4805  0.8327 -0.0127
 9511SOL    HW240167   2.432   3.305   7.334  2.0027  1.5869 -3.0331
 9512SOL     OW40168   1.098   4.182   8.647 -0.3054 -0.1033 -0.5305
 9512SOL    HW140169   1.090   4.260   8.593  3.0147  0.8905  0.4108
 9512SOL    HW240170   1.081   4.118   8.578  1.1378 -0.1199 -0.8768
 9513SOL     OW40171   1.726   0.212   2.794 -0.4801  0.0830  0.5701
 9513SOL    HW140172   1.776   0.265   2.732 -1.9281  0.9319  0.1185
 9513SOL    HW240173   1.717   0.137   2.736  0.9629 -0.4806  1.0933
 9514SOL     OW40174   3.722   1.354   5.028  0.3155 -0.7085 -0.4784
 9514SOL    HW140175   3.694   1.319   4.943 -1.1720  0.4103 -0.4438
 9514SOL    HW240176   3.817   1.343   5.021  0.4853  0.9525 -0.6068
 9515SOL     OW40177   4.000   2.367   7.752 -0.0606 -0.9263  0.5034
 9515SOL    HW140178   3.952   2.284   7.746  0.4957 -1.4238  2.9588
 9515SOL    HW240179   3.929   2.423   7.780  0.3769  0.1207 -0.4553
 9516SOL     OW40180   2.052   0.221   8.476  0.2176  0.5172 -0.3513
 9516SOL    HW140181   2.071   0.283   8.405 -1.2452 -0.2935 -1.4311
 9516SOL    HW240182   2.135   0.175   8.487 -1.5331 -2.8897 -1.4154
 9517SOL     OW40183   2.694   4.244   6.212  0.2554  0.4815 -0.4673
 9517SOL    HW140184   2.620   4.231   6.270 -0.1918  1.7641 -0.7638
 9517SOL    HW240185   2.667   4.318   6.157  0.0884  0.0306 -0.9865
 9518SOL     OW40186   4.580   0.779   5.360  0.1612  0.0035 -0.2280
 9518SOL    HW140187   4.568   0.835   5.283 -0.2658  1.0466  0.6033
 9518SOL    HW240188   4.509   0.719   5.336 -1.1582  1.5788 -0.3205
 9519SOL     OW40189   1.885   0.270  14.132 -0.2427 -0.5718 -0.1933
 9519SOL    HW140190   1.945   0.294  14.202 -0.1402 -1.1359 -0.0860
 9519SOL    HW240191   1.948   0.257  14.061 -0.5242  0.9610 -0.7230
 9520SOL     OW40192   2.446   2.859   6.382  0.4703 -0.3585 -0.3240
 9520SOL    HW140193   2.462   2.765   6.388 -0.2449 -0.3364  1.9474
 9520SOL    HW240194   2.385   2.862   6.309  0.5011 -1.5222 -0.3935
 9521SOL     OW40195   2.960   3.837   3.445 -0.3650 -0.0336 -0.3063
 9521SOL    HW140196   2.980   3.794   3.362  2.5461  2.8608 -1.1321
 9521SOL    HW240197   3.039   3.887   3.464 -1.0950  1.5345 -1.3727
 9522SOL     OW40198   1.869   0.848   9.974  0.3122  0.3108 -0.0794
 9522SOL    HW140199   1.903   0.937   9.981  0.2666  0.1069  3.0238
 9522SOL    HW240200   1.856   0.822   9.883 -3.2987  1.1340  0.1693
 9523SOL     OW40201   1.728   2.359   7.898  0.3144 -0.9183 -0.0703
 9523SOL    HW140202   1.724   2.367   7.802  0.1629  2.4811  0.2368
 9523SOL    HW240203   1.642   2.317   7.906  0.5711 -1.9838 -2.7278
 9524SOL     OW40204   0.445   1.109  15.813 -0.5146 -0.0959 -0.1845
 9524SOL    HW140205   0.442   1.103  15.908  1.1315 -1.3931 -0.2219
 9524SOL    HW240206   0.457   1.204  15.809 -1.9972  0.0829 -0.2341
 9525SOL     OW40207   2.597   4.082   3.060  0.0037  0.1062  0.5958
 9525SOL    HW140208   2.689   4.070   3.036  0.3088  0.4139  1.6064
 9525SOL    HW240209   2.588   4.178   3.068 -1.7472  0.1895 -2.5637
 9526SOL     OW40210   4.022   2.556   7.355 -0.2440  0.1368  0.6163
 9526SOL    HW140211   4.046   2.563   7.448  2.9666 -4.3368  0.1070
 9526SOL    HW240212   4.098   2.606   7.327 -0.7769  1.3297  1.2871
 9527SOL     OW40213   2.789   2.169   6.780  0.2997 -0.1510  0.0641
 9527SOL    HW140214   2.763   2.258   6.804 -0.6528 -0.6986  1.0886
 9527SOL    HW240215   2.856   2.177   6.712 -0.1667  0.6406 -0.3096
 9528SOL     OW40216   3.960   1.459   6.570 -0.1399  0.3032  0.2214
 9528SOL    HW140217   3.969   1.548   6.535  0.6252 -0.2965 -1.1041
 9528SOL    HW240218   3.947   1.472   6.664 -2.4181  0.4691 -0.1180
 9529SOL     OW40219   0.351   4.658   4.677  0.2940 -0.5983 -0.4379
 9529SOL    HW140220   0.313   4.574   4.649 -1.6795  0.8793 -2.2394
 9529SOL    HW240221   0.345   4.633   4.769 -1.0891 -0.9865 -0.6238
 9530SOL     OW40222   0.029   1.491   5.816  0.3969  0.1147  0.2905
 9530SOL    HW140223   4.685   1.520   5.849  1.2535  0.5634  2.0992
 9530SOL    HW240224   0.060   1.570   5.770  0.0085 -0.8805 -1.6691
 9531SOL     OW40225   1.488   0.339   2.803 -0.3015 -0.3199  0.6604
 9531SOL    HW140226   1.578   0.322   2.831  0.6646  0.3847 -1.9672
 9531SOL    HW240227   1.437   0.329   2.883  1.6846  0.9472  2.0995
 9532SOL     OW40228   3.995   2.034   8.326 -0.4079  0.0643  0.1385
 9532SOL    HW140229   4.040   1.972   8.268 -3.2675 -0.6804 -1.3084
 9532SOL    HW240230   4.037   2.012   8.409  2.5361  1.7456 -0.9385
 9533SOL     OW40231   3.482   0.007   7.571  0.1368 -0.5947 -0.0737
 9533SOL    HW140232   3.548   4.686   7.542 -0.0518 -0.3201 -1.0704
 9533SOL    HW240233   3.438   4.692   7.635 -1.2980 -1.1758 -1.5960
 9534SOL     OW40234   0.420   4.682  11.936 -0.1431 -0.3940 -0.2984
 9534SOL    HW140235   0.467   4.656  12.015 -0.6259  0.2951  0.2185
 9534SOL    HW240236   0.490   4.685  11.871 -1.5633 -0.4023 -1.8312
 9535SOL     OW40237   1.884   2.042   8.707  0.2301 -0.1849 -0.5802
 9535SOL    HW140238   1.975   2.038   8.678  0.3102 -0.7098 -0.2433
 9535SOL    HW240239   1.858   1.949   8.704 -0.5518 -0.0045  0.9787
 9536SOL     OW40240   2.237   1.674   8.240  0.0625 -0.0088 -0.0997
 9536SOL    HW140241   2.285   1.620   8.177  0.1791  0.2922 -0.2695
 9536SOL    HW240242   2.301   1.683   8.311  0.0979  0.8786 -0.2497
 9537SOL     OW40243   4.289   0.560   8.550  0.3533 -1.0492 -0.3233
 9537SOL    HW140244   4.280   0.590   8.460  1.0400 -1.6186 -0.5748
 9537SOL    HW240245   4.360   0.611   8.589 -1.4110  0.7355  0.5774
 9538SOL     OW40246   4.642   1.239   9.181  0.1437  0.1468 -0.4779
 9538SOL    HW140247   4.639   1.332   9.160  0.3963  0.1045 -0.6925
 9538SOL    HW240248   4.720   1.238   9.236 -0.0819 -1.1956 -0.1579
 9539SOL     OW40249   4.343   3.111   5.516 -0.2697  0.4809 -0.4302
 9539SOL    HW140250   4.354   3.162   5.596  0.0298 -0.6433  0.2445
 9539SOL    HW240251   4.433   3.126   5.489 -0.1240  0.1143 -0.1526
 9540SOL     OW40252   2.473   3.141  14.562  0.0155 -0.7634 -0.1735
 9540SOL    HW140253   2.436   3.179  14.482  1.6147 -1.1096 -1.0852
 9540SOL    HW240254   2.547   3.098  14.518 -0.2877 -2.1869  0.6922
 9541SOL     OW40255   2.813   3.383   2.242  0.1510  0.2566  0.5744
 9541SOL    HW140256   2.747   3.326   2.282 -1.0196  0.6675 -0.7587
 9541SOL    HW240257   2.775   3.393   2.155  0.8450 -1.6570  0.0305
 9542SOL     OW40258   4.341   1.205   0.525  0.0295 -0.3207 -0.3720
 9542SOL    HW140259   4.414   1.265   0.509  2.3971 -2.7065  1.2782
 9542SOL    HW240260   4.364   1.163   0.608  2.7984 -1.3220 -1.6503
 9543SOL     OW40261   4.015   2.919  12.570  0.3810 -0.1279 -0.3210
 9543SOL    HW140262   4.079   2.959  12.512  2.5793 -1.5518  1.1361
 9543SOL    HW240263   3.963   2.855  12.521  0.0587  0.9008 -1.3131
 9544SOL     OW40264   0.529   2.343   5.173 -0.3668 -0.3584 -0.7088
 9544SOL    HW140265   0.441   2.341   5.210  1.2346  0.3342  3.0838
 9544SOL    HW240266   0.587   2.284   5.221  0.7191  0.3358 -1.1562
 9545SOL     OW40267   1.324   1.836   0.554 -0.3473  0.6499  0.0207
 9545SOL    HW140268   1.343   1.772   0.622 -0.6448  0.8085  0.2522
 9545SOL    HW240269   1.407   1.883   0.560  0.9055 -1.7240  1.1779
 9546SOL     OW40270   1.427   0.050   8.638  0.1051  0.4561  0.5053
 9546SOL    HW140271   1.517   0.082   8.649  0.2440 -0.2011  1.3103
 9546SOL    HW240272   1.439   4.712   8.585 -0.4527  0.2974  0.6197
 9547SOL     OW40273   0.191   2.614   8.163  0.7407  0.2918 -0.3525
 9547SOL    HW140274   0.275   2.612   8.209  0.2159 -1.4660  0.5420
 9547SOL    HW240275   0.223   2.574   8.082  0.6417 -1.4421  0.4656
 9548SOL     OW40276   3.837   0.473   1.863  0.3175 -0.0383 -0.6958
 9548SOL    HW140277   3.808   0.462   1.773  1.1582  2.6849 -1.2740
 9548SOL    HW240278   3.929   0.485   1.841  0.8225 -1.1599  0.7637
 9549SOL     OW40279   1.308   3.543  15.732 -0.4353 -0.0908  0.7590
 9549SOL    HW140280   1.221   3.519  15.700 -0.1892  1.2170 -0.9174
 9549SOL    HW240281   1.311   3.481  15.805  1.3407 -0.2297  0.5885
 9550SOL     OW40282   2.744   1.222   2.866  0.0552 -0.1090 -0.0513
 9550SOL    HW140283   2.698   1.175   2.796 -0.0386 -0.2920  0.1324
 9550SOL    HW240284   2.832   1.210   2.833 -0.5377  1.9581 -2.4372
 9551SOL     OW40285   2.891   3.474   8.720 -0.1594  0.4949  0.1320
 9551SOL    HW140286   2.836   3.448   8.646 -1.1796  2.0052  0.3586
 9551SOL    HW240287   2.947   3.530   8.666 -1.3869  0.9181 -0.7131
 9552SOL     OW40288   1.646   1.876   9.204 -0.4150 -0.5462  0.3481
 9552SOL    HW140289   1.724   1.822   9.213 -0.1808 -0.2468  0.0823
 9552SOL    HW240290   1.684   1.964   9.206 -1.0243 -0.2646 -0.2658
 9553SOL     OW40291   1.495   3.107   2.163 -0.5162 -0.0916  0.1673
 9553SOL    HW140292   1.483   3.173   2.231  0.0432 -0.2636  0.4410
 9553SOL    HW240293   1.553   3.041   2.201  0.4334  0.3863 -0.4746
 9554SOL     OW40294   1.399   3.257   5.735 -0.0035  0.0354 -0.2778
 9554SOL    HW140295   1.324   3.312   5.755  0.2508  0.0067  0.7564
 9554SOL    HW240296   1.365   3.169   5.717  0.1268 -0.1351  0.3065
 9555SOL     OW40297   2.930   1.756   3.751 -0.1667  0.6693  0.1251
 9555SOL    HW140298   2.892   1.675   3.786 -1.4000  1.4312  0.5208
 9555SOL    HW240299   3.023   1.734   3.750 -0.5847 -1.1110 -0.8762
 9556SOL     OW40300   0.885   2.644   9.244  0.1591  0.7041 -0.3377
 9556SOL    HW140301   0.820   2.632   9.175 -0.4868  0.8538  0.2441
 9556SOL    HW240302   0.845   2.702   9.309  0.9049  0.6164  0.2059
 9557SOL     OW40303   3.931   4.317   7.698  0.5584  0.3249 -0.4553
 9557SOL    HW140304   3.943   4.222   7.690  0.7911  0.1800  1.6808
 9557SOL    HW240305   3.837   4.323   7.717  0.4586 -0.4853 -0.6956
 9558SOL     OW40306   4.444   1.967   5.759 -0.1076 -0.1906 -0.9120
 9558SOL    HW140307   4.493   1.886   5.754  2.9352  1.5807  0.2646
 9558SOL    HW240308   4.402   1.974   5.673 -1.7334  0.8580 -0.0437
 9559SOL     OW40309   2.584   2.227   5.131 -0.3955 -0.5079 -0.0362
 9559SOL    HW140310   2.672   2.224   5.168 -0.2682 -0.7545 -0.3610
 9559SOL    HW240311   2.586   2.306   5.077  1.6193  0.3121  1.2574
 9560SOL     OW40312   0.194   0.921  15.962  0.0597 -0.3641  0.2053
 9560SOL    HW140313   0.166   0.863  15.891 -1.4018  0.9198 -0.2716
 9560SOL    HW240314   0.289   0.907  15.961  0.4948  2.4246  0.8322
 9561SOL     OW40315   1.336   3.331   9.317 -0.2087 -0.2398 -0.3364
 9561SOL    HW140316   1.378   3.304   9.236  0.9537  2.0576 -0.4896
 9561SOL    HW240317   1.384   3.412   9.335 -2.0342  0.2365  2.3781
 9562SOL     OW40318   0.638   3.369  10.779  0.3626  0.1232  0.0361
 9562SOL    HW140319   0.604   3.449  10.820 -0.1268 -0.7275  1.2777
 9562SOL    HW240320   0.564   3.340  10.726 -2.5329  1.8772  3.1019
 9563SOL     OW40321   2.429   3.732   6.836 -0.3878 -0.1083 -0.3870
 9563SOL    HW140322   2.412   3.795   6.906 -0.0235 -0.7929  0.3306
 9563SOL    HW240323   2.356   3.671   6.848 -0.0567  0.1371  3.0124
 9564SOL     OW40324   0.080   0.942   4.874  0.5827  0.1038  0.6356
 9564SOL    HW140325   0.085   0.847   4.874  0.3035  0.0824  1.8174
 9564SOL    HW240326   4.726   0.950   4.876  0.5430 -0.6350  1.6728
 9565SOL     OW40327   2.606   1.315   1.252  0.8721  0.3316  0.0079
 9565SOL    HW140328   2.581   1.228   1.221 -0.0077  0.1062  1.3773
 9565SOL    HW240329   2.604   1.297   1.346  1.9485  0.2482  0.0107
 9566SOL     OW40330   3.233   0.004  12.784 -0.3114  0.2983 -0.2280
 9566SOL    HW140331   3.310   0.011  12.840 -0.6164 -0.9094  0.3433
 9566SOL    HW240332   3.234   0.087  12.737 -0.5898  0.4627  0.0610
 9567SOL     OW40333   4.356   0.042   0.849 -0.2701  0.6345  0.0026
 9567SOL    HW140334   4.349   0.074   0.939  2.8957  0.2318  0.4098
 9567SOL    HW240335   4.399   0.114   0.803 -1.4205  1.1404 -0.2638
 9568SOL     OW40336   0.455   4.181   6.481  0.8033 -0.0289  0.4921
 9568SOL    HW140337   0.361   4.165   6.473  0.5358  0.6725  2.0748
 9568SOL    HW240338   0.456   4.274   6.502  1.6876 -0.0712  0.6171
 9569SOL     OW40339   2.454   1.545   1.805  0.2366  0.2106 -0.3028
 9569SOL    HW140340   2.377   1.494   1.778  0.6986 -1.2068  1.0531
 9569SOL    HW240341   2.424   1.636   1.812  0.3574  0.1522  0.9312
 9570SOL     OW40342   0.676   1.382   9.512  0.8673  0.1169 -0.0762
 9570SOL    HW140343   0.702   1.296   9.546  0.4463 -1.2290 -3.1028
 9570SOL    HW240344   0.659   1.353   9.422  2.4883  3.9034 -1.5719
 9571SOL     OW40345   3.941   2.959  15.623  0.5956 -0.0898 -0.1758
 9571SOL    HW140346   3.881   3.021  15.663  0.6715  0.5266 -1.0170
 9571SOL    HW240347   3.881   2.907  15.569 -0.0477 -1.1227  1.5326
   4.74097   4.74097  17.76125
